/*--------------------------------*- C++ -*----------------------------------*\
| =========                 |                                                 |
| \\      /  F ield         | OpenFOAM: The Open Source CFD Toolbox           |
|  \\    /   O peration     | Version:  3.0.1                                 |
|   \\  /    A nd           | Web:      www.OpenFOAM.org                      |
|    \\/     M anipulation  |                                                 |
\*---------------------------------------------------------------------------*/
FoamFile
{
    version     2.0;
    format      ascii;
    class       surfaceScalarField;
    location    "8.1";
    object      phi;
}
// * * * * * * * * * * * * * * * * * * * * * * * * * * * * * * * * * * * * * //

dimensions      [0 3 -1 0 0 0 0];

internalField   nonuniform List<scalar> 
22672
(
5.06101827747e-07
3.29724262315e-07
-8.35820724519e-07
1.98640741196e-06
-8.29367011235e-08
-1.39736262654e-06
3.71484317454e-06
-2.34130736764e-07
-1.49429843559e-06
5.15128331129e-06
-2.0744627349e-07
-1.22898718112e-06
5.98268019545e-06
1.96291873919e-08
-8.51019479586e-07
6.09690394084e-06
3.43007172251e-07
-4.57224600405e-07
5.57541856403e-06
6.59420101024e-07
-1.37928867341e-07
4.5023718351e-06
9.46315604525e-07
1.26736343011e-07
3.04819436448e-06
1.15323151329e-06
3.0095038483e-07
1.41520769564e-06
1.25841665657e-06
3.74573554221e-07
-2.03779436381e-07
1.25988899392e-06
3.59100799787e-07
-1.63016577015e-06
1.16026327004e-06
2.66124984377e-07
-2.71174671352e-06
9.7530386599e-07
1.06278537239e-07
-3.33073248672e-06
7.25684394338e-07
-1.06697233884e-07
-3.43936945218e-06
4.57872221148e-07
-3.49233516481e-07
-2.99869282721e-06
1.97678318118e-07
-6.38352483906e-07
-2.11555074527e-06
4.10251194061e-08
-9.24163799475e-07
-1.02293676216e-06
4.07487056047e-08
-1.13335822762e-06
-1.30956717823e-07
1.65759314613e-07
-1.05773375541e-06
4.75121597917e-07
-6.06074171289e-07
1.42999480106e-07
1.52837864623e-06
-1.34164753009e-06
2.00740915133e-06
1.46058275839e-06
-3.40792194018e-06
4.14064962114e-06
1.55057387674e-06
-3.91793759216e-06
5.77262862755e-06
1.83239151979e-06
-3.67180927206e-06
6.65660595417e-06
2.30767730457e-06
-3.17201808662e-06
6.72860364027e-06
2.88273790439e-06
-2.61172143756e-06
6.0811179157e-06
3.41349942166e-06
-2.10658719723e-06
4.85796934331e-06
3.86138315205e-06
-1.69191335191e-06
3.24506453443e-06
4.17643659028e-06
-1.41029557917e-06
1.4508581606e-06
4.33795459248e-06
-1.28532789073e-06
-3.21299111916e-07
4.34415022385e-06
-1.31210126522e-06
-1.88383255342e-06
4.19785427651e-06
-1.47505565995e-06
-3.08210335516e-06
3.91884478981e-06
-1.74526866191e-06
-3.79174951797e-06
3.53036215198e-06
-2.0950301354e-06
-3.92592502538e-06
3.0803351684e-06
-2.48828552206e-06
-3.44014211744e-06
2.60757778983e-06
-2.89567963094e-06
-2.38197413995e-06
2.21849105893e-06
-3.23563014163e-06
-9.5440432161e-07
1.98322579035e-06
-3.37004205948e-06
2.31311602363e-07
1.87957248639e-06
-2.89952329448e-06
1.84823289156e-06
-1.14179560618e-06
1.71020498098e-08
2.95214123464e-06
-1.44085776973e-06
2.13213900475e-06
3.28058859525e-06
-3.93503508052e-06
4.48364096672e-06
3.57456044105e-06
-4.37548055058e-06
6.20787864071e-06
4.04486072047e-06
-3.93669891407e-06
7.0819372121e-06
4.68376831024e-06
-3.25014184843e-06
7.09918288407e-06
5.40417833601e-06
-2.53867881977e-06
6.37189799255e-06
6.0624071746e-06
-1.92161623568e-06
5.06230680436e-06
6.6124924296e-06
-1.44151232495e-06
3.36275955921e-06
7.00579715913e-06
-1.12980858621e-06
1.48604293741e-06
7.21149033056e-06
-9.96815487678e-07
-3.65390619192e-07
7.23019418497e-06
-1.03460783333e-06
-2.00757889483e-06
7.0663452208e-06
-1.22630094005e-06
-3.28300338055e-06
6.74056665548e-06
-1.54629612632e-06
-4.06126763528e-06
6.28239579912e-06
-1.97376815064e-06
-4.23923022313e-06
5.73502579955e-06
-2.47672634824e-06
-3.75276511157e-06
5.14079417694e-06
-3.01967898379e-06
-2.61983820166e-06
4.60153357239e-06
-3.51596590682e-06
-1.01967712712e-06
4.18222983888e-06
-3.79916058348e-06
3.63821979811e-07
3.86873835516e-06
-3.37265957334e-06
3.45869025784e-06
-1.24663166989e-06
3.79570426128e-08
4.12711595318e-06
-1.21292455865e-06
2.42020199011e-06
4.65704985091e-06
-3.75869819816e-06
4.97206273002e-06
5.03629852355e-06
-4.01359059576e-06
6.78052513124e-06
5.58269598208e-06
-3.34628949745e-06
7.64031883464e-06
6.28082163593e-06
-2.45683914228e-06
7.58120569947e-06
7.05125584602e-06
-1.58795697941e-06
6.74730478122e-06
7.75603304324e-06
-8.59718264211e-07
5.32780020004e-06
8.34961295817e-06
-3.17610183456e-07
3.51760999457e-06
8.77568428303e-06
4.03077476399e-08
1.53926839195e-06
9.00891563406e-06
1.80919781293e-07
-4.12602626255e-07
9.04520451882e-06
1.36863038624e-07
-2.15875799621e-06
8.89245493124e-06
-7.99528895765e-08
-3.53771320375e-06
8.57036830854e-06
-4.50845522568e-07
-4.41461108152e-06
8.10725738576e-06
-9.47962850387e-07
-4.66423044192e-06
7.54624285875e-06
-1.56159644828e-06
-4.19696661737e-06
6.92713333654e-06
-2.25360098728e-06
-3.00279128341e-06
6.3425345171e-06
-2.93517336099e-06
-1.24780489611e-06
5.84828804332e-06
-3.4210407334e-06
3.45488313653e-07
5.43705093629e-06
-3.16160116183e-06
4.8207843818e-06
-1.01660267799e-06
2.34477410947e-07
4.78488024699e-06
-8.92234398624e-07
2.8855075862e-06
5.35942678103e-06
-3.353399069e-06
5.61243812856e-06
5.73553817206e-06
-3.42616197205e-06
7.48850722836e-06
6.26307233347e-06
-2.55643731798e-06
8.32201068362e-06
6.92870095451e-06
-1.48137493315e-06
8.17445978281e-06
7.66243733019e-06
-4.63623243416e-07
7.21750123203e-06
8.3371622097e-06
3.7583599949e-07
5.657660522e-06
8.91437860779e-06
9.95080723271e-07
3.71668647862e-06
9.33778650511e-06
1.37887633992e-06
1.61080096625e-06
9.57825312761e-06
1.5365512961e-06
-4.6502357688e-07
9.63217291997e-06
1.48885823046e-06
-2.33754875153e-06
9.50891949869e-06
1.25606173089e-06
-3.84740648819e-06
9.22844140727e-06
8.51785166944e-07
-4.84173611683e-06
8.8186775048e-06
2.829098965e-07
-5.18139379381e-06
8.31833005717e-06
-4.32428838414e-07
-4.75341426726e-06
7.75966017971e-06
-1.26050504925e-06
-3.52118850622e-06
7.22219569253e-06
-2.11188480543e-06
-1.63867895538e-06
6.74848535147e-06
-2.7827038899e-06
1.59678355564e-07
6.33375537833e-06
-2.69505810886e-06
5.64827952245e-06
-6.67814353698e-07
5.44485795924e-07
4.8031459079e-06
-5.62744334628e-07
3.44481265734e-06
5.34477370903e-06
-2.88566602792e-06
6.32545482668e-06
5.6682328997e-06
-2.81332897473e-06
8.25906959126e-06
6.11646014239e-06
-1.78699472316e-06
9.06217816069e-06
6.68863028473e-06
-5.63030306686e-07
8.82088121272e-06
7.32212749187e-06
5.8161391991e-07
7.73749077545e-06
7.91418748799e-06
1.50637159969e-06
6.03348303201e-06
8.43141703852e-06
2.18697481194e-06
3.9465920096e-06
8.81831006831e-06
2.60637180055e-06
1.69918664513e-06
9.04733563024e-06
2.77832592942e-06
-5.14270930029e-07
9.11550989434e-06
2.73012243531e-06
-2.52382080814e-06
9.03379980607e-06
2.48467038505e-06
-4.1684171055e-06
8.8208097944e-06
2.05222805744e-06
-5.28685041882e-06
8.50157338131e-06
1.43553734758e-06
-5.72722782523e-06
8.10936105698e-06
6.49346498272e-07
-5.34944760574e-06
7.66933415754e-06
-2.87453596756e-07
-4.09721205175e-06
7.23794325854e-06
-1.26798183275e-06
-2.11308598946e-06
6.84700234806e-06
-2.08264104167e-06
-1.268591497e-07
6.48597642545e-06
-2.13844528816e-06
5.80790826051e-06
-2.86486173137e-07
8.47497027057e-07
4.24972776798e-06
-2.94072238615e-07
3.96381353759e-06
4.68471095117e-06
-2.45624655855e-06
6.97917899848e-06
4.93088193789e-06
-2.27800713926e-06
8.96598076554e-06
5.27105017726e-06
-1.14138445612e-06
9.74498118944e-06
5.71538562403e-06
1.94251412698e-07
9.42597744773e-06
6.21633725453e-06
1.42480078989e-06
8.23148351327e-06
6.6917578915e-06
2.41692972992e-06
6.39690080384e-06
7.11698431631e-06
3.14902074261e-06
4.17483592976e-06
7.44177917003e-06
3.59859994894e-06
1.79667399108e-06
7.64379215933e-06
3.78170831246e-06
-5.41059613e-07
7.72227399627e-06
3.73097115263e-06
-2.67109255944e-06
7.68974863174e-06
3.47408470997e-06
-4.43176191484e-06
7.56023660624e-06
3.02124239678e-06
-5.65702021653e-06
7.35375843121e-06
2.37307276986e-06
-6.18397213008e-06
7.09495764745e-06
1.54135489731e-06
-5.85830899133e-06
6.80028123545e-06
5.43389730582e-07
-4.59997157752e-06
6.50798139967e-06
-5.28375047436e-07
-2.54259716928e-06
6.22980286555e-06
-1.44017379695e-06
-3.96666180002e-07
5.94860608651e-06
-1.60855902566e-06
5.36964703753e-06
4.15961071736e-08
1.12485908489e-06
3.20137806436e-06
-7.65034456417e-08
4.40338153639e-06
3.50310829285e-06
-2.09691339628e-06
7.5254499258e-06
3.66551680531e-06
-1.85669666193e-06
9.55877572022e-06
3.8914222816e-06
-6.53691221845e-07
1.0325679078e-05
4.19496368946e-06
7.53525213535e-07
9.95005929227e-06
4.5463461222e-06
2.04561732591e-06
8.66772875974e-06
4.88602698077e-06
3.08806735885e-06
6.72329406928e-06
5.19689333751e-06
3.86453078617e-06
4.38438277928e-06
5.44113221992e-06
4.33956228177e-06
1.89729372388e-06
5.60443551798e-06
4.5264484981e-06
-5.41034524618e-07
5.68956821481e-06
4.47103558777e-06
-2.76799666097e-06
5.71140465948e-06
4.20530658352e-06
-4.62055608743e-06
5.6756245997e-06
3.73717111408e-06
-5.92895639006e-06
5.59264427147e-06
3.0695137143e-06
-6.52423947546e-06
5.47702403343e-06
2.2132158862e-06
-6.2420712977e-06
5.33774899162e-06
1.18036349383e-06
-4.98989998015e-06
5.19033730724e-06
6.54726401678e-08
-2.88836882625e-06
5.03575881869e-06
-9.07486723311e-07
-6.37880904125e-07
4.84779861578e-06
-1.14967964827e-06
4.40211659968e-06
3.29650060974e-07
1.32700320881e-06
1.80397919546e-06
7.04007205266e-08
4.71600404905e-06
1.96035989981e-06
-1.8462469952e-06
7.91446838393e-06
2.0423452721e-06
-1.57528709946e-06
9.98755776579e-06
2.16183797999e-06
-3.43499177268e-07
1.07503351544e-05
2.32495076632e-06
1.10724154936e-06
1.03394239382e-05
2.52230184867e-06
2.4349614327e-06
8.99742216737e-06
2.71954339226e-06
3.50849094909e-06
6.97344394255e-06
2.90667804551e-06
4.31419841894e-06
4.55429032871e-06
3.06823761502e-06
4.79205212845e-06
1.98739628745e-06
3.19351228739e-06
4.97781999997e-06
-5.18816979757e-07
3.28588931104e-06
4.90989368612e-06
-2.79593536155e-06
3.35652221493e-06
4.63200125567e-06
-4.70245647407e-06
3.41217327189e-06
4.1699720358e-06
-6.06425633178e-06
3.45502409192e-06
3.49941912712e-06
-6.70785452766e-06
3.47984567828e-06
2.64077547194e-06
-6.46325990045e-06
3.49097920926e-06
1.6021742011e-06
-5.22679233188e-06
3.48350389656e-06
4.70365217214e-07
-3.11274636322e-06
3.4456188619e-06
-5.23906207432e-07
-8.12015562823e-07
3.35153349054e-06
-8.0446551242e-07
3.0632261341e-06
5.26875023209e-07
1.43461535918e-06
2.32143681038e-07
1.37224257048e-07
4.87991651174e-06
2.41753783282e-07
-1.7266905997e-06
8.12069572331e-06
2.47647044207e-07
-1.44607623753e-06
1.02178035506e-05
2.64703150602e-07
-1.99967929507e-07
1.09845923081e-05
2.94953625474e-07
1.26321371385e-06
1.05605951103e-05
3.39820252733e-07
2.60648420479e-06
9.19184547358e-06
3.95798890312e-07
3.69249933252e-06
7.13024866703e-06
4.61852454241e-07
4.50642701557e-06
4.67800707694e-06
5.34723110752e-07
4.98575980869e-06
2.0807762386e-06
6.21983118451e-07
5.16876260707e-06
-4.47621857556e-07
7.26347322967e-07
5.08794151597e-06
-2.74110522758e-06
8.52692506533e-07
4.79731344225e-06
-4.66501182608e-06
9.99837042905e-07
4.33624234428e-06
-6.04710536608e-06
1.15842300017e-06
3.67869359726e-06
-6.71647545222e-06
1.316305826e-06
2.83290866319e-06
-6.50092956898e-06
1.46734011931e-06
1.80809197167e-06
-5.29205935502e-06
1.58892025464e-06
6.85712442848e-07
-3.2000836854e-06
1.65846834581e-06
-3.04825770763e-07
-8.98923321633e-07
1.65776453334e-06
-6.07391699145e-07
1.53570990798e-06
6.2859275455e-07
1.44353477002e-06
-1.33008816359e-06
1.18700199035e-07
4.89041778494e-06
-1.46234983053e-06
-1.74277599181e-06
8.13623347519e-06
-1.53065395809e-06
-1.46751091513e-06
1.02419334351e-05
-1.61531794391e-06
-2.25674665095e-07
1.10182038654e-05
-1.71784736485e-06
1.23653514902e-06
1.06035353526e-05
-1.82483458932e-06
2.57932815026e-06
9.24417274408e-06
-1.90805903214e-06
3.66322522041e-06
7.19292039216e-06
-1.95978789417e-06
4.47289690671e-06
4.75375465694e-06
-1.97023786572e-06
4.94413009289e-06
2.17482546646e-06
-1.91665417641e-06
5.11756881944e-06
-3.313883602e-07
-1.79761455017e-06
5.0301769234e-06
-2.60252061644e-06
-1.6152804418e-06
4.73910540376e-06
-4.50729145593e-06
-1.38032915877e-06
4.28493641542e-06
-5.87928893999e-06
-1.11299279798e-06
3.64341210091e-06
-6.55266305508e-06
-8.27874675806e-07
2.81755316781e-06
-6.35780124578e-06
-5.44203154249e-07
1.8166800164e-06
-5.1867960456e-06
-3.00436334166e-07
7.18350156528e-07
-3.14767254407e-06
-1.28248868632e-07
-2.52407169545e-07
-8.9516406777e-07
-3.69050186448e-08
-5.57839475545e-07
2.14196385289e-09
6.38403605637e-07
1.35415925969e-06
-2.70253779303e-06
1.8292546352e-08
4.7479678915e-06
-2.96860020867e-06
-1.88755583958e-06
7.96230167902e-06
-3.11292033209e-06
-1.63206459848e-06
1.00616443561e-05
-3.30240478449e-06
-4.12252518659e-07
1.08536213974e-05
-3.54457137602e-06
1.03475076452e-06
1.04713302163e-05
-3.80449491304e-06
2.36195559156e-06
9.15798860845e-06
-4.0257506084e-06
3.43103724108e-06
7.16541266025e-06
-4.19379288364e-06
4.22658457881e-06
4.78465099889e-06
-4.27435490048e-06
4.68488157747e-06
2.27016522613e-06
-4.24999691874e-06
4.84783041937e-06
-1.73288773074e-07
-4.1177729509e-06
4.76361326912e-06
-2.3839472465e-06
-3.88827423646e-06
4.48365218684e-06
-4.23490435782e-06
-3.57323373143e-06
4.04386083956e-06
-5.56903048627e-06
-3.19624388088e-06
3.41737585305e-06
-6.22454203641e-06
-2.78828818897e-06
2.61592346118e-06
-6.03992452706e-06
-2.37498017459e-06
1.64615792576e-06
-4.91596961727e-06
-2.00811649193e-06
5.83723899359e-07
-2.95578206337e-06
-1.73004403653e-06
-3.58393351492e-07
-8.00860795941e-07
-1.55192647205e-06
-6.39900396364e-07
-1.36911265913e-06
5.70393606049e-07
1.17123198257e-06
-3.73213792836e-06
-1.41630551477e-07
4.46043045498e-06
-4.11099529753e-06
-2.14680189831e-06
7.61081783945e-06
-4.33244804857e-06
-1.93085776629e-06
9.68833182108e-06
-4.63393846317e-06
-7.45977859148e-07
1.05053487929e-05
-5.01549473448e-06
6.53909352878e-07
1.0178937912e-05
-5.42523790404e-06
1.94715717577e-06
8.94541410813e-06
-5.77941983554e-06
2.98719634975e-06
7.05369827656e-06
-6.05654043287e-06
3.75446633436e-06
4.77782359523e-06
-6.20863525304e-06
4.21015729241e-06
2.37110461482e-06
-6.21493908737e-06
4.37166251495e-06
2.943236108e-08
-6.07392442507e-06
4.29782416009e-06
-2.09651827918e-06
-5.79832711455e-06
4.03600310702e-06
-3.86567973271e-06
-5.40714862866e-06
3.60307527511e-06
-5.13336933642e-06
-4.92979570045e-06
3.00123991677e-06
-5.74939559463e-06
-4.40412940643e-06
2.23186579617e-06
-5.56457117833e-06
-3.86528105739e-06
1.30547487144e-06
-4.49115418596e-06
-3.37891989954e-06
2.97385129716e-07
-2.6360035814e-06
-2.9951883774e-06
-5.90007086293e-07
-6.23923372117e-07
-2.73263940305e-06
-8.31367629513e-07
-2.43042119306e-06
4.37385174769e-07
9.16238811223e-07
-4.28331978606e-06
-3.65056438826e-07
4.05025016186e-06
-4.75088692916e-06
-2.49411906388e-06
7.10651855332e-06
-5.04258513623e-06
-2.34613023949e-06
9.1556645852e-06
-5.44856233054e-06
-1.23452055349e-06
1.00054138017e-05
-5.95815556461e-06
9.29137559488e-08
9.7569375814e-06
-6.50226291241e-06
1.32550372488e-06
8.63180582981e-06
-6.97448156945e-06
2.32019602721e-06
6.87012781721e-06
-7.3440000472e-06
3.04913985742e-06
4.7338700269e-06
-7.5582952704e-06
3.48591942728e-06
2.46115484333e-06
-7.59333043391e-06
3.65110737075e-06
2.46110052202e-07
-7.44929538985e-06
3.5904157957e-06
-1.75777026161e-06
-7.14136490308e-06
3.34691743434e-06
-3.41612618918e-06
-6.69168460887e-06
2.94289070047e-06
-4.59246685391e-06
-6.13267408578e-06
2.37921752262e-06
-5.14926137595e-06
-5.50675089611e-06
1.65941441511e-06
-4.95418406321e-06
-4.85875582315e-06
7.98396045126e-07
-3.93483702339e-06
-4.264998475e-06
-1.33269455213e-07
-2.20690501045e-06
-3.78929891351e-06
-9.33821898968e-07
-3.79628861343e-07
-3.45311622769e-06
-1.10679917393e-06
-3.05980554459e-06
2.49755910017e-07
6.37052001186e-07
-4.29364889852e-06
-6.2672302597e-07
3.56605138405e-06
-4.7864005353e-06
-2.89348582263e-06
6.49860582887e-06
-5.12410168125e-06
-2.85103756353e-06
8.50981668373e-06
-5.60578966793e-06
-1.85398265712e-06
9.40312759814e-06
-6.20919097493e-06
-6.42274127618e-07
9.25210839013e-06
-6.85836875574e-06
5.07126786892e-07
8.25774545481e-06
-7.42001470667e-06
1.43989789157e-06
6.64591227139e-06
-7.85774058433e-06
2.12557530721e-06
4.66401489384e-06
-8.1195293434e-06
2.54313254606e-06
2.5419276163e-06
-8.18073497168e-06
2.70949228137e-06
4.71524504593e-07
-8.04307247723e-06
2.66418002478e-06
-1.39353669078e-06
-7.72203925606e-06
2.44573481767e-06
-2.92237520767e-06
-7.24012165778e-06
2.07727443002e-06
-3.98768245393e-06
-6.63088852593e-06
1.56352035139e-06
-4.46825769883e-06
-5.93834711002e-06
9.12170171734e-07
-4.25384115616e-06
-5.21679379093e-06
1.43620445276e-07
-3.29386270294e-06
-4.54974610029e-06
-6.75231274881e-07
-1.71281894625e-06
-4.01097488865e-06
-1.35936755798e-06
-1.10631890893e-07
-3.62500974945e-06
-1.43029265035e-06
-3.19412007715e-06
2.36835943958e-08
3.56501961964e-07
-3.71342565621e-06
-9.36725843675e-07
3.04866201479e-06
-4.16221603906e-06
-3.31634514496e-06
5.83606470166e-06
-4.49980055083e-06
-3.41170407116e-06
7.80176959696e-06
-4.99950979682e-06
-2.57198453373e-06
8.74062181354e-06
-5.63804769978e-06
-1.50999476469e-06
8.70066101673e-06
-6.33113523267e-06
-4.87271627529e-07
7.85081699002e-06
-6.93660916412e-06
3.66439728371e-07
6.40151009192e-06
-7.40793791299e-06
9.99505353146e-07
4.58310048436e-06
-7.69592187279e-06
1.39480292828e-06
2.61830419154e-06
-7.77901348967e-06
1.56307514901e-06
6.98596250408e-07
-7.65942156649e-06
1.53605689878e-06
-1.0205554034e-06
-7.35119326409e-06
1.34830512285e-06
-2.4110278698e-06
-6.87505877572e-06
1.02540876641e-06
-3.35543540463e-06
-6.26448994793e-06
5.78008053331e-07
-3.7526154334e-06
-5.56345939991e-06
2.22915753542e-08
-3.51297156634e-06
-4.82589364067e-06
-6.30544343463e-07
-2.61700247174e-06
-4.14725592491e-06
-1.29845896774e-06
-1.19532342299e-06
-3.60418997344e-06
-1.82846292032e-06
1.67668268446e-07
-3.21712703172e-06
-1.77087265839e-06
-2.80512692864e-06
-2.2132334501e-07
1.80972363679e-07
-2.6535526884e-06
-1.24084632021e-06
2.61937542068e-06
-2.92339755922e-06
-3.67722252733e-06
5.23762481994e-06
-3.18018301707e-06
-3.93786762532e-06
7.14312701878e-06
-3.60982289138e-06
-3.29518934691e-06
8.11863499158e-06
-4.196624191e-06
-2.41693124093e-06
8.18001681984e-06
-4.85156724721e-06
-1.54094916726e-06
7.46824328184e-06
-5.43036365736e-06
-7.9447108655e-07
6.17299569706e-06
-5.88480702513e-06
-2.27882396464e-07
4.50138857242e-06
-6.17336226307e-06
1.49048261015e-07
2.67760367502e-06
-6.27148028456e-06
3.16252162999e-07
8.9374230446e-07
-6.18361909307e-06
3.08059056179e-07
-6.916161023e-07
-5.92178035595e-06
1.55945378963e-07
-1.95041467867e-06
-5.50003993515e-06
-1.16220556919e-07
-2.77898770646e-06
-4.95221865513e-06
-4.83698546663e-07
-3.09402135539e-06
-4.31927480281e-06
-9.29150978807e-07
-2.83557649736e-06
-3.65544286824e-06
-1.42889516333e-06
-2.00900716847e-06
-3.05394249365e-06
-1.91988161071e-06
-7.55555952377e-07
-2.5929713322e-06
-2.2646679449e-06
3.65162514522e-07
-2.28010390874e-06
-2.05773897268e-06
-1.98651101123e-06
-4.53451331486e-07
1.73367229887e-07
-1.3638166351e-06
-1.46310451289e-06
2.35835814982e-06
-1.28156010755e-06
-3.8268296417e-06
4.77959996372e-06
-1.35142539794e-06
-4.25000044004e-06
6.60282712727e-06
-1.60877841835e-06
-3.82427221072e-06
7.59565644281e-06
-2.04626368496e-06
-3.14318989469e-06
7.73915612404e-06
-2.57326018056e-06
-2.42180635013e-06
7.14204350642e-06
-3.05047800369e-06
-1.78277228798e-06
5.96872007546e-06
-3.43487746273e-06
-1.27660520651e-06
4.41762989356e-06
-3.68670184457e-06
-9.35569306213e-07
2.70544825484e-06
-3.78874400037e-06
-7.70553836251e-07
1.02958965129e-06
-3.74398279568e-06
-7.63777070585e-07
-4.46659611118e-07
-3.56052327835e-06
-8.85007373594e-07
-1.59750913742e-06
-3.24691461381e-06
-1.10227544619e-06
-2.32960868292e-06
-2.83239952634e-06
-1.38771915367e-06
-2.57761878881e-06
-2.35338838997e-06
-1.71787556588e-06
-2.31046159035e-06
-1.85775535559e-06
-2.06484343059e-06
-1.55906321574e-06
-1.43376946533e-06
-2.37156943051e-06
-4.74940581014e-07
-1.15356493944e-06
-2.52352631393e-06
4.22746454306e-07
-1.00879920721e-06
-2.16898836145e-06
-9.67840214814e-07
-5.95921784188e-07
3.03745505104e-07
-2.8057705135e-07
-1.38698656753e-06
2.24686076147e-06
1.10237605978e-07
-3.33491448819e-06
4.45177229425e-06
2.55020958538e-07
-3.81135914351e-06
6.17812822763e-06
2.29549564936e-07
-3.56468471007e-06
7.17619858951e-06
1.84431095628e-08
-3.06277738556e-06
7.37364638496e-06
-2.81382081544e-07
-2.4893255559e-06
6.85732336534e-06
-5.72048734404e-07
-1.96210543843e-06
5.77523058631e-06
-8.27864149311e-07
-1.52491941327e-06
4.3161331449e-06
-1.00942750088e-06
-1.21817564936e-06
2.69128353777e-06
-1.09760566316e-06
-1.06628749348e-06
1.09828943032e-06
-1.09352195842e-06
-1.05746560023e-06
-2.98295971736e-07
-1.00256784098e-06
-1.16136902685e-06
-1.37097104319e-06
-8.31495523192e-07
-1.34274305314e-06
-2.03560404469e-06
-6.0306193076e-07
-1.56470350341e-06
-2.24028099327e-06
-3.47415100438e-07
-1.80129490556e-06
-1.9712727966e-06
-9.90020430951e-08
-2.02775952265e-06
-1.28914913888e-06
7.79780104675e-08
-2.19386847427e-06
-3.61159261783e-07
1.26698306889e-07
-2.2082497688e-06
3.55606382826e-07
6.9802618067e-08
-1.79536343869e-06
-1.32712964947e-07
-4.79518128076e-07
6.43365145706e-07
-9.23943358585e-07
2.22394959034e-06
-1.47034797068e-06
4.03796982575e-06
-1.55900017953e-06
5.56304341933e-06
-1.2955245619e-06
6.49441937002e-06
-9.12932933827e-07
6.7169961712e-06
-5.03958539977e-07
6.3094582098e-06
-1.64510070834e-07
5.36719883523e-06
1.14396165743e-07
4.05812531585e-06
2.996470686e-07
2.58355941518e-06
3.76961292044e-07
1.12795463229e-06
3.62083820935e-07
-1.53358226518e-07
2.78745950393e-07
-1.1331293808e-06
1.48276557766e-07
-1.72508805509e-06
-1.11022216888e-08
-1.90537806347e-06
-1.67123810715e-07
-1.66763485782e-06
-3.36743603885e-07
-1.10150268727e-06
-4.881520995e-07
-4.03751935696e-07
-5.71049925915e-07
1.03565311105e-07
-4.3751190798e-07
-2.91463823666e-08
1.55057500374e-06
1.38663436614e-06
-3.77302440223e-06
3.295347155e-06
1.70208260885e-06
-4.8442111679e-06
4.82126157636e-06
1.97716534976e-06
-4.99737177169e-06
5.88870344815e-06
2.23429406853e-06
-4.53071666242e-06
6.37789844118e-06
2.47077931821e-06
-3.81098750036e-06
6.26415406242e-06
2.68587782309e-06
-3.0293521196e-06
5.58207681818e-06
2.86164360343e-06
-2.31748985647e-06
4.44752492534e-06
2.99792079604e-06
-1.73662791661e-06
3.00881870594e-06
3.08910598329e-06
-1.34944559361e-06
1.42494288622e-06
3.14089183139e-06
-1.18243958615e-06
-1.46320410175e-07
3.15583567693e-06
-1.22546956316e-06
-1.55836073368e-06
3.13050076789e-06
-1.45233409305e-06
-2.69198203958e-06
3.06377410904e-06
-1.82387321141e-06
-3.44826784424e-06
2.9497058255e-06
-2.30011608911e-06
-3.75999998484e-06
2.79471779486e-06
-2.83221746893e-06
-3.62075021681e-06
2.60105383303e-06
-3.3786535159e-06
-3.06502435737e-06
2.38063736701e-06
-3.86052343444e-06
-2.17664952757e-06
2.1283935463e-06
-4.15012198035e-06
-1.08165938035e-06
1.81278323778e-06
-3.9655016283e-06
1.37424204537e-06
-3.06197179694e-06
2.00486459657e-06
2.82281433836e-06
-4.78268576906e-06
3.64441007082e-06
3.02252023603e-06
-6.36789820846e-06
4.90069093827e-06
3.23980412778e-06
-6.43685022765e-06
5.73154186172e-06
3.52391607651e-06
-5.79227523214e-06
6.07195567988e-06
3.85325263558e-06
-4.89489849928e-06
5.90837438055e-06
4.20034330339e-06
-3.96259935285e-06
5.26811419516e-06
4.52488527967e-06
-3.12956307896e-06
4.24196656402e-06
4.80248974157e-06
-2.47032989132e-06
2.94898270265e-06
5.0090452164e-06
-2.03724713955e-06
1.52221612939e-06
5.13606157481e-06
-1.85372825294e-06
9.68642404849e-08
5.17981667059e-06
-1.91072847234e-06
-1.20319382787e-06
5.1384255535e-06
-2.18292114202e-06
-2.26969565596e-06
5.01603602123e-06
-2.63102778903e-06
-3.01814747579e-06
4.81742807152e-06
-3.21429942499e-06
-3.39016631832e-06
4.56233949933e-06
-3.88388663027e-06
-3.37382700816e-06
4.27042100069e-06
-4.5813834185e-06
-2.9883262863e-06
3.9707623397e-06
-5.21125208538e-06
-2.29145580343e-06
3.67722263171e-06
-5.61573687541e-06
-1.31100198993e-06
3.37744389276e-06
-5.44463228074e-06
2.99067398169e-06
-4.06922589882e-06
2.33652005773e-06
4.03190310522e-06
-4.98645983343e-06
3.92443955098e-06
3.99262857275e-06
-6.49305567412e-06
5.04398244473e-06
4.08240760111e-06
-6.33761954952e-06
5.74949922754e-06
4.32551120322e-06
-5.44380354949e-06
6.00200963713e-06
4.67897392369e-06
-4.32836658018e-06
5.79665671727e-06
5.09415079635e-06
-3.22712694503e-06
5.16268205443e-06
5.51178531994e-06
-2.27453588526e-06
4.17871436097e-06
5.88768813261e-06
-1.54273819677e-06
2.95159364936e-06
6.17766785235e-06
-1.07130671849e-06
1.59687200557e-06
6.36674611657e-06
-8.72775661984e-07
2.35604931476e-07
6.44129346132e-06
-9.34815787752e-07
-1.02034415875e-06
6.40096163449e-06
-1.23288686353e-06
-2.07299113128e-06
6.25672856321e-06
-1.73434092409e-06
-2.84084141329e-06
6.01776535993e-06
-2.4062542189e-06
-3.26788539004e-06
5.72041903287e-06
-3.20776037238e-06
-3.33426951442e-06
5.39702388576e-06
-4.07989531548e-06
-3.05099385933e-06
5.09109656071e-06
-4.91957235138e-06
-2.46008948018e-06
4.8352278199e-06
-5.54806579169e-06
-1.53238439754e-06
4.6432954639e-06
-5.56621123127e-06
4.45200634494e-06
-4.24034519982e-06
2.61601147385e-06
4.84229147928e-06
-4.63931738943e-06
4.23299784131e-06
4.58945517816e-06
-5.97250373055e-06
5.30958663965e-06
4.56168993906e-06
-5.56945420537e-06
5.95710882805e-06
4.74724089668e-06
-4.41553398895e-06
6.15790210989e-06
5.08979026641e-06
-3.06844172103e-06
5.91600003226e-06
5.52856299151e-06
-1.78046060084e-06
5.26374340569e-06
5.99162817619e-06
-6.87298751491e-07
4.26864113882e-06
6.42308109815e-06
1.42103918296e-07
3.04581582187e-06
6.7764346781e-06
6.64369958668e-07
1.69254582408e-06
7.01059831054e-06
8.90340186777e-07
3.27091266718e-07
7.11124107174e-06
8.32371579251e-07
-9.44795764701e-07
7.07730597451e-06
5.15590658025e-07
-2.03539820124e-06
6.92306786299e-06
-2.65818715192e-08
-2.85027971306e-06
6.68165592181e-06
-7.96971279024e-07
-3.33908802876e-06
6.3852949519e-06
-1.73766291915e-06
-3.4717491697e-06
6.07265295687e-06
-2.79656699033e-06
-3.24887093749e-06
5.79927490433e-06
-3.86622711773e-06
-2.696460201e-06
5.60893255486e-06
-4.74715256333e-06
-1.74659935476e-06
5.53028629386e-06
-4.99844864495e-06
5.51939028122e-06
-3.83058331764e-06
2.86613140326e-06
5.1543177605e-06
-4.07038506668e-06
4.57286998118e-06
4.75873795296e-06
-5.22941304987e-06
5.67142969617e-06
4.64550535998e-06
-4.60852968149e-06
6.3093559879e-06
4.77633244789e-06
-3.22344788144e-06
6.4871558414e-06
5.0903110136e-06
-1.6596885934e-06
6.21489795119e-06
5.52252129734e-06
-1.85317257566e-07
5.52900962765e-06
6.00039661801e-06
1.05296153613e-06
4.49890376029e-06
6.45692018045e-06
1.99135221784e-06
3.22492333167e-06
6.83547022991e-06
2.59382482606e-06
1.81663264311e-06
7.09495456313e-06
2.86048819036e-06
3.89151757669e-07
7.21504080053e-06
2.81254079702e-06
-9.49284392761e-07
7.19602759933e-06
2.47577687975e-06
-2.10189296656e-06
7.05643344454e-06
1.871028373e-06
-2.98351444733e-06
6.82846658539e-06
1.01772094078e-06
-3.53867579904e-06
6.55131050158e-06
-4.32824161234e-08
-3.72278669797e-06
6.27797942087e-06
-1.28171933804e-06
-3.52854957224e-06
6.05621406709e-06
-2.56305906245e-06
-2.96525416493e-06
5.93488570005e-06
-3.67194970181e-06
-1.93929978756e-06
5.94660540232e-06
-4.1373283842e-06
6.05831295716e-06
-3.14603483263e-06
3.08984277573e-06
4.94049744699e-06
-3.43876008049e-06
4.92394376346e-06
4.49087122963e-06
-4.45189328725e-06
6.08684555015e-06
4.33251729957e-06
-3.6632356446e-06
6.7491511246e-06
4.42036692035e-06
-2.09332782545e-06
6.92657625491e-06
4.69527196024e-06
-3.45409720785e-07
6.63665339964e-06
5.0994497678e-06
1.29461449116e-06
5.90877238547e-06
5.5562745936e-06
2.67838013541e-06
4.81827787828e-06
6.00268930201e-06
3.73170478713e-06
3.46568674631e-06
6.37950267728e-06
4.41493398474e-06
1.96695945574e-06
6.64429378239e-06
4.72771633659e-06
4.43498703736e-07
6.77569209233e-06
4.69293315294e-06
-9.89962136531e-07
6.77484474242e-06
4.33931450275e-06
-2.23047674252e-06
6.66156988435e-06
3.68760615468e-06
-3.19132986894e-06
6.46947671147e-06
2.75538018352e-06
-3.80226961698e-06
6.23930469342e-06
1.57229214046e-06
-4.0263275284e-06
6.01527093685e-06
1.99313386295e-07
-3.8381447688e-06
5.85460428526e-06
-1.25455360777e-06
-3.23310443169e-06
5.79311038893e-06
-2.54590426924e-06
-2.10438585124e-06
5.86212153573e-06
-3.18267780013e-06
6.02210077075e-06
-2.35465851013e-06
3.27172153106e-06
4.2279229665e-06
-2.85321314741e-06
5.24869456531e-06
3.80887266382e-06
-3.75121464695e-06
6.49919234319e-06
3.65095057422e-06
-2.84693172858e-06
7.20710363262e-06
3.71210458483e-06
-1.14102697665e-06
7.40459840502e-06
3.94258391388e-06
7.49450946904e-07
7.10451356296e-06
4.29194876419e-06
2.53239253382e-06
6.33696561108e-06
4.69537700665e-06
4.04538058074e-06
5.17937921615e-06
5.09740086984e-06
5.21190004676e-06
3.73681944365e-06
5.44320137741e-06
5.9774644465e-06
2.13297675793e-06
5.69386929897e-06
6.33597775348e-06
5.00155963733e-07
5.82788161355e-06
6.31160360694e-06
-1.03723757027e-06
5.84777784191e-06
5.93854544818e-06
-2.3697778046e-06
5.77447592286e-06
5.24087632859e-06
-3.40589222331e-06
5.63803334608e-06
4.24063007427e-06
-4.07052423222e-06
5.4740528278e-06
2.97123839471e-06
-4.31556768519e-06
5.31984736371e-06
1.4838567281e-06
-4.12066929936e-06
5.214824618e-06
-8.34933161752e-08
-3.45974280831e-06
5.20339147141e-06
-1.51138042441e-06
-2.22423680439e-06
5.29228579286e-06
-2.27422799265e-06
5.43248498815e-06
-1.59302415645e-06
3.41078545183e-06
3.1068637986e-06
-2.36622436399e-06
5.52217930582e-06
2.79049933274e-06
-3.18992834184e-06
6.86441884002e-06
2.67027618886e-06
-2.21825608699e-06
7.62605846692e-06
2.71802573706e-06
-4.21246188316e-07
7.85214931115e-06
2.89699423656e-06