/*--------------------------------*- C++ -*----------------------------------*\
| =========                 |                                                 |
| \\      /  F ield         | OpenFOAM: The Open Source CFD Toolbox           |
|  \\    /   O peration     | Version:  3.0.1                                 |
|   \\  /    A nd           | Web:      www.OpenFOAM.org                      |
|    \\/     M anipulation  |                                                 |
\*---------------------------------------------------------------------------*/
FoamFile
{
    version     2.0;
    format      ascii;
    class       volScalarField;
    location    "0.2";
    object      p_rgh;
}
// * * * * * * * * * * * * * * * * * * * * * * * * * * * * * * * * * * * * * //

dimensions      [1 -1 -2 0 0 0 0];

internalField   nonuniform List<scalar> 
7968
(
5307.4642373
5306.86909917
5305.70387079
5304.07039121
5302.11709279
5300.02978574
5298.01522498
5296.2803258
5295.00797887
5294.33463694
5294.33321615
5295.00373895
5296.27337251
5298.00605197
5300.01941934
5302.10696906
5304.0618478
5305.69762619
5306.86455158
5307.45919376
5306.87928295
5306.26526212
5305.03682086
5303.30195647
5301.22045928
5298.99184737
5296.83814432
5294.98171765
5293.61938391
5292.89816236
5292.89678776
5293.61517077
5294.97459144
5296.82835708
5298.98015874
5301.20807941
5303.29012978
5305.02626061
5306.25546562
5306.86896266
5305.73048388
5305.05363725
5303.68636971
5301.74419071
5299.40470188
5296.89242335
5294.45896196
5292.35785243
5290.81405071
5289.99640377
5289.99504482
5290.80981976
5292.35042621
5294.44819067
5296.87868014
5299.38883905
5301.72724573
5303.66913599
5305.03611007
5305.71218006
5304.11756346
5303.34000648
5301.7662242
5299.52260036
5296.81051535
5293.88911121
5291.05203023
5288.5974593
5286.7913313
5285.83382691
5285.8323774
5286.78676993
5288.5893128
5291.03985986
5293.87284979
5296.79061286
5299.49979651
5301.74137673
5303.31372014
5304.090399
5302.18687617
5301.28216521
5299.4520112
5296.83687009
5293.6666737
5290.24239633
5286.90856218
5284.01840985
5281.88809382
5280.75722458
5280.75552489
5281.88279647
5284.00903869
5286.89458005
5290.22339131
5293.64283572
5296.80851452
5299.41996931
5301.24767146
5302.15158251
5300.12229769
5299.07760798
5296.96600969
5293.9437383
5290.27174247
5286.29642837
5282.41767161
5279.04764974
5276.55721312
5275.23296247
5275.23082118
5276.55068381
5279.03653911
5282.40150783
5286.27398293
5290.24426757
5293.91064261
5296.9279551
5299.03633819
5300.08059707
5298.12870819
5296.94627536
5294.55738554
5291.13397317
5286.96703416
5282.44753346
5278.02868818
5274.17942358
5271.32653433
5269.80647993
5269.80368974
5271.31826319
5274.16591013
5278.00993792
5282.42307559
5286.93644174
5291.09707095
5294.51475194
5296.90003857
5298.08261583
5296.41122247
5295.10854964
5292.47726859
5288.70292038
5284.10216905
5279.10406844
5274.20644973
5269.92903953
5266.74982647
5265.05267342
5265.04908562
5266.73939123
5269.9126015
5274.1846022
5279.07674851
5284.06878396
5288.66299823
5292.43134792
5295.05903591
5296.36248994
5295.15142006
5293.75974811
5290.94886802
5286.91418676
5281.9910555
5276.63419208
5271.37488797
5266.77155513
5263.34190843
5261.50846514
5261.50407788
5263.32929189
5266.75208091
5271.34979598
5276.60386376
5281.95494819
5286.87176194
5290.90059797
5293.70813874
5295.10119099
5294.48518464
5293.04623373
5290.1398186
5285.96648555
5280.8713115
5275.32223174
5269.86799139
5265.08803888
5261.52227768
5259.61465589
5259.60967906
5261.50790371
5265.06605027
5269.84004019
5275.28912522
5280.83276526
5285.92192731
5290.08967689
5292.99307437
5294.43385907
5294.48546003
5293.04658472
5290.14021215
5285.96696723
5280.87203439
5275.32312854
5269.86882122
5265.08848921
5261.52217751
5259.61400724
5259.60863346
5261.5066515
5265.06465661
5269.83858017
5275.28762065
5280.83125075
5285.92038524
5290.08827928
5292.99186236
5294.43281177
5295.15277415
5293.76129244
5290.95049814
5286.91608662
5281.99360882
5276.63720468
5271.37771939
5266.77330048
5263.34201692
5261.50693685
5261.50130592
5263.32574789
5266.74807445
5271.34551747
5276.59939055
5281.95044955
5286.8672766
5290.89646262
5293.70457489
5295.09814174
5296.41517685
5295.11275908
5292.48156495
5288.7076007
5284.10770926
5279.11018951
5274.21230736
5269.93336265
5266.7516584
5265.05183039
5265.04595052
5266.73458517
5269.9067397
5274.17810985
5279.06994002
5284.06180954
5288.6560562
5292.42488612
5295.05342881
5296.35772872
5298.1375134
5296.95531768
5294.56641246
5291.14330376
5286.97698825
5282.45808089
5278.03891988
5274.18776974
5271.33178824
5269.80809395
5269.80186296
5271.31365782
5274.15939365
5278.0023737
5282.41511134
5286.92785746
5291.08847253
5294.50653897
5296.89276012
5298.07645067
5300.13845656
5299.09387917
5296.98200476
5293.9597617
5290.2880444
5286.31225025
5282.43364735
5279.06161064
5276.56760204
5275.23886434
5275.23220929
5276.54818016
5279.03120427
5282.3945927
5286.26703676
5290.23562092
5293.90138923
5296.91858065
5299.0276628
5300.07315959
5302.21250729
5301.307652
5299.47674232
5296.86108086
5293.69069037
5290.26600943
5286.93115861
5284.03879721
5281.90459659
5280.76862326
5280.76164201
5281.88411117
5284.00665954
5286.88945501
5290.21686961
5293.63486996
5296.79923963
5299.40976919
5301.23763574
5302.14272007
5304.15375497
5303.37564085
5301.80037389
5299.55531174
5296.84211123
5293.91959783
5291.08082868
5288.62354223
5286.81324667
5285.8504103
5285.84335626
5286.79240819
5288.59060362
5291.03788178
5293.86846163
5296.78389944
5299.49073558
5301.73033951
5303.30205389
5304.07963211
5305.77681431
5305.09880816
5303.72919377
5301.78445351
5299.44264062
5296.92821783
5294.4923873
5292.38816866
5290.84031036
5290.01752408
5290.0106323
5290.81996925
5292.35575671
5294.44965309
5296.8767146
5299.38346664
5301.71835907
5303.65708478
5305.02242244
5305.69888233
5306.93339239
5306.31748109
5305.08605479
5303.34773017
5301.26295806
5299.03137598
5296.87482072
5295.01522818
5293.64901896
5292.92315915
5292.91654445
5293.62954431
5294.98397999
5296.83319252
5298.98064414
5301.20410119
5303.28145839
5305.01321466
5306.23962757
5306.85282241
5307.52206437
5306.9248269
5305.75630835
5304.11905244
5302.16219053
5300.071838
5298.05453843
5296.31671696
5295.04080679
5294.36308573
5294.35660064
5295.0217556
5296.28611317
5298.01364028
5300.0218452
5302.10402384
5304.05336398
5305.68381235
5306.84683078
5307.44062393
5308.63234107
5308.01505193
5306.81488658
5305.13412697
5303.1230834
5300.97102541
5298.89064485
5297.09648715
5295.77926565
5295.08186553
5295.08087262
5295.7761898
5297.09115272
5298.88312271
5300.96190174
5303.1133838
5305.12491874
5306.8067252
5308.00734286
5308.62344053
5308.02817235
5307.38973887
5306.11791974
5304.32269689
5302.17021537
5299.86333654
5297.63028422
5295.70233096
5294.28574668
5293.53556894
5293.5346465
5294.28282714
5295.69702724
5297.6224238
5299.85317453
5302.15846971
5304.31034511
5306.10556337
5307.37707756
5308.01448413
5306.84785042
5306.13911558
5304.70887551
5302.67589256
5300.22862483
5297.59733042
5295.04314997
5292.83328611
5291.20697256
5290.34487553
5290.34391768
5291.20384669
5292.82743946
5295.03411254
5297.58502447
5300.21349733
5302.65863869
5304.69025567
5306.11950444
5306.8273981
5305.19126481
5304.37016158
5302.70399943
5300.32301657
5297.44432106
5294.33751183
5291.31207663
5288.68817192
5286.75258616
5285.72483446
5285.72353709
5286.74847532
5288.68076132
5291.30085329
5294.32220956
5297.42499342
5300.30018015
5302.67847006
5304.34295178
5305.16344913
5303.20662276
5302.24682114
5300.2890565
5297.4784824
5294.06686229
5290.37254969
5286.76383975
5283.62784181
5281.30747702
5280.07258893
5280.07067849
5281.30166406
5283.61796132
5286.7495827
5290.35386349
5294.0433298
5297.45031743
5300.25709042
5302.21259799
5303.17218299
5301.08111373
5299.96954174
5297.69145141
5294.40854924
5290.41092422
5286.07100971
5281.82111812
5278.11717868
5275.36758031
5273.90013725
5273.89735541
5275.35901804
5278.10395558
5281.80334272
5286.04902614
5290.38329301
5294.37566097
5297.65405783
5299.92958447
5301.04148444
5299.02519508
5297.76401992
5295.16920302
5291.41884918
5286.84031082
5281.85975808
5276.97347679
5272.70079326
5269.51474321
5267.80882624
5267.80498937
5269.50360846
5272.68349198
5276.95114412
5281.83295297
5286.80847286
5291.38181183
5295.12748793
5297.71978282
5298.98194331
5297.25132568
5295.85910672
5292.98633817
5288.82559398
5283.73747245
5278.1894739
5272.73429384
5267.94793663
5264.36311389
5262.43843087
5262.43343042
5264.34881668
5267.92626917
5272.70720039
5278.15812425
5283.70188138
5288.78509507
5292.94135006
5295.81188582
5297.20575538
5295.94869475
5294.459096
5291.37944459
5286.91243537
5281.44197974
5275.4661695
5269.57514529
5264.39032893
5260.49310423
5258.39681802
5258.390895
5260.4760766
5264.36477709
5269.54375023
5275.43072486
5281.40291819
5286.86908565
5291.33200344
5294.4097582
5295.90155363
5295.25954345
5293.71790339
5290.52769779
5285.89679289
5280.22096658
5274.01428804
5267.88584305
5262.48277186
5258.41405495
5256.22411669
5256.21749534
5258.39526776
5262.45452643
5267.85118883
5273.97555946
5280.1790808
5285.85115226
5290.47828288
5293.66685001
5295.21095141
5295.26036584
5293.71857207
5290.52807207
5285.89688399
5280.22092542
5274.01430714
5267.88555114
5262.48182068
5258.41235543
5256.2218941
5256.21506038
5258.39284696
5262.45212512
5267.84885065
5273.97319546
5280.17670738
5285.84915688
5290.47678417
5293.66566847
5295.20997004
5295.9516878
5294.46152773
5291.38095407
5286.91331744
5281.44259073
5275.46671081
5269.57483716
5264.38813815
5260.48871015
5258.39081202
5258.38403949
5260.4689216
5264.35767819
5269.53668006
5275.42354009
5281.3960353
5286.86327869
5291.32735938
5294.40623114
5295.89868292
5297.25797464
5295.86503391
5292.99104301
5288.82948879
5283.74097243
5278.19267505
5272.73616957
5267.94703715
5264.35887787
5262.43129873
5262.42438478
5264.33874354
5267.91574734
5272.69647909
5278.14723003
5283.69164701
5288.77647853
5292.93442865
5295.80660716
5297.20152964
5299.03768597
5297.77583307
5295.17985098
5291.42873433
5286.84977033
5281.86833508
5276.98011269
5272.70402287
5269.51370077
5267.8035145
5267.79627646
5269.49252992
5272.67106169
5276.93811989
5281.81992859
5286.79690786
5291.37196858
5295.11945045
5297.71354978
5298.97695969
5301.1016654
5299.98966454
5297.71074962
5294.42742174
5290.42952305
5286.08883416
5281.83598253
5278.12803682
5275.37327681
5273.90009811
5273.89226095
5275.35025873
5278.09239938
5281.79077267
5286.03644678
5290.37258014
5294.36641774
5297.64614328
5299.92312989
5301.03622781
5303.23698744
5302.27699363
5300.318783
5297.50818117
5294.09657707
5290.40146172
5286.79018336
5283.64970189
5281.32356017
5280.08175808
5280.07352317
5281.29885107
5283.61145393
5286.7418866
5290.34596887
5294.03587211
5297.4432207
5300.25018672
5302.20627466
5303.16677033
5305.23206948
5304.41085685
5302.74442452
5300.36356246
5297.48506404
5294.37775378
5291.35031489
5288.72249731
5286.78110935
5285.74598685
5285.73784809
5286.75606919
5288.68353098
5291.30076206
5294.32047199
5297.42206778
5300.29592565
5302.67280837
5304.33661982
5305.15748069
5306.8981576
5306.18915107
5304.75849668
5302.72537105
5300.27801976
5297.64622153
5295.09041833
5292.8772928
5291.24582162
5290.37695682
5290.36902149
5291.22197363
5292.83984104
5295.04216017
5297.58969358
5300.21503697
5302.65698248
5304.6854153
5306.11257522
5306.82006099
5308.08523673
5307.44615499
5306.17370513
5304.37783683
5302.22478509
5299.91718203
5297.68275769
5295.75223639
5294.33147734
5293.57557957
5293.56818791
5294.30959432
5295.71752966
5297.63737113
5299.86312366
5302.16356041
5304.31038178
5306.10073546
5307.36877605
5308.00504092
5308.69236056
5308.07431792
5306.87338437
5305.19170102
5303.17987416
5301.02712658
5298.94564521
5297.14940319
5295.82869708
5295.12634337
5295.11931894
5295.80808374
5297.11651437
5298.90227274
5300.9749838
5303.12027722
5305.12547064
5306.80113764
5307.99709489
5308.61177168
5311.03868063
5310.39862181
5309.15075189
5307.39741138
5305.29196332
5303.03036044
5300.83604859
5298.93768529
5297.54064114
5296.80030196
5296.79993703
5297.53933071
5298.93483638
5300.83106059
5303.02312364
5305.28282833
5307.38702994
5309.13964604
5310.38668939
5311.02535033
5310.41492112
5309.75576303
5308.42507704
5306.53256469
5304.25314728
5301.79898914
5299.41249042
5297.34409033
5295.81990611
5295.0116131
5295.01125954
5295.81875377
5297.34132008
5299.4073056
5301.79093344
5304.24233703
5306.51949744
5308.41034942
5309.73967798
5310.39785508
5309.1918501
5308.45215452
5306.92972931
5304.74002926
5302.08621419
5299.21445058
5296.40963335
5293.97076976
5292.16889121
5291.21163768
5291.21113347
5292.16710785
5293.96698188
5296.4029777
5299.20426117
5302.07225319
5304.72266796
5306.9097363
5308.43060573
5309.16967713
5307.46868669
5306.59354452
5304.77713695
5302.14205543
5298.92567229
5295.42367052
5291.98597664
5288.98683
5286.76348575
5285.57904263
5285.57776252
5286.75955698
5288.98010245
5291.97601246
5295.40990607
5298.90761488
5302.1197935
5304.75156089
5306.56629975
5307.44123947
5305.39623874
5304.35185199
5302.16653259
5298.97190279
5295.04520409
5290.74701223
5286.49497841
5282.76280731
5279.99376182
5278.51986388
5278.51690899
5279.9859003
5282.75116496
5286.48036781
5290.72864117
5295.02270221
5298.94499596
5302.13592832
5304.3195357
5305.36424975
5303.16778682
5301.93609957
5299.33999966
5295.52006146
5290.79904494
5285.56456744
5280.29663097
5275.6613737
5272.25213914
5270.44591664
5270.44209594
5272.24075004
5275.64428121
5280.27576117
5285.54101162
5290.7716859
5295.48871457
5299.30509738
5301.89966047
5303.13229417
5301.00409841
5299.58536809
5296.57799981
5292.13055052
5286.59714887
5280.34576914
5273.97882749
5268.41256541
5264.33494825
5262.17508971
5262.16988261
5264.31936026
5268.38962192
5273.95112496
5280.31572132
5286.56456336
5292.09492245
5296.53937636
5299.54567553
5300.96592377
5299.1310246
5297.54675755
5294.17507759
5289.17224169
5282.90684305
5275.75072793
5268.4500074
5262.06364157
5257.36357063
5254.86659677
5254.8597578
5257.34483711
5262.03520834
5268.41614911
5275.71423321
5282.86914241
5289.13270666
5294.13335148
5297.50446241
5299.09079973
5297.75206713
5296.0436613
5292.39878684
5286.97877886
5280.16925624
5272.37535723
5264.406206
5257.39682685
5252.19797397
5249.42202933
5249.41465324
5252.17559953
5257.36469981
5264.36719013
5272.33392487
5280.1273887
5286.93600415
5292.35446701
5295.99918192
5297.70998454
5297.02156157
5295.24631916
5291.45456426
5285.80994864
5278.71337787
5270.59100798
5262.26833394
5254.92067003
5249.44113537
5246.51305474
5246.50599592
5249.4176517
5254.88641103
5262.22605245
5270.54541584
5278.6681526
5285.76451559
5291.40800467
5295.19970535
5296.97738218
5297.02297144
5295.24718766
5291.45439119
5285.80891241
5278.71183384
5270.58886006
5262.26573012
5254.91726088
5249.43617281
5246.50763332
5246.50046578
5249.41271471
5254.88218915
5262.22209139
5270.54112588
5278.66390455
5285.76100388
5291.40549283
5295.19810834
5296.9760963
5297.75680688
5296.04676442
5292.39925655
5286.9770081
5280.16607362
5272.37115864
5264.40009412
5257.38784918
5252.18537899
5249.40840343
5249.40099402
5252.16272648
5257.35281215
5264.3560045
5272.32196223
5280.11539072
5286.92603624
5292.3472631
5295.99435255
5297.70635139
5299.14071301
5297.55436736
5294.17930842
5289.17341133
5282.90563449
5275.7472203
5268.44444359
5262.05338825
5257.34941751
5254.84959601
5254.84172492
5257.32691334
5262.01800632
5268.39980299
5275.69578518
5282.85164759
5289.11842683
5294.12314487
5297.49771086
5299.08576417
5301.02087875
5299.6004023
5296.59002025
5292.13963091
5286.60333139
5280.3480936
5273.97659367
5268.40513167
5264.32224981
5262.15760152
5262.14930663
5264.29805942
5268.36809945
5273.9290323
5280.29326771
5286.54488083
5292.07950815
5296.52863451
5299.53872047
5300.96080268
5303.19377914
5301.96118784
5299.36356947
5295.54206566
5290.81846603
5285.57958119
5280.30574474
5275.66347008
5272.24712539
5270.43359849
5270.42411118
5272.21975331
5275.62166408
5280.25291425
5285.51988275
5290.75425357
5295.47605562
5299.29660672
5301.89428299
5303.12836616
5305.43253018
5304.38845628
5302.20363594
5299.00982481
5295.08269776
5290.78156121
5286.52392297
5282.78383504
5280.00598124
5278.52303171
5278.51298513
5279.97489331
5282.73656633
5286.46530816
5290.7155219
5295.0129588
5298.93865748
5302.1318545
5304.31693534
5305.36228225
5307.51529232
5306.64149313
5304.82729004
5302.1952287
5298.98106945
5295.47884656
5292.03774792
5289.03219085
5286.79994344
5285.60500565
5285.59385499
5286.76746545
5288.98267862
5291.97631157
5295.41017626
5298.90878736
5302.12143608
5304.75272786
5306.5667705
5307.44120857
5309.24734317
5308.5093902
5306.99005815
5304.8044541
5302.15436265
5299.28458856
5296.47898433
5294.03610242
5292.22712487
5291.26043137
5291.25005898
5292.19676021
5293.98935712
5296.42042606
5299.21849173
5302.08396276
5304.73157841
5306.91534373
5308.4333815
5309.17079608
5310.47646248
5309.81884907
5308.49132613
5306.6027849
5304.32727883
5301.87599035
5299.49033286
5297.42003974
5295.89094212
5295.07505426
5295.06626422
5295.86458577
5297.37890989
5299.43793473
5301.81567318
5304.26158993
5306.5331586
5308.41839709
5309.74326338
5310.39899835
5311.10298468
5310.46427175
5309.21909626
5307.46910563
5305.36723875
5303.10859794
5300.91571989
5299.01646591
5297.61585793
5296.86942865
5296.8613934
5297.59229761
5298.97941731
5300.86786983
5303.05262717
5305.30516054
5307.4021308
5309.14781811
5310.38942103
5311.02566202
5314.71638452
5314.05759456
5312.7657669
5310.9396954
5308.73343303
5306.34918783
5304.02296593
5302.00098768
5300.50778405
5299.71504868
5299.71532242
5300.50822321
5302.0005934
5304.02049433
5306.3437786
5308.72468964
5310.92785031
5312.75139322
5314.04118964
5314.69874238
5314.07627493
5313.39858351
5312.00893018
5310.01046812
5307.58182607
5304.94530783
5302.3619983
5300.10941217
5298.4421185
5297.55579103
5297.55607322
5298.44259873
5300.10903212
5302.3594208
5304.93935787
5307.5718767
5309.99663129
5311.99184345
5313.3791784
5314.05621674
5312.81359518
5312.04090177
5310.41553266
5308.03751362
5305.11563748
5301.9142918
5298.75296409
5295.98171285
5293.92217033
5292.82418459
5292.82403054
5293.92144479
5295.97978378
5298.74871587
5301.90643268
5305.10322589
5308.02044167
5310.39465713
5312.01790236
5312.79036647
5311.0233732
5310.08307615
5308.08249899
5305.11602373
5301.42436763
5297.28769824
5293.06689356
5289.33266127
5286.60986951
5285.17694997
5285.17553318
5286.60535004
5289.326265
5293.05843814
5297.27600145
5301.40853258
5305.09541718
5308.05790679
5310.05669654
5310.99721616
5308.85650302
5307.70018602
5305.21392461
5301.4818791
5296.67076355
5290.98953317
5285.1227243
5280.07893446
5276.48856393
5274.6112458
5274.60788507
5276.47885826
5280.06575888
5285.10763857
5290.97235064
5296.65063534
5301.45791835
5305.18629722
5307.67097505
5308.82795997
5306.51193691
5305.11039523
5302.0687866
5297.40741287
5291.0529061
5283.4549222
5275.94807128
5269.63217433
5265.08255616
5262.67430165
5262.66944735
5265.06885829
5269.61212376
5275.92462797
5283.43034505
5291.02756584
5297.3797703
5302.03841011
5305.07894121
5306.48148796
5304.22213968
5302.57059098
5298.96043605
5293.24496008
5285.24435495
5276.0052338
5267.07545047
5259.39965839
5253.51851726
5250.48715065
5250.48374042
5253.50647958
5259.37716259
5267.04367382
5275.97270315
5285.21292057
5293.21326547
5298.92733596
5302.53700913
5304.18993226
5302.23009754
5300.35391415
5296.23326559
5289.56010248
5280.25070516
5269.73743903
5259.36024626
5249.9103278
5243.00982777
5239.37023362
5239.36345125
5242.98912849
5249.87715397
5259.32282283
5269.69818105
5280.21324937
5289.52428279
5296.19740761
5300.31820229
5302.19600872
5300.75802514
5298.71179448
5294.20502723
5286.8733373
5276.7009599
5265.23023648
5253.49634158
5243.08295972
5235.31939939
5231.17399911
5231.16207649
5235.27461377
5243.05328238
5253.45658927
5265.18626511
5276.65925107
5286.83405393
5294.16647424
5298.67377836
5300.72168274
5299.97650318
5297.83818442
5293.1225552
5285.45923913
5274.84562344
5262.84738348
5250.51641937
5239.46544096
5231.20620634
5226.82258227
5226.81572616
5231.17315268
5239.43524671
5250.47883268
5262.80025063
5274.80040896
5285.41658526
5293.08120767
5297.79746263
5299.93730039
5299.97834555
5297.839024
5293.12162872
5285.45671567
5274.84201152
5262.84294168
5250.51468791
5239.46042869
5231.19545889
5226.81670906
5226.80723344
5231.16362491
5239.42743707
5250.47436058
5262.79337516
5274.79303832
5285.41017565
5293.0768851
5297.7949344
5299.9354722
5300.76420241
5298.7151811
5294.20389744
5286.86792046
5276.69248025
5265.21901303
5253.4918406
5243.06811059
5235.2805599
5231.14554419
5231.13466441
5235.25400064
5243.03478428
5253.4473507
5265.16682416
5276.63890301
5286.81641125
5294.15446339
5298.66650862
5300.71661119
5302.24245794
5300.36286691
5296.23644851
5289.55710805
5280.24232847
5269.72441167
5259.36040136
5249.89327613
5242.99287907
5239.35074815
5239.34090321
5242.96841648
5249.85493461
5259.31547694
5269.66940817
5280.18388571
5289.49974269
5296.18091038
5300.30839234
5302.18924481
5304.24299573
5302.58880239
5298.97377426
5293.25209714
5285.24399016
5275.99702528
5267.06086707
5259.3745425
5253.49767644
5250.46429632
5250.45607407
5253.47635301
5259.34025555
5267.01009841
5275.93723076
5285.17945486
5293.18751125
5298.91099572
5302.5277346
5304.18365011
5306.54313799
5305.14092697
5302.09752624
5297.43265158
5291.07096059
5283.46279223
5275.94515954
5269.61989138
5265.0614461
5262.64416954
5262.63366105
5265.03089692
5269.57348604
5275.88635075
5283.39417725
5290.99787285
5297.36000194
5302.02730412
5305.07344704
5306.47798711
5308.89869306
5307.74413958
5305.2603366
5301.5301354
5296.71625325
5291.02653423
5285.14774447
5280.09193636
5276.48918509
5274.59828756
5274.58535233
5276.45185287
5280.03557985
5285.07821804
5290.94828212
5296.63506635
5301.45072192
5305.18436974
5307.67166535
5308.82887356
5311.07575749
5310.13930776
5308.1447809
5305.18521187
5301.49735248
5297.35861711
5293.13004802
5289.38443329
5286.64774702
5285.20015455
5285.18685027
5286.60724934
5289.32304787
5293.05486285
5297.2762625
5301.41354427
5305.10364813
5308.06662275
5310.06432837
5311.00307776
5312.87419071
5312.10618662
5310.48864862
5308.1199954
5305.20598394
5302.00854467
5298.84599107
5296.06869982
5293.99908637
5292.88827291
5292.87524306
5293.96130343
5296.01140743
5298.77577352
5301.93151418
5305.12704102
5308.04195763
5310.41229706
5312.03139858
5312.80044104
5314.14223803
5313.46893005
5312.08702729
5310.09786145
5307.6780303
5305.04794828
5302.46734788
5300.21305159
5298.53969347
5297.64380027
5297.63318521
5298.50844168
5300.16501095
5302.40748024
5304.98104883
5307.6077272
5310.02621274
5312.01471511
5313.39619761
5314.06898936
5314.78509372
5314.13006158
5312.84488149
5311.02693805
5308.82889845
5306.45142016
5304.12906935
5302.10721718
5300.61016293
5299.81009192
5299.80096474
5300.5836
5302.06594511
5304.07682514
5306.3918013
5308.76468699
5310.95980109
5312.7755018
5314.05886452
5314.71262489
5319.70339465
5319.03998318
5317.73145904
5315.86851648
5313.60032716
5311.13031202
5308.70335158
5306.58148759
5305.00756141
5304.16997865
5304.17072728
5305.00935473
5306.58303271
5308.70294236
5311.12643801
5313.59194585
5315.85544101
5317.71427903
5319.01977722
5319.68235608
5319.05993631
5318.37043929
5316.94336405
5314.86964305
5312.32169615
5309.52574159
5306.75918526
5304.32805878
5302.51873571
5301.55401747
5301.55476016
5302.52054497
5304.32972019
5306.75897487
5309.52184226
5312.31283658
5314.85548916
5316.92457688
5318.34851295
5319.03760897
5317.78297946
5316.9779772
5315.26291631
5312.71463583
5309.53080108
5305.9219736
5302.16897445
5298.82337907
5296.4039437
5295.14140045
5295.14198212
5296.40445186
5298.82363571
5302.16747946
5305.91711472
5309.52084919
5312.69892939
5315.24219634
5316.95444405
5317.75948694
5315.95912563
5314.94874332
5312.76415757
5309.45212484
5304.97173006
5299.49414341
5293.84748042
5289.03051552
5285.63769679
5283.88174506
5283.88054739
5285.63400874
5289.02585676
5293.84155478
5299.48619257
5304.96000995
5309.43509119
5312.74199907
5314.92407452
5315.93474828
5313.73395283
5312.45103718
5309.63958868
5305.03577664
5298.36574408
5290.41212811
5282.61748929
5276.07972033
5271.40464177
5268.95411019
5268.95062968
5271.39153094
5276.0671279
5282.60356744
5290.39798217
5298.35067397
5305.01747156
5309.6168362
5312.42589016
5313.70910741
5311.30701907
5309.7064352
5306.09320912
5299.62748519
5290.4838502
5280.23541265
5270.18761206
5261.48230274
5255.12135386
5251.74969129
5251.74509818
5255.10818691
5261.46074384
5270.16384783
5280.21223313
5290.4631348
5299.60681434
5306.0697397
5309.68087109
5311.28171632
5308.91921579
5306.98726835
5302.39887072
5294.04670574
5282.75848739
5270.26072494
5257.63335285
5246.44948215
5238.32925816
5233.71966268
5233.71335788
5238.31062203
5246.4203991
5257.60182397
5270.22961241
5282.73129388
5294.02242705
5302.37381308
5306.96082718
5308.89298214
5306.82897707
5304.59477578
5299.10176569
5289.28640325
5276.28306422
5261.60865365
5246.51333935
5234.32978462
5223.79081272
5217.79680447
5217.79000121
5223.77011236
5234.29610496
5246.47284282
5261.57090474
5276.25105776
5289.25844445
5299.07449866
5304.56677964
5306.80108931
5305.2770671
5302.81209734
5296.71703332
5285.93661506
5271.66055628
5255.35267184
5238.44433315
5223.84072701
5210.73088915
5203.27224518
5203.26575519
5210.71033509
5223.80518646
5238.40143602
5255.31098353
5271.62388824
5285.90484569
5296.68678023
5302.78176906
5305.24669335
5304.45091728
5301.86044597
5295.47164677
5284.20128974
5269.22753507
5252.0163804
5233.86440975
5217.87595936
5203.3004527
5195.017974
5195.01167449
5203.27991992
5217.83983229
5233.82004496
5251.96861132
5269.18889173
5284.1651659
5295.43748309
5301.82683465
5304.41711594
5304.45301392
5301.86122425
5295.47010121
5284.19723957
5269.22122487
5252.00911511
5233.85700429
5217.86768128
5203.29138815
5195.00793775
5195.00168918
5203.2708363
5217.83158408
5233.81142211
5251.95890678
5269.1772196
5284.15500947
5295.43076401
5301.82324854
5304.41473356
5305.28415402
5302.81569082
5296.71445576
5285.92754068
5271.64814487
5255.33468215
5238.42508587
5223.81872734
5210.70586327
5203.24437218
5203.2377226
5210.68436083
5223.78176047
5238.37725571
5255.2812068
5271.59533974
5285.87718166
5296.66829658
5302.771615
5305.24015067
5306.84322155
5304.60496192
5299.10424908
5289.27900783
5276.26768321
5261.58278937
5246.48898648
5234.30099487
5223.75503495
5217.75541661
5217.74777758
5223.73143845
5234.26222754
5246.4378728
5261.52282433
5276.20720606
5289.21984344
5299.04960653
5304.55334917
5306.79247926
5308.94313012
5307.00864337
5302.41422675
5294.05123772
5282.75033138
5270.2417493
5257.61055492
5246.42091493
5238.2920712
5233.67446508
5233.66499182
5238.26378973
5246.37660915
5257.55526146
5270.17594316
5282.68051678
5293.98228692
5302.34997098
5306.94868765
5308.88532567
5311.3423219
5309.74245416
5306.12849251
5299.6564157
5290.49831693
5280.23480105
5270.17508939
5261.45577477
5255.09496233
5251.70753609
5251.6954009
5255.05836284
5261.40173691
5270.10616956
5280.15728626
5290.41669798
5299.57670233
5306.05500917
5309.67476462
5311.27817939
5313.78073143
5312.5022882
5309.69690537
5305.09592245
5298.41791994
5290.44769308
5282.63548328
5276.08265503
5271.39857827
5268.92273012
5268.90754587
5271.35453658
5276.01661076
5282.55419441
5290.35757427
5298.32570782
5305.00819759
5309.6168266
5312.42924085
5313.71214499
5316.01576731
5315.01268044
5312.83946123
5309.53873402
5305.0620452
5299.57691097
5293.91490126
5289.0805851
5285.67044219
5283.89455435
5283.87797452
5285.62247819
5289.00892061
5293.82817652
5299.48305144
5304.96836789
5309.4503997
5312.75817064
5314.93793093
5315.94529362
5317.8468449
5317.05008795
5315.34815288
5312.81479355
5309.6422419
5306.03766214
5302.28080854
5298.92542102
5296.49216037
5295.21359234
5295.198911
5296.4490818
5298.86067482
5302.20254562
5305.95346389
5309.557628
5312.73338589
5315.27116331
5316.97726617
5317.77690127
5319.12826644
5318.44615873
5317.0312815
5314.97175073
5312.43675312
5309.64988235
5306.88698532
5304.45380435
5302.6372519
5301.66138529
5301.64975535
5302.60316997
5304.40197982
5306.82336399
5309.57997055
5312.36471608
5314.90005578
5316.96086275
5318.37720062
5319.06030938
5319.77446219
5319.11695208
5317.8185673
5315.96775334
5313.71157638
5311.25122745
5308.82995165
5306.70881264
5305.13079494
5304.28516644
5304.2755808
5305.10296096
5306.66591378
5308.77627694
5311.19092309
5313.64779516
5315.90243797
5317.75251054
5319.05055813
5319.70785899
5326.00945288
5325.37095575
5324.10335082
5322.28409012
5320.04904125
5317.59392902
5315.16291042
5313.02393112
5311.42981854
5310.57898162
5310.57999736
5311.43237337
5313.02665064
5315.16327915
5317.59135689
5320.04134895
5322.27069102
5324.08472257
5325.34865105
5325.98637753
5325.39053338
5324.71624262
5323.30953677
5321.24491705
5318.67855611
5315.83063995
5312.94169643
5310.3414492
5308.42110365
5307.41502795
5307.41620632
5308.4243892
5310.3449274
5312.94355688
5315.82878369
5318.67131264
5321.2315159
5323.29045478
5324.6933406
5325.36734509
5324.15410113
5323.34360554
5321.60117094
5318.97850267
5315.46839639
5311.15515337
5306.6951716
5302.88497975
5300.18711893
5298.7929234
5298.79367404
5300.18920271
5302.88714385
5306.69633494
5311.15367512
5315.46187687
5318.96555082
5321.58213059
5323.32084222
5324.13108869
5322.37328199
5321.32261866
5319.02706521
5315.16946427
5309.56348801
5302.83978236
5296.15447832
5290.53095853
5286.5546454
5284.47758947
5284.47791642
5286.55579818
5290.5299573
5296.15189197
5302.83598713
5309.55694154
5315.15763026
5319.00899619
5321.30074002
5322.35101713
5320.1800711
5318.80501351
5315.57441066
5309.62587624
5301.2861646
5291.88361154
5282.30248612
5273.68416199
5267.65188017
5264.50578817
5264.50516782
5267.65283053
5273.67558964
5282.29302098
5291.87369709
5301.27688546
5309.61456399