/*--------------------------------*- C++ -*----------------------------------*\
| =========                 |                                                 |
| \\      /  F ield         | OpenFOAM: The Open Source CFD Toolbox           |
|  \\    /   O peration     | Version:  3.0.1                                 |
|   \\  /    A nd           | Web:      www.OpenFOAM.org                      |
|    \\/     M anipulation  |                                                 |
\*---------------------------------------------------------------------------*/
FoamFile
{
    version     2.0;
    format      ascii;
    class       volVectorField;
    location    "0.2";
    object      U;
}
// * * * * * * * * * * * * * * * * * * * * * * * * * * * * * * * * * * * * * //

dimensions      [0 1 -1 0 0 0 0];

internalField   nonuniform List<vector> 
7968
(
(0.000214482745616 0.000219702259216 -0.000455834449567)
(0.000641524601149 0.000215544408639 -0.000483448127607)
(0.00109003870502 0.000233874102512 -0.000476177270164)
(0.00144387567272 0.000279229837451 -0.000456731952951)
(0.00165964936009 0.000340398696127 -0.000436111999081)
(0.00170753543128 0.000409788386644 -0.000413619774478)
(0.00157602316808 0.000479584092579 -0.000390655264385)
(0.00127401365771 0.000541463880309 -0.000369664910011)
(0.000831737964536 0.000587440481743 -0.00035360449564)
(0.000297057641001 0.000612031339398 -0.000344975111419)
(-0.000269984327992 0.000612601536126 -0.00034500445183)
(-0.000805591880988 0.000588812935457 -0.000354018585512)
(-0.00125012822657 0.000543526009708 -0.000370425929624)
(-0.00155495615686 0.000482115442058 -0.000391751791095)
(-0.00168946058282 0.000412542108264 -0.000415028801599)
(-0.00164478882204 0.000343233157275 -0.000437727596254)
(-0.00143278990685 0.000282432550381 -0.00045803761057)
(-0.00108311532273 0.000238023842406 -0.000476257344546)
(-0.000641919157415 0.000216981080952 -0.000486457788534)
(-0.000207342132687 0.000217075573124 -0.000463090615292)
(0.000210038322063 0.000655744194486 -0.000482363005485)
(0.000661258485713 0.000675339640444 -0.000603786591311)
(0.00115946483707 0.000748197463178 -0.000622019497761)
(0.00155410180617 0.000883788216074 -0.000602730059239)
(0.00179481543015 0.00106653717049 -0.000578834847293)
(0.00185208065442 0.00127408832567 -0.000552898677099)
(0.00171225965534 0.00148233604127 -0.000525801373256)
(0.00138468462899 0.001665696311 -0.000500845194223)
(0.000902880302739 0.00180155203946 -0.000481722641527)
(0.000320074449167 0.00187397596893 -0.000471400770424)
(-0.000298094025525 0.00187523475377 -0.000471257868866)
(-0.000881953645224 0.00180492312114 -0.00048161475125)
(-0.00136584658794 0.00167087069751 -0.000500797138698)
(-0.00169608396165 0.00148879518058 -0.000525899074901)
(-0.00183876624975 0.00128127660248 -0.000553220618451)
(-0.00178444952475 0.00107400705318 -0.000579392973628)
(-0.00154655105508 0.000891386169514 -0.000603298852117)
(-0.00115437423102 0.000755750997096 -0.000621792358327)
(-0.000659132812592 0.000682364411478 -0.000605715329646)
(-0.000203483417984 0.000664980941257 -0.00048759546813)
(0.000228497170177 0.00111084057665 -0.000473447575819)
(0.000734623033214 0.00117945690238 -0.000620054840456)
(0.00130956596972 0.00132894895065 -0.000647164945139)
(0.00177452494118 0.00157087957209 -0.00061855904861)
(0.00206341147118 0.00188790723376 -0.000577879034444)
(0.00213786756175 0.00224707547266 -0.000532012113158)
(0.0019810430057 0.00260714287036 -0.000484215705363)
(0.00160331955879 0.00292383058932 -0.000441158562143)
(0.00104502264436 0.00315811332016 -0.000409109169672)
(0.000369555407099 0.00328265694101 -0.000392160772672)
(-0.000346725666754 0.00328413982686 -0.000391702632537)
(-0.00102352751471 0.00316230584011 -0.000408221831289)
(-0.00158427429605 0.00293029517762 -0.000439948238191)
(-0.00196512275017 0.00261522844436 -0.000482904728967)
(-0.00212525601411 0.002256087182 -0.000530855917632)
(-0.00205400531675 0.00189722675584 -0.000577051215054)
(-0.00176836155464 0.00158009556638 -0.000617921849684)
(-0.00130623504907 0.00133737538282 -0.000646104011567)
(-0.000734373608165 0.00118797567547 -0.000620589622109)
(-0.000225305742415 0.00112093293627 -0.000475767574345)
(0.000273965844688 0.00146714751944 -0.000452285911503)
(0.000870968446659 0.00157624593993 -0.00059857543878)
(0.00155223566015 0.00179600882405 -0.00061596498824)
(0.00211351315145 0.00213482756518 -0.000563303311066)
(0.00247034260853 0.0025721074795 -0.000488139627624)
(0.00257055014624 0.0030673579765 -0.000400617971159)
(0.00238829480937 0.00356462020578 -0.000309465624074)
(0.0019347724178 0.00400317552209 -0.000229229545671)
(0.00126067767501 0.00432822210227 -0.000171045360068)
(0.00044501915196 0.00450096264593 -0.000140863546427)
(-0.000419531728436 0.00450248851529 -0.000140098889808)
(-0.00123684347128 0.00433260664132 -0.000169338285975)
(-0.00191393542438 0.00400994691528 -0.000226774443028)
(-0.00237126050447 0.00357308357494 -0.000306631341315)
(-0.002557512769 0.0030768245353 -0.000397870282405)
(-0.0024611247343 0.00258193164449 -0.000485840075489)
(-0.00210810833449 0.00214441675705 -0.000561402697117)
(-0.00154970171848 0.00180500936896 -0.000614031569035)
(-0.000871666089623 0.00158566056828 -0.000598645449866)
(-0.000271717280665 0.0014787356815 -0.000454304880491)
(0.000335593632269 0.00168123564381 -0.000429748908821)
(0.00105461521984 0.00181520619212 -0.000572263140439)
(0.00186998127587 0.00208292262499 -0.000572238010085)
(0.0025510935102 0.00248987868358 -0.000484823294035)
(0.00299506647206 0.00301455028309 -0.00035924339477)
(0.00312935612091 0.00361092311257 -0.000209719912301)
(0.00291605137829 0.00421235129053 -5.47175349772e-05)
(0.00236621808869 0.00474498666379 7.94620092359e-05)
(0.00154223119506 0.00514333775973 0.000175623705086)
(0.000543493445381 0.00535584783974 0.000224718313064)
(-0.00051511204612 0.00535718130532 0.000225665891588)
(-0.00151583246894 0.00514722000716 0.000177910022542)
(-0.00234340219805 0.00475106921148 8.29071115394e-05)
(-0.00289770264391 0.00422010565739 -5.04460113188e-05)
(-0.00311561067722 0.00361946695832 -0.000205357834829)
(-0.00298574360713 0.00302369238753 -0.000355553723029)
(-0.00254607417582 0.00249892934961 -0.000481844425563)
(-0.0018681963811 0.00209161670691 -0.000569622566317)
(-0.00105610858599 0.00182421339014 -0.00057182678317)
(-0.000333725236084 0.00169300321009 -0.000431354593512)
(0.000405406711563 0.0017232262404 -0.000405233532208)
(0.00126294767734 0.00186665312723 -0.000543926243716)
(0.00222977930588 0.00215148383559 -0.000523306608808)
(0.00304656125811 0.0025840014683 -0.000393810431417)
(0.00359142333176 0.00314254069647 -0.00020609167487)
(0.00376828577464 0.00378132817801 2.21373992236e-05)
(0.00352254883991 0.00443081529769 0.000255408582442)
(0.00286625942118 0.0050130554993 0.000461728935615)
(0.0018721227574 0.00545659285098 0.000610879206726)
(0.00065915526792 0.00569531950074 0.000686575915801)
(-0.000628482870402 0.00569628553724 0.000687661562217)
(-0.00184355092163 0.00545945302072 0.000613611605509)
(-0.0028415500041 0.00501767165158 0.000465789956802)
(-0.00350305402592 0.00443697782343 0.00026044982725)
(-0.00375387794315 0.00378854392781 2.83219390835e-05)
(-0.00358174136192 0.00315012468549 -0.000201125110804)
(-0.00304181444034 0.00259160144448 -0.000389903969597)
(-0.00222860085292 0.00215885017678 -0.000520082738598)
(-0.00126499927843 0.00187451880058 -0.000543101309181)
(-0.000403853936664 0.00173414821961 -0.000406505749904)
(0.000475464685763 0.00158179318623 -0.000380321262441)
(0.00147160631372 0.00171755230355 -0.000514602709436)
(0.00259005780134 0.00198530319873 -0.000472723589928)
(0.0035436097421 0.00239194555196 -0.000299473081856)
(0.00419248230918 0.00291902131076 -4.77950152547e-05)
(0.00441761929507 0.003524787126 0.00025849600531)
(0.0041479686808 0.00414988513285 0.000584543232401)
(0.00339226487923 0.00472346586712 0.000873586223724)
(0.00222465696619 0.00517263197926 0.00108880923908)
(0.000783251102938 0.00541743868793 0.0011990654635)
(-0.000751058650932 0.0054180061754 0.00120020677238)
(-0.00219459730052 0.00517433763766 0.00109164633684)
(-0.00336611317417 0.00472629879632 0.000877931676406)
(-0.00412697353461 0.00415385242478 0.000589900591599)
(-0.00440243027807 0.00352997293742 0.00026435050082)
(-0.00418280038454 0.00292456250955 -4.21206455597e-05)
(-0.00353899562554 0.00239755909009 -0.000294897558774)
(-0.00258923937756 0.00199090638372 -0.000469043679368)
(-0.00147391395631 0.00172385789381 -0.000513472816368)
(-0.000474007956235 0.00159122444839 -0.00038141190001)
(0.000537357778037 0.00126659325292 -0.000357660622716)
(0.00165479461657 0.00137802786626 -0.000487843965028)
(0.00290628431812 0.00159562964432 -0.00042749169355)
(0.00398143761013 0.00192586324237 -0.000216829121264)
(0.00472412262818 0.00235603717026 8.85780348849e-05)
(0.00499898466466 0.00285453597633 0.000467102658603)
(0.00472128420458 0.00337955018351 0.000875899134029)
(0.00388906043352 0.00387590898968 0.00124910926187)
(0.00256596834275 0.00427906944092 0.00154303560106)
(0.000904481450607 0.00450205365254 0.00169699443712)
(-0.000871465503546 0.00450225416943 0.00169809426806)
(-0.00253508133046 0.00427971135105 0.00154581233939)
(-0.00386205167813 0.00387699654294 0.00125340393147)
(-0.00469937858837 0.00338124199735 0.000881312666352)
(-0.00498295806245 0.0028569311509 0.000472994205538)
(-0.00471403169149 0.00235911069031 9.4294774625e-05)
(-0.00397679079717 0.00192917163895 -0.000211918151642)
(-0.00290551350665 0.00159920027287 -0.000423548864261)
(-0.00165712289041 0.0013825054304 -0.00048655867948)
(-0.000535937617714 0.0012741143624 -0.000358636079424)
(0.000583036010659 0.000809001870991 -0.000340426249919)
(0.00178974395943 0.000882648146174 -0.000467561868872)
(0.00313922475795 0.00102389593965 -0.000394153693509)
(0.0043048888907 0.00123763400358 -0.000157258587008)
(0.00512069560433 0.00151702322789 0.000185929106796)
(0.00544092503099 0.00184468547116 0.000617385419808)
(0.00516939192666 0.00219548759703 0.0010922372386)
(0.00429181657541 0.00253557888535 0.0015439769314)
(0.00285065272142 0.00281982227742 0.00192329386155)
(0.00100644754693 0.0029784417892 0.00212612816051)
(-0.00097328873267 0.00297829032688 0.00212719265457)
(-0.00281961453898 0.00281943566349 0.00192597764611)
(-0.00426456019632 0.00253504074194 0.00154802304853)
(-0.00514701496301 0.0021950470461 0.00109743161706)
(-0.00542429732947 0.00184459143247 0.000623126760744)
(-0.00511011264172 0.00151748548965 0.000191481471955)
(-0.00429990119507 0.00123858277953 -0.000152297771336)
(-0.00313817886964 0.00102538777232 -0.000390138030001)
(-0.00179184468047 0.000885220079973 -0.00046622559299)
(-0.000581545031684 0.000814605023833 -0.000341351061752)
(0.000607011856918 0.000258629283475 -0.000331275356826)
(0.00186053549654 0.000286071382644 -0.000456877335225)
(0.00326150118403 0.000334903050839 -0.000376980073669)
(0.00447506520195 0.000407819343013 -0.000127005341164)
(0.00533059619568 0.000503254685703 0.00023485977999)
(0.00567731992875 0.000616117105579 0.000692661061462)
(0.00541239792705 0.000737860103173 0.00120185687316)
(0.00451365484881 0.000857188954593 0.00169715570204)
(0.00300890948191 0.000957912896838 0.00212527757365)
(0.00106305313166 0.00101406563196 0.00235577633018)
(-0.00103048690524 0.0010135928348 0.00235676728017)
(-0.00297833731389 0.00095655871507 0.00212771391868)
(-0.00448665656184 0.000855162040771 0.00170084309141)
(-0.00538997623094 0.000735455057208 0.00120658566429)
(-0.00566033032654 0.000613719625009 0.000697943943225)
(-0.00531947247804 0.000501266370631 0.000240027620042)
(-0.00446947246499 0.000406498793806 -0.000122246548901)
(-0.0032598944702 0.000334336502843 -0.000373056053271)
(-0.0018621510896 0.000286644157119 -0.000455583837794)
(-0.000605326411047 0.000261995351647 -0.000332214430196)
(0.000606618530464 -0.000322973963073 -0.00033157034985)
(0.00185946602908 -0.000344657823101 -0.000457329359373)
(0.00325991462441 -0.000393451694033 -0.000377666314329)
(0.00447322566352 -0.00046911398385 -0.000127916554429)
(0.00532865316847 -0.000568218599227 0.000233712995387)
(0.00567538405446 -0.000684681029008 0.000691251856896)
(0.00541056955376 -0.000809936541741 0.00120015527741)
(0.00451204774166 -0.000932758132535 0.00169516852439)
(0.00300759736195 -0.00103652071495 0.00212304933708)
(0.00106217648711 -0.00109497454891 0.00235335457133)
(-0.00103081348828 -0.00109571980154 0.0023543221907)
(-0.00297808617401 -0.0010386590711 0.00212529361926)
(-0.00448582453579 -0.000936016484917 0.0016984871594)
(-0.00538853998576 -0.000813930672265 0.00120433024405)
(-0.00565830805118 -0.000688894397079 0.00069588301478)
(-0.00531699194243 -0.000572109596311 0.000238326226351)
(-0.00446686749107 -0.000472199597468 -0.000123529179871)
(-0.00325762357214 -0.00039561963513 -0.000373820373598)
(-0.00186069870181 -0.00034559372021 -0.000455900132019)
(-0.00060494895911 -0.000321129923053 -0.000332221685797)
(0.000581768423413 -0.000870466142782 -0.000341438506273)
(0.00178657859905 -0.000938572304583 -0.000468965220539)
(0.0031346979861 -0.00107956448652 -0.000396180345221)
(0.00429972014451 -0.00129559053991 -0.000159854337116)
(0.0051152602644 -0.00157799158331 0.00018280481782)
(0.00543549903072 -0.00190867029024 0.000613554908009)
(0.00516421992888 -0.00226241969137 0.00108761753561)
(0.00428721214358 -0.00260548699668 0.00153856924972)
(0.00284688100295 -0.00289243260184 0.00191722366463)
(0.00100389213779 -0.003053093966 0.00211945528931)
(-0.000974239151484 -0.00305406257284 0.00212033044984)
(-0.00281884341117 -0.00289518804541 0.00191911016524)
(-0.00426208719366 -0.00260966084041 0.00154132524647)
(-0.00514279784528 -0.00226752571342 0.00109101587821)
(-0.00541842259741 -0.00191409486377 0.000617331751898)
(-0.00510299555603 -0.00158312442974 0.000186676537212)
(-0.00429243170796 -0.00129983550557 -0.000156006900459)
(-0.00313149274151 -0.00108279994416 -0.000392566238107)
(-0.00178704951589 -0.000940476415208 -0.00046757054539)
(-0.00057980253813 -0.000869391703738 -0.00034205688667)
(0.000535350507451 -0.00132283228376 -0.000359278981036)
(0.00164990164911 -0.00142901327116 -0.000490082521066)
(0.00289938616802 -0.001646026112 -0.000430692459281)
(0.00397369672373 -0.00197782461055 -0.000220841687944)
(0.00471605625344 -0.00241001099503 8.38856750534e-05)
(0.00499092788472 -0.00291070536615 0.000461538247428)
(0.00471354931819 -0.00343773546529 0.000869311437179)
(0.00388200207869 -0.00393622671355 0.00124142572461)
(0.00256010630998 -0.00434144680131 0.00153422151999)
(0.000900510814617 -0.00456600124217 0.0016872653681)
(-0.000872956752398 -0.00456712173245 0.00168800345618)
(-0.00253386528974 -0.00434460170357 0.00153567462266)
(-0.00385817682298 -0.00394097478649 0.00124352830661)
(-0.0046928427602 -0.00344347894179 0.00087187587881)
(-0.00497391871527 -0.0029167502214 0.000464439386373)
(-0.00470320375217 -0.00241589049473 8.71011261556e-05)
(-0.00396545030757 -0.00198285457629 -0.000217470206007)
(-0.00289525714674 -0.00165007981051 -0.000427239911002)
(-0.00164965220167 -0.0014317778747 -0.000488638351571)
(-0.000533147594873 -0.00132266718846 -0.000359751658845)
(0.00047287509325 -0.00163069017964 -0.000382426723709)
(0.0014654618667 -0.00176177486137 -0.000517535385142)
(0.00258153678159 -0.00202861341163 -0.000476882361288)
(0.00353427352626 -0.00243603732611 -0.000304586423606)
(0.00418275090998 -0.00296423100515 -5.36652884741e-05)
(0.00440791339189 -0.0035714622081 0.000252121259184)
(0.00413867335907 -0.00419731826537 0.000576914981895)
(0.00338358655125 -0.00477207734633 0.000864672569326)
(0.00221735392119 -0.00522243533581 0.00107853023784)
(0.000778240558651 -0.00546820299892 0.00118761258103)
(-0.000752976879744 -0.00546938563026 0.00118815188249)
(-0.0021930305857 -0.00522571744893 0.00107944652887)
(-0.00336111566997 -0.00477697851344 0.00086602891631)
(-0.00411861336482 -0.0042031525908 0.000578590211616)
(-0.0043910137556 -0.00357721834529 0.000254078217639)
(-0.00416947428388 -0.00297022415972 -5.09576035831e-05)
(-0.00352515704805 -0.00244140301888 -0.000301532921599)
(-0.00257655580293 -0.00203313983129 -0.00047348102783)
(-0.00146456332452 -0.00176507850349 -0.000515969852189)
(-0.000470500300378 -0.00163111568596 -0.000382676426957)
(0.000402385299329 -0.00176335100463 -0.000407712922773)
(0.00125605425269 -0.00190284104312 -0.000547403067367)
(0.0022203871229 -0.00218646938362 -0.00052818180737)
(0.00303638562581 -0.00261898533174 -0.000399632542656)
(0.00358069564715 -0.00317768916612 -0.000212369324764)
(0.00375799781256 -0.0038164932 1.64479010247e-05)
(0.00351292576954 -0.00446609629458 0.000247485247318)
(0.00285690944215 -0.00504868145314 0.000452277197885)
(0.00186415994657 -0.00549253840508 0.000599955333834)
(0.000653619967222 -0.00573150606645 0.000674332896859)
(-0.000630609787732 -0.00573265462542 0.000674627556356)
(-0.00184169866967 -0.00549571805183 0.000600332666111)
(-0.00283569612484 -0.00505341417656 0.000452910189503)
(-0.00349313393387 -0.00447179992601 0.000248317814053)
(-0.00374119530966 -0.00382259008549 1.67389083327e-05)
(-0.00356746529902 -0.00318362228715 -0.000210274589246)
(-0.00302666798178 -0.00262443175235 -0.000396771422985)
(-0.00221470536523 -0.00219128046755 -0.000524715620383)
(-0.00125464064061 -0.00190651718248 -0.0005456797788)
(-0.000399933793348 -0.00176415231711 -0.000407711331152)
(0.000332357469846 -0.00171203229511 -0.000432412232728)
(0.0010474925942 -0.00184285878643 -0.000576079895154)
(0.00186051782564 -0.00210908761442 -0.00057750996759)
(0.00254115551018 -0.00251533667943 -0.000490879911432)
(0.00298508973338 -0.00303918425788 -0.000365653225422)
(0.00311952498725 -0.00363432897372 -0.00021641095958)
(0.00290636865843 -0.00423530134508 -6.2383897633e-05)
(0.00235696162507 -0.00476727088301 7.08570779739e-05)
(0.00153441732276 -0.00516496519387 0.000165657038074)
(0.000538057608898 -0.00537693313824 0.000213447822296)
(-0.000517146395209 -0.00537795054327 0.000213549684315)
(-0.00151371593395 -0.005167772457 0.00016557441183)
(-0.00233706462418 -0.00477148923572 7.09530101893e-05)
(-0.00288771642 -0.00424053482919 -6.17959639156e-05)
(-0.0031028817444 -0.00364048695254 -0.000215297745369)
(-0.0029711648097 -0.00304492258278 -0.000363628460445)
(-0.00253091245991 -0.00252077529764 -0.000488050267456)
(-0.00185430594234 -0.00211418767322 -0.000573889996146)
(-0.00104561511336 -0.00184689780438 -0.000574200807233)
(-0.000329733391984 -0.00171294790087 -0.000432296092596)
(0.000271100515104 -0.00148894030508 -0.000454522860196)
(0.000864260146162 -0.0015954290041 -0.00060226701174)
(0.0015434229938 -0.00181388124357 -0.000621027625618)
(0.00210454210256 -0.0021517601458 -0.000568798199987)
(0.00246163891857 -0.00258774792696 -0.000493574689055)
(0.00256196156714 -0.0030815612272 -0.000405975827146)
(0.00237985321618 -0.00357748208745 -0.000315073900329)
(0.00192682056856 -0.00401451597704 -0.000235441480766)
(0.00125396276281 -0.00433814306258 -0.000178209132728)
(0.000440349832386 -0.00450974227692 -0.000149044559918)
(-0.000421153856556 -0.00451055167066 -0.000149029756113)
(-0.00123469788934 -0.00434037448157 -0.000178521231817)
(-0.00190801637085 -0.00401795445988 -0.000235640339158)
(-0.00236196387794 -0.00358185827681 -0.000314749785207)
(-0.00254562467788 -0.00308663867001 -0.000404894648696)
(-0.00244764730172 -0.00259306720912 -0.000491661057054)
(-0.00209415028333 -0.00215716462977 -0.000565989841608)
(-0.00153688961479 -0.0018191859455 -0.000617247807881)
(-0.000861801782274 -0.00160024171778 -0.000600316518206)
(-0.000267988617129 -0.0014902868648 -0.000454734017666)
(0.000226690990036 -0.00112490337753 -0.000474151751956)
(0.000728689336253 -0.00119071818673 -0.000622603590874)
(0.00130141097972 -0.00133943274292 -0.000650913886792)
(0.0017667664181 -0.00158036738733 -0.000622446484095)
(0.0020563106608 -0.00189638802727 -0.000581310212417)
(0.00213095368135 -0.00225436587534 -0.000534862327524)
(0.00197432234812 -0.00261307797991 -0.000486710727298)
(0.00159705189318 -0.00292823651374 -0.000443670462988)
(0.00103977418076 -0.00316099659773 -0.000412008265191)
(0.000365964913936 -0.00328423124239 -0.000395632585633)
(-0.00034774927857 -0.00328488825298 -0.000395595178396)
(-0.00102132525024 -0.00316269471355 -0.000412357281915)
(-0.00157887978727 -0.0029309514846 -0.000443969441628)
(-0.00195685876287 -0.00261671449723 -0.000486555091649)
(-0.00211480405509 -0.00225880288002 -0.000534012870272)
(-0.0020422835393 -0.001901417675 -0.000579690499797)
(-0.00175615093207 -0.00158584118312 -0.000619964798928)
(-0.00129493328121 -0.00134503453229 -0.000647483962516)
(-0.000726060940942 -0.00119641292538 -0.000620476997649)
(-0.000223253700235 -0.00112645162597 -0.0004745343696)
(0.000206074963563 -0.000667095839403 -0.000485378098357)
(0.000656131803831 -0.000681154180614 -0.000607444134796)
(0.00115305911138 -0.000754049473931 -0.000625685120312)
(0.0015484684883 -0.000889208511467 -0.000606353829917)
(0.00178970677298 -0.0010715585519 -0.000581821761906)
(0.00184724825887 -0.00127846318517 -0.000555148886199)
(0.00170763115441 -0.00148576766806 -0.000527422099892)
(0.00138042007538 -0.00166800211641 -0.000502147147099)
(0.000899413839754 -0.00180264610384 -0.000483019001271)
(0.000317875436993 -0.00187393803413 -0.000472918061106)
(-0.000298133552494 -0.00187457893463 -0.000472839807707)
(-0.000879176401907 -0.00180387612138 -0.000483349883278)
(-0.00136035301734 -0.00166998200157 -0.000502523411364)
(-0.0016880966649 -0.00148850867098 -0.000527522367094)
(-0.00182883835652 -0.00128189620511 -0.000554760775037)
(-0.00177331281297 -0.00107560339259 -0.000580914600046)
(-0.00153547782229 -0.000893747715352 -0.000604783370161)
(-0.00114474685894 -0.000759319555674 -0.00062264665065)
(-0.000652240442263 -0.000686558055594 -0.000605951689564)
(-0.000202984842897 -0.00066713488616 -0.000486416509829)
(0.000207152306057 -0.000215462345542 -0.00046231875458)
(0.000640123568037 -0.000210775013685 -0.000489187758252)
(0.00108702119252 -0.000231797564569 -0.000479861496881)
(0.00144219038802 -0.000277523719742 -0.00046038977245)
(0.001658940725 -0.000338650904711 -0.000439226655637)
(0.00170728285612 -0.000407947979444 -0.000416039471054)
(0.00157579043433 -0.000477437928404 -0.000392507128692)
(0.0012736833956 -0.000538957766625 -0.000371126680532)
(0.000831754482998 -0.000584497268246 -0.00035491928693)
(0.000297751372783 -0.000608644716639 -0.000346328117401)
(-0.000267475888857 -0.000609110541079 -0.00034619544689)
(-0.000800426191658 -0.000585177169182 -0.000355256867713)
(-0.00124261458606 -0.000540007176515 -0.000371614967768)
(-0.00154530884532 -0.000478917421879 -0.000392864761281)
(-0.00167815999385 -0.000409796593421 -0.000416103618498)
(-0.00163224668953 -0.000340845905116 -0.000438911834493)
(-0.00141999281229 -0.00028007149797 -0.000459631561634)
(-0.0010710329003 -0.000235767672737 -0.000477892722017)
(-0.00063116883101 -0.000215744526493 -0.000487929706721)
(-0.000204384952613 -0.000217323703701 -0.000459947727861)
(0.000232114806184 0.000238710466261 -0.00129064364151)
(0.000691135288622 0.000287552187374 -0.00136043328326)
(0.00114718145564 0.000331815016231 -0.00135062905086)
(0.0015108482723 0.000396960338676 -0.00131343087858)
(0.00173444718684 0.000478430168463 -0.00126767946336)
(0.00178620626709 0.00056901320855 -0.00121422256328)
(0.00165048180316 0.000659857742723 -0.00115774280939)
(0.00133491422124 0.000740108561347 -0.00110514954011)
(0.000870554807936 0.000799538851953 -0.00106436190196)
(0.000308201607542 0.000831169592763 -0.00104225646173)
(-0.000288545116775 0.000831725452661 -0.00104248569842)
(-0.000851796284322 0.000800876458262 -0.00106535040497)
(-0.0013178758135 0.000742099811325 -0.00110686063569)
(-0.00163562524471 0.000662264992881 -0.00116015520214)
(-0.00177365717618 0.000571592647592 -0.0012172424908)
(-0.0017243205127 0.000481035211102 -0.0012710726871)
(-0.00150304741432 0.000399697393567 -0.00131678580712)
(-0.00114177386466 0.000335157848089 -0.00135279565574)
(-0.00068817059629 0.000288957801525 -0.00136357764047)
(-0.00022425654895 0.000236793394548 -0.00129258543218)
(0.000281812739941 0.000707800669667 -0.00135806891788)
(0.000771625954904 0.000781781703141 -0.00151377288181)
(0.00123703038229 0.000888129046752 -0.00153473031889)
(0.00162390776927 0.00105502139905 -0.00149856790882)
(0.00186613501324 0.00127185321229 -0.00144296269726)
(0.00192407049703 0.00151619867094 -0.0013769221025)
(0.00177847286598 0.00176060665417 -0.00130635003202)
(0.00143678733032 0.00197489813469 -0.00124099491248)
(0.000933701222676 0.00213291924888 -0.00119092198081)
(0.000325320860122 0.00221660632899 -0.00116391844556)
(-0.000319632437141 0.00221747431196 -0.00116370845492)
(-0.000928411031478 0.00213520395269 -0.00119050979462)
(-0.00143210977801 0.00197833961545 -0.00124052038204)
(-0.00177460726939 0.00176481916984 -0.00130602141886)
(-0.00192109754165 0.00152080737021 -0.00137688871456)
(-0.00186408184845 0.00127658281767 -0.00144324288646)
(-0.00162247475113 0.00105980169217 -0.00149897354132)
(-0.00123594018766 0.00089294714188 -0.00153479047297)
(-0.000770718446509 0.000786947325911 -0.00151484588094)
(-0.000277867727134 0.00071566158194 -0.00136011881941)
(0.000327134142489 0.00117020788068 -0.00134449666372)
(0.000882049452933 0.00124728839105 -0.00153095177842)
(0.00140938191964 0.00141277976797 -0.00156196145054)
(0.00185474682321 0.00168104503152 -0.00150487606093)
(0.00214047650651 0.00203462321584 -0.00140789617756)
(0.00221399299856 0.00243616461742 -0.00128924909943)
(0.00204938890705 0.00283823702007 -0.00116316572088)
(0.00165511804523 0.00319012807462 -0.001049871499)
(0.00107375978236 0.00344929159895 -0.0009664153603)
(0.00037207216138 0.00358615148498 -0.000922731395146)
(-0.000370896577788 0.00358693823972 -0.000922019979037)
(-0.00107282712341 0.00345140093829 -0.000964548986608)
(-0.00165440379956 0.00319329020493 -0.00104721104254)
(-0.00204899424652 0.00284210603978 -0.00116020500241)
(-0.00221399213231 0.00244037331535 -0.00128644921703)
(-0.00214091541465 0.00203884760643 -0.00140553202822)
(-0.00185553593561 0.00168516618373 -0.00150294311471)
(-0.00141030269112 0.00141685895264 -0.00156024010424)
(-0.000883187985718 0.00125249999665 -0.00153029101812)
(-0.000326316499493 0.00117871702338 -0.00134428690745)
(0.000393125322799 0.00153604310156 -0.00130317955173)
(0.00105146519957 0.00163261343118 -0.00149042999886)
(0.00168060828676 0.00185511259376 -0.00150005173066)
(0.00222191119245 0.00221958469145 -0.00138715538921)
(0.00257819141558 0.00270237603629 -0.00120327096921)
(0.0026778396238 0.0032525344177 -0.000975700029663)
(0.00248369728054 0.0038034153596 -0.000735336278405)
(0.00200638711434 0.00428590263004 -0.000525033832116)
(0.00130081681181 0.00464290546665 -0.000375453317342)
(0.000450234802174 0.00483166431077 -0.000299437127742)
(-0.000449456216093 0.00483225741067 -0.000298209133211)
(-0.00130036762126 0.0046445512882 -0.000372117876194)
(-0.00200620634714 0.00428841206244 -0.000520182743794)
(-0.00248388865549 0.00380656928357 -0.000729782168998)
(-0.00267851258021 0.00325604143132 -0.000970223787045)
(-0.00257938528865 0.00270585347019 -0.00119847756146)
(-0.00222359665518 0.00222293448455 -0.00138329368455)
(-0.00168251658971 0.00185861885235 -0.00149703298733)
(-0.00105367554316 0.00163779312312 -0.0014887843721)
(-0.000393390828382 0.00154529171311 -0.00130202842408)
(0.000475767817903 0.00175797481385 -0.00125274335321)
(0.00127040462079 0.00187225917219 -0.00143030153077)
(0.00203596702042 0.00213798993776 -0.00139796896712)
(0.0027057183983 0.00257328227178 -0.00119773537402)
(0.00315682085963 0.00315129354341 -0.00088050887421)
(0.00329171056747 0.00381181397846 -0.000486157055671)
(0.00305940119011 0.00447329247022 -7.22581934943e-05)
(0.0024749131807 0.00505906854145 0.000283855665854)
(0.00160613773511 0.00549897558967 0.000533452006259)
(0.000556049994728 0.00573298655787 0.000658050512728)
(-0.000554708178416 0.0057333415944 0.000659742983182)
(-0.00160518367815 0.0055000039717 0.000538050707686)
(-0.00247430494335 0.00506061538029 0.000290567186454)
(-0.00305928757138 0.0044753020079 -6.44213832492e-05)
(-0.00329236199896 0.00381447313876 -0.000478196826411)
(-0.00315827798019 0.00315386750259 -0.000873536281932)
(-0.00270785718258 0.00257580842777 -0.00119220592105)
(-0.00203846797874 0.00214088002423 -0.00139387515405)
(-0.00127329024443 0.00187701787825 -0.00142789157821)
(-0.000476467212953 0.00176717396637 -0.00125075493221)
(0.00056744115856 0.00180416874454 -0.00119444019907)
(0.00151661191199 0.00192696268897 -0.00135997220989)
(0.00243889646426 0.00220946952765 -0.00127459583144)
(0.00325641898927 0.00267114583223 -0.000964950773898)
(0.00381745845633 0.00328426348062 -0.00048091058368)
(0.00399397431379 0.00398613988163 0.000122274337315)
(0.00372408475545 0.00470021500778 0.000756567219811)
(0.00302630744318 0.00534448182977 0.00130111101071)
(0.00197099050159 0.00584231055837 0.00168615760896)
(0.000683186224632 0.00611043798164 0.00187774969016)
(-0.000681328332864 0.00611058549429 0.00187963314302)
(-0.00196962348688 0.00584274116089 0.00169147350694)
(-0.00302537850315 0.00534508918769 0.00130891007154)
(-0.00372336071182 0.00470096732676 0.000765869047477)
(-0.00399426569037 0.00398720100448 0.000132418195702)
(-0.00381909392246 0.00328575002564 -0.000472087038075)
(-0.00325881141057 0.00267282032777 -0.000958030463377)
(-0.00244176824999 0.00221165598455 -0.00126964220385)
(-0.00151994893123 0.00193097247529 -0.00135701928193)
(-0.000568542604325 0.00181223761313 -0.00119181871424)
(0.000659192523344 0.00165921766434 -0.00113331661111)
(0.00176239159895 0.00177797508432 -0.00128568328898)
(0.00284179615404 0.00204415277172 -0.00114464248799)
(0.00380727283024 0.00247670779361 -0.000720472786914)
(0.00447841439501 0.00305121202941 -6.31770376527e-05)