/*--------------------------------*- C++ -*----------------------------------*\
| =========                 |                                                 |
| \\      /  F ield         | OpenFOAM: The Open Source CFD Toolbox           |
|  \\    /   O peration     | Version:  3.0.1                                 |
|   \\  /    A nd           | Web:      www.OpenFOAM.org                      |
|    \\/     M anipulation  |                                                 |
\*---------------------------------------------------------------------------*/
FoamFile
{
    version     2.0;
    format      ascii;
    class       volScalarField;
    location    "8.8";
    object      p;
}
// * * * * * * * * * * * * * * * * * * * * * * * * * * * * * * * * * * * * * //

dimensions      [1 -1 -2 0 0 0 0];

internalField   nonuniform List<scalar> 
7968
(
4646.63423762
4646.63205915
4646.5994404
4646.55366718
4646.50709289
4646.46628428
4646.43748555
4646.42015648
4646.40896801
4646.39885661
4646.38762031
4646.37515443
4646.3640293
4646.35953457
4646.36754865
4646.38790035
4646.41854935
4646.45119053
4646.47571176
4646.47515509
4646.63417668
4646.64867922
4646.62461947
4646.58253941
4646.53591303
4646.49578598
4646.46666778
4646.44957999
4646.43913932
4646.42940008
4646.41805478
4646.40502867
4646.39294289
4646.3876226
4646.39524538
4646.41599971
4646.4456483
4646.47440521
4646.49040858
4646.47377721
4646.60735916
4646.63048055
4646.60893565
4646.5648865
4646.51373256
4646.469476
4646.4374914
4646.41828555
4646.40640519
4646.39573004
4646.38398717
4646.37115394
4646.35988814
4646.35630795
4646.36667343
4646.39136444
4646.42537258
4646.4558656
4646.46933231
4646.44440419
4646.5703267
4646.59730826
4646.57374579
4646.52592135
4646.47273753
4646.43062272
4646.40364686
4646.38989192
4646.38196733
4646.37294023
4646.36083832
4646.34571611
4646.33003778
4646.32062202
4646.32582981
4646.34812786
4646.38385766
4646.41766346
4646.43285308
4646.40420693
4646.53424293
4646.56149059
4646.53321286
4646.48324816
4646.4344853
4646.40231144
4646.38717728
4646.38473258
4646.384676
4646.37954027
4646.367154
4646.34754111
4646.32324528
4646.30212042
4646.29535985
4646.30777669
4646.33894245
4646.37444413
4646.39392259
4646.36489359
4646.50596503
4646.53331955
4646.50071706
4646.45280423
4646.41406
4646.39613108
4646.396699
4646.40907162
4646.41973674
4646.41998193
4646.40735936
4646.38180945
4646.34589175
4646.30920444
4646.28647443
4646.28492252
4646.30636662
4646.33956196
4646.36304701
4646.33389939
4646.48975111
4646.51698852
4646.48142338
4646.43853171
4646.4118754
4646.40988401
4646.42853866
4646.45808372
4646.48158311
4646.48827595
4646.47549846
4646.44317488
4646.39346319
4646.33863615
4646.29741145
4646.28014344
4646.28998065
4646.31820262
4646.34454082
4646.3153434
4646.48540866
4646.51302209
4646.47544845
4646.43828181
4646.42323603
4646.43650437
4646.47260285
4646.51923294
4646.55555971
4646.57152637
4646.5592811
4646.5172695
4646.45390737
4646.38096418
4646.32172391
4646.28924146
4646.28780597
4646.31055604
4646.33891561
4646.30923679
4646.48727555
4646.51568511
4646.4769185
4646.44390588
4646.43724844
4646.46178142
4646.51106739
4646.57052277
4646.62412619
4646.6508948
4646.63936448
4646.58756479
4646.50549597
4646.41851893
4646.3456149
4646.30179361
4646.29210774
4646.3108148
4646.34038097
4646.30990677
4646.49014516
4646.518993
4646.47967745
4646.44864691
4646.44626572
4646.47660424
4646.53272715
4646.6000652
4646.66415264
4646.69566331
4646.68443373
4646.62930603
4646.53705783
4646.43949214
4646.35985717
4646.31024125
4646.29631117
4646.3130228
4646.34314087
4646.312211
4646.49157372
4646.52045617
4646.48121307
4646.45026275
4646.44795706
4646.47837013
4646.53455778
4646.60192238
4646.66603851
4646.69757289
4646.68633725
4646.63118654
4646.53893134
4646.44139959
4646.36177193
4646.31213804
4646.2981577
4646.31477371
4646.34478838
4646.31381866
4646.49146048
4646.519985
4646.48143448
4646.44868429
4646.44228193
4646.46707451
4646.51658871
4646.57621461
4646.62995069
4646.65677818
4646.64522103
4646.59334606
4646.51123176
4646.42428461
4646.35134094
4646.30741993
4646.2975573
4646.31596984
4646.34523184
4646.31463318
4646.49211472
4646.51992462
4646.48271218
4646.44602004
4646.43145366
4646.44522749
4646.48180453
4646.52883434
4646.56547895
4646.58161094
4646.56935059
4646.52719903
4646.46364582
4646.39055518
4646.3311349
4646.29838706
4646.29658576
4646.31883578
4646.34672004
4646.31683743
4646.49862353
4646.52606765
4646.49098697
4646.4487758
4646.42284382
4646.42161808
4646.44101725
4646.47120048
4646.49515839
4646.5020755
4646.48930079
4646.45680074
4646.40681778
4646.35166111
4646.31004967
4646.29230506
4646.30156083
4646.32909763
4646.35484178
4646.3254311
4646.51655798
4646.54409844
4646.5120475
4646.46495873
4646.42712345
4646.41014473
4646.41163993
4646.4248206
4646.43606843
4646.43662116
4646.42404378
4646.39831753
4646.36205183
4646.32489521
4646.30160334
4646.29939831
4646.32009076
4646.35247085
4646.37531911
4646.34598568
4646.54602879
4646.57353382
4646.54578801
4646.49668209
4646.44893018
4646.41781626
4646.40370495
4646.40216249
4646.40276322
4646.39800271
4646.38571202
4646.36594842
4646.34127662
4646.31960002
4646.31216447
4646.3237994
4646.35409983
4646.38876191
4646.40765703
4646.37837837
4646.58302766
4646.61018031
4646.58707921
4646.54006326
4646.48789273
4646.4468742
4646.4209557
4646.40817254
4646.40093321
4646.39232924
4646.38036552
4646.3651125
4646.34903874
4646.33900753
4646.34347193
4646.36491594
4646.39976792
4646.43280928
4646.4475164
4646.41874991
4646.62062184
4646.64389091
4646.62270474
4646.57934707
4646.52912388
4646.48591593
4646.4549767
4646.43672449
4646.42556192
4646.41533105
4646.40374319
4646.39078526
4646.37910696
4646.37488209
4646.38447961
4646.40834432
4646.44156931
4646.47143711
4646.48455214
4646.45954576
4646.64787188
4646.66244565
4646.63866754
4646.59715424
4646.55132941
4646.51216048
4646.48402982
4646.46784545
4646.45808333
4646.44876355
4646.43756191
4646.42441346
4646.41192597
4646.40598089
4646.41288397
4646.43291801
4646.46193459
4646.49021155
4646.50595948
4646.48930727
4646.64820608
4646.64618936
4646.61382718
4646.56860114
4646.52280951
4646.48295361
4646.4550741
4646.43858784
4646.42803714
4646.41832797
4646.40723487
4646.39465688
4646.3831563
4646.37807057
4646.38539743
4646.4050034
4646.43507413
4646.46723167
4646.49144924
4646.49071934
4156.99506628
4156.97970183
4156.93758616
4156.88591149
4156.83877904
4156.80131006
4156.77494847
4156.76007615
4156.75093047
4156.74178268
4156.73055378
4156.71720876
4156.70418968
4156.69715906
4156.70247177
4156.72112796
4156.75176442
4156.79005723
4156.82374771
4156.83613209
4156.98170446
4156.97711887
4156.93906552
4156.89176908
4156.8511484
4156.82069047
4156.80047537
4156.78987772
4156.78301932
4156.77480435
4156.76355407
4156.74933274
4156.73408092
4156.72287574
4156.72218636
4156.73403468
4156.75778637
4156.79114946
4156.82028004
4156.82202013
4156.94540877
4156.94513417
4156.90096833
4156.849233
4156.80700868
4156.77796886
4156.76075185
4156.75278947
4156.74756538
4156.73997262
4156.72839508
4156.71295046
4156.69563283
4156.68169665
4156.67810588
4156.68839873
4156.71357713
4156.75095499
4156.78577203
4156.78321734
4156.90268413
4156.90695747
4156.85819201
4156.80594191
4156.76945203
4156.75044396
4156.7445691
4156.74602048
4156.74652781
4156.74141449
4156.7294617
4156.71080878
4156.68707844
4156.6635203
4156.64853039
4156.64906484
4156.66841238
4156.70585296
4156.74462351
4156.73741744
4156.86639867
4156.87713679
4156.82643325
4156.7797748
4156.75658988
4156.75687899
4156.77019531
4156.78765061
4156.79913216
4156.79917668
4156.78688717
4156.76231849
4156.72676898
4156.68644611
4156.65239696
4156.63422283
4156.6402051
4156.67180999
4156.71192198
4156.69795447
4156.84099246
4156.85833167
4156.80875762
4156.7720085
4156.76818649
4156.79041727
4156.82696694
4156.86463575
4156.8899893
4156.89684626
4156.88445656
4156.85256366
4156.80198582
4156.74023599
4156.68249998
4156.64237033
4156.62981854
4156.6517973
4156.69040897
4156.6695355
4156.82758639
4156.85071941
4156.8038848
4156.77844433
4156.7941833
4156.83999949
4156.90106814
4156.96046267
4157.00135736
4157.01601937
4157.00376238
4156.96393315
4156.89667144
4156.81162557
4156.7284483
4156.66500959
4156.63391365
4156.6447143
4156.68049268
4156.65359092
4156.82592359
4156.85303977
4156.80884257
4156.79296706
4156.82523688
4156.89197764
4156.97518883
4157.05512365
4157.10997952
4157.1281558
4157.11546263
4157.07278419
4156.99097916
4156.88396899
4156.77763697
4156.69331059
4156.64600513
4156.64761213
4156.6809382
4156.64992394
4156.82993522
4156.85915954
4156.81685248
4156.80699638
4156.85071699
4156.93205699
4157.03122218
4157.12524996
4157.18066526
4157.20053745
4157.18796248
4157.14236196
4157.06011059
4156.93914599
4156.81612534
4156.71708752
4156.65842441
4156.65404307
4156.68570386
4156.65251342
4156.83384475
4156.86391021
4156.82257779
4156.81551684
4156.86482474
4156.95332323
4157.06033905
4157.15953181
4157.21571169
4157.23805406
4157.22566607
4157.17662435
4157.09116413
4156.96803213
4156.83686931
4156.73056296
4156.66630277
4156.65906113
4156.68980515
4156.65572982
4156.83535916
4156.8654473
4156.82420211
4156.81721182
4156.86659223
4156.95514506
4157.06219072
4157.16142369
4157.21762487
4157.23997884
4157.22757494
4157.1784963
4157.09301936
4156.9698952
4156.8387968
4156.7325254
4156.66825027
4156.66093418
4156.69155255
4156.65743124
4156.83436788
4156.86368345
4156.82164939
4156.81203585
4156.8560107
4156.93757669
4157.03689034
4157.13102154
4157.18654405
4157.20644735
4157.19381495
4157.14809801
4157.06580134
4156.9448393
4156.82193881
4156.72293157
4156.66417505
4156.65955515
4156.69084415
4156.65750872
4156.83304644
4156.86034062
4156.81660124
4156.80119611
4156.83396338
4156.90120077
4156.98483447
4157.06512995
4157.12022904
4157.13845136
4157.12565829
4157.08277214
4157.00081324
4156.89371622
4156.787356
4156.70288966
4156.65530777
4156.65645823
4156.6892055
4156.65795508
4156.83699843
4156.86039221
4156.81416744
4156.78946899
4156.80599203
4156.85262356
4156.91444428
4156.97448319
4157.01584399
4157.03066031
4157.01829774
4156.97818297
4156.91055453
4156.82519632
4156.74172723
4156.67790246
4156.64627783
4156.6563843
4156.69142663
4156.66420084
4156.85223645
4156.86989632
4156.82101662
4156.78521749
4156.7824085
4156.80569198
4156.84324325
4156.88175853
4156.90771417
4156.91483762
4156.90240597
4156.87023448
4156.8192161
4156.75696378
4156.69866785
4156.65791251
4156.64460619
4156.66566763
4156.70345295
4156.68218262
4156.87904388
4156.89013742
4156.84009192
4156.79445046
4156.77239512
4156.77385425
4156.78826816
4156.80665461
4156.81882572
4156.81923499
4156.80699204
4156.78221242
4156.74621739
4156.70531898
4156.6705831
4156.65159657
4156.65663292
4156.68721135
4156.7265279
4156.71212855
4156.91628477
4156.92086666
4156.87265934
4156.82139511
4156.78608573
4156.76828075
4156.7635489
4156.76595773
4156.76721058
4156.7625398
4156.75071941
4156.73191499
4156.70774506
4156.6835467
4156.66776797
4156.66737318
4156.6856611
4156.72208321
4156.76016763
4156.75256417
4156.95961
4156.95955353
4156.91578753
4156.86489227
4156.82378054
4156.79593104
4156.77985055
4156.77287301
4156.76841368
4156.76130298
4156.74989819
4156.73432693
4156.71655608
4156.70192618
4156.69747455
4156.70678276
4156.73094603
4156.76746142
4156.80177038
4156.79891349
4156.99629426
4156.99179042
4156.9540074
4156.90735419
4156.86768068
4156.83829072
4156.81912212
4156.80944046
4156.80329636
4156.79553458
4156.78445187
4156.77011592
4156.75443178
4156.74254183
4156.74102458
4156.75199963
4156.77493722
4156.80766385
4156.83644189
4156.83804012
4157.00994556
4156.994633
4156.95271889
4156.90162215
4156.85537822
4156.8189342
4156.79358378
4156.77961014
4156.77115129
4156.76244307
4156.7513778
4156.73792205
4156.72448388
4156.71676888
4156.72126238
4156.73908504
4156.76898453
4156.8067078
4156.84011277
4156.8524262
3667.34675639
3667.31925073
3667.27102745
3667.21524467
3667.16619774
3667.12720894
3667.09966477
3667.08234571
3667.0700968
3667.05872705
3667.04719453
3667.03566827
3667.02563628
3667.0212998
3667.02833273
3667.04890024
3667.08178597
3667.1243502
3667.16410144
3667.18830849
3667.32130689
3667.31347606
3667.27519333
3667.23006539
3667.19408862
3667.16819439
3667.15154067
3667.14122868
3667.1323004
3667.1222147
3667.11068385
3667.09799001
3667.08485509
3667.07398171
3667.07061999
3667.07831101
3667.09799264
3667.12922711
3667.15788228
3667.16237442
3667.27896979
3667.28182918
3667.22917024
3667.17299493
3667.12999256
3667.10250987
3667.08761217
3667.08039826
3667.07428983
3667.06551671
3667.05336873
3667.03815411
3667.02142283
3667.00738775
3667.0026516
3667.01216214
3667.03874391
3667.08078561
3667.12339288
3667.11763259
3667.23217284
3667.24602883
3667.18197397
3667.12110414
3667.08303177
3667.06940961
3667.07054009
3667.07640451
3667.07917684
3667.07457102
3667.0618008
3667.04131225
3667.01495931
3666.98756642
3666.96703664
3666.96287741
3666.98464603
3667.03122122
3667.0845328
3667.06788548
3667.19400372
3667.22073866
3667.14935536
3667.09323188
3667.07191963
3667.07872268
3667.0105742
3667.07047299
3667.17123487
3667.17211239
3667.15853463
3667.13106047
3667.1645066
3667.12412654
3666.97383076
3666.9489556
3666.95421075
3666.99598784
3667.05632083
3667.02659805
3667.16707508
3667.20637714
3667.13299916
3667.09029076
3667.0892194
3666.86503623
3666.68635099
3667.03615056
3667.35556029
3667.36134379
3667.34613142
3667.31030269
3667.53663874
3667.71732667
3667.32068965
3666.96418135
3666.94888387
3666.97698023
3667.03924633
3666.99661612
3667.15243017
3667.20195572
3667.13001631
3667.10310393
3667.03267021
3666.30349861
3666.16783056
3666.88848277
3667.42218576
3667.43311677
3667.4157497
3667.36982036
3667.80102519
3668.394882
3668.04107661
3667.10321355
3666.9586454
3666.97131918
3667.03235885
3666.97932987
3667.14837115
3667.20429092
3667.13537888
3667.12158543
3666.88694486
3665.84558695
3665.84152153
3666.75538016
3667.40641845
3667.42372585
3667.40484437
3667.34860001
3667.88329596
3668.70465152
3668.55256843
3667.31052799
3666.97424278
3666.97426481
3667.03254836
3666.97312953
3667.1495735
3667.20851729
3667.14289864
3667.13824263
3666.82858963
3665.73427721
3665.76342304
3666.72994255
3667.41784321
3667.44089021
3667.42146044
3667.35857357
3667.91058731
3668.78520931
3668.68829656
3667.40670184
3666.98832247
3666.97953817
3667.03501386
3666.97268602
3667.15167188
3667.21172742
3667.14812811
3667.14820845
3666.84520751
3665.75853058
3665.79584945
3666.76986581
3667.46434024
3667.49059666
3667.47086349
3667.40440076
3667.94965002
3668.81481528
3668.70956199
3667.4212941
3666.99697418
3666.9838492
3667.0372713
3666.97389287
3667.15333159
3667.21339686
3667.14993922
3667.15012333
3666.84731569
3665.76111002
3665.79879478
3666.77295493
3667.46754445
3667.49390881
3667.47415837
3667.40757523
3667.95250551
3668.81723156
3668.71171052
3667.42352565
3666.99921025
3666.98596296
3667.03917197
3666.97574
3667.15441092
3667.21340862
3667.14822302
3667.14390164
3666.83483813
3665.74200176
3665.77233811
3666.73938632
3667.42761491
3667.45094606
3667.43144481
3667.36819986
3667.9192394
3668.79248774
3668.69470326
3667.41328747
3666.99488219
3666.9857195
3667.04053533
3666.97805623
3667.15612196
3667.21218249
3667.14399818
3667.13081599
3666.88049274
3665.79968993
3665.75494676
3666.64520953
3667.28968736
3667.30769832
3667.28893986
3667.23237229
3667.77016344
3668.6111751
3668.50260059
3667.30483245
3666.98475628
3666.98411224
3667.04140695
3666.98172777
3667.16263105
3667.21244808
3667.14143403
3667.115496
3667.02510787
3666.20365247
3665.94792884
3666.60049595
3667.11527157
3667.12722014
3667.11021828
3667.06410975
3667.50842592
3668.16471362
3667.93747075
3667.09698356
3666.97251741
3666.98424607
3667.04405059
3666.99062895
3667.17922235
3667.21895212
3667.14656571
3667.10512895
3667.1050651
3666.82364139
3666.51410644
3666.76305333
3667.05567922
3667.06248332
3667.04770812
3667.01182773
3667.26195957
3667.54199051
3667.27965136
3666.98146416
3666.96538911
3666.99223271
3667.05315591
3667.010006
3667.20758135
3667.23480183
3667.16434821
3667.10957176
3667.08956192
3667.09743639
3667.00974294
3667.03340342
3667.11841519
3667.11992182
3667.10648766
3667.07877839
3667.12784774
3667.1239002
3666.99387001
3666.96830544
3666.97242
3667.01274974
3667.07179877
3667.04147251
3667.24667067
3667.26102806
3667.19770741
3667.13812684
3667.10150972
3667.0892639
3667.09152981
3667.09837332
3667.10202112
3667.09797451
3667.0853541
3667.06465599
3667.0377385
3667.00969251
3666.98842123
3666.98316064
3667.00353407
3667.04867462
3667.1009501
3667.0836676
3667.29399897
3667.29728326
3667.24508112
3667.19003029
3667.14843085
3667.12241995
3667.10890745
3667.10283987
3667.09769872
3667.08955779
3667.07764291
3667.06229442
3667.044949
3667.03001981
3667.02414995
3667.03232045
3667.05751346
3667.0983166
3667.14020635
3667.13388811
3667.33669565
3667.32899385
3667.29099788
3667.246648
3667.21178995
3667.18714244
3667.1716845
3667.16242432
3667.15436357
3667.14484013
3667.13353147
3667.1207367
3667.1070604
3667.09533102
3667.0908947
3667.09742908
3667.11611982
3667.14650292
3667.17470916
3667.17893877
3667.36246148
3667.33486826
3667.2868768
3667.23184127
3667.18390117
3667.14614397
3667.11982041
3667.10358904
3667.0921912
3667.08137425
3667.07005479
3667.05840458
3667.04783918
3667.04262571
3667.04855391
3667.06795093
3667.09996148
3667.14171074
3667.18106194
3667.20525841
3177.67886479
3177.64025153
3177.5899958
3177.53063184
3177.47651027
3177.43118882
3177.39708468
3177.37225896
3177.35284294
3177.33680851
3177.32448768
3177.31639852
3177.31292274
3177.31633415
3177.33067611
3177.3578382
3177.3966205
3177.44336336
3177.48515692
3177.52060731
3177.64202531
3177.63113971
3177.58822857
3177.53439187
3177.48599268
3177.44628017
3177.41556262
3177.39070706
3177.36883038
3177.35066324
3177.33810693
3177.33171804
3177.33085881
3177.33501856
3177.34684354
3177.36905085
3177.40175981
3177.44234032
3177.4759234
3177.48377939
3177.59771977
3177.59485495
3177.54114463
3177.47342634
3177.41619434
3177.37543773
3177.35038274
3177.33622925
3177.32482774
3177.31252086
3177.29914177
3177.28524799
3177.27311791
3177.26703523
3177.27356795
3177.29708002
3177.33848972
3177.3927421
3177.43715333
3177.43748304
3177.54726943
3177.54999461
3177.48253058
3177.40273821
3177.34972284
3177.16759828
3177.01213521
3177.2713208
3177.46917089
3177.46351343
3177.44827647
3177.42472512
3177.56260167
3177.69579744
3177.42101237
3177.22829624
3177.26520713
3177.33128819
3177.38986345
3177.38417723
3177.50392124
3177.51189414
3177.4355635
3177.35944588
3176.95763536
3176.27541346
3176.35324744
3177.14841766
3177.64406382
3177.64260166
3177.62287903
3177.58654251
3178.03095309
3178.75723135
3178.5994658
3177.65572791
3177.22011998
3177.28156777
3177.34950846
3177.33786664
3177.47079307
3177.48323009
3177.40504443
3177.18626804
3175.7933322
3175.10160663
3175.75320924
3176.88294049
3177.52239738
3177.52096105
3177.49415491
3177.44339112
3178.04912701
3179.30479575
3180.01231495
3179.02584329
3177.40444071
3177.24914119
3177.31862539
3177.3018511
3177.4494015
3177.46414488
3177.39086251
3176.65242193
3174.54322692
3174.56247544
3175.49748809
3176.69363019
3177.37771227
3177.37458692
3177.33941189
3177.27254052
3177.91916481
3179.33089608
3180.53459606
3180.43909535
3177.99539362
3177.23277275
3177.29699744
3177.27784313
3177.43796328
3177.45171095
3177.38778515
3176.0928142
3173.95200965
3174.38054064
3175.34532329
3176.57081417
3177.27433453
3177.27147418
3177.22963608
3177.1478599
3177.79820478
3179.27319345
3180.58910556
3181.02520183
3178.55874105
3177.22825503
3177.28190182
3177.26403307
3177.43269638
3177.44385192
3177.39095496
3175.91716235
3173.83127516
3174.34169796
3175.32332756
3176.55972032
3177.27142145
3177.27090836
3177.22670419
3177.13692037
3177.77430936
3179.25052102
3180.58685896
3181.12980675
3178.73613686
3177.22837773
3177.2711897
3177.25661493
3177.43109564
3177.44038464
3177.39401651
3175.92872942
3173.8534972
3174.37420907
3175.36595784
3176.60915392
3177.32533567
3177.32626933
3177.28102505
3177.18745841
3177.81662028
3179.28305653
3180.61047421
3181.14545168
3178.74450172
3177.22938022
3177.26565726
3177.25366883
3177.43294059
3177.4423195
3177.39616366
3175.93134156
3173.85715391
3174.37900248
3175.3718616
3176.61581111
3177.33249705
3177.33370228
3177.28849032
3177.19467251
3177.82314506
3179.28835301
3180.61433692
3181.14819802
3178.74711672
3177.23189597
3177.26791933
3177.25572551
3177.43800606
3177.44935699
3177.3971752
3175.9248176
3173.84203847
3174.35605093
3175.34123373
3176.58006168
3177.29338045
3177.29367346
3177.24936631
3177.1587192
3177.79393479
3179.26636462
3180.59830771
3181.13780644
3178.74369737
3177.23560458
3177.27752324
3177.26248328
3177.44639668
3177.46046013
3177.39776801
3176.06820148
3173.87607338
3174.28395868
3175.24396344
3176.46326514
3177.16406716
3177.16302054
3177.12113951
3177.03796371
3177.67987148
3179.14356109
3180.46043345
3180.9300512
3178.53281074
3177.23987929
3177.29198199
3177.27340124
3177.46039221
3177.47559744
3177.40380129
3176.58814156
3174.3185546
3174.24103545
3175.15079723
3176.32128776
3176.99308598
3176.99179595
3176.95685058
3176.88865898
3177.52084679
3178.91792858
3180.14344758
3180.18177202
3177.93097806
3177.24784247
3177.31004829
3177.2900408
3177.4837574
3177.49678282
3177.4202256
3177.1660983
3175.56828007
3174.63416437
3175.18675177
3176.27640119
3176.89829342
3176.89895967
3176.87300323
3176.82185929
3177.416137
3178.67165653
3179.48736102
3178.78668968
3177.38668046
3177.26660638
3177.33383255
3177.31616116
3177.51827727
3177.52684093
3177.45204627
3177.37787309
3176.89311246
3175.95680837
3175.76922163
3176.43633847
3176.90131073
3176.90211235
3176.88375215
3176.84800537
3177.3074835
3178.14517662
3178.26799666
3177.59251268
3177.2411982
3177.30031148
3177.36607634
3177.35354144
3177.56246573
3177.56572203
3177.49949762
3177.42163625
3177.37056417
3177.15311628
3176.883006
3177.02553331
3177.18641897
3177.18210201
3177.16765532
3177.14442109
3177.31766091
3177.56602053
3177.40827208
3177.25170489
3177.2865541
3177.35031132
3177.40711347
3177.40063075
3177.61336462
3177.6109225
3177.55810804
3177.49194097
3177.43677485
3177.39806702
3177.37485862
3177.36211725
3177.35209441
3177.34057458
3177.32749118
3177.31381582
3177.30078798
3177.29348057
3177.298468
3177.31994362
3177.3591835
3177.41151354
3177.45463318
3177.45430229
3177.65785115
3177.64719594
3177.60486523
3177.55219981
3177.50541544
3177.46745926
3177.43848555
3177.41519752
3177.39463002
3177.37741161
3177.36520854
3177.3587474
3177.35705183
3177.35982462
3177.36991154
3177.39025131
3177.42150483
3177.46065366
3177.49332053
3177.50071464
3177.69499691
3177.65631744
3177.60665114
3177.54831744
3177.49565627
3177.45195548
3177.41946586
3177.39609579
3177.37785043
3177.36259131
3177.35057568
3177.34233286
3177.33811495
3177.34027751
3177.35297569
3177.37829986
3177.41648848
3177.46179145
3177.50261547
3177.53783178
2688.04581457
2688.00771444
2687.95629497
2687.88650387
2687.81950357
2687.75825425
2687.70950582
2687.67133666
2687.64154149
2687.61916724
2687.60521574
2687.60069711
2687.6064064
2687.62343504
2687.65340874
2687.69624577
2687.74997481
2687.80735348
2687.85088389
2687.8865311
2688.00923656
2687.97556878
2687.92052183
2687.84227915
2687.76522174
2687.69424465
2687.63550386
2687.58736931
2687.54857044
2687.52041586
2687.50594847
2687.50600275
2687.52085732
2687.54896428
2687.59007252
2687.64412186
2687.70605351
2687.77151899
2687.8187506
2687.84984566
2687.96400466
2687.92639725
2687.86020713
2687.7650684
2687.67463627
2687.4325117
2687.22506341
2687.44906162
2687.62426536
2687.60655343
2687.59064854
2687.57499386
2687.73569275
2687.90731718
2687.68597508
2687.55253784
2687.62690722
2687.7090867
2687.76784835
2687.80220515
2687.9032982
2687.85725384
2687.77458415
2687.64243709
2686.89642287
2686.41577628
2686.62934767
2687.30162123
2687.7395393
2687.7306472
2687.7087865
2687.67605075
2688.10605636
2688.82929397
2688.93660353
2688.23955634
2687.52385083
2687.6199583
2687.69632716
2687.73852487
2687.84694498
2687.7906647
2687.69487674
2686.88234757
2685.389819
2685.27874835
2685.96543811
2686.90967186
2687.46094102
2687.45424793
2687.42115658
2687.36506882
2687.9169352
2689.1272562
2690.16650528
2690.01486263
2688.25212053
2687.53736052
2687.62743812
2687.67916392
2687.79886833
2687.73054085
2687.46234831
2685.25278015
2684.35138405
2684.83777091
2685.57342009
2686.56322008
2687.14567651
2687.1295557
2687.08031582
2687.00132653
2687.59433084
2689.00855331
2690.39205853
2691.24342364
2690.00768003
2687.66219408
2687.56498665
2687.62757305
2687.7630592
2687.68284351
2686.8739369
2684.01086138
2684.02894805
2684.5684528
2685.32878232
2686.31873938
2686.89369986
2686.86414032
2686.79725458
2686.69264901
2687.27790332
2688.79481322
2690.42212293
2691.57451669
2691.44124158
2688.20235157
2687.51359711
2687.58796659
2687.73929855
2687.64773043
2686.27983187
2683.58177222
2683.86605945
2684.44077604
2685.22514844
2686.20523535
2686.76409795
2686.72569546
2686.64466797
2686.51570311
2687.06389437
2688.59731612
2690.34196817
2691.66261486
2691.91400914
2688.72928686
2687.47271673
2687.55978148
2687.72546948
2687.62480268
2686.08317243
2683.49760216
2683.83820101
2684.43867842
2685.24514389
2686.22265076
2686.77275866
2686.7324613
2686.65014708
2686.51621924
2687.03026274
2688.54093347
2690.30098094
2691.66136707
2691.97983953
2688.88437969
2687.44337981
2687.54160462
2687.71982902
2687.61424351
2686.08483417
2683.51338152
2683.872016
2684.48679462
2685.3053447
2686.28574218
2686.83320056
2686.79171229
2686.71045647
2686.57507527
2687.07874968
2688.57883204
2690.32927463
2691.68106496
2691.98910483
2688.88187124
2687.42821883
2687.53317142
2687.7218926
2687.61649157
2686.08788733
2683.51751711
2683.87820366
2684.49584076
2685.31663131
2686.29820919
2686.84630356
2686.80520132
2686.72437711
2686.58879725
2687.09119558
2688.58928436
2690.33709551
2691.68639306
2691.99266626
2688.88485458
2687.43095897
2687.53554016
2687.73141419
2687.63118841
2686.09189358
2683.50960012
2683.85617638
2684.46606239
2685.2799694
2686.26162979
2686.81468547
2686.77553258
2686.69277336
2686.55718972
2687.06790675
2688.57234288
2690.32420482
2691.67688377
2691.990321
2688.89261271
2687.45098726
2687.54835777
2687.74858779
2687.65755763
2686.25639359
2683.51923268
2683.79823863
2684.38058072
2685.17242982
2686.15289035
2686.71332104
2686.67893277
2686.59616819
2686.46352951
2686.99340775
2688.4962246
2690.21854192
2691.54015491
2691.82449409
2688.70526021
2687.48484342
2687.57042916
2687.77497343
2687.69540583
2686.81031394
2683.82018697
2683.77806841
2684.31243537
2685.06638665
2686.03864801
2686.60191571
2686.57392577
2686.50599241
2686.39632673
2686.94902147
2688.40915781
2690.00828663
2691.1950789
2691.19813275
2688.13990146
2687.52875767
2687.60152325
2687.81264592
2687.74498355
2687.4419441
2685.01769743
2683.9277068
2684.38396339
2685.09265271
2686.04327121
2686.60210296
2686.58813944
2686.53878066
2686.45676135
2687.01532593
2688.37513647
2689.75521127
2690.69009422
2689.74515479
2687.64581115
2687.58204462
2687.64307605
2687.8619285
2687.80627218
2687.71273119
2686.75332503
2684.95356495
2684.65583793
2685.29034261
2686.18230913
2686.70721875
2686.70346174
2686.67146326
2686.61497505
2687.14307485
2688.33079169
2689.41795299
2689.52593533
2688.12388608
2687.5587869
2687.64540176
2687.69570138
2687.91895377
2687.87340832
2687.79259372
2687.66081574
2686.76624068
2685.95148654
2685.90546651
2686.4763664
2686.88847067
2686.88247464
2686.8625786
2686.83119338
2687.2634837
2688.06104102
2688.44843544
2688.10925692
2687.54627817
2687.64093263
2687.71444476
2687.75550943
2687.9799593
2687.94272089
2687.87795021
2687.78493108
2687.6975507
2687.42161716
2687.10097213
2687.20963017
2687.34874441
2687.33284721
2687.31751529
2687.30409018
2687.49878515
2687.78404746
2687.67850061
2687.57915711
2687.65001292
2687.72916378
2687.78575762
2687.81930469
2688.02522994
2687.99187097
2687.93779083
2687.86116986
2687.7864239
2687.71797584
2687.66176271
2687.61600441
2687.57929058
2687.55277813
2687.53890572
2687.53888946
2687.55241587
2687.57835827
2687.61681587
2687.66781728
2687.7278085
2687.79084917
2687.83647106
2687.8669123
2688.06194325
2688.02402092
2687.97344441
2687.90501007
2687.84005113
2687.78101899
2687.73466962
2687.69869182
2687.67072032
2687.64959663
2687.63612242
2687.63130562
2687.63581936
2687.65086383
2687.67808662
2687.71670066
2687.7729312
2687.82675616
2687.86862419
2687.90360002
2198.488114
2198.44931543
2198.39876038
2198.32444269
2198.25221394
2198.1865253
2198.13387939
2198.0948974
2198.06721058
2198.0465767
2198.03130615
2198.02276782
2198.02476129
2198.04167361
2198.07524597
2198.12389313
2198.18226205
2198.24493596
2198.28915367
2198.3255531
2198.45113563
2198.373855
2198.30344017
2198.1954036
2198.08544689
2197.97991887
2197.80127842
2197.76854404
2197.80526309
2197.7703619
2197.75318455
2197.75508399
2197.85106548
2197.90443
2197.86704175
2197.95678088
2198.05254028
2198.14786542
2198.21259129
2198.2875259
2198.4066256
2198.30843609
2198.22891359
2198.10175659
2197.59748775
2197.11922547
2197.27120176
2197.60716676
2197.85346398
2197.82844513
2197.80509966
2197.7864255
2198.07590917
2198.51791118
2198.71557106
2198.27978011
2197.95227153
2198.06990667
2198.14569533
2198.23953811
2198.34302227
2198.21144922
2198.11276835
2197.28050805
2196.25004613
2195.89585407
2196.33066218
2197.03365864
2197.45539056
2197.44394221
2197.41029177
2197.35886857
2197.78650306
2198.76154566
2199.67182034
2199.5666186
2198.57989505
2197.94378656
2198.04372376
2198.170522
2198.28420683
2198.11486701
2197.62733243
2195.60950548
2195.03588785
2195.31153541
2195.81256831
2196.56339572
2197.03214016
2197.02406429
2196.96296294
2196.85979966
2197.32623154
2198.51595384
2199.76104723
2200.65810045
2200.19254085
2198.25746131
2197.9387487