/*--------------------------------*- C++ -*----------------------------------*\
| =========                 |                                                 |
| \\      /  F ield         | OpenFOAM: The Open Source CFD Toolbox           |
|  \\    /   O peration     | Version:  3.0.1                                 |
|   \\  /    A nd           | Web:      www.OpenFOAM.org                      |
|    \\/     M anipulation  |                                                 |
\*---------------------------------------------------------------------------*/
FoamFile
{
    version     2.0;
    format      ascii;
    class       surfaceScalarField;
    location    "8.8";
    object      phi;
}
// * * * * * * * * * * * * * * * * * * * * * * * * * * * * * * * * * * * * * //

dimensions      [0 3 -1 0 0 0 0];

internalField   nonuniform List<scalar> 
22672
(
4.92248114258e-06
4.54120257639e-06
-9.46376867373e-06
1.20585796163e-05
3.59927022979e-06
-1.07354572986e-05
1.9024613589e-05
3.54167029344e-06
-1.05077928873e-05
2.40779331309e-05
4.23679032811e-06
-9.29019368497e-06
2.62246228319e-05
5.63602532954e-06
-7.78279394798e-06
2.52430412963e-05
7.37714011954e-06
-6.3956333265e-06
2.1956500708e-05
8.72191422437e-06
-5.43544481598e-06
1.65999836434e-05
1.00100096885e-05
-4.65356057755e-06
9.84245923287e-06
1.09924154223e-05
-4.23495576184e-06
2.41934505859e-06
1.15248377624e-05
-4.10178512939e-06
-5.07758830684e-06
1.15618046029e-05
-4.06492975535e-06
-1.20555303805e-05
1.109572545e-05
-4.11783926548e-06
-1.77736959881e-05
1.01608584733e-05
-4.44274659893e-06
-2.15292751452e-05
8.89408718409e-06
-5.13856010981e-06
-2.2978358329e-05
7.52105994969e-06
-6.07202792931e-06
-2.15074981846e-05
5.87719992469e-06
-7.34811157455e-06
-1.71177616227e-05
4.45887334502e-06
-8.84866339553e-06
-1.082992223e-05
3.77226408842e-06
-1.00601618136e-05
-4.34493681973e-06
3.81949816373e-06
-1.03045515775e-05
4.71942699981e-06
-9.06441412268e-06
3.99737858526e-06
1.12679030509e-05
-1.07241666291e-05
1.2245064554e-05
1.14249612514e-05
-1.60734676762e-05
2.02293263548e-05
1.24924511001e-05
-1.69351320838e-05
2.56334899874e-05
1.46035019378e-05
-1.57709597814e-05
2.76980330017e-05
1.75419080558e-05
-1.39705054748e-05
2.65798679919e-05
2.06536365044e-05
-1.21584069348e-05
2.28262015549e-05
2.31902810053e-05
-1.07147721872e-05
1.7104114849e-05
2.53496727843e-05
-9.61764468879e-06
1.01023285149e-05
2.69473140822e-05
-8.95317706946e-06
2.4909772516e-06
2.78074993564e-05
-8.67137159113e-06
-5.19807082986e-06
2.78715658373e-05
-8.6207712534e-06
-1.24293279536e-05
2.71250837813e-05
-8.79815663787e-06
-1.85135296396e-05
2.56040501467e-05
-9.35904324216e-06
-2.27214603578e-05
2.34740655166e-05
-1.03720992429e-05
-2.43925601812e-05
2.09462792739e-05
-1.17541704548e-05
-2.29599638217e-05
1.79265719552e-05
-1.34820203322e-05
-1.8254754724e-05
1.50024794184e-05
-1.52488703544e-05
-1.0978790257e-05
1.29038233367e-05
-1.64075851419e-05
-3.40511961989e-06
1.18216635977e-05
-1.55759069234e-05
1.16065926459e-05
-1.0292336509e-05
3.95189118195e-06
1.78489727506e-05
-1.05330456024e-05
1.33291944752e-05
1.90033038968e-05
-1.69557321598e-05
2.22017248134e-05
2.09575395287e-05
-1.73377035298e-05
2.7955264255e-05
2.40536133289e-05
-1.52037311248e-05
2.99429245117e-05
2.79423691201e-05
-1.23881973046e-05
2.84611311782e-05
3.18704236901e-05
-9.73506596661e-06
2.41945450115e-05
3.51558499325e-05
-7.69905118628e-06
1.79664271922e-05
3.7877500744e-05
-6.29977477771e-06
1.05374216636e-05
3.98767473096e-05
-5.50048835407e-06
2.54470458835e-06
4.09588424622e-05
-5.1586827517e-06
-5.53622967381e-06
4.10511200567e-05
-5.09867314661e-06
-1.32184764721e-05
4.01311722006e-05
-5.32389184005e-06
-1.98309370825e-05
3.82357383504e-05
-6.01927536249e-06
-2.45666153889e-05
3.55463206319e-05
-7.33662277979e-06
-2.65993486846e-05
3.22747856517e-05
-9.29581857456e-06
-2.52424584767e-05
2.84268967626e-05
-1.18572623614e-05
-2.01888901562e-05
2.45604218821e-05
-1.46115629637e-05
-1.20375651322e-05
2.14788316979e-05
-1.67263938321e-05
-3.35017178055e-06
1.95164695603e-05
-1.63822706726e-05
1.8299353758e-05
-1.00429844811e-05
4.64774214518e-06
2.25552764184e-05
-9.35412168044e-06
1.54450021303e-05
2.40425990066e-05
-1.58366320459e-05
2.53057924378e-05
2.63474449247e-05
-1.52507718655e-05
3.14370628932e-05
2.9821161517e-05
-1.18988915367e-05
3.32408131159e-05
3.40510290737e-05
-7.91247994069e-06
3.11999450177e-05
3.82547657716e-05
-4.3435407671e-06
2.6227030594e-05
4.18213300586e-05
-1.69262925504e-06
1.92813358283e-05
4.4790810131e-05
3.23256503585e-08
1.12009402802e-05
4.69871416832e-05
9.69945843374e-07
2.60800437641e-06
4.81970868085e-05
1.35464075869e-06
-6.08770791939e-06
4.83171542404e-05
1.42963147192e-06
-1.44563036258e-05
4.7314516107e-05
1.18520875285e-06
-2.18233566558e-05
4.52401280073e-05
3.62623396314e-07
-2.72827528076e-05
4.22942340588e-05
-1.28855500451e-06
-2.98680169777e-05
3.87202474385e-05
-3.86023490999e-06
-2.86890618631e-05
3.45787731776e-05
-7.33087151125e-06
-2.32564552635e-05
3.03678950458e-05
-1.1240126212e-05
-1.41250485911e-05
2.69066643197e-05
-1.45592960704e-05
-4.03071221944e-06
2.45998783386e-05
-1.51778144447e-05
2.30545330327e-05
-8.78594176218e-06
6.05888997181e-06
2.43858401416e-05
-7.88952020818e-06
1.83850887607e-05
2.58054065191e-05
-1.40890739925e-05
2.91947250914e-05
2.80332542898e-05
-1.24955138729e-05
3.5665920928e-05
3.13220505579e-05
-7.97215169024e-06
3.72524837583e-05
3.53318760678e-05
-2.86747544254e-06
3.46352629195e-05
3.92694988927e-05
1.60242344565e-06
2.89000788298e-05
4.2660022303e-05
4.89642975654e-06
2.11080596333e-05
4.55204875194e-05
7.06228322333e-06
1.21641282046e-05
4.76812518592e-05
8.24976738541e-06
2.69594571868e-06
4.8909550833e-05
8.75566988843e-06
-6.89968774903e-06
4.90563750548e-05
8.85636924576e-06
-1.61919297224e-05
4.80776090832e-05
8.52911033869e-06
-2.44638920616e-05
4.60562655484e-05
7.4557904267e-06
-3.07174194208e-05
4.3205516452e-05
5.34221389651e-06
-3.38740240685e-05
3.97752408946e-05
2.10158108282e-06
-3.28995178563e-05
3.58640814211e-05
-2.2598475703e-06
-2.71226584596e-05
3.18534544762e-05
-7.26245956968e-06
-1.7047891353e-05
2.85675189592e-05
-1.17356744298e-05
-5.43408262917e-06
2.63327294973e-05
-1.33467262525e-05
2.48549258669e-05
-7.23452371221e-06
7.76694045986e-06
2.32009961231e-05
-6.58215417679e-06
2.1464912959e-05
2.44514499745e-05
-1.2344075139e-05
3.30931038251e-05
2.63080166509e-05
-9.90301467266e-06
3.98409541438e-05
2.90267644987e-05
-4.45262694543e-06
4.11652471172e-05
3.24458107554e-05
1.56170802776e-06
3.79488062014e-05
3.57720352321e-05
6.71383903843e-06
3.14619004309e-05
3.86809512797e-05
1.04659115288e-05
2.28543069155e-05
4.11994298301e-05
1.29285884149e-05
1.30864276525e-05
4.31598597594e-05
1.42892131862e-05
2.79150233863e-06
4.43229004519e-05
1.48815234651e-05
-7.66252557452e-06
4.44875383078e-05
1.50228188189e-05
-1.78559427951e-05
4.35990243017e-05
1.46719625449e-05
-2.7024071417e-05
4.17931172953e-05
1.3431243592e-05
-3.40659224786e-05
3.92808131696e-05
1.09665262039e-05
-3.78074601668e-05
3.63082779338e-05
7.20847489038e-06
-3.70711535539e-05
3.29719370663e-05
2.15580958178e-06
-3.1006290768e-05
2.95230584199e-05
-3.73450289958e-06
-2.01101470873e-05
2.67830268434e-05
-9.11170055122e-06
-7.12651213842e-06
2.49042283496e-05
-1.15551970422e-05
2.3608831237e-05
-5.88046355114e-06
9.12319014424e-06
1.97323187841e-05
-5.65456174634e-06
2.39981154813e-05
2.05220119461e-05
-1.0945537857e-05
3.63663410603e-05
2.18480829546e-05
-7.90834671839e-06
4.33922877834e-05
2.38356730402e-05
-1.83491446664e-06
4.45450184845e-05
2.64590963975e-05
4.83391924789e-06
4.08628570731e-05
2.89995280725e-05
1.04545994586e-05
3.37592501202e-05
3.12536068884e-05
1.45308795825e-05
2.44441396163e-05
3.32590845782e-05
1.72553845e-05
1.3953553214e-05
3.48406123492e-05
1.88097663161e-05
2.90511826298e-06
3.5830586419e-05
1.95406876896e-05
-8.34078109303e-06
3.59975618892e-05
1.97358220252e-05
-1.93392926368e-05
3.52685697022e-05
1.93289206814e-05
-2.93092079986e-05
3.3844416421e-05
1.79185793827e-05
-3.70275610583e-05
3.18506497083e-05
1.51484874147e-05
-4.12409408647e-05
2.95299710668e-05
1.09916621931e-05
-4.06582390956e-05
2.6958129385e-05
5.43108036132e-06
-3.42939402865e-05
2.42811243593e-05
-1.1223980082e-06
-2.26479814247e-05
2.22482133499e-05
-7.11119157112e-06
-8.48887945372e-06
2.08856138272e-05
-1.01405479516e-05
2.00560404358e-05
-4.9361327899e-06
1.03938820594e-05
1.42598765194e-05
-4.92147858826e-06
2.61308152326e-05
1.46849594515e-05
-9.89992099503e-06
3.9047853068e-05
1.54884354022e-05
-6.55743683485e-06
4.63135196812e-05
1.67316699674e-05
-1.6171772371e-07
4.73588826062e-05
1.84693779832e-05
6.94429215418e-06
4.33497586119e-05
2.01460363243e-05
1.2862543601e-05
3.57743860099e-05
2.16422258072e-05
1.71866751705e-05
2.58564327187e-05
2.29873977055e-05
2.01895593059e-05
1.46256399361e-05
2.39770885495e-05
2.2094237846e-05
2.99272022785e-06
2.46896053814e-05
2.27738278129e-05
-8.82567525999e-06
2.48296387643e-05
2.29862540373e-05
-2.0617588642e-05
2.43007819459e-05
2.27596467473e-05
-3.12938395637e-05
2.34600022125e-05
2.10606220171e-05
-3.95576370295e-05
2.21363721814e-05
1.79780425585e-05
-4.4123993262e-05
2.05872257367e-05
1.35090761571e-05
-4.36436137014e-05
1.88779218728e-05
7.59980291853e-06
-3.70240136035e-05
1.70794783883e-05
5.8201380231e-07
-2.48104323236e-05
1.57876556951e-05
-5.75306826019e-06
-9.77770424331e-06
1.49468246249e-05
-9.0939974657e-06
1.44916838292e-05
-4.21339048437e-06
1.13405747653e-05
7.46934701119e-06
-4.55007163449e-06
2.76688644806e-05
7.65184332028e-06
-9.29520114122e-06
4.09628110763e-05
8.01788448189e-06
-5.82343101732e-06
4.84099882704e-05
8.59608384021e-06
6.88363036989e-07
4.94086801974e-05
9.44580171555e-06
8.02482552676e-06
4.52052566888e-05
1.0260311933e-05
1.40890761356e-05
3.72917777954e-05
1.09932243398e-05
1.85623982594e-05
2.6819691991e-05
1.15823049847e-05
2.18770908448e-05
1.51871394235e-05
1.21367418724e-05
2.34728114354e-05
3.03689282863e-06
1.2521319288e-05
2.43184497512e-05
-9.31646040435e-06
1.2592616563e-05
2.45903011676e-05
-2.1511826674e-05
1.23017702888e-05
2.41943152066e-05
-3.27695360396e-05
1.18288537558e-05
2.28888086789e-05
-4.14403754567e-05
1.12774918855e-05
1.95296836242e-05
-4.62324902587e-05
1.05096618218e-05
1.48696513444e-05
-4.58045939215e-05
9.67617719846e-06
8.77382236291e-06
-3.89984973815e-05
8.79074898971e-06
1.48260056006e-06
-2.63916814423e-05
8.1850543837e-06
-5.00425887572e-06
-1.07498140548e-05
7.79827448869e-06
-8.4933749585e-06
7.60139556267e-06
-3.8595681191e-06
1.1829820483e-05
9.61788017209e-08
-4.45666426061e-06
2.84544544671e-05
9.64268079724e-08
-9.06923011406e-06
4.19390250362e-05
8.46387425897e-08
-5.55134617586e-06
4.94874238146e-05
6.76097173669e-08
9.80041300304e-07
5.0481276963e-05
4.82093109579e-08
8.40368932437e-06
4.62017065686e-05
2.99390707749e-08
1.45098769299e-05
3.81236753407e-05
1.13073749726e-08
1.90598681073e-05
2.73869629748e-05
-7.90679594998e-09
2.23268353826e-05
1.55330224208e-05
-2.23491968057e-08
2.40129404666e-05
3.05819546036e-06
-3.38915647294e-08
2.50299502629e-05
-9.64428425362e-06
-3.73378410259e-08
2.53323548794e-05
-2.21362847261e-05
-3.29575946945e-08
2.4826661244e-05
-3.36095267724e-05
-2.1892941133e-08
2.33239362247e-05
-4.24577850842e-05
-5.37314175483e-09
2.01310848503e-05
-4.73377084129e-05
1.62235255583e-08
1.53733323786e-05
-4.69180347742e-05
4.08630529857e-08
9.21561301082e-06
-4.00081449619e-05
7.07728384082e-08
1.81005296096e-06
-2.72021962618e-05
9.71903619404e-08
-4.71812945739e-06
-1.12543505836e-05
1.17060010606e-07
-8.26668906289e-06
1.1930740727e-07
-3.77230500794e-06
1.18256802768e-05
-7.27418681269e-06
-4.45531177529e-06
2.84465853549e-05
-7.45565166894e-06
-9.06882377972e-06
4.19292736575e-05
-7.84263543168e-06
-5.5554202132e-06
4.94764598309e-05
-8.4516961068e-06
9.72099793981e-07
5.04687448764e-05
-9.33602837703e-06
8.39191520136e-06
4.6187995697e-05
-1.01824594714e-05
1.44930917329e-05
3.81096013301e-05
-1.09480198718e-05
1.90376495565e-05
2.73738205363e-05
-1.15709920106e-05
2.22987830756e-05
1.55241833762e-05
-1.21522655828e-05
2.39794663326e-05
3.05423278237e-06
-1.25581853721e-05
2.49941593279e-05
-9.64297920805e-06
-1.26355784625e-05
2.52953748819e-05
-2.21285085341e-05
-1.23362082806e-05
2.47887138587e-05
-3.35967602121e-05
-1.1841292264e-05
2.32875990116e-05
-4.24415020304e-05
-1.1261074733e-05
2.01004047641e-05
-4.73195077066e-05
-1.04554100984e-05
1.53496091932e-05
-4.6899269186e-05
-9.5786617265e-06
9.19925749649e-06
-3.99901045659e-05
-8.6402675763e-06
1.80184122584e-06
-2.71878234274e-05
-7.98689326944e-06
-4.71824332141e-06
-1.12472236828e-05
-7.56445701754e-06
-8.25914154914e-06
-7.36313956608e-06
-3.76482011507e-06
1.1328763484e-05
-1.40628800009e-05
-4.54005407441e-06
2.76465611372e-05
-1.44842290004e-05
-9.28920357241e-06
4.09350748975e-05
-1.53007232364e-05
-5.83041760869e-06
4.83789356619e-05
-1.65649727731e-05
6.69410607158e-07
4.93733831445e-05
-1.83251205145e-05
7.99462157813e-06
4.51669109584e-05
-2.0020739951e-05
1.40447105129e-05
3.72523516051e-05
-2.15365858418e-05
1.8503066253e-05
2.67833444918e-05
-2.29035849045e-05
2.18015291174e-05
1.51613801196e-05
-2.3912175522e-05
2.33817979382e-05
3.02572539926e-06
-2.46410944718e-05
2.42184881037e-05
-9.31178275092e-06
-2.47849181842e-05
2.44867779904e-05
-2.14878646365e-05
-2.42492326386e-05
2.40890463053e-05
-3.2731920246e-05
-2.33891224989e-05
2.27918382449e-05
-4.13947661913e-05
-2.20461558183e-05
1.944789074e-05
-4.61819572646e-05
-2.04743743593e-05
1.48061259205e-05
-4.5752795166e-05
-1.87379120259e-05
8.73005913282e-06
-3.89491227682e-05
-1.6904502799e-05
1.46052746832e-06
-2.63523378969e-05
-1.55795828097e-05
-5.00414227281e-06
-1.07300828306e-05
-1.47146707302e-05
-8.47210160713e-06
-1.42574583465e-05
-3.83580857399e-06
1.03773282994e-05
-1.95418004932e-05
-4.89838149679e-06
2.61000383947e-05
-2.03219565229e-05
-9.88495514303e-06
3.90094682119e-05
-2.16504776397e-05
-6.55965525474e-06
4.62706204915e-05
-2.36447103335e-05
-1.81406939262e-07
4.73103449337e-05
-2.62748525958e-05
6.90999891102e-06
4.32965076185e-05
-2.88182132399e-05
1.28112838789e-05
3.57185498586e-05
-3.10754641898e-05
1.71167931704e-05
2.5802604169e-05
-3.3086381718e-05
2.0098687874e-05
1.45857312592e-05
-3.46737988283e-05
2.19784356222e-05
2.97652350728e-06
-3.56673228029e-05
2.2635374856e-05
-8.8164808408e-06
-3.58338011657e-05
2.2841829984e-05
-2.05832634281e-05
-3.51016361018e-05
2.26191362268e-05
-3.1242658168e-05
-3.36691558302e-05
2.09393876548e-05
-3.94947498727e-05
-3.16699610682e-05
1.78758650523e-05
-4.40541127753e-05
-2.93448952622e-05
1.34298566284e-05
-4.35714588675e-05
-2.67654841766e-05
7.54488994041e-06
-3.69550219705e-05
-2.4075505553e-05
5.5453023995e-07
-2.47551776309e-05
-2.20294132273e-05
-5.75006187898e-06
-9.74997539639e-06
-2.06585524615e-05
-9.06138229563e-06
-1.98335373365e-05
-4.17394208093e-06
9.10655096106e-06
-2.30264929749e-05
-5.6218261641e-06
2.39661680391e-05
-2.42607778615e-05
-1.09207617345e-05
3.63269957827e-05
-2.6110564419e-05
-7.90071264187e-06
4.33498273813e-05
-2.88224260752e-05
-1.84509776203e-06
4.44976429162e-05
-3.22346524461e-05
4.81198835382e-06
4.08094404705e-05
-3.55509906532e-05
1.04209682517e-05
3.37019194567e-05
-3.8449676261e-05
1.44817071394e-05
2.43900165126e-05
-4.09605832269e-05
1.71860678198e-05
1.39142030078e-05
-4.29157700708e-05
1.87177420196e-05
2.88977992173e-06
-4.40749158052e-05
1.94319715254e-05
-8.32869545005e-06
-4.42361020516e-05
1.96207333894e-05
-1.93043348777e-05
-4.33449716804e-05
1.92189367044e-05
-2.92573746007e-05
-4.1537683836e-05
1.78215356269e-05
-3.69644710654e-05
-3.90301901988e-05
1.50672990237e-05
-4.11701472444e-05
-3.60664626622e-05
1.09272193861e-05
-4.05826190268e-05
-3.27379346702e-05
5.3848951875e-06
-3.42195248333e-05
-2.92945018526e-05
-1.14413356566e-06
-2.25878663684e-05
-2.65600653392e-05
-7.10105527223e-06
-8.45939130944e-06
-2.46874307544e-05
-1.00996600307e-05
-2.34062697229e-05
-4.88670566743e-06
7.75130514039e-06
-2.42289336345e-05
-6.54883022139e-06
2.14421478424e-05
-2.5639451237e-05
-1.23121329031e-05
3.30661472219e-05
-2.78513679898e-05
-9.88316326176e-06
3.98122115178e-05
-3.11219602404e-05
-4.44650515728e-06
4.11327084758e-05
-3.511553369e-05
1.56039833954e-06
3.79092720442e-05
-3.90372547903e-05
6.70970207931e-06
3.14164247959e-05
-4.2410490775e-05
1.04536514319e-05
2.28096468453e-05
-4.5256470646e-05
1.29026457522e-05
1.30535434592e-05
-4.74053697582e-05
1.42456773851e-05
2.77952582309e-06
-4.86246327048e-05
1.48237057209e-05
-7.65056297132e-06
-4.87657253795e-05
1.49596827295e-05
-1.78248925227e-05
-4.77852522079e-05
1.46145823618e-05
-2.69816080801e-05
-4.57662744437e-05
1.33852815344e-05
-3.40161243003e-05
-4.29240033253e-05
1.09283074371e-05
-3.77511441813e-05
-3.95078476394e-05
7.17638300504e-06
-3.70091769987e-05
-3.56124215171e-05
2.13249321841e-06
-3.09443614725e-05
-3.1619878452e-05
-3.73947513959e-06
-2.0059671014e-05
-2.83551900516e-05
-9.08961584498e-06
-7.09813212989e-06
-2.61399204512e-05
-1.15091139405e-05
-2.4670910655e-05
-5.83353904829e-06
6.06254082582e-06
-2.24399917868e-05
-7.85145000241e-06
1.83862174001e-05
-2.39104106129e-05
-1.40526820741e-05
2.91921520625e-05
-2.61940723286e-05
-1.24631973151e-05
3.56596290906e-05
-2.96431367779e-05
-7.94627233095e-06
3.7240386692e-05
-3.38516056159e-05
-2.84466516125e-06
3.46159629927e-05
-3.80368137875e-05
1.62399393723e-06
2.88734785549e-05
-4.15859147933e-05
4.91791045388e-06
2.10800062953e-05
-4.45404609494e-05
7.07745666528e-06
1.21436754266e-05
-4.67235819211e-05
8.25453104518e-06
2.69094590256e-06
-4.79225352713e-05
8.75061571028e-06
-6.88700407672e-06
-4.80357013779e-05
8.84790687343e-06
-1.61662145026e-05
-4.70311129271e-05
8.5250510547e-06
-2.44324720587e-05
-4.49591728773e-05
7.45913619461e-06
-3.06836844128e-05
-4.2019709427e-05
5.34689887431e-06
-3.38378119722e-05
-3.84588966861e-05
2.10515509074e-06
-3.2862129679e-05
-3.43364561559e-05
-2.2516751006e-06
-2.70891082389e-05
-3.01509386102e-05
-7.24199917034e-06
-1.70263355454e-05
-2.67205529119e-05
-1.16974617667e-05
-5.43017910266e-06
-2.44407326539e-05
-1.32954108356e-05
-2.29165732436e-05
-7.184565836e-06
4.65706654022e-06
-1.77726588291e-05
-9.32437118559e-06
1.54630612386e-05
-1.89115329894e-05
-1.5804841461e-05
2.53232501476e-05
-2.08435618552e-05
-1.52106691704e-05
3.1449578469e-05
-2.39132077451e-05
-1.18562295723e-05
3.32448041548e-05
-2.7778213664e-05
-7.86859455227e-06
3.11945593014e-05
-3.16861496912e-05
-4.30040249918e-06
2.62148381295e-05
-3.49548200514e-05
-1.65136377724e-06
1.92674535051e-05
-3.76634748481e-05
7.04015809931e-08
1.11938314666e-05
-3.96500414075e-05
1.00007837428e-06
2.61331221725e-06
-4.07218536737e-05
1.37982894323e-06
-6.06915093022e-06
-4.08072170822e-05
1.45396552829e-06
-1.44294434921e-05
-3.98846652711e-05
1.21382830357e-06
-2.17953610707e-05
-3.79907332379e-05
3.97459283657e-07
-2.72579719518e-05
-3.53067796998e-05
-1.25033934824e-06
-2.98478442709e-05
-3.2048057638e-05
-3.82099063357e-06
-2.86744889333e-05
-2.82220049998e-05
-7.28783708682e-06
-2.32491237975e-05
-2.4383656505e-05
-1.11926883687e-05
-1.41268282193e-05
-2.13349471549e-05
-1.45079561782e-05
-4.03677180371e-06
-1.94008383245e-05
-1.51300200546e-05
-1.82028280056e-05
-8.75056849928e-06
3.96795769353e-06
-1.12298539215e-05
-1.05107400798e-05
1.33611338801e-05
-1.13745809674e-05
-1.69301033089e-05
2.22371197169e-05
-1.24243475701e-05
-1.72951748128e-05
2.79858646748e-05
-1.45132161721e-05
-1.51487117998e-05
2.99627594491e-05
-1.74304919683e-05
-1.23245941446e-05
2.8469571975e-05
-2.05236749518e-05
-9.66926901892e-06
2.41956822118e-05
-2.30453402521e-05
-7.63557703732e-06
1.79667037488e-05
-2.51928443362e-05
-6.24164503057e-06
1.05427038824e-05
-2.67799530222e-05
-5.44608797103e-06
2.55868207588e-06
-2.76319618058e-05
-5.10587616848e-06
-5.5137290803e-06
-2.76904513939e-05
-5.0443668976e-06
-1.31915785947e-05
-2.69416326627e-05
-5.2652006457e-06
-1.98067233819e-05
-2.54221464837e-05
-5.95346344468e-06
-2.45502565412e-05
-2.32978698116e-05
-7.26540156081e-06
-2.65945626028e-05
-2.07822323526e-05
-9.22154838835e-06
-2.52499552966e-05
-1.77841722007e-05
-1.17824762472e-05
-2.020573289e-05
-1.48843712194e-05
-1.45435541251e-05
-1.20596346378e-05
-1.28119587339e-05
-1.66691463509e-05
-3.36755318286e-06
-1.17504690893e-05
-1.63425246606e-05
-1.15473447799e-05
-1.0023092517e-05
4.01408900712e-06
-4.52838585115e-06
-1.07155397924e-05
1.22791989016e-05
-3.58254206651e-06
-1.60571294017e-05
2.02717801841e-05
-3.51588381166e-06
-1.69010246839e-05
2.56755925874e-05
-4.19967946797e-06
-1.57173282192e-05
2.77290136523e-05
-5.58807485084e-06
-1.38958183375e-05
2.65969308294e-05
-7.31850065331e-06
-1.20730744557e-05
2.28355626961e-05
-8.6547385533e-06
-1.06292210093e-05
1.71136009222e-05
-9.93548825833e-06
-9.5353876464e-06
1.0116910894e-05
-1.09121629042e-05
-8.87110051932e-06
2.51316337338e-06
-1.14406131896e-05
-8.58760930002e-06
-5.16962878706e-06
-1.14747328779e-05
-8.53294218436e-06
-1.23992339784e-05
-1.10069190653e-05
-8.70513080365e-06
-1.84897689815e-05
-1.00725156085e-05
-9.25912338728e-06
-2.27105406949e-05
-8.80923908657e-06
-1.02678907556e-05
-2.43995293561e-05
-7.44194931157e-06
-1.165133097e-05
-2.29817981385e-05
-5.8127689015e-06
-1.33891783001e-05
-1.82829656483e-05
-4.40571502436e-06
-1.51775427505e-05
-1.10071067056e-05
-3.73114811715e-06
-1.63567367771e-05
-3.42444737543e-06
-3.78521532654e-06
-1.5547996436e-05
-4.68493167984e-06
-1.02869201612e-05
4.92129261746e-06
-9.44966901127e-06
1.20720932985e-05
-1.07333320455e-05
1.90470417616e-05
-1.04908210818e-05
2.41019411225e-05
-9.25456733026e-06
2.62413227307e-05
-7.72744571526e-06
2.52515142498e-05
-6.32868345652e-06
2.19625481689e-05
-5.36576697319e-06
1.6610028973e-05
-4.58296789216e-06
9.85954516914e-06
-4.16168311616e-06
2.44552086413e-06
-4.02659844742e-06
-5.04332735375e-06
-3.9858994552e-06
-1.20174596535e-05
-4.03280586901e-06
-1.7738789575e-05
-4.35120803519e-06
-2.15046467795e-05
-5.04340696501e-06
-2.2965905039e-05
-5.98071950883e-06
-2.15100751498e-05
-7.26863244235e-06
-1.71233137821e-05
-8.79251724907e-06
-1.08313969141e-05
-1.00231158848e-05
-4.34001752519e-06
-1.02766530982e-05
-9.0249786512e-06
8.32714720678e-06
7.94612371731e-06
-2.57371347909e-05
1.64602870993e-05
9.76573037695e-06
-2.86344288726e-05
2.28079649849e-05
1.15520005962e-05
-2.84075717086e-05
2.67266558399e-05
1.362376901e-05
-2.68327478813e-05
2.78461334872e-05
1.58410818924e-05
-2.47434414585e-05
2.6282032343e-05
1.78352843707e-05
-2.26668987909e-05
2.24218407974e-05
1.9377926085e-05
-2.09532566748e-05
1.67641907953e-05
2.06196033319e-05
-1.96155870363e-05
9.91252560458e-06
2.15092736022e-05
-1.88926336678e-05
2.48622633141e-06
2.19864957037e-05
-1.86620478169e-05
-5.01754708146e-06
2.20255200444e-05
-1.85867397637e-05
-1.20974383978e-05
2.16141671852e-05
-1.86521759558e-05
-1.81190327817e-05
2.07660876624e-05
-1.9187298389e-05
-2.24368257876e-05
1.95364931633e-05
-2.03573167561e-05
-2.45408167524e-05
1.7992018679e-05
-2.19601108109e-05
-2.40488114035e-05
1.60625876051e-05
-2.39027598161e-05
-2.08263055765e-05
1.38704186637e-05
-2.59416454039e-05
-1.51919700001e-05
1.18211086099e-05
-2.75156687157e-05
-7.75073547855e-06
1.00284387662e-05
-2.77742960706e-05
8.13211103662e-06
-2.49473118038e-05
1.02406028403e-05
1.56409436508e-05
-2.86596892367e-05
1.80327374761e-05
1.70996779484e-05
-3.11996541531e-05
2.33907789759e-05
1.9317514377e-05
-3.00587890092e-05
2.64124958647e-05
2.21983795263e-05
-2.73673821626e-05
2.70224029583e-05
2.53861892097e-05
-2.41256080491e-05
2.52797245233e-05
2.83955733558e-05
-2.09760995012e-05
2.14315944012e-05
3.08954441496e-05
-1.83842368431e-05
1.6007493311e-05
3.28937417341e-05
-1.64677541988e-05
9.53656585187e-06
3.43277456817e-05
-1.53007899723e-05
2.5216277222e-06
3.51128046834e-05
-1.47828072733e-05
-4.57634951329e-06
3.51950104577e-05
-1.46923462293e-05
-1.12861500986e-05
3.45529830778e-05
-1.5027231031e-05
-1.70729081543e-05
3.32094543521e-05
-1.60157084528e-05
-2.13731725604e-05
3.12409890515e-05
-1.77763851142e-05
-2.36582204138e-05
2.87525214406e-05
-2.02296785738e-05
-2.362659348e-05
2.57878553136e-05
-2.32389690379e-05
-2.12493431955e-05
2.2635151707e-05
-2.63909114154e-05
-1.65748967306e-05
1.97812448404e-05
-2.9042232391e-05
-9.51035304049e-06
1.7562798786e-05
-3.0174884058e-05
1.60284966363e-05
-2.76991271305e-05
1.20611801614e-05
2.15575059196e-05
-2.85108840599e-05
2.02908853231e-05
2.20494515074e-05
-3.01353097263e-05
2.54948363777e-05
2.41273378553e-05
-2.7351573871e-05
2.81312160904e-05
2.70901240545e-05
-2.27319446205e-05
2.82803892726e-05
3.0396652398e-05
-1.75479162444e-05
2.60948638057e-05
3.35549619219e-05
-1.2709005502e-05
2.19038281174e-05
3.62506837322e-05
-8.86332610311e-06
1.6254072417e-05
3.84090915845e-05
-6.16543515117e-06
9.65630059916e-06
3.99808649512e-05
-4.5558976932e-06
2.55181408906e-06
4.08671710616e-05
-3.80862058794e-06
-4.64773061715e-06
4.09854813269e-05
-3.68965381242e-06
-1.15112347053e-05
4.03046302799e-05
-4.2120863533e-06
-1.75445614608e-05
3.88597023657e-05
-5.63624512736e-06
-2.21931640492e-05
3.67416678475e-05
-8.18874507183e-06
-2.48994304091e-05
3.40539775188e-05
-1.1891053432e-05
-2.53065133463e-05
3.09120951868e-05
-1.65744663432e-05
-2.32807309108e-05
2.76290122142e-05
-2.16312584838e-05
-1.87435633237e-05
2.46943500739e-05
-2.61767282593e-05
-1.12547723437e-05
2.26306098249e-05
-2.89389448552e-05
2.20908808557e-05
-2.73601921357e-05
1.41446217872e-05
2.50921202853e-05
-2.70334444678e-05
2.3185693754e-05
2.47189452564e-05
-2.75472869846e-05
2.8463152248e-05
2.64313281943e-05
-2.28323074718e-05
3.07473338408e-05
2.90554214662e-05
-1.61484517239e-05
3.03209505405e-05
3.20045167753e-05
-9.09403645275e-06
2.7518449026e-05
3.48515008113e-05
-2.83764819578e-06
2.28186907686e-05
3.7362156029e-05
1.89559171016e-06
1.68050020996e-05
3.94139085318e-05
5.04113730305e-06
9.93763152663e-06
4.09301027064e-05
6.88802351817e-06
2.59479185079e-06
4.18089253913e-05
7.75567570289e-06
-4.86147655079e-06
4.19614933434e-05
7.90984178585e-06
-1.20382024779e-05
4.13472024273e-05
7.31932040891e-06
-1.84756697322e-05
3.99905066691e-05
5.66924789074e-06
-2.36431957819e-05
3.79801701235e-05
2.64043325863e-06
-2.69537640985e-05
3.54458574807e-05
-1.94158126432e-06
-2.79083949839e-05
3.25813499761e-05
-8.04553308303e-06
-2.62079230221e-05
2.96306414486e-05
-1.4942272372e-05
-2.15841949414e-05
2.70307135221e-05
-2.15194437592e-05
-1.32933621448e-05
2.53378363132e-05
-2.61759420586e-05
2.56872543445e-05
-2.56757258317e-05
1.63655186795e-05
2.59050377681e-05
-2.50680335114e-05
2.63742163354e-05
2.5046419826e-05
-2.44253264434e-05
3.17668554399e-05
2.63060859266e-05
-1.77629899039e-05
3.36859366075e-05
2.83604394006e-05
-9.19632632541e-06
3.26827734726e-05
3.07347426143e-05
-5.94609953932e-07
2.93555158932e-05
3.32069347338e-05
6.57417898738e-06
2.41865595628e-05
3.54526504049e-05
1.19748276506e-05
1.77359754277e-05
3.7334587662e-05
1.55921290184e-05
1.04454922535e-05
3.87704217527e-05
1.76998779586e-05
2.66627918887e-06
3.96347154744e-05
1.87090452726e-05
-5.25284618226e-06
3.98186388786e-05
1.89183072654e-05
-1.29200030555e-05
3.92751832726e-05
1.82682499866e-05
-1.98680803892e-05
3.80326136164e-05
1.63617294884e-05
-2.55475804129e-05
3.61888176857e-05
1.2813038945e-05
-2.93652540879e-05
3.38881636863e-05
7.47692232469e-06
-3.08609600517e-05
3.13517061682e-05
4.65472653968e-07
-2.94927601043e-05
2.89383737014e-05
-7.93842980871e-06
-2.47410713533e-05
2.68891811038e-05
-1.63458814804e-05
-1.54864557674e-05
2.56429100383e-05
-2.29064794598e-05
2.64828610609e-05
-2.3516631534e-05
1.83423208843e-05
2.41128983601e-05
-2.31324042494e-05
2.93712876182e-05
2.30707497886e-05
-2.13974444347e-05
3.49115549517e-05
2.38871733919e-05
-1.30244432597e-05
3.65122406401e-05
2.53134930365e-05
-3.00643942613e-06
3.51344997186e-05
2.71446240761e-05
6.52949485301e-06
3.13640451917e-05
2.91517099307e-05
1.45394466707e-05
2.57539240718e-05
3.1044189159e-05
2.04844245e-05
1.88602023187e-05
3.2682468132e-05
2.4474364682e-05
1.10868272002e-05
3.3980733763e-05
2.68522175339e-05
2.77349919962e-06
3.47919090132e-05
2.80376065779e-05
-5.71304779272e-06
3.49954552978e-05
2.83325056739e-05
-1.39523090132e-05
3.4543647425e-05
2.76427233366e-05
-2.14522830782e-05
3.34642757492e-05
2.54995261747e-05
-2.76428686698e-05
3.18679634869e-05
2.14779420635e-05
-3.19087787258e-05
2.9902208457e-05
1.54603184805e-05
-3.37394315885e-05
2.77929975837e-05
7.54514645593e-06
-3.2649995036e-05
2.58711304165e-05
-1.75672944191e-06
-2.77280365977e-05
2.44184494728e-05
-1.15629738568e-05
-1.74456576357e-05
2.35970833473e-05
-1.97918092975e-05
2.46195490788e-05
-2.14628517921e-05
1.98877923565e-05
2.00855472279e-05
-2.15150632028e-05
3.18571043495e-05
1.90526255694e-05
-1.88967908959e-05
3.75767844777e-05
1.95092499606e-05
-9.250172636e-06
3.89774388755e-05
2.03951198383e-05
1.68273189318e-06
3.7339133185e-05
2.17255255356e-05
1.18912474239e-05
3.32457416639e-05
2.32464066727e-05
2.0453215405e-05
2.7280585212e-05
2.47238022609e-05
2.68163438121e-05
1.99968549025e-05
2.60394085698e-05
3.11820984177e-05
1.17697352225e-05
2.71365795181e-05
3.38809708045e-05
2.91732992264e-06
2.78907448125e-05
3.52941964023e-05
-6.14579401079e-06
2.80930034325e-05
3.5701346551e-05
-1.49379981595e-05
2.76884777846e-05
3.49762528822e-05
-2.29584079051e-05
2.68029663207e-05
3.26002661733e-05
-2.96066450456e-05
2.55316019857e-05
2.8133061093e-05
-3.42347668688e-05
2.39842625558e-05
2.15377086269e-05
-3.63079519094e-05
2.23545174484e-05
1.29427223648e-05
-3.53655864008e-05
2.09229275454e-05
2.88340806153e-06
-3.02384240723e-05
1.99664343294e-05
-7.78638294453e-06
-1.89983955478e-05
1.94843455458e-05
-1.72678959657e-05
2.04917520896e-05
-1.98067720743e-05
2.11136739332e-05
1.43256148334e-05
-2.02752706953e-05
3.38114854758e-05
1.35228039698e-05
-1.70679673847e-05
3.96634198955e-05
1.37344192787e-05
-6.6346038162e-06
4.09410029193e-05
1.42281624503e-05
4.72758607039e-06
3.91289973773e-05