/*--------------------------------*- C++ -*----------------------------------*\
| =========                 |                                                 |
| \\      /  F ield         | OpenFOAM: The Open Source CFD Toolbox           |
|  \\    /   O peration     | Version:  3.0.1                                 |
|   \\  /    A nd           | Web:      www.OpenFOAM.org                      |
|    \\/     M anipulation  |                                                 |
\*---------------------------------------------------------------------------*/
FoamFile
{
    version     2.0;
    format      ascii;
    class       surfaceVectorField;
    location    "2.4";
    object      ddt0(Uf);
}
// * * * * * * * * * * * * * * * * * * * * * * * * * * * * * * * * * * * * * //

dimensions      [0 1 -2 0 0 0 0];

internalField   nonuniform List<vector> 
45932
(
(0.000842770997416 -2.99392634578e-05 -0.000172570302076)
(0.000374271538583 0.00014256114302 -0.000330927183615)
(0.000517161535818 0.000126993306254 -0.000563575590698)
(0.00152661901364 6.42751497903e-07 -9.92801325842e-05)
(0.00127459949502 0.000163040388323 -0.000404658611654)
(0.00139781220686 0.000209997545622 -0.000504542203941)
(0.00154795256644 0.000142056526814 -4.0379096913e-05)
(0.0017722050974 0.000459487796923 -0.000413730994666)
(0.00184269820222 0.000445562620803 -0.000469515704055)
(0.000854633667657 0.000275709194214 -6.51088656092e-06)
(0.00137958962978 0.000762006087587 -0.000382840393472)
(0.00141909454795 0.000664063900358 -0.000413999642849)
(-0.000219498096474 0.000338911159362 5.00256169154e-06)
(0.000393003143972 0.000949891014516 -0.000377948092387)
(0.000398332118223 0.000801018551427 -0.000410622834105)
(-0.00137938937385 0.000304134357015 1.50661480891e-05)
(-0.000815303898805 0.000973207205688 -0.000362297401991)
(-0.000840212510524 0.000812950368499 -0.000390821890783)
(-0.00232078623498 0.000188657288028 2.28584023637e-05)
(-0.00198268626063 0.000819371048981 -0.000332831257623)
(-0.00203101424777 0.000693900359801 -0.000347012913104)
(-0.00280677721935 3.73466897149e-05 2.93577510152e-05)
(-0.0027331186034 0.000539885636264 -0.000297112178537)
(-0.00278975085897 0.000490689280369 -0.000296488024252)
(-0.00277759085968 -9.34449817139e-05 3.2983947341e-05)
(-0.00293107872832 0.000203116528055 -0.000234228761949)
(-0.00300285074406 0.00024350048364 -0.000218112965858)
(-0.00241367011995 -0.000149697444231 3.33932588227e-05)
(-0.0026269100178 -4.50288571977e-05 -0.000159172497982)
(-0.00270122204349 4.70342142692e-05 -0.000137372543434)
(-0.00195415448143 -0.000143763881364 2.86995734348e-05)
(-0.00216730725878 -0.000163978747798 -9.00782843166e-05)
(-0.00223508521627 -4.4045962802e-05 -6.59219376942e-05)
(-0.00154073118211 -0.000117801161379 1.57124660475e-05)
(-0.00171577859232 -0.000177593877746 -4.72567146414e-05)
(-0.00176940575611 -7.51586133e-05 -2.91076299606e-05)
(-0.00118850264441 -8.76212953539e-05 -6.89379264147e-07)
(-0.0013303708796 -0.000153182504093 -3.00701473641e-05)
(-0.00137084994313 -7.335849795e-05 -2.29836222361e-05)
(-0.000879841062038 -6.05108300159e-05 -1.66628813216e-05)
(-0.00100402722726 -0.00011730657405 -2.90325368605e-05)
(-0.00103330336921 -5.98667643779e-05 -3.71782908116e-05)
(-0.00060499614645 -3.85968896438e-05 -2.68364225985e-05)
(-0.00071720735721 -8.18696734365e-05 -3.32694132451e-05)
(-0.000736678692302 -4.31981012826e-05 -5.57381253988e-05)
(-0.000378438450811 -2.09135584506e-05 -2.52815577551e-05)
(-0.000472066138852 -5.08897441456e-05 -3.30019598604e-05)
(-0.000482019087915 -2.76633093188e-05 -6.25574989162e-05)
(-0.000216345828234 -8.18001181029e-06 -1.6116973344e-05)
(-0.00028573109593 -2.2489065969e-05 -2.18833674709e-05)
(-0.000288653602705 -1.45172713465e-05 -5.87207209708e-05)
(-0.000152926389723 -1.07732765288e-07 -2.8535344304e-06)
(-0.000181231534825 -7.42917211793e-06 -8.68715011679e-06)
(-0.000179061879893 -4.41446098347e-06 -2.44715721506e-05)
(-0.000180964108 4.90819188623e-06 1.30900566794e-05)
(-0.00016863443689 4.13267917125e-06 9.40090300387e-06)
(-0.00016303832044 2.10490322265e-06 9.65634059237e-06)
(-0.000279479518327 6.83014220476e-06 2.40754360287e-05)
(-0.000234870052112 9.91149816571e-06 2.42451932055e-05)
(-0.000229805427116 5.1668853061e-06 3.90952964359e-05)
(-0.000410333186725 6.82024594386e-06 2.69928995231e-05)
(-0.000350953954272 1.12908696487e-05 3.10340391371e-05)
(-0.000348782108309 5.96621581111e-06 5.38905766085e-05)
(-0.000534212809145 6.04051143839e-06 2.24068000231e-05)
(-0.000478496944708 1.01591974108e-05 2.90837431422e-05)
(-0.000479739568389 5.40472817768e-06 5.15545133458e-05)
(-0.00062400449336 5.27981387311e-06 1.32173303271e-05)
(-0.000585011500389 8.48327156642e-06 2.07001078047e-05)
(-0.000588734287676 4.53975967847e-06 3.62013593133e-05)
(-0.000669406365422 4.9000705756e-06 2.83546513559e-06)
(-0.00065206275646 7.12591970166e-06 9.97049308746e-06)
(-0.000656812867602 3.97893279559e-06 1.53663893751e-05)
(-0.000673056051463 4.7886486715e-06 -5.92632201889e-06)
(-0.000676225793192 6.5861256461e-06 -4.15639618974e-07)
(-0.000680443709208 3.7625557519e-06 -4.97566920316e-06)
(-0.000646694049236 4.76406945263e-06 -1.13207891209e-05)
(-0.000664902329515 6.29655030784e-06 -7.71411711254e-06)
(-0.000667451307211 3.62720851894e-06 -1.96985022627e-05)
(-0.000606496488333 4.70568270447e-06 -1.28723946348e-05)
(-0.00063202437326 6.30792772154e-06 -1.09075588511e-05)
(-0.000632590594108 3.83233423378e-06 -2.66309280414e-05)
(-0.000567781023114 4.34556220201e-06 -1.11808857646e-05)
(-0.000593346219539 6.19580014849e-06 -1.05282068254e-05)
(-0.000591989530518 3.74642356912e-06 -2.57772249318e-05)
(-0.000540083719348 3.63536888403e-06 -7.74533968211e-06)
(-0.000560986162144 5.53538536647e-06 -7.78795783683e-06)
(-0.000558354672643 3.31597746741e-06 -1.96012884674e-05)
(-0.000525506240081 2.64687119982e-06 -4.24665830575e-06)
(-0.000540744052679 4.30695348817e-06 -4.39111466146e-06)
(-0.000537722157643 2.69296963545e-06 -1.179561198e-05)
(-0.000520603832319 1.42937202119e-06 -1.9917340522e-06)
(-0.00053172011043 2.71426248586e-06 -1.97394197254e-06)
(-0.0005290050191 1.8809093198e-06 -5.33501181943e-06)
(-0.000517851907421 9.35678603137e-08 -1.71282645579e-06)
(-0.000528276156179 8.46899876168e-07 -1.44973414935e-06)
(-0.00052638398883 9.30688489093e-07 -2.35294141596e-06)
(-0.000509678121874 -1.15895312245e-06 -3.41228480052e-06)
(-0.000522744714052 -1.41970590706e-06 -3.07801766473e-06)
(-0.000521849082564 1.25505326917e-07 -2.75429852134e-06)
(-0.000488012568574 -2.29271031139e-06 -6.7427097465e-06)
(-0.000507379428552 -3.30434852381e-06 -6.70950318262e-06)
(-0.000507372879562 -7.16381363928e-07 -7.57268812054e-06)
(-0.000447576396878 -3.26071127774e-06 -1.12422488767e-05)
(-0.000475544656038 -5.12446586327e-06 -1.16994020479e-05)
(-0.000476279508054 -1.42385308531e-06 -1.50990338835e-05)
(-0.000385906929553 -3.92433430019e-06 -1.61465069684e-05)
(-0.000423412352269 -6.49302203198e-06 -1.75639420377e-05)
(-0.000424635417971 -2.01406687569e-06 -2.4318475164e-05)
(-0.000304245707513 -4.12285241954e-06 -2.09792860551e-05)
(-0.000350689176065 -7.34389778155e-06 -2.30651191577e-05)
(-0.000352317514293 -2.24424747515e-06 -3.34498156088e-05)
(-0.000204931271393 -3.1422145586e-06 -2.47951198035e-05)
(-0.000257699278899 -7.07478941061e-06 -2.83153580118e-05)
(-0.000259770636322 -2.20268233938e-06 -4.25417570604e-05)
(-9.9746762864e-05 -2.66144853303e-07 -2.71323907615e-05)
(-0.000152116904748 -4.01176775087e-06 -3.06937306411e-05)
(-0.000154663957845 -5.83370112048e-07 -4.85294793623e-05)
(-4.95616771136e-05 2.64052797553e-06 -2.95483005057e-05)
(-5.23105309045e-05 3.3318368928e-06 -5.24504813873e-05)
(0.000808734111464 0.00034766682914 -0.000563015493193)
(0.000341607194617 0.000557090143829 -0.000470931016658)
(0.000480500948548 0.000452048413874 -0.000818426905706)
(0.00158009993097 0.000648653911525 -0.000719109473736)
(0.00138824471765 0.000820669113457 -0.000747847491449)
(0.00142354609046 0.000724299427097 -0.00104277753961)
(0.00162331941569 0.0011285440065 -0.000756192291225)
(0.00192457447101 0.00150865456033 -0.000791140116676)
(0.00185019443589 0.00127970227989 -0.0010697108227)
(0.000906546162894 0.0015016271825 -0.000754277599299)
(0.0014941206909 0.00212582183736 -0.000750988432308)
(0.00142037214159 0.00177588343995 -0.00100308813944)
(-0.000204345767879 0.00165703704673 -0.00074524805607)
(0.000445609385703 0.00248704400558 -0.000740410350263)
(0.000407033982428 0.0020637780613 -0.00097791822627)
(-0.00140013356388 0.00155699049006 -0.000710194807703)
(-0.000831449900801 0.00252095391434 -0.00071677262259)
(-0.000826720701308 0.0020868354172 -0.000945564369097)
(-0.00238252787744 0.00122528643192 -0.000652801838524)
(-0.00205920249882 0.00220906279797 -0.000675066185163)
(-0.00200552358252 0.00183243680006 -0.000895250774054)
(-0.00287611583315 0.000739739998905 -0.000560698691501)
(-0.00287101808131 0.00162521799219 -0.000632004198318)
(-0.00278099626732 0.00136356549453 -0.000837172387238)
(-0.00281855241518 0.000259945282645 -0.000426385207272)
(-0.00305405781686 0.000890169045492 -0.000545591036035)
(-0.00297898081088 0.000778269288341 -0.000715873321527)
(-0.00241205465281 -5.13041205898e-05 -0.000282644041121)
(-0.00270601413449 0.000283256846869 -0.000410761479817)
(-0.00268128826897 0.000284658732116 -0.000531948957906)
(-0.00194063692556 -0.000181215299084 -0.000166034572393)
(-0.00218733334328 -6.03406567818e-05 -0.000262605788368)
(-0.00220632452987 -4.30462383448e-07 -0.000339552391484)
(-0.00152165899274 -0.000203674695591 -9.30393280529e-05)
(-0.00170355752855 -0.000193757351595 -0.000150174420047)
(-0.00174285957757 -0.000123853175807 -0.000193353341549)
(-0.00117107975749 -0.000177250774059 -5.84133049605e-05)
(-0.00130670301706 -0.000213865509589 -8.67114797381e-05)
(-0.00134936449767 -0.000151891928404 -0.000114657106096)
(-0.000866149310956 -0.000135056084659 -4.5639068784e-05)
(-0.000979116338146 -0.000183645547585 -5.95393773908e-05)
(-0.00101683341768 -0.000136484875734 -8.62569155908e-05)
(-0.000595336765349 -9.23784252545e-05 -3.9434950507e-05)
(-0.000695234040117 -0.000137295439954 -4.83129124432e-05)
(-0.000724120495163 -0.000104482176108 -8.01376274911e-05)
(-0.000370993340707 -5.42953527676e-05 -2.96037695762e-05)
(-0.000453948679842 -9.06171906462e-05 -3.89235210932e-05)
(-0.000472932559109 -7.00947290362e-05 -7.25900020053e-05)
(-0.000216311441575 -2.48081013174e-05 -1.44535442436e-05)
(-0.000273021123821 -4.96404830115e-05 -2.38250326412e-05)
(-0.000283413510578 -3.89314802992e-05 -5.033959756e-05)
(-0.000155898268606 -4.82414223421e-06 3.56728731748e-06)
(-0.000174305598975 -1.97622850583e-05 -4.71339353362e-06)
(-0.00017844289142 -1.44283689985e-05 -1.8058968797e-05)
(-0.000187874719126 7.68947643327e-06 2.055603953e-05)
(-0.000166355156177 7.02045984966e-07 1.51113653103e-05)
(-0.000167438555352 1.84412881405e-06 1.91905903784e-05)
(-0.000289037965645 1.3163989477e-05 3.1203796314e-05)
(-0.000236814425232 1.1922860843e-05 2.95973998345e-05)
(-0.000238577082176 9.97059690163e-06 4.83203565271e-05)
(-0.000421481995343 1.37457039928e-05 3.31248827562e-05)
(-0.000355671158431 1.57619652811e-05 3.56691140119e-05)
(-0.000360385616841 1.26615231682e-05 6.15071686344e-05)
(-0.000545771791905 1.20935010726e-05 2.73770509237e-05)
(-0.000484314105409 1.4735573856e-05 3.28278030513e-05)
(-0.00049261324519 1.16628688167e-05 5.73431592225e-05)
(-0.00063550158915 1.02255116478e-05 1.7453270565e-05)
(-0.000590749848565 1.25347259203e-05 2.36226869998e-05)
(-0.000601656946136 9.62721712704e-06 4.06002121041e-05)
(-0.000681110320813 9.03324766119e-06 6.7193883329e-06)
(-0.000657240571295 1.05478813137e-05 1.26645188578e-05)
(-0.000669290837975 8.00978566697e-06 1.91688718973e-05)
(-0.000684264677964 8.49528405729e-06 -2.20343471262e-06)
(-0.000680967678304 9.37768341938e-06 2.04566816473e-06)
(-0.000692731085401 7.18596357903e-06 -1.43522276421e-06)
(-0.000657824433365 8.2698547609e-06 -7.30088684274e-06)
(-0.000669515381155 8.89797193295e-06 -5.11163881891e-06)
(-0.000679720385583 6.7521460831e-06 -1.60490016314e-05)
(-0.000618321321547 8.13370082088e-06 -8.56337104178e-06)
(-0.00063672110043 8.73855139469e-06 -7.91021889998e-06)
(-0.000645198042155 6.9114312286e-06 -2.24123453177e-05)
(-0.000580616337705 7.50522926634e-06 -7.13527889765e-06)
(-0.00059854409084 8.64900571873e-06 -7.61605534109e-06)
(-0.000605500423794 6.80367610716e-06 -2.15345959648e-05)
(-0.0005527305237 6.16102561027e-06 -4.43373281618e-06)
(-0.000566808907862 7.48495580784e-06 -5.21964423367e-06)
(-0.000572723263362 5.94366163261e-06 -1.61133898106e-05)
(-0.000538308971435 4.23723479709e-06 -2.11839832826e-06)
(-0.000547050297922 5.95353644431e-06 -2.46935042029e-06)
(-0.000552733224727 4.79599447051e-06 -9.05810949872e-06)
(-0.000533232151309 1.83256536856e-06 -1.43194206969e-06)
(-0.000538343168267 3.71217865521e-06 -9.32631644795e-07)
(-0.000544357203384 3.24406003879e-06 -3.70317820523e-06)
(-0.00053002459488 -7.14405860527e-07 -2.81492535829e-06)
(-0.000534873959513 1.0295753731e-06 -1.39372787377e-06)
(-0.00054152959226 1.49852226447e-06 -1.9099937436e-06)
(-0.000520940181551 -3.05000768612e-06 -6.37523604683e-06)
(-0.000528987768157 -1.27041067012e-06 -4.13046331355e-06)
(-0.000536358047444 3.29560460147e-08 -4.76745679158e-06)
(-0.000498044018788 -5.11281193032e-06 -1.1666195484e-05)
(-0.000513090641767 -3.37213516052e-06 -9.1575515269e-06)
(-0.000520872670923 -1.46080305526e-06 -1.14081674435e-05)
(-0.000456271883068 -6.80908857372e-06 -1.80210952089e-05)
(-0.000480577219276 -5.05749718644e-06 -1.53774260871e-05)
(-0.000488369630626 -2.68285975474e-06 -2.0937640832e-05)
(-0.00039302791809 -7.87570351317e-06 -2.4482554227e-05)
(-0.00042746388327 -6.3825229218e-06 -2.24603075389e-05)
(-0.000434909659048 -3.59785342494e-06 -3.168666421e-05)
(-0.000308988835574 -7.92060975845e-06 -3.04011911144e-05)
(-0.000353536661521 -6.66612345956e-06 -2.87989143407e-05)
(-0.000360561438348 -3.93282222151e-06 -4.26393050767e-05)
(-0.000206897299801 -5.60990018213e-06 -3.42139688494e-05)
(-0.000258497449695 -5.74409844448e-06 -3.466800423e-05)
(-0.000265606879681 -3.49543555241e-06 -5.23171514089e-05)
(-9.64307299246e-05 6.09549555084e-07 -3.31096403853e-05)
(-0.000150176583631 -1.34269413084e-06 -3.62612393611e-05)
(-0.000157882842531 -2.19914415216e-07 -5.7833198548e-05)
(-4.67193546912e-05 7.09961233023e-06 -3.00129793146e-05)
(-5.32913439343e-05 7.4795558889e-06 -5.25945007805e-05)
(0.000913746046508 0.00100097393496 -0.000655763014915)
(0.000418099667807 0.000987048834967 -0.00049281587496)
(0.000546132960889 0.000906603916765 -0.000886548282801)
(0.00179168273332 0.00163817474543 -0.00081987813439)
(0.00167426951653 0.00151563065045 -0.000781078246193)
(0.00161066801163 0.00138465636392 -0.00113339194224)
(0.00181458788629 0.00244105258783 -0.000785936257759)
(0.00223757639581 0.00251085234784 -0.000692300890499)
(0.0020226121125 0.00219536389405 -0.00101188433638)
(0.00101983994866 0.00302560374799 -0.000737121183272)
(0.0017129494416 0.00334924120875 -0.000547014219637)
(0.00153155046994 0.00288752603429 -0.000821896665087)
(-0.000182981777435 0.00325687273319 -0.000711934916783)
(0.000536666123125 0.00383123748026 -0.000491892814603)
(0.000456140484644 0.00328164989203 -0.000736084389152)
(-0.00147066107617 0.00308795189548 -0.00068164400005)
(-0.000877267100659 0.00387074527286 -0.000463989802224)
(-0.000840452603372 0.00331029565411 -0.000698273385263)
(-0.00253173793014 0.00254632135294 -0.000654268544956)
(-0.00223040322681 0.00343949105608 -0.000457313352783)
(-0.00207395605539 0.00294768401449 -0.00069373654494)
(-0.00306342262535 0.00173797741058 -0.000616896542852)
(-0.00313644948366 0.00263016182872 -0.00049761354434)
(-0.00289765323167 0.00227232619881 -0.000735978354089)
(-0.00297975370243 0.000894805786306 -0.00052996730858)
(-0.00332814148729 0.00158817524247 -0.000518808046672)
(-0.00310239825356 0.00141403369908 -0.000739270078654)
(-0.00250437850677 0.000270028294114 -0.000390723227064)
(-0.00290877475538 0.000680426663196 -0.000461234781162)
(-0.00277671452223 0.000645507167354 -0.000635330437904)
(-0.00196228069402 -6.98237970082e-05 -0.000246745636022)
(-0.00228587738751 0.000115001279206 -0.000326232710836)
(-0.00224631568111 0.000147014375933 -0.000446826848725)
(-0.00150615426406 -0.000199700464196 -0.000143846571732)
(-0.00172525944638 -0.000147279974854 -0.00019960208204)
(-0.00174042045035 -0.000100603918013 -0.000274725815439)
(-0.00114112393061 -0.000214904649815 -8.78375521685e-05)
(-0.00128967785139 -0.000230164384139 -0.000119853120185)
(-0.00132677893183 -0.000185230269356 -0.000166322193136)
(-0.000834007287208 -0.000180861969642 -6.221322105e-05)
(-0.000948283453142 -0.000218977938264 -7.98012826921e-05)
(-0.000987574174123 -0.000184507105308 -0.000118358544664)
(-0.000566360843618 -0.0001315477451 -4.78014830294e-05)
(-0.000662670846027 -0.000172869794453 -5.9996790217e-05)
(-0.000695037840294 -0.000148863487614 -9.83968053848e-05)
(-0.000346776507842 -8.27917722565e-05 -3.31447841583e-05)
(-0.000424787623614 -0.00011848940492 -4.48573101153e-05)
(-0.000447237332058 -0.00010325194019 -8.20641968746e-05)
(-0.000198832233374 -4.25232684822e-05 -1.40848819313e-05)
(-0.000249843669361 -6.87330685772e-05 -2.60998967077e-05)
(-0.000262631194859 -5.98306814066e-05 -5.5038485527e-05)
(-0.000144017483862 -1.43323112257e-05 6.8306844592e-06)
(-0.000158205615533 -3.02763469595e-05 -3.19419311323e-06)
(-0.00016363865444 -2.47541099765e-05 -1.70929500859e-05)
(-0.000180969610324 3.7541610169e-06 2.41527256148e-05)
(-0.000155926221238 -7.32907330252e-06 2.07284191865e-05)
(-0.000158692461001 -6.69958007166e-07 2.62667296964e-05)
(-0.000285851285427 1.35410627964e-05 3.40627175324e-05)
(-0.000230863687694 9.84651311761e-06 3.26643987316e-05)
(-0.000234574274864 1.09077064542e-05 5.42621439691e-05)
(-0.000420445779837 1.57788095024e-05 3.5372034307e-05)
(-0.000353551041448 1.65053165219e-05 3.76830514906e-05)
(-0.000359464817718 1.5613726484e-05 6.63123601934e-05)
(-0.000545577835747 1.43588533926e-05 2.90734391274e-05)
(-0.000483904888291 1.58561373418e-05 3.44737330614e-05)
(-0.00049315780592 1.49974941125e-05 6.12261597901e-05)
(-0.000634891764628 1.23456263665e-05 1.88339352926e-05)
(-0.000590448929242 1.3947949354e-05 2.45948739582e-05)
(-0.000602249968452 1.26764803598e-05 4.30363946492e-05)
(-0.000679964113649 1.06667071907e-05 7.99079868964e-06)
(-0.000656582784997 1.19025987953e-05 1.33879673398e-05)
(-0.000669337381416 1.05419299892e-05 2.09718399616e-05)
(-0.0006826924363 9.74253727351e-06 -8.62535941564e-07)
(-0.000679822980991 1.03443893412e-05 2.73189539746e-06)
(-0.000692197071051 9.16915702893e-06 1.78720892147e-07)
(-0.000656142991912 9.36994884054e-06 -5.72097087615e-06)
(-0.000668051898891 9.77041982116e-06 -4.23572021435e-06)
(-0.00067882531598 8.65323251907e-06 -1.43736252833e-05)
(-0.000617209472121 9.13121579928e-06 -6.96290319929e-06)
(-0.000635198189114 9.39906076224e-06 -6.892595517e-06)
(-0.000644250935276 8.44641947784e-06 -2.03571020122e-05)
(-0.000578869135051 8.40940787452e-06 -5.70042067711e-06)
(-0.00059734955688 9.02316652991e-06 -6.75641317093e-06)
(-0.000604915905462 8.19599934828e-06 -1.97733451336e-05)
(-0.000551729462081 6.93022271616e-06 -3.25526183777e-06)
(-0.000566106181501 7.7508983888e-06 -4.43469459321e-06)
(-0.000572634606792 7.21767010391e-06 -1.40568636421e-05)
(-0.000537693389338 4.7380064301e-06 -1.28358373682e-06)
(-0.000546819070483 5.81285014491e-06 -1.85895870321e-06)
(-0.000553056116947 5.84361281976e-06 -7.07763178558e-06)
(-0.00053304670254 2.30743243902e-06 -8.94417448878e-07)
(-0.000538332731288 2.87579157015e-06 -2.77382402589e-07)
(-0.000544989785219 4.15965849906e-06 -1.65184780729e-06)
(-0.000529521843551 1.03966229961e-07 -2.70926582903e-06)
(-0.000534831598453 1.12831578766e-06 -1.14939975854e-06)
(-0.000542254645885 2.49304105384e-06 -1.98032406643e-06)
(-0.000520395054681 -1.95620636012e-06 -6.91277879362e-06)
(-0.000528956029779 -9.20362435478e-07 -4.28607072371e-06)
(-0.000537090305008 9.43142791241e-07 -4.981519841e-06)
(-0.000497482623213 -3.65821361076e-06 -1.286878213e-05)
(-0.000512962499558 -2.66268553654e-06 -9.73617658473e-06)
(-0.000521528545901 -4.2576436887e-07 -1.21814117769e-05)
(-0.000455546557788 -4.92583054724e-06 -1.98166384171e-05)
(-0.000480338010604 -3.87989735805e-06 -1.64076681729e-05)
(-0.00048885958292 -1.42807420356e-06 -2.21141785561e-05)
(-0.000392015905301 -5.46754866619e-06 -2.67766676526e-05)
(-0.000426944880865 -4.67735821445e-06 -2.38306212067e-05)
(-0.000435146269832 -2.02495493495e-06 -3.34063497782e-05)
(-0.00030736574252 -4.89844389368e-06 -3.30657274563e-05)
(-0.000352579375347 -4.39768601261e-06 -3.05207225053e-05)
(-0.000360498090467 -1.95525931383e-06 -4.45172077952e-05)
(-0.000203620752355 -2.08072010662e-06 -3.67152747417e-05)
(-0.000256506731106 -2.9718368943e-06 -3.65989381143e-05)
(-0.000264955366274 -1.00154375152e-06 -5.45683191927e-05)
(-9.25107544133e-05 4.03713190707e-06 -3.31645782905e-05)
(-0.00014672967881 1.58167317502e-06 -3.77373402592e-05)
(-0.000156666573603 2.81313298837e-06 -5.8393440622e-05)
(-4.46984604684e-05 8.72808253605e-06 -2.84417720646e-05)
(-5.28475944326e-05 9.84983734115e-06 -4.7789089301e-05)
(0.00116243838575 0.00149545629097 -0.000618131106238)
(0.000582377195099 0.00130270090773 -0.000492136560099)
(0.00070706068217 0.00126511937783 -0.00089688911536)
(0.0021857237526 0.00236789919664 -0.000653501002303)
(0.00210836742869 0.00200166490307 -0.000678553129473)
(0.00195366120811 0.00186417811345 -0.000997009864199)
(0.00215160140103 0.00337375012662 -0.000453378852377)
(0.00269051491342 0.00315793292507 -0.000382958167411)
(0.0023478587193 0.00281257073854 -0.000626940324466)
(0.00121531885808 0.00408805278314 -0.000301785850968)
(0.00203536212525 0.00407872245284 -7.99874327495e-05)
(0.00174963998692 0.00359617838643 -0.000254117860593)
(-0.000158860086275 0.00436995883544 -0.000243947700044)
(0.000669125756283 0.00461754382721 5.26360145722e-05)
(0.000544778552249 0.00404567965492 -8.77874437417e-05)
(-0.00161627405835 0.00415493111782 -0.000239659154957)
(-0.000960731179498 0.0046612025687 8.23310289506e-05)
(-0.000886589854403 0.00407753921387 -4.86766810486e-05)
(-0.00281284493345 0.00347627383895 -0.000300658352167)
(-0.00250064665638 0.00416678666299 1.61346459729e-05)
(-0.00224093543966 0.00365420121744 -0.000118234786499)
(-0.00341679962065 0.00245825982739 -0.000399525048161)
(-0.00352524755552 0.0032579324441 -0.00016137915674)
(-0.00314866028097 0.0028673056352 -0.000319798145213)
(-0.00330210157195 0.00137210770346 -0.000450075519254)
(-0.00373935075823 0.00205756236814 -0.000347119143035)
(-0.00337528442811 0.00185275364116 -0.000525047616866)
(-0.00271332203475 0.000533421681002 -0.000396744264934)
(-0.00322849366759 0.000979333908243 -0.000424410300988)
(-0.00299637860753 0.00091353180589 -0.000593710117109)
(-0.00205845993509 4.34678141641e-05 -0.000279089156854)
(-0.00246680993702 0.00027098738612 -0.000347957750799)
(-0.00237080897328 0.000274461076611 -0.000484111453831)
(-0.00152493977474 -0.00017265272316 -0.000175608630493)
(-0.00179436800147 -8.83554399524e-05 -0.000232155508716)
(-0.00178477706401 -6.43483288915e-05 -0.000326061641443)
(-0.00112315130739 -0.000226781689109 -0.000111816850709)
(-0.00129421926105 -0.000218689463845 -0.000147345498336)
(-0.00132240878419 -0.000194927312351 -0.000212537264645)
(-0.000803156882341 -0.000204898132557 -7.75848518591e-05)
(-0.000924563241638 -0.000229402070581 -9.86117010728e-05)
(-0.000961352176576 -0.000210613551724 -0.000149698224322)
(-0.000534100125215 -0.000155067182278 -5.70526173029e-05)
(-0.000630449725102 -0.000188796294186 -7.22287884341e-05)
(-0.00066292799532 -0.000175965003499 -0.000118729423674)
(-0.000318206033373 -0.000100963789757 -3.78124226648e-05)
(-0.000393376827474 -0.000132800639095 -5.17601733764e-05)
(-0.000416389542837 -0.000124527835649 -9.37708948125e-05)
(-0.00017698396345 -5.43001837283e-05 -1.52092078897e-05)
(-0.000223776278065 -7.90683142539e-05 -2.90978790374e-05)
(-0.000236759881817 -7.37565521398e-05 -6.04384136494e-05)
(-0.000130674272535 -2.02336390614e-05 1.07035416141e-05)
(-0.000139374780047 -3.62521256657e-05 -3.25006634966e-06)
(-0.000144270587311 -3.24298644308e-05 -1.73873483877e-05)
(-0.000170896867482 -1.6806146695e-07 2.92400923033e-05)
(-0.000144642135541 -5.35195898213e-06 2.36206525392e-05)
(-0.00014684178042 -3.72417689436e-06 1.78893501673e-05)
(-0.000281170067933 1.08630754848e-05 3.62847326898e-05)
(-0.000224395717371 3.24887011278e-06 3.7810756581e-05)
(-0.00022883564161 1.07531404628e-05 6.14844573117e-05)
(-0.000419451590321 1.49785395099e-05 3.67847502451e-05)
(-0.000350634210503 1.45939559187e-05 3.98526415829e-05)
(-0.000357221799265 1.6888562945e-05 7.08247405986e-05)
(-0.000545205227498 1.39713864522e-05 2.99951678922e-05)
(-0.00048351670409 1.35146495093e-05 3.66342350739e-05)
(-0.00049287992554 1.63313394669e-05 6.50170898153e-05)
(-0.000634613766748 1.25452938825e-05 1.91489060055e-05)
(-0.000590184887644 1.29931003288e-05 2.53600059672e-05)
(-0.00060232068059 1.39269376018e-05 4.54691359189e-05)
(-0.000679241277094 1.09702630187e-05 8.12906404766e-06)
(-0.00065630713146 1.17019628559e-05 1.3414581881e-05)
(-0.000669052474628 1.16472000629e-05 2.2319459862e-05)
(-0.000681662169342 9.92110943799e-06 -6.41288875327e-07)
(-0.000679243408718 1.02076055643e-05 2.70335539257e-06)
(-0.000691395670222 1.00543768386e-05 1.14056609224e-06)
(-0.000655029638014 9.38906970125e-06 -5.4073448552e-06)
(-0.000667209511541 9.5633862915e-06 -4.22568248275e-06)
(-0.000677712016855 9.387471056e-06 -1.33256618479e-05)
(-0.000616167535545 8.89620841415e-06 -6.68610548864e-06)
(-0.000634360474113 9.03755075988e-06 -6.8572186863e-06)
(-0.000643133433177 8.92359213781e-06 -1.92909036572e-05)
(-0.000578216761513 7.92105099948e-06 -5.49068708703e-06)
(-0.000596827997438 8.39170190542e-06 -6.81715195781e-06)
(-0.00060410176189 8.41416178905e-06 -1.85656213203e-05)
(-0.000551488092038 6.07102162457e-06 -3.03839145864e-06)
(-0.000566111212515 6.86653261743e-06 -4.32137774429e-06)
(-0.000572283935742 7.33577532183e-06 -1.26944724834e-05)
(-0.000538017001958 3.77444437928e-06 -8.5275736897e-07)
(-0.000547130091265 4.22791632727e-06 -1.46115441188e-06)
(-0.00055302920131 5.89468923653e-06 -5.34450352949e-06)
(-0.000533076533381 1.7519671977e-06 -5.32364712248e-07)
(-0.000538579992077 2.57572803104e-06 2.20148802725e-08)
(-0.00054511139034 4.07512449694e-06 -2.32803139065e-06)
(-0.000529503974163 -2.70404267608e-08 -2.72620465322e-06)
(-0.000535018758038 8.77377468047e-07 -1.23360124896e-06)
(-0.000542448077198 2.55270924133e-06 -1.64553236681e-06)
(-0.000520270876183 -1.68159572005e-06 -7.10946851483e-06)
(-0.000529144794788 -7.40737544399e-07 -4.48055056347e-06)
(-0.000537280031376 1.18502906216e-06 -4.85177972196e-06)
(-0.000497224388433 -2.90845144434e-06 -1.32750626277e-05)
(-0.000513002472609 -1.97589354112e-06 -1.00440920805e-05)
(-0.00052161753649 1.60301885235e-07 -1.22087716422e-05)
(-0.000455122496451 -3.64967097567e-06 -2.04216509625e-05)
(-0.000480214796637 -2.724697703e-06 -1.68506441728e-05)
(-0.00048881823953 -4.45839794995e-07 -2.21534269935e-05)
(-0.000391214433191 -3.67265349853e-06 -2.75746760594e-05)
(-0.000426528066816 -2.96950475002e-06 -2.43667588033e-05)
(-0.000434905534573 -6.23041585911e-07 -3.35738778864e-05)
(-0.000305998164957 -2.59819964404e-06 -3.40539331633e-05)
(-0.000351686891872 -2.33050762422e-06 -3.11940358555e-05)
(-0.000359979590191 -1.16511787479e-07 -4.45748581004e-05)
(-0.000201309493307 4.45760243327e-07 -3.76210036318e-05)
(-0.00025468480892 -3.88531116746e-07 -3.74627445314e-05)
(-0.000263836811299 1.29168435413e-06 -5.48283538779e-05)
(-8.90778856931e-05 5.79222508083e-06 -3.30145340333e-05)
(-0.000143871366257 3.91915215383e-06 -3.83568725739e-05)
(-0.000155005789588 5.19844710567e-06 -5.8345796209e-05)
(-4.30234824069e-05 9.50405329788e-06 -2.75013814728e-05)
(-5.19924314273e-05 1.08521147388e-05 -4.52018972077e-05)
(0.00150628610495 0.00179085490653 -0.000552558583334)
(0.000797632427743 0.00145223568553 -0.000495639641724)
(0.000926785023413 0.00149025053986 -0.000902953644953)
(0.00268980679982 0.00276063249428 -0.000408010294581)
(0.00261074535606 0.00219538724814 -0.000543491644761)
(0.00238370613527 0.00211665426176 -0.000784354917147)
(0.00257703412106 0.00382350855937 -9.56674778363e-06)
(0.00320347745004 0.00336076448276 -3.16701856333e-05)
(0.00275856780132 0.00308426257695 -0.000141174052075)
(0.00146881442752 0.00456778558253 0.00027443443279)
(0.00240397676101 0.00422294319685 0.000419806590066)
(0.00203713534272 0.00386205148894 0.000421721982685)
(-0.00013381977274 0.00486805083802 0.000378914743567)
(0.000820763694244 0.00475275985571 0.000628523061689)
(0.000663706061008 0.00432356830513 0.000684277460888)
(-0.0018171362345 0.00463277623198 0.000338124829881)
(-0.00106180619248 0.0047989031477 0.000657926878272)
(-0.000961471933397 0.00435728963786 0.000724526984733)
(-0.00317428034404 0.00390973210207 0.000155413841399)
(-0.00281467227738 0.00430775021404 0.000515955154358)
(-0.0024764618658 0.00391270138574 0.000554784553217)
(-0.00386587312595 0.00282582684967 -0.000108973251615)
(-0.00396094577043 0.00343250522739 0.000206377661785)
(-0.0034767277002 0.00310841457971 0.000181313276513)
(-0.00372561390416 0.00164704683326 -0.000321453924769)
(-0.00421327279092 0.00223149893249 -0.00014570784332)
(-0.00373281068172 0.00205950579135 -0.000240599282005)
(-0.00300867672093 0.000711115827837 -0.000375623786853)
(-0.00361115279505 0.00112585961353 -0.000366036591064)
(-0.00329564617191 0.00106802011522 -0.000505085771658)
(-0.0022110172354 0.000139427677307 -0.000301024102661)
(-0.00270080600235 0.000370111146198 -0.000358618024322)
(-0.0025564941946 0.000365419505551 -0.000498835746556)
(-0.00157790600412 -0.000131376609819 -0.000203892376558)