/*--------------------------------*- C++ -*----------------------------------*\
| =========                 |                                                 |
| \\      /  F ield         | OpenFOAM: The Open Source CFD Toolbox           |
|  \\    /   O peration     | Version:  3.0.1                                 |
|   \\  /    A nd           | Web:      www.OpenFOAM.org                      |
|    \\/     M anipulation  |                                                 |
\*---------------------------------------------------------------------------*/
FoamFile
{
    version     2.0;
    format      ascii;
    class       volScalarField;
    location    "2.4";
    object      epsilon;
}
// * * * * * * * * * * * * * * * * * * * * * * * * * * * * * * * * * * * * * //

dimensions      [0 2 -3 0 0 0 0];

internalField   nonuniform List<scalar> 
15984
(
0.00161020783418
0.0018186021036
0.00190260368169
0.00192140607909
0.00192080945351
0.00192172228268
0.00192671598127
0.00192994606407
0.00192628115533
0.0019157240786
0.00190445882618
0.00189548835221
0.00188792103146
0.00188247178273
0.00187881985267
0.00187651357659
0.00187512686959
0.00187439878166
0.00187397068951
0.00187373602829
0.0018736149595
0.00187355027919
0.00187351814306
0.00187350486948
0.00187350762696
0.00187350283452
0.00187349461226
0.00187347834495
0.00187344417875
0.00187339395695
0.00187333038198
0.00187325880647
0.00187319978335
0.00187310534341
0.00187286779819
0.00187186616176
0.00186716004412
0.00184692070747
0.00177447519035
0.00158705130062
0.00230970623491
0.00336064848742
0.00379674760881
0.00390128637218
0.00391179443749
0.003915017008
0.00394034280055
0.0039871144725
0.00401848776598
0.0040090108457
0.00397389492931
0.00393893615937
0.00391335306715
0.00389544925442
0.00388402253256
0.0038770426275
0.00387287469785
0.00387051670705
0.00386931058502
0.00386857723864
0.00386813868769
0.00386792560042
0.00386780643221
0.00386774249199
0.00386769925542
0.00386766597841
0.00386762861814
0.00386757031351
0.00386747577269
0.00386736024207
0.00386722136054
0.00386707667961
0.00386697232214
0.00386658297766
0.00386467807267
0.00385536937072
0.00381536986633
0.00366968301895
0.0032329311317
0.00222796224124
0.00261706089593
0.00449216797457
0.00527111949009
0.00546950069658
0.00549735327313
0.00550995679725
0.00556499907832
0.00566891524618
0.00574967507161
0.00575074673645
0.00569982966533
0.00564338950762
0.00560008840125
0.00557150674294
0.00555363710027
0.00554300245846
0.00553680141116
0.00553325538654
0.0055313398031
0.00553025836818
0.00552956321559
0.00552911779003
0.0055289064397
0.00552881079732
0.00552874053281
0.00552869722205
0.00552865393245
0.00552856696109
0.00552844766128
0.00552829312794
0.00552811951212
0.00552799001035
0.00552774591069
0.00552672985984
0.00552190594218
0.00550003431828
0.00541370503729
0.00512520471092
0.00431979423844
0.00250033495991
0.00275783699087
0.00517417410119
0.00617907033331
0.00642397542964
0.0064554106854
0.0064802866483
0.00658123306324
0.00677411696996
0.0069443747717
0.00698304533971
0.00692658841425
0.00685430089928
0.00679675349481
0.00675900915664
0.00673584729285
0.00672220071592
0.00671441631682
0.00671003060255
0.00670756854866
0.00670620484592
0.00670534968419
0.006704771973
0.00670437088924
0.0067042136262
0.00670412965961
0.0067040922883
0.00670406273512
0.00670397666911
0.00670387408131
0.0067037528168
0.0067036770567
0.00670350295383
0.00670306838122
0.00670125037306
0.00669292861933
0.00665728239043
0.00652487921796
0.00610846117359
0.00500742868995
0.00261920779418
0.00282571122535
0.00553784040483
0.00665035939376
0.00695530431179
0.00702663876747
0.00707113843527
0.00719374059406
0.00741805073733
0.00771379838429
0.0078189273134
0.00776846607896
0.00768365042596
0.00761408126025
0.00756776928787
0.00753999346146
0.00752377254047
0.00751464830824
0.00750960300851
0.00750679535268
0.00750518794741
0.00750421154622
0.00750355581248
0.00750307840686
0.00750278431307
0.00750266952355
0.0075026393785
0.00750262840839
0.00750256192415
0.00750251170895
0.00750249869567
0.00750242026531
0.00750219338064
0.00750156528241
0.00749890431463
0.00748703762128
0.007438291631
0.00726507348707
0.00674415982694
0.00542420390087
0.00267322056541
0.00285852251524
0.00569396054123
0.00687278291391
0.00726496001492
0.00734114175357
0.00739777408698
0.00756033219983
0.00783635067557
0.00817095629196
0.00836028945268
0.00832480238383
0.00823131367769
0.00815089949167
0.00809721857199
0.00806518785657
0.00804689578958
0.00803661694888
0.00803103621584
0.0080279753514
0.00802621179121
0.00802513323231
0.00802441469907
0.00802389446638
0.00802354945709
0.0080233702759
0.00802334365632
0.00802334711731
0.00802330245839
0.00802333329471
0.00802333806911
0.00802325688383
0.00802298952789
0.00802218235401
0.00801874506031
0.00800371387399
0.00794379529449
0.00773762103873
0.00713765531354
0.0056659865544
0.00269828092563
0.00287347591173
0.00573255596097
0.00698421869245
0.00738239496423
0.00744835105413
0.00751379583174
0.00771983481794
0.00806375049619
0.0084179808477
0.00869191714193
0.00867535549071
0.00857649092741
0.00848723679633
0.00842731388394
0.00839166401165
0.00837160604056
0.00836045029581
0.00835444138487
0.00835117036045
0.00834931387246
0.00834815517574
0.00834737959567
0.00834682379384
0.00834645044684
0.00834625661115
0.00834623088344
0.00834624064141
0.0083462082173
0.00834627317308
0.0083462909112
0.00834621158067
0.00834591326065
0.00834495909087
0.00834088196247
0.00832331516991
0.00825475944571
0.00802418805459
0.00736881532245
0.00579892347203
0.00270978375251
0.00288027863565
0.0057225489194
0.00701003170924
0.00739631346842
0.00744550737458
0.00751711670936
0.00776320958233
0.00816654529447
0.00855339775455
0.00888324671894
0.00888362014375
0.00878164097923
0.00868582525663
0.00862103410799
0.00858259595143
0.00856108565329
0.00854937523979
0.00854302501332
0.00853960819719
0.00853767084572
0.00853645543666
0.00853563241532
0.00853504769023
0.00853465537015
0.00853448282972
0.00853445626355
0.00853446550995
0.00853443588095
0.00853450518632
0.00853453533963
0.00853445794863
0.00853413808622
0.00853307515728
0.0085285280074
0.00850914015917
0.00843454961186
0.00818749777754
0.00749639095136
0.00586753214014
0.00271487342102
0.00288389902959
0.00570574457277
0.00700442169775
0.00737760634247
0.00740988594636
0.00748546464126
0.00776283628744
0.00820751320965
0.00863306643606
0.00898514407012
0.00899690572541
0.0088931397733
0.00879301210372
0.00872493315174
0.00868461155874
0.00866212514602
0.00865001943877
0.00864347463969
0.00863996371638
0.00863797441522
0.00863672380997
0.00863586584141
0.00863526007158
0.00863485862154
0.00863471375356
0.00863468560157
0.00863469134647
0.00863465901402
0.00863472095756
0.00863475937988
0.0086346841695
0.00863435117614
0.00863321700272
0.00862837269672
0.00860784365653
0.00852954246408
0.00827263468839
0.00756092866243
0.00590010000549
0.00271699039426
0.00288579480509
0.00569686088998
0.00699697259388
0.00736260808213
0.00738363538518
0.00746134071878
0.00775656358804
0.00822138298189
0.0086665409778
0.0090290303396
0.00904607990996
0.0089414086106
0.00883913542892
0.00876940346387
0.00872814728198
0.00870518729277
0.00869285772476
0.00868624037487
0.00868268716892
0.00868067420939
0.00867940388613
0.00867852731604
0.00867791035629
0.00867750850791
0.00867737898777
0.00867734903874
0.00867735264629
0.00867731752651
0.0086773712844
0.008677414519
0.00867733978979
0.00867700017277
0.00867583175176
0.00867084420233
0.00864977332547
0.00856973648466
0.00830829307666
0.00758734600989
0.00591278232334
0.00271773716616
0.00288586759754
0.00569735844395
0.0069974375685
0.00736319547568
0.00738444639953
0.00746211026614
0.00775712792388
0.00822176331449
0.00866673521022
0.00902917321059
0.00904604562862
0.00894133925535
0.00883907751672
0.00876936283955
0.00872811652325
0.00870516566266
0.00869284582269
0.00868623195879
0.00868267975512
0.00868066861093
0.00867939937678
0.00867852045291
0.00867790313345
0.00867750100465
0.00867737082797
0.00867734051747
0.00867734377641
0.00867730822714
0.00867736112859
0.00867740407517
0.00867732898565
0.0086769893612
0.00867582111395
0.00867083331898
0.00864976215999
0.00856972516009
0.00830828154594
0.00758733588615
0.00591277384771
0.00271773753284
0.00288408953932
0.00570714033282
0.00700575196785
0.00737925343235
0.0074119820878
0.00748750047629
0.00776436321442
0.00820856056542
0.00863361895
0.00898552875155
0.00899679471695
0.00889293555357
0.00879284161808
0.00872480981061
0.00868452019481
0.00866205513489
0.00864997549947
0.00864344574841
0.00863994121799
0.00863795686097
0.00863670762633
0.00863584392402
0.00863523565619
0.00863483373353
0.00863468856193
0.00863465903258
0.00863466357715
0.00863463013894
0.00863468899317
0.0086347272982
0.00863465130745
0.00863431800797
0.00863318405302
0.00862833943099
0.00860780948709
0.00852950776972
0.00827260000208
0.0075608962756
0.005900074326
0.00271699050806
0.00288051901363
0.00572461219913
0.00701206272748
0.00739883873495
0.00744849132429
0.00751998762324
0.0077654624723
0.00816807268818
0.00855432692873
0.00888372428877
0.00888338569602
0.00878128995839
0.00868553974913
0.00862083095423
0.00858244965637
0.0085609633838
0.00854929447249
0.00854296636061
0.00853956490457
0.00853763467068
0.00853641773476
0.00853559083516
0.00853500287687
0.00853460920169
0.00853443689589
0.00853440844165
0.00853441599363
0.00853438445236
0.00853444924059
0.00853447901952
0.00853440080194
0.00853408019726
0.0085330183946
0.00852847079957
0.00850908213904
0.0084344893245
0.00818743630856
0.00749633265271
0.00586748749567
0.00271487148245
0.00287367665124
0.00573488888648
0.00698665157951
0.00738545291338
0.00745182305864
0.0075170985863
0.00772246655633
0.0080655326462
0.00842026195574
0.0086922890494
0.00867494314287
0.00857598746922
0.00848684574975
0.00842703160481
0.00839145659373
0.00837143875414
0.00836033966849
0.00835435108711
0.00835109985605
0.00834925359746
0.0083480922572
0.00834731477712
0.00834675587808
0.00834638076602
0.00834618758845
0.00834615949288
0.00834616744238
0.00834613276879
0.00834619182192
0.00834620956143
0.00834613041983
0.00834583083201
0.0083448768317
0.00834079871799
0.00832323000169
0.00825467423331
0.00802409995798
0.00736873461264
0.00579885976762
0.00270977852332
0.00285859935286
0.00569610247446
0.00687538857374
0.00726810804737
0.0073446734876
0.00740110844679
0.00756300707332
0.0078381639785
0.00817287525576
0.00836032896716
0.00832417442988
0.00823066804366
0.00815041499223
0.00809686609671
0.00806491842733
0.00804671177352
0.00803647264724
0.00803091352888
0.00802787244487
0.00802612175044
0.0080250471256
0.00802432842429
0.00802380489148
0.00802345883912
0.00802328018267
0.00802325094
0.0080232527201
0.00802320610529
0.00802323031247
0.00802323569715
0.00802315477787
0.00802288775345
0.00802208168145
0.00801864256728
0.00800360938253
0.00794368729001
0.0077375111455
0.00713755477136
0.00566591224071
0.00269827090747
0.00282561127341
0.00553941479743
0.00665439616641
0.00695832737548
0.00703006171684
0.0070743359686
0.0071963266683
0.00742106477236
0.00771489722991
0.00781852587491
0.00776761784994
0.00768291011807
0.00761353018149
0.00756735927727
0.00753968447216
0.00752357681532
0.00751448282763
0.00750945852444
0.00750667378901
0.00750507999407
0.00750410885708
0.00750345500642
0.00750297537372
0.00750268249753
0.00750256626871
0.00750253426552
0.0075025221228
0.00750245518092
0.00750240224287
0.007502388064
0.0075023097428
0.00750208475244
0.00750145414716
0.00749879485809
0.00748692571559
0.00743817481111
0.00726495250425
0.0067440522672
0.00542412345645
0.00267320584567
0.00275755835218
0.00517494004984
0.00618178605379
0.00642823395016
0.00646036540346
0.00648479590221
0.00658490280917
0.00677607562419
0.00694457214456
0.00698225693292
0.00692563564667
0.00685351768389
0.00679617138551
0.00675857487613
0.00673558316218
0.00672200224641
0.00671425368414
0.0067098892797
0.00670744429349
0.00670609460945
0.00670524583392
0.00670467124875
0.00670427000093
0.00670411363118
0.00670402716409
0.00670398882657
0.00670395876442
0.00670387352958
0.00670377236926
0.00670365106594
0.00670357639367
0.00670340301839
0.00670296771826
0.00670114945703
0.00669282326568
0.00665717411297
0.00652476591833
0.00610836021615
0.00500735241552
0.00261919035728
0.00261665461318
0.00449223632004
0.00527239595353
0.0054719981719
0.00550034763591
0.00551266588805
0.0055670011974
0.00566965892335
0.00574923833113
0.00574981142516
0.0056989171158
0.00564265932533
0.00559955217447
0.0055711627064
0.00555340263336
0.00554283356329
0.00553666429031
0.00553313686557
0.00553124329884
0.00553016907877
0.00552947967674
0.00552903666644
0.00552882663478
0.00552873071015
0.00552865898143
0.00552861508644
0.00552857218405
0.00552848548916
0.00552836771587
0.00552821562329
0.00552804500264
0.00552791786425
0.00552767368123
0.00552665670283
0.00552183076917
0.00549995507445
0.00541362062249
0.00512512872802
0.0043197407292
0.00250032204112
0.00230931686894
0.0033603459092
0.00379708767265
0.00390232070865
0.00391312532682
0.00391618725658
0.00394107771883
0.00398713136902
0.00401790777659
0.00400824376751
0.003973209246
0.00393839838121
0.00391297984928
0.00389521370674
0.00388386958125
0.00387693080339
0.00387278567657
0.00387045286423
0.00386925807801
0.00386852942875
0.00386809936267
0.00386788568317
0.00386776624492
0.00386770160175
0.00386765776878
0.00386762439742
0.00386758690546
0.00386753015189
0.00386743624168
0.00386732226681
0.00386718524874
0.00386704215891
0.00386693832117
0.00386654917053
0.00386464332703
0.00385533291294
0.00381532842559
0.00366964284841
0.0032329079602
0.00222795722872
0.0016100702769
0.00181838713377
0.0019024795187
0.00192144506355
0.00192094774844
0.00192180507864
0.00192666667249
0.00192973923535
0.00192597927128
0.0019154199929
0.00190421862091
0.00189530946126
0.00188780403945
0.00188240050916
0.00187877623698
0.00187648499379
0.00187511845753
0.00187439772989
0.00187397654004
0.00187374901493
0.00187362839701
0.00187356192554
0.00187352953931
0.00187351579373
0.00187351791419
0.00187351295383
0.00187350541113
0.00187348962196
0.00187345609597
0.00187340664203
0.00187334363948
0.00187327065247
0.00187320887258
0.00187311559569
0.00187287835076
0.00187187695803
0.00186716911909
0.00184692849564
0.00177448182134
0.00158706256333
0.00224996909542
0.00325917767483
0.00369255376091
0.00381094388914
0.00382895265127
0.00383615023491
0.00386129676862
0.0039017479729
0.00393272053851
0.00393740610694
0.00392434278862
0.00390767551507
0.00389451548032
0.00388609095965
0.00387973306519
0.00387533134653
0.00387246508149
0.00387070572368
0.00386966213742
0.0038690123913
0.00386861728531
0.00386835320629
0.0038681803279
0.00386808592918
0.00386802825175
0.00386800308269
0.00386802091249
0.00386802006286
0.00386798835286
0.00386794314083
0.00386786013319
0.00386773666532
0.0038675529896
0.00386707866412
0.00386509151778
0.00385569883122
0.00381562144783
0.0036699006283
0.00323320532299
0.00222836433991
0.00284712233788
0.00365123926418
0.0040566312718
0.00417874122335
0.00420224514999
0.0042104648636
0.00423270102163
0.00427094453036
0.00430383439436
0.00431348462446
0.00430561765573
0.00429326181907
0.00428257913424
0.00427518591315
0.00427022617602
0.0042670519089
0.00426508554065
0.00426389774698
0.00426321824602
0.0042627998846
0.00426253317726
0.00426236946022
0.0042622641748
0.00426219401416
0.00426213667892
0.00426209103737
0.0042620501936
0.00426200232229
0.00426194399406
0.00426188140314
0.00426181141414
0.00426173894883
0.0042616273453
0.00426119453768
0.00425904046724
0.00424873674603
0.0042059292838
0.00405673904705
0.00363720222519
0.00283259884005
0.00351021734206
0.00428904229238
0.00476738879747
0.00491882604386
0.0049499634514
0.0049637922445
0.00499924120481
0.00505977057611
0.00511486998665
0.00513638011266
0.00513076310775
0.00511681993986
0.00510395978768
0.00509467418916
0.0050886674556
0.00508495486439
0.00508271797945
0.00508138847632
0.00508061436451
0.00508014947108
0.00507984890972
0.00507965186606
0.00507953232318
0.00507945764359
0.00507939712955
0.00507934402792
0.00507928944447
0.00507922454337
0.00507914980119
0.00507906790507
0.00507898311386
0.00507889852962
0.00507872019057
0.00507798538342
0.00507443950699
0.00505858324996
0.00499732911016
0.00479904537975
0.00428293188065
0.00346816814123
0.00384184075369
0.00473105643215
0.00528678987556
0.0054701304827
0.00551107091134
0.00553180949094
0.0055816046379
0.00566577099789
0.005746704421
0.00578164820057
0.00577710313266
0.00576000417324
0.00574398859993
0.00573247118896
0.0057251855064
0.00572078200296
0.00571819111524
0.00571667746163
0.00571578648366
0.00571525944223
0.00571492211225
0.00571469697406
0.00571454447951
0.00571445737562
0.00571439457995
0.00571433938968
0.00571427980877
0.00571420621442
0.00571412289226
0.00571403338069
0.00571394984052
0.00571383578284
0.00571356618628
0.00571244178342
0.00570722233177
0.00568505848929
0.00560394186976
0.00535499963905
0.00473726897822
0.00378060246532
0.00401109133454
0.00499450378555
0.00561080611374
0.00583412078473
0.00589334943594
0.00592239230543
0.0059805555573
0.00607393237755
0.00618166753103
0.00623378468509
0.00623131733737
0.00621081438498
0.00619132240496
0.00617749990909
0.00616891558676
0.00616382500953
0.00616088446964
0.00615919779888
0.00615821559071
0.00615762781276
0.00615725952126
0.00615701495353
0.00615684491657
0.00615673295957
0.00615666431719
0.00615660817581
0.00615654713804
0.00615647008263
0.00615638659125
0.00615630538619
0.00615620903954
0.00615606532464
0.00615569951116
0.00615416608998
0.00614726000205
0.00611903516775
0.00601974971734
0.00572663409529
0.00502338869447
0.00394058099119
0.00409453352069
0.00513120806652
0.00579616013317
0.00605864046362
0.0061290241742
0.00616482902988
0.00623480161959
0.00634106796144
0.00645805653077
0.00652992827524
0.00653130370687
0.0065080307962
0.00648521162803
0.00646920045246
0.00645937181565
0.0064536605842
0.00645039997737
0.00644855959218
0.00644750189207
0.00644686893864
0.00644647371512
0.00644621308763
0.00644603257154
0.00644590817913
0.00644582814607
0.00644577075008
0.00644570898891
0.00644563103248
0.00644555543266
0.00644547089956
0.00644536445295
0.00644519600341
0.00644474120961
0.0064428312242
0.00643441851466
0.00640098496248
0.00628673930555
0.00595891223775
0.00519204982991
0.00402351889674
0.00413159367411
0.00518946894726
0.00589284156147
0.00617521234717
0.00624977945548
0.00629094822287
0.00637492361083
0.00649822032793
0.00662061477935
0.00671214507465
0.0067185598751
0.00669346172523
0.00666785550731
0.00664992337551
0.00663900536989
0.00663275323408
0.00662922901245
0.00662725901674
0.00662613765112
0.00662547231231
0.006625054615
0.00662477954825
0.00662459024101
0.00662445913169
0.00662437470929
0.0066243159546
0.00662425315144
0.00662417422786
0.00662410128519
0.00662401429058
0.00662390158815
0.00662371426445
0.00662318622042
0.00662096593497
0.0066113421068
0.00657385189369
0.00644837402901
0.00609560090273
0.00528566588232
0.00406573150999
0.00414564525487
0.005206928088
0.00593213924889
0.00622242427839
0.00629600704526
0.00634105102241
0.00643914013954
0.00658001356075
0.0067117538912
0.00681713173596
0.00682838290736
0.00680227418754
0.00677459091075
0.00675514211105
0.00674336642116
0.00673667742002
0.00673296055887
0.00673088920582
0.0067297196619
0.00672902854298
0.00672859386313
0.00672830633209
0.0067281095092
0.0067279739394
0.00672789193155
0.00672783204399
0.00672776736743
0.00672768698342
0.00672761292543
0.00672752535901
0.00672740905005
0.0067272086762
0.00672662663086
0.00672417780907
0.00671367925471
0.00667333244378
0.00654018334935
0.00617103091234
0.00533440209624
0.00408632550383
0.00415010000877
0.0052085430466
0.00594291920814
0.00623461836552
0.0063047034867
0.00635218635961
0.00646205618759
0.00661722721919
0.0067597259939
0.00687251435425
0.00688728810691
0.00686068797325
0.00683165430886
0.00681117302778
0.00679881352015
0.0067918248614
0.00678797618981
0.00678583992806
0.00678463842911
0.0067839300376
0.00678348393568
0.00678318719778
0.00678298480124
0.00678284667895
0.00678276888595
0.00678270795233
0.00678264179519
0.00678255958679
0.00678248318411
0.00678239583464
0.00678227777123
0.00678206945116
0.00678145259094
0.0067788579124
0.00676780792267
0.00672569409827
0.00658791502765
0.00620919505144
0.00535774227829
0.00409569454694
0.00415130363502
0.00520711191295
0.00594408878122
0.00623522985773
0.00630238212639
0.00635105324302
0.00646778764321
0.00663078877932
0.00677957026657
0.00689599641559
0.00691254950715
0.00688574120034
0.00685604407391
0.00683504362784
0.00682239162889
0.006815253624
0.00681133629936
0.00680917052757
0.00680795375254
0.00680723694974
0.0068067848124
0.00680648304267
0.0068062775143
0.0068061387184
0.00680606339788
0.00680600183367
0.00680593465232
0.00680585154276
0.0068057731937
0.0068056861588
0.00680556738094
0.00680535528818
0.00680472167694
0.00680205680023
0.00679074403016
0.00674779883461
0.00660787609964
0.00622482564381
0.00536690092415
0.00409923846806
0.00415138983522
0.00520729631413
0.00594423916831
0.00623536814636
0.00630253809253
0.00635119489727
0.00646788818549
0.00663084951391
0.00677960516244
0.00689602602011
0.0069125369011
0.00688571987511
0.00685602630607
0.00683503065084
0.00682238161004
0.00681524581796
0.00681133073018
0.00680916619161
0.0068079500145
0.00680723363517
0.00680678158426
0.00680647935332
0.00680627358542
0.0068061346597
0.00680605923669
0.00680599755441
0.00680593029452
0.00680584715277
0.00680576868881
0.00680568169654
0.00680556292673
0.00680535087709
0.00680471731511
0.00680205240109
0.0067907395416
0.00674779425678
0.00660787144435
0.00622482120072
0.00536689685861
0.00409923549745
0.00415033451736
0.00520906171749
0.00594334312085
0.00623499896302
0.00630509913834
0.00635254881432
0.00646232967729
0.00661740087653
0.00675983661215
0.00687259516745
0.00688724860243
0.0068606244445
0.00683160139379
0.00681113381575
0.00679878323816
0.00679180052653
0.00678795827764
0.00678582591574
0.00678462658433
0.00678391937721
0.00678347326232
0.00678317536916
0.00678297218757
0.00678283372345
0.00678275574529
0.00678269446673
0.00678262807064
0.00678254581346
0.00678246897772
0.00678238183948
0.00678226385254
0.00678205561865
0.00678143887993
0.00677884414735
0.00676779387911
0.00672567973649
0.00658790050035
0.00620918105015
0.00535772984996
0.00409568519501
0.00414596690402
0.00520769787326
0.005932780855
0.00622298559998
0.00629655144561
0.00634155009259
0.00643952987649
0.0065802801274
0.00671197239168
0.00681723212038
0.0068283048231
0.00680216556213
0.0067745018511
0.00675507589355
0.00674331541177
0.00673663514929
0.00673292836315
0.00673086281003
0.00672969726976
0.00672900789759
0.00672857287223
0.00672828414639
0.00672808624942
0.00672795006315
0.00672786795564
0.00672780754964
0.00672774254495
0.00672766197939
0.00672758735229
0.00672750015412
0.00672738400486
0.00672718376346
0.006726601992
0.00672415304736
0.00671365406575
0.00667330664634
0.00654015720339
0.00617100592782
0.0053343803874
0.00408630878967
0.00413191546023
0.00519036074522
0.00589363652724
0.00617589884177
0.00625043178028
0.00629154351687
0.00637539947003
0.00649857433393
0.00662110977803
0.00671222475037
0.0067184297514
0.00669330619079
0.00666773097292
0.0066498296101
0.0066389320283
0.00663269337251
0.00662918184374
0.00662721812257
0.00662610182993
0.00662543884966
0.00662502080475
0.0066247447493
0.00662455426916
0.00662442240414
0.00662433791306
0.00662427851739
0.00662421536394
0.00662413631743
0.00662406263777
0.00662397615684
0.00662386382252
0.00662367667986
0.00662314881845
0.00662092825912
0.00661130372803
0.0065738129695
0.00644833464499
0.00609556396321
0.00528563428393
0.00406570606613
0.00409477001641
0.00513207857614
0.00579709559558
0.0060594441132
0.006129798812
0.00616554385621
0.00623538673762
0.0063415210794
0.00645853092213
0.00652993334182
0.00653111331883
0.00650783146325
0.00648505438352
0.00646908002739
0.00645927645911
0.00645358625075
0.00645033728599
0.0064485033183
0.00644745097919
0.00644682095787
0.0064464261575
0.00644616489563
0.00644598316505
0.00644585813641
0.00644577788259
0.00644571984191
0.00644565785484
0.0064455798534
0.00644550343957
0.00644541957494
0.00644531362025
0.00644514559307
0.00644469100501
0.00644278055874
0.00643436690834
0.00640093221425
0.00628668620905
0.0059588629125
0.00519200892618
0.00402348390087
0.00401118863353
0.00499523671099
0.00561208293902
0.00583510301671
0.00589434219449
0.0059233133337
0.0059813327635
0.00607464055421
0.00618200887615
0.00623368879339
0.00623107005411
0.0062105815179
0.00619113931128
0.00617735739199
0.0061688040333
0.00616373898915
0.00616080915572
0.00615912888899
0.00615815226608
0.00615756761208
0.00615719999909
0.00615695517374
0.00615678411201
0.00615667180112
0.00615660255815
0.00615654587458
0.00615648463878
0.00615640779564
0.00615632437934
0.00615624342248
0.00615614758523
0.00615600448155
0.00615563824776
0.00615410468095
0.00614719729729
0.00611897085591
0.00601968466857
0.00572657403997
0.0050233392982
0.00394053728651
0.00384179685723
0.00473156134278
0.00528787566678
0.00547149167102
0.00551254874106
0.00553316526953
0.00558274680846
0.00566645666077
0.00574686531416
0.00578145709538
0.005776819775
0.00575975188196
0.00574379017009
0.00573231743064
0.00572507189479
0.00572068975671
0.00571810997038
0.00571660265232
0.00571571675387
0.00571519245821
0.00571485602698
0.00571463071561
0.00571447751758
0.00571438989038
0.00571432633016
0.00571427073054
0.00571421100528
0.00571413775053
0.00571405512076
0.00571396611473
0.00571388311126
0.00571376936482
0.00571349945108
0.00571237447898
0.00570715330206
0.00568498764824
0.005603869759
0.00535493258927
0.00473721431245
0.00378055370235
0.00351008702628
0.00428931521279
0.00476813336873
0.004919904762
0.00495117951455
0.00496491204528
0.00500012561154
0.00506020869996
0.00511485437377
0.00513612197937
0.00513046654615
0.00511656448172
0.00510376153056
0.00509452857384
0.00508855707548
0.00508486513997
0.00508263907939
0.00508131540484
0.00508054665227
0.00508008355324
0.00507978375856
0.00507958649858
0.00507946643411
0.00507939117119
0.00507932991572
0.00507927639082
0.00507922177989
0.00507915693957
0.0050790828537
0.00507900174632
0.00507891775758
0.00507883341227
0.00507865477401
0.00507791923264
0.00507437173898
0.00505851313606
0.00499725678041
0.00479897697454
0.00428287686734
0.00346812096534
0.00284700171407
0.00365133478812
0.00405704932158
0.00417944445925
0.00420306924211
0.00421121369055
0.00423323542109
0.00427111293498
0.00430366859638
0.00431317757025
0.00430531478053
0.00429301072128
0.0042823926392
0.00427505264887
0.00427012608272
0.00426697099003
0.00426501476699
0.00426383390074
0.00426315816694
0.00426274109558
0.00426247465314
0.00426231057655
0.00426220460907
0.00426213402158
0.00426207624703
0.00426202990572
0.00426198896311
0.00426194112438
0.0042618831143
0.00426182110153
0.00426175147522
0.00426167934227
0.00426156736051
0.00426113409103
0.00425897846955
0.00424867223688
0.00420586120795
0.00405667228937
0.00363714855428
0.00283255920799
0.0022498296107
0.00325913731162
0.0036928090727
0.0038115837291
0.00382979067129
0.00383688502837
0.00386172346021
0.00390172027577
0.0039323320935
0.00393690106762
0.00392388818891
0.00390731863339
0.00389426869167
0.00388592201846
0.00387961303862
0.00387524328041
0.00387238458369
0.00387064349205
0.00386960281443
0.00386895437794
0.00386855728197
0.00386828984844
0.00386811451058
0.00386801769666
0.00386795790546
0.00386793087163
0.0038679470246
0.00386794541346
0.00386791420278
0.00386787094477
0.00386778740302
0.00386766488969
0.00386747957445
0.00386700466824
0.00386501538682
0.0038556177315
0.00381553229421
0.00366980735725
0.00323312823647
0.00222833468375
0.00251862525612
0.00429934761214
0.0050767263026
0.00531103687001
0.00535926540022
0.00537821180434
0.00542404032188
0.00549974266058
0.00556688932766
0.00559387060638
0.00558914457537
0.00557384553916
0.00555890300459
0.00554900309328
0.00554235700593
0.00553754945197
0.00553436695098
0.0055323586426
0.00553113515973
0.00553036551383
0.00552986850541
0.00552953521654
0.00552932060437
0.00552919807867
0.00552914691001
0.00552913793558
0.0055291979486
0.0055292509309
0.00552925995891
0.00552925684453
0.00552919920483
0.0055290688584
0.00552875683301
0.00552767364243
0.00552275866257
0.00550079505204
0.00541435958745
0.00512586790149
0.00432058376041
0.00250118736558
0.0034592087846
0.00427340176242
0.00477764321
0.00495220048481
0.0049950025933
0.00500973118992
0.00503528218154
0.00507522369154
0.00510952551779
0.00512151091302
0.00511630269902
0.00510601450401
0.00509681046906
0.00509050593603
0.00508635496876
0.00508365070279
0.00508195805991
0.00508092747294
0.00508031640588
0.00507994439397
0.00507970805024
0.00507954837337
0.00507944123593
0.00507936708552
0.00507931433542
0.00507927895008
0.00507925754606
0.0050792382775
0.00507921350451
0.00507918552174
0.00507914744801
0.00507909043862
0.00507892597721
0.00507819796709
0.00507465164795
0.00505878985997
0.00499752640817
0.00479924547469
0.00428317009978
0.00346866127159
0.00438682983989
0.00482887209437
0.00529653273667
0.00547051208556
0.00551571761745
0.0055348123202
0.00556932972476
0.00562357016521
0.00567351869351
0.00569656829368
0.00569637126221
0.00568768317322
0.00567880858742
0.00567222616978
0.00566789702092
0.00566518437807
0.00566353743049
0.005662556034
0.00566197823473
0.00566162956689
0.00566140684706
0.00566125441808
0.00566114748178
0.00566107240625
0.00566101512394
0.00566097159432
0.0056609366656
0.0056609042938
0.00566087107359
0.00566083566272
0.00566079621945
0.00566072939613
0.00566051156471
0.00565950432709
0.00565480264868
0.00563512599535
0.00556433079836
0.00535161260829
0.00484832687707
0.00437457356879
0.0048867284268
0.00525484934243
0.0057345647474
0.00592229939283
0.00597417705958