/*--------------------------------*- C++ -*----------------------------------*\
| =========                 |                                                 |
| \\      /  F ield         | OpenFOAM: The Open Source CFD Toolbox           |
|  \\    /   O peration     | Version:  3.0.1                                 |
|   \\  /    A nd           | Web:      www.OpenFOAM.org                      |
|    \\/     M anipulation  |                                                 |
\*---------------------------------------------------------------------------*/
FoamFile
{
    version     2.0;
    format      ascii;
    class       volScalarField;
    location    "2.4";
    object      epsilon_0;
}
// * * * * * * * * * * * * * * * * * * * * * * * * * * * * * * * * * * * * * //

dimensions      [0 2 -3 0 0 0 0];

internalField   nonuniform List<scalar> 
15984
(
0.00164352599697
0.00185426381799
0.00193885506144
0.00195770818472
0.00195709704672
0.00195799918075
0.0019629738171
0.00196616546122
0.00196245347094
0.00195185577816
0.00194053458344
0.00193155818567
0.00192399709446
0.0019185586497
0.0019149187944
0.00191262376737
0.0019112463694
0.00191051658843
0.0019100859236
0.00190984966322
0.00190972784716
0.00190966283098
0.00190963069188
0.00190961752291
0.00190962022454
0.00190961497857
0.0019096058202
0.00190958815383
0.00190955246973
0.00190950068474
0.00190943587468
0.00190936369775
0.00190930209443
0.00190920545727
0.00190896870893
0.00190797652048
0.0019032927794
0.00188301740701
0.00181001111654
0.00162031093242
0.00235432167114
0.00341945809179
0.00386023773472
0.00396566851406
0.00397626329763
0.00397939771374
0.00400449425238
0.00405095563209
0.0040819865715
0.00407222647854
0.00403701567637
0.00400201288083
0.00397644709966
0.00395856761533
0.00394716849359
0.00394021539014
0.0039360689686
0.0039337162724
0.00393249079206
0.00393174338599
0.00393129652099
0.00393108183447
0.00393096251791
0.00393089876341
0.0039308552513
0.00393082052309
0.00393078031474
0.00393071778636
0.00393061824776
0.00393049752442
0.00393035424467
0.00393020702116
0.00393009493251
0.00392970249511
0.00392781830328
0.00391858599505
0.00387866126776
0.00373230545029
0.00329114910583
0.00227225969926
0.00266581744564
0.00456736311535
0.00535558324767
0.00555599312429
0.00558408935197
0.00559653370523
0.00565119393239
0.00575461974444
0.0058347875458
0.00583528828465
0.00578408926805
0.00572763613606
0.00568436256587
0.00565583431361
0.0056380141462
0.00562742256361
0.00562125396793
0.00561772556506
0.00561578911668
0.0056146830683
0.00561397027621
0.005613513948
0.00561330145807
0.00561320660619
0.00561313617756
0.00561309117539
0.00561304409599
0.00561295088471
0.00561282401025
0.00561266149835
0.00561248152628
0.00561233871462
0.00561208080132
0.00561106745406
0.00560629762331
0.00558457463243
0.00549828202036
0.00520812942659
0.00439399904983
0.00254866311305
0.00280800210245
0.00525868246195
0.0062763057683
0.00652408827669
0.00655584902044
0.00658050790635
0.00668104517893
0.00687349331719
0.00704311399233
0.00708094360281
0.00702398926204
0.00695160387143
0.00689412838761
0.00685647416371
0.0068333894571
0.0068198043614
0.00681206385949
0.00680770136506
0.00680523964136
0.00680384093181
0.00680296193644
0.00680236769499
0.00680195536503
0.00680179726737
0.0068017134519
0.00680167500274
0.0068016421314
0.00680154935019
0.00680143925386
0.00680131160656
0.00680121536376
0.0068010182492
0.00680056787686
0.00679876171319
0.00679053225655
0.00675510296578
0.00662267017298
0.00620368775465
0.00509058222001
0.00266889680823
0.00287631134456
0.0056270504712
0.00675437125342
0.00706271507724
0.00713451029091
0.0071787430724
0.00730083484993
0.00752481506697
0.00782013780154
0.00792423613676
0.00787304013753
0.00778804671294
0.00771856711858
0.00767238121149
0.00764471515884
0.00762857624716
0.00761950752425
0.00761449040284
0.00761168557471
0.00761005666135
0.00760905158967
0.00760837631388
0.00760788436997
0.0076075813157
0.00760746515144
0.00760743449842
0.00760742108531
0.00760734854657
0.0076072929635
0.00760726046824
0.00760715666062
0.00760690376608
0.00760626037078
0.00760362353122
0.00759189017816
0.00754343262216
0.00737014945245
0.00684601462164
0.00551179066394
0.0027233251156
0.00290923274369
0.00578518044888
0.00697978352402
0.00737607826318
0.00745266129547
0.00750895166751
0.00767098834444
0.007946464868
0.00828085783363
0.00846906554255
0.00843261364192
0.00833886366396
0.00825854305357
0.00820503671591
0.00817314966397
0.00815496129496
0.00814474897881
0.00813920084097
0.00813614330371
0.00813436238567
0.00813325565558
0.00813251425376
0.00813197756347
0.00813162488387
0.00813144077851
0.00813141390722
0.00813141553627
0.00813136575479
0.00813138488087
0.00813136732259
0.00813125867351
0.00813096394591
0.00813014353317
0.00812674417849
0.00811188845782
0.00805233545131
0.00784611707565
0.00724256634263
0.00575542302922
0.00274847971819
0.00292420558668
0.00582443569252
0.00709251114744
0.00749479193468
0.00756102305812
0.00762605096893
0.00783158217341
0.0081750757042
0.00852906741541
0.00880185051339
0.00878411780774
0.00868491228362
0.00859576519174
0.00853605301828
0.00850057890517
0.00848064457237
0.00846956535574
0.00846359275592
0.00846032529132
0.00845845063362
0.00845726433527
0.00845646338287
0.00845589059645
0.00845550970991
0.00845531137317
0.00845528544556
0.008455293485
0.0084552562194
0.00845530661944
0.00845530066742
0.0084551926789
0.00845486656921
0.0084539020298
0.00844987632585
0.00843252467869
0.00836441310087
0.00813386763634
0.00747478719242
0.00588890735442
0.002759978481
0.00293101353018
0.00581457193176
0.00711866465458
0.00750891837978
0.00755825416946
0.00762937924928
0.00787496941703
0.00827794881171
0.00866406146135
0.00899322782208
0.00899225761566
0.00888986786129
0.00879416984103
0.00872962011592
0.00869138479359
0.00867001413979
0.00865838869601
0.00865207748122
0.00864866442384
0.00864670822415
0.00864546432763
0.00864461562444
0.00864401382579
0.00864361287567
0.00864343602886
0.00864340923262
0.00864341636663
0.00864338164099
0.00864343669052
0.00864344235535
0.00864333561255
0.00864298807905
0.00864191765123
0.00863743342022
0.00861829434574
0.00854421922446
0.00829728527205
0.00760249402081
0.00595752767483
0.00276504440688
0.00293464172927
0.00579779183221
0.00711309937458
0.00749014058055
0.00752247007412
0.00759751572156
0.00787436823839
0.00831868956705
0.00874340859121
0.00909483894862
0.00910512094301
0.00900089145793
0.00890088824585
0.00883307288125
0.00879297317249
0.00877063780586
0.00875862270931
0.0087521188008
0.00874861173069
0.0087466031119
0.00874532266638
0.00874443873388
0.00874381578448
0.008743403728
0.00874325656604
0.00874322804479
0.00874323129328
0.00874319328922
0.00874324246741
0.00874325598594
0.00874315110131
0.00874279071645
0.00874165115585
0.00873687819804
0.00871662221546
0.00863889001573
0.00838218284031
0.00766686617659
0.00598997027012
0.00276714233325
0.00293654337999
0.00578891944168
0.00710564669654
0.00747507850171
0.00749611831805
0.00757326589296
0.00786794356715
0.00833239203957
0.00877667257233
0.00913850133842
0.00915399644492
0.00904883361245
0.00894668826755
0.00887723127332
0.00883620681999
0.00881340367357
0.00880116740734
0.00879459191718
0.00879104261205
0.00878901009909
0.00878770898991
0.00878680616641
0.00878617189536
0.00878575852739
0.00878562809967
0.00878559769421
0.00878559852492
0.00878555741461
0.00878559950015
0.00878561759758
0.00878551310618
0.00878514624651
0.00878397363987
0.00877906172566
0.00875827654517
0.00867883761495
0.00841764269924
0.00769313957448
0.00600256198596
0.00276787967096
0.00293661546751
0.00578941401431
0.00710610813174
0.00747566280717
0.00749692570761
0.00757403180757
0.00786850595104
0.00833277001707
0.0087768648414
0.00913864202093
0.00915396226565
0.00904876505794
0.00894663109319
0.00887719107619
0.00883617636936
0.00881338223798
0.00880115563018
0.00879458358052
0.0087910352532
0.00878900454316
0.00878770454336
0.00878679930967
0.00878616469193
0.00878575102783
0.00878561994881
0.00878558918034
0.00878558964901
0.00878554807737
0.00878558944447
0.00878560725926
0.00878550243023
0.00878513559349
0.00878396318238
0.00877905102586
0.00875826556469
0.0086788264704
0.00841763132544
0.00769312959959
0.00600255361114
0.00276788007433
0.0029348302528
0.00579917888357
0.00711441970837
0.0074917789538
0.00752455644672
0.00759954257343
0.00787588883679
0.00831972995542
0.00874395574855
0.00909521736299
0.00910501020861
0.00900068950704
0.00890071984112
0.0088329511259
0.00879288268677
0.0087705683207
0.00875857907826
0.00875209010685
0.00874858937781
0.00874658565469
0.00874530659354
0.008744416797
0.00874379133303
0.00874337873146
0.00874323137694
0.0087432014578
0.00874320344707
0.0087431642722
0.00874321073822
0.00874322417246
0.00874311859907
0.00874275797425
0.00874161869287
0.00873684542775
0.00871658852703
0.00863885580516
0.00838214863268
0.0076668341685
0.00598994486659
0.00276714252785
0.00293125100151
0.00581662077778
0.00712067980174
0.00751142924313
0.00756122251112
0.00763223589085
0.00787721123258
0.00827946527444
0.00866498769699
0.00899369654146
0.00899202400637
0.00888952047293
0.00879388754068
0.00872941906014
0.00869123976006
0.00866989256971
0.00865830829363
0.00865201901113
0.00864862127427
0.0086466721368
0.0086454265089
0.00864457409658
0.00864396907622
0.00864356657934
0.00864338995379
0.00864336124018
0.00864336660876
0.00864332981372
0.00864338099638
0.00864338638455
0.00864327891784
0.00864293076988
0.00864186159496
0.00863737697097
0.00861823711217
0.00854415958383
0.00829722439003
0.00760243611761
0.00595748339401
0.0027650425592
0.00292440308824
0.00582674928208
0.00709492332175
0.00749783027745
0.00756447416346
0.00762933448268
0.00783419778226
0.00817684243554
0.00853132776168
0.008802213214
0.00878370729288
0.00868441354835
0.00859537815675
0.0085357733354
0.00850037296133
0.00848047801316
0.00846945504449
0.00846350250072
0.00846025480799
0.0084583902889
0.0084572010668
0.00845639841932
0.00845582253058
0.00845543988889
0.008455241926
0.0084552136011
0.00845521974229
0.00845518007403
0.00845522539304
0.00845521953791
0.00845511186769
0.00845478465724
0.00845382041635
0.00844979375394
0.00843244016621
0.00836432860353
0.00813378007082
0.00747470689752
0.00588884393367
0.00275997332089
0.00290930663802
0.00578730078096
0.00698236393442
0.0073792021378
0.00745616784633
0.00751226320713
0.00767364307636
0.00794826214982
0.00828275643847
0.00846909781402
0.00843198883034
0.00833822345341
0.00825806294445
0.00820468693475
0.00817288150831
0.0081547778497
0.0081446046981
0.00813907790391
0.00813604007585
0.00813427192616
0.00813316870873
0.00813242717453
0.00813188745577
0.00813153347048
0.00813134991579
0.00813132039444
0.0081313202957
0.00813126842443
0.00813128163731
0.0081312648892
0.00813115667573
0.00813086244777
0.00813004332554
0.00812664214447
0.00811178444409
0.0080522277802
0.0078460074468
0.00724246590711
0.00575534891128
0.00274846969194
0.00287620937617
0.0056286047733
0.00675837656987
0.00706570937824
0.00713790454976
0.00718191549321
0.00730339900405
0.00752781469878
0.00782122056953
0.00792383081692
0.0078721962479
0.00778731211545
0.00771802025776
0.00767197348539
0.00764440703295
0.00762838068206
0.00761934166941
0.0076143452827
0.00761156329348
0.00760994684073
0.00760894729255
0.00760827411188
0.00760777995266
0.00760747833262
0.00760736084182
0.00760732834175
0.00760731375069
0.00760724074245
0.00760718281358
0.00760714939903
0.00760704587409
0.00760679511322
0.00760614916328
0.00760351415151
0.00759177836198
0.00754331573245
0.0073700282431
0.00684590682821
0.0055117101006
0.00272331024058
0.00280772252352
0.00525943238379
0.0062789936533
0.00652831506231
0.00656077667401
0.00658499410322
0.00668469381686
0.00687543588731
0.00704330065496
0.00708015479025
0.00702304163551
0.00695082600138
0.00689354982777
0.0068560415933
0.00683312599648
0.00681960558032
0.00681190049023
0.00680755908068
0.00680511338091
0.00680372866029
0.00680285637945
0.00680226550256
0.00680185311914
0.0068016960527
0.00680160976138
0.00680157039754
0.00680153704577
0.00680144516324
0.00680133657837
0.00680120888792
0.00680111412952
0.00680091790325
0.00680046683885
0.00679866041158
0.00679042639336
0.00675499415834
0.00662255619965
0.00620358606147
0.00509050536714
0.00266887902107
0.00266541110044
0.0045674216098
0.00535683837784
0.00555846599743
0.0055870596467
0.00559922362851
0.00565317989171
0.005755351808
0.00583434562483
0.0058343549871
0.0057831816933
0.00572691001172
0.00568382894811
0.00565549167081
0.00563777999805
0.00562725318883
0.00562111597721
0.00561760600052
0.00561569067226
0.00561459207244
0.00561388529979
0.00561343159034
0.00561322055098
0.00561312545046
0.0056130536156
0.00561300808717
0.00561296146336
0.0056128685387
0.00561274326751
0.00561258334509
0.00561240654568
0.00561226606958
0.00561200804666
0.00561099369021
0.00560622179311
0.00558449462838
0.00549819674918
0.00520805240835
0.00439394463317
0.00254864965116
0.00235393277562
0.0034191510723
0.00386056614438
0.00396668771215
0.00397757866173
0.00398055581783
0.00400521989036
0.00405096653869
0.00408140493198
0.00407146152119
0.00403633297385
0.00400147772911
0.00397607562782
0.00395833298634
0.00394701574824
0.00394010324436
0.00393597935106
0.00393365082257
0.00393243699976
0.00393169442631
0.00393125653336
0.00393104126945
0.00393092170276
0.00393085724838
0.00393081318238
0.00393077842182
0.00393073806174
0.00393067718267
0.00393057828365
0.00393045919034
0.0039303178677
0.00393017231597
0.00393006076884
0.00392966847561
0.00392778330285
0.00391854920656
0.00387861941184
0.00373226472193
0.00329112522932
0.00227225445986
0.00164338866015
0.00185404826251
0.00193872824552
0.0019577431933
0.00195723089735
0.00195807869331
0.00196292211015
0.00196595738407
0.00196215146099
0.00195155225106
0.00194029556063
0.00193138038729
0.00192388089405
0.00191848785503
0.00191487544726
0.00191259532476
0.00191123788644
0.00191051512216
0.00191009155698
0.00190986267184
0.00190974131403
0.00190967448488
0.00190964209787
0.0019096284534
0.00190963051174
0.0019096251007
0.00190961661312
0.00190959943571
0.00190956439576
0.00190951340268
0.00190944919699
0.00190937556213
0.00190931175862
0.00190921630546
0.0019089798729
0.00190798795171
0.00190330249381
0.00188302574959
0.00181001827229
0.00162032266512
0.00229430173326
0.00331761461147
0.00375558666911
0.00387477669059
0.00389279670148
0.00389990899798
0.00392490844181
0.00396517304694
0.00399595518209
0.00400049456265
0.00398737760663
0.00397072130836
0.00395756102731
0.00394917405614
0.00394285421341
0.00393848303568
0.00393563669691
0.00393388897174
0.00393284410034
0.00393218890106
0.00393178824654
0.00393151968002
0.00393134432603
0.00393124923478
0.00393119155124
0.00393116591825
0.00393118230217
0.0039311782469
0.00393114165189
0.00393109029256
0.00393100058296
0.00393087059994
0.0039306830389
0.00393021047637
0.00392824916956
0.00391893734251
0.00387893888064
0.00373254988126
0.00329144756273
0.00227268330555
0.00290105969205
0.00371541294881
0.00412501677204
0.00424793507921
0.00427146040312
0.00427959006936
0.00430167312094
0.00433973326581
0.00437244753675
0.0043819721469
0.00437407311403
0.00436174250637
0.00435109475255
0.00434373341819
0.00433880043948
0.00433564611152
0.00433369353057
0.0043325142406
0.00433183395495
0.00433141416636
0.00433114604388
0.00433098200063
0.00433087674098
0.00433080648401
0.00433074875318
0.00433070218353
0.00433065973789
0.00433060978386
0.00433054900261
0.00433048371083
0.00433041112789
0.00433033632598
0.00433022250398
0.00432979466949
0.00432767024693
0.00431745058503
0.00427471162963
0.00412483895735
0.00370124577377
0.00288653241443
0.00357451513876
0.00436265236315
0.00484620801425
0.00499881989415
0.00503003838155
0.00504374886518
0.00507899075708
0.00513926981527
0.0051941074058
0.00521539846597
0.00520969487036
0.00519577008086
0.00518296393668
0.00517371713508
0.00516774323467
0.00516405326961
0.00516183064791
0.00516050890255
0.00515973406554
0.00515926636576
0.00515896416984
0.00515876655476
0.00515864762139
0.00515857333959
0.00515851254672
0.00515845829687
0.00515840175387
0.00515833449438
0.00515825719211
0.00515817287767
0.00515808616214
0.0051579986521
0.00515782005317
0.00515709661191
0.00515359790361
0.00513785573786
0.00507665277952
0.00487738484949
0.00435629615183
0.00353233206602
0.0039103417814
0.00481055150779
0.00537257214053
0.00555744494839
0.00559851589229
0.00561909930434
0.00566862989601
0.00575247818933
0.00583306355929
0.00586766829158
0.00586295589636
0.005845851184
0.00582989196418
0.00581843235445
0.00581118742868
0.00580681041597
0.00580423513466
0.00580272926182
0.00580184007904
0.00580130888482
0.00580096970405
0.00580074412778
0.00580059175796
0.00580050530984
0.00580044237667
0.00580038593522
0.00580032416231
0.00580024791519
0.00580016186467
0.00580006997648
0.00579998234754
0.00579986514086
0.00579959706665
0.00579849120398
0.00579333923087
0.00577132385256
0.00569024416111
0.00544001870328
0.00481633392304
0.0038488761416
0.00408123678638
0.00507707871419
0.00570046641813
0.00592556400141
0.00598495214745
0.00601379667625
0.00607162558957
0.00616462728022
0.0062719941182
0.00632367047752
0.00632094923102
0.00630041270577
0.00628098137614
0.00626723008683
0.00625869582117
0.00625363656501
0.00625071359653
0.00624903516836
0.00624805542874
0.00624746517332
0.00624709476957
0.00624684998402
0.00624668024728
0.00624656833137
0.0062464995025
0.00624644204249
0.0062463786961
0.00624629881581
0.00624621239629
0.00624612661373
0.00624602548787
0.00624587869337
0.00624551628451
0.00624400899414
0.00623719176798
0.0062091528433
0.0061099064933
0.00581528832547
0.0051053529167
0.00401043620666
0.00416525796898
0.00521514841813
0.00588763757883
0.00615209273712
0.00622260513852
0.00625815854262
0.00632774901774
0.00643357468671
0.00655018893236
0.00662155507639
0.00662259799809
0.00659926461141
0.00657651100912
0.00656058372455
0.00655081515679
0.00654514071538
0.00654190001406
0.00654006861278
0.00653901353938
0.00653837965258
0.00653798231152
0.00653772159275
0.00653754153954
0.00653741736356
0.00653733667109
0.00653727790198
0.0065372137518
0.00653713288886
0.00653705310492
0.00653696322126
0.00653685167692
0.00653668035163
0.00653623091053
0.00653435462874
0.00652605199531
0.00649284403414
0.00637866189263
0.00604921649595
0.00527523317156
0.0040939049273
0.00420247784158
0.00527389066838
0.00598503157602
0.00626939419574
0.00634402043269
0.00638488193676
0.00646844358714
0.00659128618988
0.00671328705287
0.00680428895754
0.00681030674215
0.00678512448193
0.00675958963899
0.00674175304376
0.00673090482487
0.00672469490233
0.00672119302425
0.00671923287493
0.0067181143735
0.00671744859976
0.00671702908892
0.00671675383924
0.0067165650861
0.00671643437562
0.00671634927701
0.00671628909845
0.00671622383538
0.00671614181515
0.00671606409996
0.00671597143116
0.00671585346967
0.00671566355716
0.00671514274225
0.00671296310501
0.00670346889604
0.00666624351677
0.00654087125244
0.00618645228273
0.00536921057292
0.00413623004557
0.00421655182635
0.00529146407118
0.00602451131633
0.00631673873178
0.00639030008733
0.00643498576286
0.00653263780729
0.00667304401737
0.00680429868835
0.0069092233725
0.00692002961809
0.00689381739552
0.00686621072388
0.00684686759771
0.00683517009209
0.00682852798952
0.00682483569012
0.00682277499367
0.00682160858787
0.00682091721111
0.0068204807697
0.00682019312911
0.00681999697884
0.00681986174464
0.00681977919525
0.00681971784817
0.00681965060985
0.00681956716122
0.00681948817037
0.00681939475774
0.00681927311472
0.00681907045749
0.00681849724567
0.00681609479995
0.00680574214497
0.00676569484906
0.00663269942855
0.00626192647901
0.00541795317105
0.00415679697541
0.00422100117859
0.0052930866116
0.00603529681616
0.00632888389182
0.00639888589905
0.00644597238234
0.00655538246777
0.00671006703269
0.00685204889515
0.00696439993245
0.00697869310315
0.00695197520435
0.006923021919
0.00690265378017
0.00689037859409
0.00688344027932
0.0068796178006
0.00687749282625
0.00687629469451
0.0068755861078
0.00687513816445
0.00687484135167
0.00687463966088
0.00687450181987
0.0068744237298
0.00687436129031
0.00687429251442
0.00687420717021
0.00687412604921
0.00687403277072
0.00687390935337
0.00687369899811
0.00687309211897
0.00687054788163
0.00685965542197
0.00681786692795
0.00668028236574
0.0062999824285
0.00544120811562
0.00416611626245
0.00422220037855
0.00529164923057
0.00603644733451
0.00632944436792
0.00639648529513
0.00644473977387
0.00656099591112
0.00672349593544
0.00687174575731
0.00698773583262
0.00700378911628
0.00697685562261
0.00694724089656
0.00692635760429
0.00691379305458
0.00690670718968
0.00690281690101
0.00690066275996
0.00689944948209
0.00689873246946
0.00689827841768
0.00689797658887
0.00689777182305
0.00689763326938
0.00689755781815
0.00689749472685
0.00689742487705
0.0068973386024
0.00689725572275
0.00689716271809
0.00689703859199
0.00689682459826
0.00689620157251
0.00689358923111
0.00688244003138
0.00683983390739
0.00670012883229
0.00631552591205
0.0054503049528
0.00416962965674
0.0042222855725
0.00529183193198
0.00603659593451
0.00632958090815
0.00639663956618
0.00644487998553
0.00656109554591
0.00672355617171
0.00687178043136
0.00698776500478
0.00700377663701
0.00697683461232
0.00694722340137
0.00692634480422
0.00691378316675
0.00690669948138
0.0069028114069
0.00690065848485
0.00689944579644
0.0068987291983
0.0068982752395
0.00689797294065
0.00689776794219
0.00689762926081
0.00689755370775
0.00689749049901
0.00689742056776
0.00689733425602
0.00689725128837
0.00689715832885
0.00689703421785
0.00689682027596
0.00689619730608
0.00689358493083
0.00688243564214
0.00683982942464
0.0067001242586
0.00631552152957
0.00545030091416
0.00416962665298
0.00422123287604
0.00529360046239
0.00603571578494
0.00632925963728
0.00639927710017
0.00644633101645
0.00655565329933
0.00671023913519
0.00685215886987
0.00696447948806
0.00697865396059
0.00695191257776
0.00692296978662
0.00690261511369
0.00689034869124
0.00688341622483
0.00687960010228
0.00687747898782
0.00687628300242
0.00687557557542
0.006875127625
0.00687482963256
0.00687462716567
0.00687448898228
0.00687441073449
0.00687434794923
0.00687427892443
0.00687419352231
0.00687411204191
0.00687401898524
0.006873895667
0.00687368542098
0.00687307868241
0.00687053440425
0.00685964166646
0.0068178528396
0.00668026807649
0.00629996859996
0.00544119576698
0.00416610679753
0.00421686933124
0.00529222632617
0.00602514552798
0.00631729295854
0.00639083788534
0.00643547915122
0.00653302342159
0.00667330800621
0.00680451616952
0.00690932198733
0.00691995223337
0.0068937102277
0.0068661229032
0.006846802247
0.00683511967452
0.00682848615125
0.00682480382327
0.00682274886322
0.00682158643441
0.00682089677327
0.00682045994093
0.00682017112761
0.00681997391664
0.0068198380595
0.00681975543379
0.00681969356671
0.00681962599076
0.00681954234937
0.00681946290299
0.00681936988202
0.0068192484277
0.00681904594197
0.0068184730376
0.00681607048937
0.0068057174089
0.00676566947731
0.00663267365008
0.00626190176047
0.00541793157385
0.00415678004157
0.00420279487201
0.00527477293993
0.00598581725827
0.00627007223078
0.00634466449492
0.00638547009992
0.00646891426263
0.00659163636744
0.0067137775991
0.0068043666854
0.00681017776435
0.00678497088738
0.00675946671129
0.00674166040379
0.00673083223786
0.00672463558613
0.00672114626936
0.00671919230977
0.00671807885125
0.00671741538852
0.00671699545747
0.00671671925471
0.00671652935497
0.00671639790039
0.00671631273732
0.00671625191438
0.00671618628975
0.00671610419217
0.00671602583197
0.00671593370278
0.00671581614535
0.00671562646363
0.00671510587156
0.00671292598302
0.00670343107142
0.00666620512212
0.00654083231851
0.00618641566397
0.00536917908651
0.00413620421662
0.00416548993521
0.00521600852151
0.00588856192025
0.00615288651071
0.00622337006136
0.00625886487421
0.00632832764631
0.00643402337909
0.00655065786994
0.00662155864288
0.00662240928457
0.00659906759357
0.00657635562177
0.00656046456256
0.00655072063401
0.00654506698502
0.00654183777192
0.00654001269717
0.00653896294383
0.00653833185995
0.00653793492272
0.00653767359538
0.00653749237546
0.00653736756085
0.00653728668194
0.00653722726865
0.0065371628912
0.00653708196909
0.00653700150972
0.0065369123364
0.00653680132757
0.00653663047604
0.0065361812885
0.00653430456355
0.00652600098917
0.00649279184679
0.00637860926901
0.00604916749082
0.00527519234051
0.00409386930896
0.00408133058335
0.00507780172609
0.0057017299708
0.00592653454059
0.00598593395238
0.00601470809625
0.00607239489548
0.00616533110448
0.00627233067537
0.0063235740289
0.00632070414726
0.00630018239891
0.00628080025537
0.00626708887162
0.00625858512147
0.00625355114756
0.00625063873271
0.00624896661991
0.00624799241259
0.00624740508235
0.00624703542475
0.00624679039252
0.00624661967026
0.00624650743504
0.00624643803505
0.00624638004197
0.0062463164971
0.00624623683182
0.00624615055778
0.00624606508561
0.00624596451405
0.00624581838798
0.00624545557721
0.0062439481706
0.00623712964096
0.00620908906661
0.0061098418773
0.00581522853675
0.00510530350398
0.00401039158647
0.00391029579521
0.00481104827715
0.00537364534973
0.00555879300455
0.00559998300794
0.00562044496723
0.00566976329427
0.00575315791194
0.00583322103249
0.00586747777332
0.00586267516648
0.00584560153533
0.00582969548562
0.00581827988216
0.00581107468718
0.0058067187504
0.00580415443261
0.00580265481234
0.00580177044027
0.00580124204329
0.00580090379609
0.00580067809559
0.00580052505682
0.00580043811362
0.00580037444073
0.00580031760806
0.00580025569599
0.0058001797986
0.00580009445787
0.00580000308933
0.00579991607891
0.00579979922124
0.00579953085304
0.00579842442777
0.0057932707132
0.00577125348218
0.00569017241484
0.00543995183544
0.00481627913822
0.00384882619072
0.00357438417689
0.00436291956992
0.00484694209875
0.00499988666356
0.00503124294834
0.00504485907179
0.00507986735285
0.00513970291729
0.00519409012027
0.00521514187485
0.00520940110698
0.00519551713097
0.00518276746611
0.0051735727507
0.00516763368113
0.0051639640952
0.0051617521748
0.0051604361722
0.00515966649892
0.00515920061773
0.00515889922075
0.00515870143362
0.00515858200945
0.0051585071618
0.00515844565072
0.00515839099897
0.00515833444179
0.00515826724006
0.00515819060993
0.00515810711194
0.0051580212334
0.00515793397199
0.00515775508567
0.00515703090633
0.00515353056275
0.00513778600321
0.0050765807209
0.00487731652741
0.00435624091963
0.00353228363434
0.00290093967436
0.00371550455653
0.00412542613169
0.00424862736374
0.00427227314558
0.00428032959285
0.00430220043705
0.00433989760747
0.00437228097941
0.00438166674278
0.00437377257303
0.0043614933406
0.00435090962109
0.00434360103693
0.00433870087601
0.00433556548582
0.00433362298822
0.00433245031858
0.00433177382198
0.00433135532185
0.00433108749075
0.00433092313134
0.0043308172008
0.0043307465309
0.00433068836892
0.00433064112432
0.00433059858344
0.00433054866226
0.00433048820063
0.00433042350219
0.00433035129859
0.00433027685109
0.00433016265206
0.00432973435056
0.00432760835818
0.00431738614286
0.00427464351913
0.00412477201291
0.00370119171711
0.00288649173342
0.0022941626644
0.00331756985121
0.00375583172926
0.00387540300178
0.00389362024795
0.00390063185288
0.00392532583752
0.0039651396906
0.00399556505585
0.00399999064058
0.00398692498867
0.00397036602407
0.0039573153471
0.0039490055399
0.00394273419684
0.00393839472852
0.00393555602314
0.00393382609229
0.00393278413848
0.0039321302211
0.00393172761881
0.00393145567187
0.00393127787989
0.00393118039388
0.00393112061123
0.00393109313414
0.00393110786227
0.00393110298447
0.00393106682955
0.0039310174136
0.00393092716113
0.00393079824121
0.00393060893577
0.0039301357981
0.0039281723509
0.00391885551506
0.00387884888243
0.00373245557315
0.00329136955079
0.00227265310109
0.00256697800646
0.00437371172009
0.00516009681587
0.00539629435755
0.00544463999466
0.005463435414
0.00550902715682
0.00558444841755
0.00565131918403
0.00567808780661
0.00567328956057
0.00565802172963
0.00564314106444
0.00563326764551
0.00562668344081
0.00562192414538
0.00561877325665
0.00561678096019
0.00561555919563
0.0056147834336
0.00561427823272
0.00561393840598
0.00561372049993
0.00561359744537
0.00561354722642
0.00561353869489
0.00561359798721
0.00561364767556
0.0056136506935
0.00561363996931
0.00561357390246
0.00561343544515
0.00561312076983
0.00561205101147
0.00560720028816
0.00558539408048
0.00549900199867
0.00520885948328
0.00439484900514
0.00254956304529
0.0035232850308
0.00434681666528
0.00485620947351
0.00503191532933
0.00507477360033
0.00508938224884
0.00511474345516
0.00515445850547
0.00518855900038
0.00520042218987
0.00519519726627
0.0051849543263
0.0051758048146
0.00516953730926
0.00516542023694
0.00516274076216
0.00516106528804
0.00516004580571
0.00515943914631
0.00515906824787
0.00515883107988
0.00515866987268
0.0051585616866
0.00515848687209
0.00515843375526
0.00515839797234
0.00515837571496
0.00515835502099
0.00515832808788
0.00515829716457
0.00515825565278
0.00515819496792
0.00515802943419
0.00515731157603
0.00515381113397
0.00513806215624
0.00507684894289
0.00487758347812
0.00435653540921
0.00353284849939
0.0044652992116
0.00491042618947
0.00538279957369
0.00555798757817
0.00560327290575
0.00562223475493
0.00565654715859
0.0057105362517
0.00576023326256
0.00578309359076
0.00578283335786
0.00577417460036
0.00576535612065
0.00575882136897
0.00575452841706
0.00575184109329
0.00575021099776
0.00574923987984
0.00574866610215
0.00574831812231
0.00574809456807
0.00574794076586
0.00574783268619
0.00574775691969
0.00574769914112
0.005747655098
0.00574761936979
0.00574758583998
0.00574755096002
0.00574751339954
0.00574747135062
0.0057474020904
0.00574718555557
0.00574619417442
0.00574155040009
0.00572200032167
0.00565124122821
0.00543750268377
0.00492971942872
0.00445302225999
0.00497165586374
0.00534197495592
0.00582662766464
0.00601572847817