/*--------------------------------*- C++ -*----------------------------------*\
| =========                 |                                                 |
| \\      /  F ield         | OpenFOAM: The Open Source CFD Toolbox           |
|  \\    /   O peration     | Version:  3.0.1                                 |
|   \\  /    A nd           | Web:      www.OpenFOAM.org                      |
|    \\/     M anipulation  |                                                 |
\*---------------------------------------------------------------------------*/
FoamFile
{
    version     2.0;
    format      ascii;
    class       surfaceVectorField;
    location    "2.4";
    object      Uf_0;
}
// * * * * * * * * * * * * * * * * * * * * * * * * * * * * * * * * * * * * * //

dimensions      [0 1 -1 0 0 0 0];

internalField   nonuniform List<vector> 
45932
(
(0.00207811952443 0.000262576223783 -0.000797517264237)
(0.000977614043537 0.000707953862903 -0.00107733177277)
(0.00121710249585 0.000510236899072 -0.00174701724984)
(0.00388753498925 0.000462814808497 -0.000735404164663)
(0.00326652361134 0.000868654048397 -0.00130106924422)
(0.00340277965125 0.00074479006009 -0.00177336445037)
(0.00402298233595 0.000941926501108 -0.000699860893589)
(0.00461417401898 0.00179455534354 -0.00141862602045)
(0.00463698883518 0.00141911589281 -0.00186227913025)
(0.00223738009963 0.00135371766807 -0.000688403715526)
(0.00362329517339 0.00281032742257 -0.00147307718568)
(0.0036158661892 0.00211826439169 -0.00191752407188)
(-0.000540943957513 0.00151369288385 -0.000671899955912)
(0.0010249092155 0.00336229576362 -0.00151709007951)
(0.00101702222041 0.00249757685531 -0.00197312977592)
(-0.0035204351299 0.00138934684264 -0.000618546217255)
(-0.00210212992503 0.00339199225741 -0.00146965988744)
(-0.00210528844529 0.00251149818943 -0.00190224232723)
(-0.00583734561661 0.00100171338176 -0.000542453201093)
(-0.00506568938619 0.00287586165946 -0.00133774918665)
(-0.00506186529929 0.00214649361065 -0.00171740389002)
(-0.00668244637382 0.000488174572746 -0.000452650536249)
(-0.00678579971741 0.00189095399404 -0.00115357606938)
(-0.00678188674312 0.00146676621493 -0.00146840502385)
(-0.00604886637793 7.4095352327e-05 -0.00035433225982)
(-0.00672785956824 0.000841255847036 -0.000911278805504)
(-0.0067586739294 0.000729053479805 -0.00115805195364)
(-0.00472308566154 -0.000125415138625 -0.000256125307863)
(-0.00547670557646 0.000174704787009 -0.000649243896637)
(-0.00553481493568 0.000237797216364 -0.000837605088413)
(-0.00339072205412 -0.0001680796918 -0.000171381017092)
(-0.00402355094056 -0.000113645762202 -0.000418615226683)
(-0.00408742310554 1.23636566055e-05 -0.000552548250397)
(-0.00231980730651 -0.000146947819301 -0.000108505512958)
(-0.00277889106164 -0.000189745513103 -0.000257428548319)
(-0.00283111568778 -6.47478491274e-05 -0.000345725208428)
(-0.00155775583155 -0.000111498896175 -6.42974203712e-05)
(-0.00186119398987 -0.000175777545451 -0.000152034976406)
(-0.00189803915295 -7.67025886306e-05 -0.000205262465958)
(-0.00105342620153 -7.83330243018e-05 -3.54228176884e-05)
(-0.0012447175041 -0.000135489684419 -8.50816406768e-05)
(-0.00126829592562 -6.52081161622e-05 -0.000116690682157)
(-0.000738752543071 -5.3538908773e-05 -1.62857320444e-05)
(-0.000852729726883 -9.6227471497e-05 -4.4731248035e-05)
(-0.000866326197752 -4.96417526666e-05 -6.11264277411e-05)
(-0.000556094547324 -3.68204322791e-05 -3.02283124663e-06)
(-0.000618095812755 -6.62415025557e-05 -1.96728089398e-05)
(-0.00062535891697 -3.61880530765e-05 -2.51058041848e-05)
(-0.000461947169046 -2.61910760189e-05 5.68521134722e-06)
(-0.000489275122599 -4.58743481596e-05 -3.63020227332e-06)
(-0.000493128718047 -2.66746103715e-05 -1.21814687359e-06)
(-0.000423162408537 -1.94368688307e-05 1.05343599682e-05)
(-0.000428939809328 -3.31380851479e-05 5.73784572908e-06)
(-0.000431308908261 -2.01825016213e-05 1.37272958708e-05)
(-0.000414646801847 -1.51830682843e-05 1.25074581126e-05)
(-0.000409062041574 -2.51421255606e-05 1.03428622671e-05)
(-0.000410839590386 -1.60566864656e-05 2.08670694948e-05)
(-0.000419642196154 -1.25652258245e-05 1.25432275612e-05)
(-0.00040949689576 -2.03448383244e-05 1.17956726416e-05)
(-0.000411084928055 -1.34799530675e-05 2.28268941686e-05)
(-0.000428323057007 -1.08375990465e-05 1.16673297927e-05)
(-0.000417744372921 -1.73640093122e-05 1.15115436393e-05)
(-0.000419215777466 -1.18946678036e-05 2.1690494174e-05)
(-0.000436945452424 -9.59646998373e-06 1.07051697579e-05)
(-0.000427413577921 -1.52775843772e-05 1.06822953037e-05)
(-0.000428654383936 -1.07286943517e-05 1.95762787655e-05)
(-0.000445283357439 -8.64090000839e-06 1.00037243218e-05)
(-0.000436355994097 -1.37840530081e-05 1.01284177764e-05)
(-0.000437302610855 -9.83793156513e-06 1.79414686098e-05)
(-0.000454095294803 -8.09172261416e-06 9.72092116238e-06)
(-0.000445444522599 -1.25789245706e-05 9.71805485795e-06)
(-0.000445993327531 -9.16807386241e-06 1.6973792469e-05)
(-0.000464146295354 -7.7170524498e-06 9.67831869639e-06)
(-0.000455266048646 -1.20743353373e-05 1.00391950857e-05)
(-0.000455572797923 -8.89151719238e-06 1.70887480318e-05)
(-0.000475574144696 -7.30043264494e-06 9.55958455944e-06)
(-0.000466316608338 -1.14233555001e-05 1.00646919629e-05)
(-0.000466599248166 -8.47005219111e-06 1.71259799716e-05)
(-0.000487553456326 -7.11047678762e-06 9.23076268936e-06)
(-0.000478175717978 -1.1062093102e-05 9.9076844917e-06)
(-0.00047846841704 -8.47737725968e-06 1.70401907805e-05)
(-0.000497567119001 -7.0759983927e-06 8.25856450262e-06)
(-0.000489126929051 -1.11790877383e-05 9.47750745364e-06)
(-0.000489678557582 -8.53556729836e-06 1.61741533104e-05)
(-0.000502955443035 -6.99349661313e-06 6.64047217425e-06)
(-0.000496894417853 -1.11531701994e-05 8.26774893396e-06)
(-0.000497793512383 -8.49711039561e-06 1.38354208319e-05)
(-0.0005017052854 -6.8628725295e-06 4.49391772253e-06)
(-0.000498996515871 -1.11674735813e-05 6.44092262991e-06)
(-0.000500200323693 -8.53498873764e-06 1.05303561604e-05)
(-0.000491572682618 -6.71389578922e-06 1.88190939641e-06)
(-0.000493446852518 -1.11327198225e-05 4.04765125952e-06)
(-0.000494904244401 -8.52210998361e-06 6.05418123842e-06)
(-0.000471325310956 -6.47892379642e-06 -8.82819178507e-07)
(-0.00047840356767 -1.10216911026e-05 1.35580142324e-06)
(-0.000479988128138 -8.44596460443e-06 8.85361641761e-07)
(-0.000440200226459 -6.21269311904e-06 -3.67724125875e-06)
(-0.00045287002639 -1.07174004361e-05 -1.4602555042e-06)
(-0.000454481119746 -8.36714759565e-06 -4.85853672473e-06)
(-0.000398441032831 -5.97799496773e-06 -6.465598405e-06)
(-0.000416862210569 -1.04265873192e-05 -4.22784582516e-06)
(-0.000418413076683 -8.18133449633e-06 -1.04675245938e-05)
(-0.000346385508921 -5.78859846195e-06 -9.03980802962e-06)
(-0.000370231720152 -1.01373414672e-05 -7.03908469405e-06)
(-0.000371623310464 -8.03027043327e-06 -1.59062374883e-05)
(-0.000285166708499 -5.61432331481e-06 -1.14173335832e-05)
(-0.000314474563431 -9.93966528488e-06 -9.40807199793e-06)
(-0.000315644928667 -7.84315281319e-06 -2.06867317102e-05)
(-0.000215405675238 -5.44757256487e-06 -1.30886550071e-05)
(-0.000248905446661 -9.59042188401e-06 -1.18748324584e-05)
(-0.000249847413355 -7.6048579616e-06 -2.53081336812e-05)
(-0.000141030960928 -5.69356973425e-06 -1.34166096988e-05)
(-0.000176663945386 -9.44773939374e-06 -1.27614929171e-05)
(-0.000177309208609 -7.50925779281e-06 -2.77592810709e-05)
(-6.60875131604e-05 -7.4952070801e-06 -1.06015300549e-05)
(-0.000104043746721 -1.00012230212e-05 -1.23136114808e-05)
(-0.000104121535628 -8.03060174284e-06 -2.74935265381e-05)
(-2.95961335218e-05 -1.35761635921e-05 -8.6562054258e-06)
(-2.69175899193e-05 -1.07869582932e-05 -1.94923586766e-05)
(0.00208044727738 0.00142270138492 -0.00158088375275)
(0.000969198116742 0.00194599537644 -0.0013639700217)
(0.00117346901071 0.00151847793048 -0.0022782695332)
(0.00418472622075 0.00237513414142 -0.00198429110001)
(0.00370214806333 0.00275014412512 -0.00201813605069)
(0.00360908351544 0.00226760994868 -0.0029336322423)
(0.00439252438595 0.00392279609818 -0.00219184231254)
(0.00528752933246 0.00493690232842 -0.0022270322165)
(0.00492082759412 0.00398881941033 -0.00324624565408)
(0.00247057163352 0.00513894218093 -0.00230176354966)
(0.0041498439253 0.00712903810979 -0.00226403413234)
(0.00384395233845 0.00570289593899 -0.0033577308195)
(-0.000513135747752 0.00558105221462 -0.00231485001104)
(0.00122399763619 0.00828367477755 -0.00230872086949)
(0.00111319954377 0.00660740239524 -0.00342951929924)
(-0.00369508786663 0.00519735073787 -0.00218886285683)
(-0.00224521747048 0.00831904701888 -0.00224683403528)
(-0.0021570635278 0.00662948420472 -0.00333607181038)
(-0.00617423352755 0.00402355418237 -0.00194887205494)
(-0.00553437427714 0.00719748181788 -0.00208222997473)
(-0.0052419533843 0.00574365406915 -0.00308204242694)
(-0.00702415684945 0.00241638214659 -0.00161220433864)
(-0.00744556571371 0.00504202071185 -0.00187440614244)
(-0.0070410125038 0.00405774106954 -0.00272610491171)
(-0.00625551908504 0.00102837874644 -0.00120619044232)
(-0.00726998219719 0.00267424461403 -0.00155573993933)
(-0.00694899178049 0.00220480568422 -0.00221731329672)
(-0.00478102384732 0.000224028741236 -0.000811733815457)
(-0.00576830466301 0.0010431899955 -0.00113215433688)
(-0.00561619837725 0.000903067038669 -0.00160574324667)
(-0.00337093017555 -0.000109305125303 -0.00050466275791)
(-0.0041138816458 0.000225381689628 -0.000726787834969)
(-0.00407866924863 0.000237603704428 -0.00104408755257)
(-0.00227691635472 -0.000198199361672 -0.000300958011767)
(-0.00277373155958 -9.9809726933e-05 -0.000437544942195)
(-0.00279029042404 -3.92210009734e-05 -0.000636957390795)
(-0.00151443616231 -0.000187283702387 -0.000172819196712)
(-0.00182463738241 -0.000183394595882 -0.000254623697431)
(-0.00185491639806 -0.000120662698124 -0.000373638815034)
(-0.00101787534096 -0.000146939096774 -9.43900710234e-05)
(-0.00120455333153 -0.000174293561249 -0.000142582783048)
(-0.00123232483698 -0.000122307608039 -0.000209493662325)
(-0.000711895559165 -0.000106432338316 -4.81183249304e-05)
(-0.000818988609685 -0.000137190059718 -7.60614323763e-05)
(-0.000839585217851 -9.90598450101e-05 -0.000112045954228)
(-0.0005361518809 -7.54326496752e-05 -2.02801799665e-05)
(-0.000592755535951 -0.000100751294948 -3.72089966442e-05)
(-0.000606341603908 -7.39461696999e-05 -5.33818665903e-05)
(-0.000446484021854 -5.43902499451e-05 -3.57756789146e-06)
(-0.000470907606022 -7.32488710301e-05 -1.40098019925e-05)
(-0.000479584851195 -5.44508487379e-05 -1.74796374623e-05)
(-0.000410323714312 -4.08175201099e-05 5.54634802797e-06)
(-0.000415361556241 -5.48715600748e-05 -6.8106766979e-07)
(-0.000421176345546 -4.09541725106e-05 3.63353411589e-06)
(-0.000403579981775 -3.22506838962e-05 9.63107679617e-06)
(-0.000398503929994 -4.3057772074e-05 5.94923469245e-06)
(-0.000402769660653 -3.22097461475e-05 1.4525162706e-05)
(-0.000409504391164 -2.6907343372e-05 1.07639887197e-05)
(-0.000400780677096 -3.55420906178e-05 8.39834232883e-06)
(-0.000404112774187 -2.67651856967e-05 1.81424778524e-05)
(-0.000418729967403 -2.33800214374e-05 1.05265091503e-05)
(-0.000410007810017 -3.07759195776e-05 8.62600970017e-06)
(-0.000412672216327 -2.33359130384e-05 1.80094965719e-05)
(-0.000427744167257 -2.08968373291e-05 1.01055433222e-05)
(-0.000420228454421 -2.73830554708e-05 8.17275393152e-06)
(-0.000422215072219 -2.08863717184e-05 1.65989444738e-05)
(-0.000436209684743 -1.90701887526e-05 9.8427483125e-06)
(-0.000429587638365 -2.50670824995e-05 7.9963498429e-06)
(-0.000430957775189 -1.91437029961e-05 1.55032740108e-05)
(-0.000444887012364 -1.78820742064e-05 1.00363287812e-05)
(-0.000439105670644 -2.33092328501e-05 7.82145246833e-06)
(-0.000439878094735 -1.77994097838e-05 1.50570102237e-05)
(-0.000455722246638 -1.70869808181e-05 1.04255683521e-05)
(-0.000449301468381 -2.23092009293e-05 8.51120025906e-06)
(-0.000449690940818 -1.71152732474e-05 1.56406021586e-05)
(-0.000467605654066 -1.64745453195e-05 1.04127918951e-05)
(-0.000460682481072 -2.15168425328e-05 8.75660366777e-06)
(-0.000460989254146 -1.65069441763e-05 1.60231205641e-05)
(-0.000479501181294 -1.64154073334e-05 1.0154429256e-05)
(-0.000473037327959 -2.12073968382e-05 8.56443655629e-06)
(-0.000473252724935 -1.64269113113e-05 1.6080726101e-05)
(-0.000489450967404 -1.64920011691e-05 9.48669188498e-06)
(-0.000484320313195 -2.16797036347e-05 8.36434870259e-06)
(-0.000484700411464 -1.67727567575e-05 1.54629206533e-05)
(-0.000495786377295 -1.64839080579e-05 8.06819938962e-06)
(-0.000492322598489 -2.16122731331e-05 7.31096213413e-06)
(-0.000493025773588 -1.68240482355e-05 1.3614023471e-05)
(-0.000494975290957 -1.65067039538e-05 5.9946561669e-06)
(-0.000494722949507 -2.19459848701e-05 5.50503631541e-06)
(-0.000495682466643 -1.711186782e-05 1.03600126201e-05)
(-0.000485341287424 -1.63797056034e-05 3.52154328634e-06)
(-0.000489417251657 -2.19871147416e-05 3.19508894094e-06)
(-0.00049059896846 -1.7206978778e-05 6.02420937275e-06)
(-0.000465561649398 -1.60730747027e-05 7.78365097548e-07)
(-0.000474653708404 -2.18847104686e-05 6.08944900536e-07)
(-0.000475962756707 -1.71555654607e-05 9.59580488296e-07)
(-0.000435110006759 -1.5639471965e-05 -2.01086007061e-06)
(-0.000449499494708 -2.15031118622e-05 -2.27835600291e-06)
(-0.000450824224821 -1.69722246248e-05 -4.45453757419e-06)
(-0.000394240267404 -1.51866788797e-05 -4.80133211421e-06)
(-0.000414013626246 -2.10467827774e-05 -4.96506545736e-06)
(-0.000415228717282 -1.66385721734e-05 -9.83031124592e-06)
(-0.000343064363733 -1.47916002041e-05 -7.40734866236e-06)
(-0.000368031673745 -2.05579852825e-05 -7.78405117569e-06)
(-0.000369104535797 -1.62491311467e-05 -1.51843385912e-05)
(-0.000282685359669 -1.43399444315e-05 -9.86557087314e-06)
(-0.000312933046534 -2.01357190408e-05 -1.014799313e-05)
(-0.00031374492416 -1.59262909475e-05 -2.00117240602e-05)
(-0.000213883905662 -1.39747209786e-05 -1.15476703684e-05)
(-0.00024810054662 -1.9511721425e-05 -1.26329358563e-05)
(-0.000248766655224 -1.53518871603e-05 -2.44988381757e-05)
(-0.000140437180193 -1.4214971953e-05 -1.16584946991e-05)
(-0.000176528874557 -1.93254640479e-05 -1.34181317241e-05)
(-0.000176777718125 -1.52813140898e-05 -2.68669568069e-05)
(-6.78117432896e-05 -1.68628663228e-05 -1.03682868517e-05)
(-0.000105310895168 -1.99500607541e-05 -1.30122486999e-05)
(-0.000104413412916 -1.59231991364e-05 -2.63890087336e-05)
(-3.1736775641e-05 -2.40815690261e-05 -1.24476883751e-05)
(-2.94737016485e-05 -1.97226294342e-05 -2.34271010737e-05)
(0.00247048288521 0.0031950307998 -0.00180122231964)
(0.00123551584279 0.00314438353623 -0.00142118507718)
(0.00139811878639 0.00278903090595 -0.00243363331838)
(0.00501851165831 0.00520234991309 -0.00226087716718)
(0.00465393093474 0.00471029001692 -0.00215266667498)
(0.00429943693136 0.00419374118579 -0.00323416150571)
(0.00524158280799 0.00797544279515 -0.0022992240363)
(0.00654223392258 0.00804946815049 -0.0020347104522)
(0.00576762218219 0.00697003496476 -0.00322409870983)
(0.00296214571587 0.0100555052756 -0.00227099145217)
(0.00508043421922 0.0112360757425 -0.00172547790163)
(0.00446385144307 0.00962265955495 -0.00296731221139)
(-0.000485376318867 0.0107840759966 -0.00224070489374)
(0.00155522860233 0.0128788516455 -0.0016257716447)
(0.00133736415675 0.0109965405555 -0.00287140530069)
(-0.00413027360118 0.0101015544896 -0.00214020115318)
(-0.00252796794728 0.0129118856571 -0.00155838245447)
(-0.00233685961607 0.0110168162798 -0.00277037792841)
(-0.00697424673893 0.00805120199597 -0.00200776406224)
(-0.00641116088352 0.0112798108105 -0.00152323343346)
(-0.00580615490895 0.00963692474104 -0.0026603325996)
(-0.00788936184901 0.00519910730815 -0.00181794174313)
(-0.00866656297913 0.00812126746051 -0.00161668563846)
(-0.00782689462627 0.00699068627799 -0.00262168527321)
(-0.00687569330831 0.00263795228098 -0.00148170383388)
(-0.00834441611698 0.00457805434462 -0.00159649707624)
(-0.00763573032801 0.00402368388708 -0.00241064741315)
(-0.00508908852152 0.00102452987438 -0.00104720835639)
(-0.006420802895 0.00204185519959 -0.001289886182)
(-0.0060277259991 0.0018555308562 -0.0018919771195)
(-0.00347253217876 0.000232505516671 -0.000659670019255)
(-0.00440664358555 0.000689906407818 -0.000862428186651)
(-0.00425067364283 0.000667458297013 -0.00127281613029)
(-0.00227957378928 -8.10931523342e-05 -0.00039121062786)
(-0.00286589057559 8.67818355697e-05 -0.000525062079077)
(-0.00283018694316 0.000118140284586 -0.000783085893049)
(-0.00148331788646 -0.000165095269479 -0.000224387283768)
(-0.00182797966385 -0.00012229321918 -0.000305114979615)
(-0.00183906116227 -8.33013528044e-05 -0.000459245751254)
(-0.000981560862595 -0.00015970605204 -0.000124254144401)
(-0.0011789828112 -0.000164763352939 -0.000173000344252)
(-0.0012010298632 -0.000130698029188 -0.000260426555011)
(-0.000681431326346 -0.000127995494787 -6.51521040901e-05)
(-0.000789512202788 -0.000146316522994 -9.40323124545e-05)
(-0.000809609376378 -0.000119914080453 -0.000140957595301)
(-0.000513750057247 -9.62083756692e-05 -3.09386186702e-05)
(-0.000568495775025 -0.000113906273448 -4.81063450867e-05)
(-0.000583085916142 -9.48209609581e-05 -7.07059760526e-05)
(-0.000430991531442 -7.21316559422e-05 -1.11133017708e-05)
(-0.000453434102283 -8.56313733454e-05 -2.1626601246e-05)
(-0.000463102748367 -7.18799402804e-05 -2.90173480218e-05)
(-0.000399520470253 -5.59122348316e-05 -2.78181005311e-07)
(-0.000403425418116 -6.53905083074e-05 -6.68003405121e-06)
(-0.000409818539581 -5.51473526411e-05 -5.23661962397e-06)
(-0.000395723634273 -4.53866256578e-05 4.71650022511e-06)
(-0.000390283580102 -5.21713865929e-05 9.71440134203e-07)
(-0.000394812544911 -4.38879309841e-05 7.19640300473e-06)
(-0.000403484642249 -3.85583270669e-05 6.26036330928e-06)
(-0.000394874798362 -4.33622787019e-05 3.84221525248e-06)
(-0.000398276773327 -3.66185833296e-05 1.16836043035e-05)
(-0.000413869765686 -3.3991561729e-05 6.27225448136e-06)
(-0.000405478766789 -3.7599815722e-05 4.3217747817e-06)
(-0.000407998379579 -3.19205485141e-05 1.20012191259e-05)
(-0.00042333542865 -3.08087262302e-05 6.06356045225e-06)
(-0.00041653061338 -3.35575148527e-05 3.99495912984e-06)
(-0.000418200832837 -2.8613480508e-05 1.08936916915e-05)
(-0.000432439841408 -2.85697261625e-05 5.97505399873e-06)
(-0.000426478255809 -3.07392675863e-05 3.98908570644e-06)
(-0.000427395876274 -2.63132826099e-05 1.02119402787e-05)
(-0.000441573817004 -2.70226947318e-05 6.29632394617e-06)
(-0.00043643098873 -2.87323197139e-05 3.93744455874e-06)
(-0.00043667867614 -2.46423770666e-05 9.97817225427e-06)
(-0.000452721857551 -2.60648180706e-05 6.84223557471e-06)
(-0.000447026496336 -2.74138104056e-05 4.69387355999e-06)
(-0.000446850173848 -2.36339782459e-05 1.06667758459e-05)
(-0.00046486417186 -2.56041669372e-05 6.90824832895e-06)
(-0.000458780951272 -2.67588066668e-05 5.02053459165e-06)
(-0.00045847784129 -2.3102194844e-05 1.13010367239e-05)
(-0.000476764367632 -2.57929362475e-05 6.7743560029e-06)
(-0.000471553428839 -2.66457028053e-05 4.80443644321e-06)
(-0.000471138140346 -2.31200955393e-05 1.13760142843e-05)
(-0.000487696003928 -2.61374192518e-05 6.18861895174e-06)
(-0.000483019202363 -2.72065448722e-05 4.73136094975e-06)
(-0.000482774181332 -2.3724383304e-05 1.09799997212e-05)
(-0.000493831308727 -2.64334355454e-05 4.74779905992e-06)
(-0.000491113405471 -2.75722037861e-05 3.57381381007e-06)
(-0.000491217845074 -2.40596255483e-05 9.01471445599e-06)
(-0.000493102618377 -2.67164300436e-05 2.70546908946e-06)
(-0.00049362376641 -2.81213191958e-05 1.76309623078e-06)
(-0.000494037154166 -2.46557344746e-05 5.79794797663e-06)
(-0.000483479249285 -2.67429672325e-05 2.82490555131e-07)
(-0.000488315966455 -2.82209068341e-05 -6.33282330457e-07)
(-0.000488991696041 -2.49499542189e-05 1.40884777406e-06)
(-0.000463940552063 -2.65434943707e-05 -2.44777619992e-06)
(-0.000473594852582 -2.8228435453e-05 -3.16941758939e-06)
(-0.00047444093545 -2.50303651522e-05 -3.43930672599e-06)
(-0.000433764998069 -2.61172189485e-05 -5.23256138966e-06)
(-0.000448525178601 -2.78378847605e-05 -6.08669490488e-06)
(-0.000449444774689 -2.48230845591e-05 -8.76749214778e-06)
(-0.000393238597514 -2.55979738744e-05 -7.94778451885e-06)
(-0.00041323755855 -2.73129828061e-05 -8.74165525579e-06)
(-0.000414086561463 -2.44277126118e-05 -1.40127088106e-05)
(-0.00034253826852 -2.50622825259e-05 -1.05246956434e-05)
(-0.000367559550675 -2.6679553679e-05 -1.1479037111e-05)
(-0.000368339961523 -2.39187901059e-05 -1.92457072983e-05)
(-0.000282646373128 -2.44487517279e-05 -1.29153581132e-05)
(-0.000312746884573 -2.60847001531e-05 -1.38510839313e-05)
(-0.000313331956297 -2.3435760036e-05 -2.40153111855e-05)
(-0.000214467194241 -2.39697116211e-05 -1.45033972119e-05)
(-0.000248335244373 -2.52812044488e-05 -1.61676583061e-05)
(-0.000248890696728 -2.27636311068e-05 -2.83395880584e-05)
(-0.000142062269346 -2.41643181014e-05 -1.47718857248e-05)
(-0.000177176417273 -2.48905089133e-05 -1.6945674237e-05)
(-0.000177342111293 -2.26470252069e-05 -3.06589487317e-05)
(-6.95180042459e-05 -2.6185279963e-05 -1.50916502233e-05)
(-0.000106941731166 -2.53833747161e-05 -1.67645555538e-05)
(-0.000105974991341 -2.33965494704e-05 -3.0864526565e-05)
(-3.28162687734e-05 -2.75249422368e-05 -1.7581975987e-05)
(-3.12381730462e-05 -2.64598888062e-05 -3.13430439588e-05)
(0.00326334713941 0.00460746506383 -0.00177262943252)
(0.00172226522883 0.00401622436946 -0.00145194286764)
(0.00187622415951 0.00381863908761 -0.00250351630347)
(0.00644854769026 0.00746395417893 -0.00192649996)
(0.00607929541355 0.0061585324019 -0.00199020161971)
(0.00549844437785 0.00573407223873 -0.00304084125742)
(0.00661663528879 0.0111459447494 -0.00146096431754)
(0.00830665253635 0.0102506463769 -0.00125873343633)
(0.00717158669477 0.00926440215652 -0.00228521558797)
(0.00373628954251 0.0138360459442 -0.00108025809417)
(0.00636525366468 0.014010053142 -0.000382552218318)
(0.00546848973375 0.0125366452919 -0.00133379231911)
(-0.000464131724036 0.0147622130741 -0.000943449205437)
(0.00200231704383 0.0159193727237 -4.33946195577e-05)
(0.0016856159284 0.0142029458741 -0.000940293044071)
(-0.00486007985635 0.0138668082416 -0.00094141473475)
(-0.00294006322147 0.0159510779668 2.49085806979e-05)
(-0.00265101673712 0.0142200660894 -0.000841198530681)
(-0.00830105405609 0.0111844679102 -0.00113215500968)
(-0.0076526250857 0.0140199782551 -0.000175269701703)
(-0.00675980798988 0.0125153210475 -0.00101966328249)
(-0.009356838167 0.0074081138913 -0.00139524097158)
(-0.0103909981752 0.0102665852024 -0.000783263863495)
(-0.0091573102514 0.0092157519645 -0.00161741608566)
(-0.00798937730855 0.0039476899516 -0.00140467942437)
(-0.00990468883656 0.00596734571566 -0.00130873685276)
(-0.00884459100923 0.00544664181874 -0.00207302157992)
(-0.00570810358003 0.00170371497874 -0.00110510601226)
(-0.00741640146893 0.00281605493683 -0.00128961505759)
(-0.00680484662668 0.00262663212583 -0.00191484425447)
(-0.00374415347653 0.000550242642649 -0.000727820246473)
(-0.00490118863453 0.00108496644641 -0.000922611949848)
(-0.00463435619854 0.00104018859617 -0.00137704760716)
(-0.00236612348639 5.17872887411e-05 -0.000438966430832)
(-0.00306470877331 0.000269243236916 -0.000577238120403)
(-0.0029790673024 0.00027553000079 -0.000871491405809)
(-0.00149028219983 -0.000116441159841 -0.000253728040099)
(-0.0018827878186 -4.38746264376e-05 -0.000338065019131)
(-0.00187331582714 -2.68711079208e-05 -0.000516355769264)
(-0.000962467384338 -0.000146811381742 -0.000142778512305)
(-0.00117748772154 -0.000132977817169 -0.000192332834862)
(-0.00119111373928 -0.000116884629265 -0.000295710890766)
(-0.000658452411197 -0.000128969686541 -7.6986553451e-05)
(-0.000771222206665 -0.000135388246847 -0.000106693366787)
(-0.000788141935785 -0.000122129730035 -0.000162955014804)
(-0.000494925128738 -0.000101173810598 -3.87943276625e-05)
(-0.000549292834318 -0.0001115233566 -5.58434101681e-05)
(-0.000562968495333 -0.000101281778302 -8.41666314316e-05)
(-0.000417599454401 -7.74882916528e-05 -1.71933335264e-05)
(-0.000438500275485 -8.59630359902e-05 -2.70552439829e-05)
(-0.000447972534893 -7.83958427473e-05 -3.83513456108e-05)
(-0.000390624834367 -6.06333898428e-05 -5.43041291169e-06)
(-0.000393084982153 -6.63993912668e-05 -1.11630019677e-05)
(-0.000399391437258 -6.06444519238e-05 -1.2497953078e-05)
(-0.000389648170946 -4.93682118913e-05 9.71551615749e-08)
(-0.00038335433221 -5.29266529038e-05 -3.01425350612e-06)
(-0.000387772550459 -4.83724401559e-05 2.48703670787e-07)
(-0.000399251262952 -4.18656230122e-05 1.9036267249e-06)
(-0.000390145299275 -4.40790078894e-05 2.67553738005e-07)
(-0.0003934380072 -4.01240506505e-05 5.50180236159e-06)
(-0.000410750390187 -3.6750688025e-05 2.04447943018e-06)
(-0.000402103723601 -3.79945583569e-05 9.27292161246e-07)
(-0.00040447985075 -3.4623844907e-05 6.1297440785e-06)
(-0.000420963815223 -3.31659903454e-05 1.92048438404e-06)
(-0.000414001121221 -3.37491610931e-05 6.69508768902e-07)
(-0.000415470129422 -3.07955393979e-05 5.28548086141e-06)
(-0.000430530120841 -3.06660321666e-05 1.95147626645e-06)
(-0.000424548124387 -3.07280013694e-05 7.26405321404e-07)
(-0.000425203103559 -2.8076442404e-05 4.76015197867e-06)
(-0.000440195584509 -2.89578922854e-05 2.33499417256e-06)
(-0.000434937423484 -2.87078696469e-05 8.42384679108e-07)
(-0.00043490912531 -2.62073823685e-05 4.79703270667e-06)
(-0.000451616999597 -2.79804433571e-05 2.87217257693e-06)
(-0.000445943529154 -2.73029091513e-05 1.54866251934e-06)
(-0.000445485588913 -2.50331711323e-05 5.5885081145e-06)
(-0.00046407465828 -2.76822927182e-05 2.91672270592e-06)
(-0.000458091168183 -2.67885356394e-05 1.86481996158e-06)
(-0.000457479550906 -2.45841961683e-05 6.24693563123e-06)
(-0.000476288374552 -2.79895734898e-05 2.76144139007e-06)
(-0.00047119601721 -2.68370490241e-05 1.61231219632e-06)
(-0.000470480844229 -2.47131201287e-05 6.28621269667e-06)
(-0.000487300240129 -2.85764827588e-05 2.11655580808e-06)
(-0.000482840371608 -2.75165105845e-05 1.49386034087e-06)
(-0.000482308199064 -2.54149629744e-05 5.80360843383e-06)
(-0.000493464348469 -2.9134726054e-05 5.89110980925e-07)
(-0.000490964125989 -2.81811147895e-05 1.99596780517e-07)
(-0.000490821448798 -2.60947565072e-05 3.67846897936e-06)
(-0.000492625142366 -2.95384101334e-05 -1.57565518913e-06)
(-0.000493434002076 -2.87592324903e-05 -1.77420148965e-06)
(-0.000493652506901 -2.68613268064e-05 2.0567112078e-07)
(-0.000482865249139 -2.9670826685e-05 -4.08519047498e-06)
(-0.000488033438384 -2.9083397714e-05 -4.2890440414e-06)
(-0.000488530490907 -2.72686925916e-05 -4.03026154482e-06)
(-0.000463388531327 -2.95035758062e-05 -6.80833629435e-06)
(-0.00047322104335 -2.91370860588e-05 -6.81809347077e-06)
(-0.000473901388724 -2.73933554174e-05 -8.84287381097e-06)
(-0.000433268101984 -2.90487181822e-05 -9.59578877101e-06)
(-0.000448092651547 -2.87777277135e-05 -9.73850021283e-06)
(-0.000448881933145 -2.71349744811e-05 -1.4134282016e-05)
(-0.00039285608868 -2.8439364803e-05 -1.22729078479e-05)
(-0.000412837964714 -2.82265095487e-05 -1.23800031133e-05)
(-0.000413590679528 -2.66739833684e-05 -1.93075603676e-05)
(-0.000342355385181 -2.77727030048e-05 -1.48054253989e-05)
(-0.000367282300412 -2.75209898541e-05 -1.50540968097e-05)
(-0.000368016017776 -2.60496779795e-05 -2.44253456468e-05)
(-0.000282659850725 -2.7013768611e-05 -1.71033841242e-05)
(-0.000312564725883 -2.68351965545e-05 -1.74053588167e-05)
(-0.000313155806313 -2.54489307094e-05 -2.91148633534e-05)
(-0.000214802100838 -2.63480195042e-05 -1.86099353312e-05)
(-0.000248341731781 -2.59544033182e-05 -1.95802182815e-05)
(-0.000248989265613 -2.46882045444e-05 -3.32743462933e-05)
(-0.000142551463186 -2.62516941658e-05 -1.89383440659e-05)
(-0.000177391492018 -2.54218083154e-05 -2.03167650539e-05)
(-0.000177718215714 -2.44210260532e-05 -3.56147962843e-05)
(-7.02093647817e-05 -2.68187759926e-05 -1.92548813175e-05)
(-0.0001074575096 -2.55077782714e-05 -2.01108729314e-05)
(-0.000106814500232 -2.49728624744e-05 -3.60718582347e-05)
(-3.30299735791e-05 -2.56211895055e-05 -2.02728190727e-05)
(-3.19851659507e-05 -2.63456584526e-05 -3.70356839918e-05)
(0.00435400511157 0.00547905802429 -0.00166951505482)
(0.00234605182966 0.00441986046912 -0.00149871129622)
(0.00252586106151 0.00445270780347 -0.00258063825109)
(0.0082885712495 0.00880144550078 -0.00132243509604)
(0.00777317942045 0.00680807041246 -0.00171371278775)
(0.00703947519583 0.00664102500884 -0.00261681641801)
(0.00833458896972 0.0129047302389 -0.000180321337114)
(0.0103319668297 0.0111136944739 -0.000247996776967)
(0.0089263139511 0.0104934809543 -0.00088604573133)
(0.00469312663636 0.0158385395667 0.00065431125629)
(0.00781692103191 0.0149172004964 0.00125923586089)
(0.0067087328804 0.0139709448031 0.000913602848774)
(-0.000449323293918 0.0168382153918 0.000924963166577)
(0.00249848479952 0.0168251924429 0.00184834665913)
(0.0021095207154 0.015717010923 0.00166543126302)
(-0.00578683221866 0.0158495742632 0.000791053613745)
(-0.00341316684042 0.0168552095085 0.00191557643608)
(-0.00305348522234 0.0157312948095 0.00176465206006)
(-0.00997287380879 0.0128944333507 0.000173621444484)
(-0.00907142477407 0.0148982313104 0.0014574383876)
(-0.00796057810236 0.0139113925528 0.00121479362554)
(-0.0112291752184 0.00868551865536 -0.00069675974468)
(-0.0123698260546 0.0110739794991 0.000268903831449)
(-0.010834467959 0.0103692456843 -0.000179227103048)
(-0.00945312348778 0.00475911436004 -0.00119367248599)
(-0.0117352813442 0.00657163638149 -0.000897498758723)
(-0.0104017071398 0.00624806140495 -0.00149231192796)
(-0.00656165977473 0.00216346500061 -0.00110712099518)
(-0.0086186159954 0.00320588482679 -0.00123928245054)
(-0.00784106068356 0.00310192928941 -0.00183556718622)
(-0.00415025501859 0.000792230878901 -0.000772029823779)
(-0.00552784372195 0.00131796596702 -0.000960644160521)
(-0.00517725786294 0.00129772919411 -0.00143871363195)
(-0.00252348248991 0.000171548791777 -0.000476336708703)
(-0.00333909071976 0.000398408212997 -0.000619583536476)
(-0.00321524678713 0.000403419860543 -0.00094256623473)