/*--------------------------------*- C++ -*----------------------------------*\
| =========                 |                                                 |
| \\      /  F ield         | OpenFOAM: The Open Source CFD Toolbox           |
|  \\    /   O peration     | Version:  3.0.1                                 |
|   \\  /    A nd           | Web:      www.OpenFOAM.org                      |
|    \\/     M anipulation  |                                                 |
\*---------------------------------------------------------------------------*/
FoamFile
{
    version     2.0;
    format      ascii;
    class       volScalarField;
    location    "1.4";
    object      alpha.water;
}
// * * * * * * * * * * * * * * * * * * * * * * * * * * * * * * * * * * * * * //

dimensions      [0 0 0 0 0 0 0];

internalField   nonuniform List<scalar> 
7968
(
1
0.999999999347
0.999999997763
0.999999978449
0.999999971039
0.999999970064
0.999999966166
0.999999858071
0.999999973214
0.999999977668
0.999999999745
0.999999999745
0.999999942343
0.999999930706
0.999999935633
0.999999999971
1.00000000129
1
1.00000000573
1
1.00000000022
0.999999998151
0.999999959586
0.999999960294
0.999999968334
0.999999953649
0.999999958632
0.999999878274
0.999999842675
0.999999956129
0.999999949751
0.999999954792
0.999999975974
0.999999855858
0.999999957602
0.999999966389
0.999999967302
0.999999964129
1
0.999999999639
1
0.999999956133
0.99999993384
0.999999943972
0.999999971215
0.999999985217
0.999999965357
0.999999824239
0.999999824239
0.999999934149
0.999999994649
1
0.999999899873
0.999999935839
0.999999849065
0.999999964677
0.999999961701
0.99999994875
0.999999943132
1
0.999999956449
0.999999950514
0.999999945283
0.99999998062
0.999999975425
0.999999976501
0.999999833222
0.999999824239
0.999999824239
0.999999896583
1.00000002089
1.00000000577
1.00000000301
0.999999861266
0.999999903607
0.999999891945
0.999999956708
0.99999990791
0.999999935554
0.999999959874
0.999999954948
0.999999926333
0.999999931427
0.999999986544
0.99999997436
0.999999852438
0.999999844604
0.999999898622
0.999999968839
0.999999991469
1.00000001053
1.00000002279
1.00000002517
0.999999995116
0.999999913704
0.999999951166
0.999999933876
0.999999986
0.99999990068
0.999999972618
0.999999962989
0.999999933174
0.999999915378
0.999999996956
0.999999884817
0.999999885647
1.00000006004
1.00000002111
1.00000001619
1.00000000194
1.00000000212
1.00000000872
1.00000002221
1.00000000613
0.999999997862
0.999999955978
0.999999987157
0.999999988557
0.999999981634
0.999999953861
1
0.999999845776
0.999999928009
1.00000001335
0.999999966265
1.00000007415
1.00000002011
1.00000001559
1.00000000191
1.00000000124
1.00000000002
1.00000000267
1.00000000954
1.00000003045
0.999999996099
0.999999970704
0.999999958486
0.999999990484
0.999999990847
1
1
1
0.999999966872
0.999999997019
1.00000005425
1.00000001597
1.00000001465
1.00000000136
1.000000001
1
1
1.00000000002
1.00000000248
1.00000001116
1.0000000324
1.00000003828
0.99999994975
0.999999960534
0.999999966618
1.00000000084
1
1.00000000056
0.999999972469
1.00000004804
1.000000016
1.00000001551
1.00000000091
1.0000000006
1
1
0.999999999994
1.00000000001
1.00000000004
1.00000000242
1.00000001652
1.00000003578
1.0000000358
0.999999956049
0.999999966624
1.00000000001
1.0000000206
1.00000000678
1.0000000318
1.00000002476
1.00000005279
1.00000001106
1.00000000379
1.00000000005
0.999999999531
0.999999999824
1
1
1.00000000062
1.00000000562
1.00000003767
1.00000006186
0.999999983144
0.999999975743
0.999999982546
1.00000000681
1.00000000809
0.999999980365
1.00000001382
1.00000005122
1.00000003397
1.00000004752
1.00000001519
1.00000000391
1.00000000067
1.00000000024
1
1.00000000028
1.00000000196
1.00000004454
1.00000005784
1.00000000286
0.999999990183
0.999999987909
0.999999989384
1.00000000144
1.00000003651
0.999999934997
1.00000000251
1.00000002928
1.00000005221
1.00000003699
1.00000004594
1.00000002194
1.00000000579
1.00000000003
1
1.00000000095
1.00000004884
1.00000004562
1.00000001167
0.999999990017
0.999999980738
0.999999990799
1.00000000052
1.00000004812
1.00000003338
0.999999919996
0.999999965857
0.999999986472
0.999999964473
1.00000004458
1.00000003922
1.00000004153
1.00000002732
1.00000000877
1.00000000021
1.00000004333
1.00000002352
1.0000000276
0.9999999979
0.999999989785
0.99999999462
0.99999999574
1.00000000249
1.0000000266
1.0000000424
0.999999984054
0.9999999955
0.999999928982
0.999999921934
0.999999969651
1.00000003817
1.00000003559
1.00000003595
1.00000003339
1.00000002474
1.00000001219
1.0000000262
1.0000000237
0.999999999448
0.999999994858
0.999999996535
0.999999996533
1.00000000063
1.00000000394
1.00000002559
0.999999946424
0.999999981353
1
0.99999992216
0.999999918839
1.00000004602
1.0000000258
1.00000001795
1.00000001882
1.00000000392
1.00000000733
1.0000000172
1.00000001539
1.00000000047
1.0000000062
1.00000000209
1.00000000002
1.00000000512
1.0000000122
1.00000011941
0.999999972562
0.999999997767
0.999999996728
0.999999933599
0.999999924103
0.999999987661
1.00000002923
1.00000001624
1.0000000133
1.00000000124
1.00000000986
1.00000001874
0.999999999762
1.00000000218
0.999999999411
1.00000000195
0.99999999982
1.00000000005
1.00000004904
1.00000009708
1
1.00000000002
0.999999994418
0.999999960402
0.9999999167
0.999999972488
0.9999999944
1.00000000894
1.00000000411
1.00000000001
1.00000000221
1
1.00000000581
0.999999995514
0.999999960747
1.00000000218
0.999999999336
1
1.00000007635
1.00000005396
1.00000000254
1
1.00000000468
0.999999991609
0.999999946836
0.999999954817
0.99999999824
0.999999996329
1.00000000924
1.00000000391
1
1.0000000656
1
0.999999961049
1.00000000005
0.999999995229
1
1.00000001846
1.00000016003
1.00000005045
0.999999998869
1.00000001408
1.00000026405
1.00000002785
0.999999988898
0.999999975984
0.99999997148
0.999999995971
1.00000000332
1
1.00000001094
0.999999997343
0.999999983612
0.99999999749
0.999999988249
0.999999976928
0.999999996979
1.00000005066
1.00000001304
1.00000000993
1.00000003869
1.00000000247
1.00000011891
1.00000026081
1.00000002889
1.00000000464
1.00000000775
0.999999996306
1.00000000253
1.0000000278
1.00000000011
0.999999982851
0.999999975446
0.999999999081
0.999999999618
0.9999999706
0.999999981802
0.999999990371
0.999999993752
1.00000000688
1
0.999999991546
0.999999961785
0.999999959832
0.99999994133
0.999999915531
0.999999944562
0.999999950205
0.999999972269
0.999999951028
0.999999866735
0.999999967528
0.999999857605
0.999999993688
1.00000000052
0.999999999709
1.00000000836
1
1.00000004268
1.00000000008
1.00000000052
0.999999992921
0.999999908714
0.999999929134
0.99999995585
0.999999936503
0.999999868849
0.999999914213
0.999999979136
0.999999944856
0.999999917787
0.999999898238
0.999999899289
0.999999895979
0.999999974889
0.99999994973
1
1
1
1.00000000012
0.999999998066
0.9999998917
0.999999895592
0.999999986531
0.999999948011
0.999999876793
0.999999876602
0.999999942754
1.00000000207
1.0000000028
0.999999947962
0.99999981308
0.999999794364
0.999999910992
0.999999910835
0.999999963794
0.999999930239
1
1.00000000045
0.99999998564
0.999999897636
0.99999990091
0.999999902416
0.999999934002
0.999999932503
0.999999872704
1.00000000026
0.999999988264
0.999999999123
1.00000000424
0.999999999909
0.999999957339
0.999999764547
0.999999900339
0.999999914932
0.999999938829
0.99999997056
0.999999941173
0.999999989349
0.999999910018
0.999999955655
0.9999998519
0.999999870076
0.99999989184
1.00000000247
1.00000000705
0.999999999117
0.999999999094
0.999999999308
0.999999998933
0.999999998119
0.999999998034
1.00000000239
0.999999984515
0.999999944682
0.99999998905
0.99999997223
0.999999989695
0.999999975345
0.999999938514
0.999999746588
0.999999753272
0.999999800826
1.0000000009
1.0000000119
0.999999999553
1.0000000001
1
1
0.999999999999
1.00000000001
1.00000000005
0.999999999596
1.0000000026
1.00000000104
0.999999939088
0.999999925368
0.999999925346
0.999999999999
0.999999946193
0.999999890231
0.999999740312
0.999999984154
1.00000000858
0.999999999436
1.00000000017
1.00000000001
1
1
1
1
1.00000000002
1.00000000006
1.00000000039
1.00000000388
0.999999980991
0.999999926749
0.999999962462
1
0.999999996455
1.00000004586
1.00000000277
1.00000001613
1.00000000153
1.00000000183
1.00000000013
1.00000000004
1
1
0.999999999999
1
1.00000000002
1.00000000035
1.00000000242
1.00000000224
1.00000001239
1.00000000038
1.00000001156
1.00000000067
1.00000000682
0.999999981816
1.00000004154
1.00000000518
1.00000001025
1.00000000094
1.00000000061
1
1
0.999999999993
0.999999999985
1
1.00000000001
1.00000000094
1.00000000204
1.0000000129
1.00000000179
1.00000000676
0.999999952499
1.00000000631
1.00000000336
1.00000001343
1.00000001977
1.00000003568
1.00000000496
1.00000000539
1.00000000025
1
0.999999999992
0.999999999983
0.999999999988
1
1.00000000001
1.00000000068
1.00000000678
1.000000008
1.00000000702
0.999999991894
1.0000000005
1.00000000009
1.00000001974
0.999999956296
1.00000000471
1.00000002344
1.00000002983
1.00000000393
1.00000000149
1
1
1
0.999999999994
1
1.00000000002
1.00000000171
1.00000000761
1.00000002082
1.00000001211
0.999999997979
1.00000000186
1.00000000623
1.00000001209
0.999999997145
0.999999985958
1.0000000254
1.00000002048
1.00000002041
1.0000000022
1.00000000005
1
1
1
0.999999999994
1.00000000006
1.00000000449
1.00000001386
1.00000001033
1.00000000809
0.999999997528
1.00000000135
0.999999998833
1.00000000972
0.99999998419
0.999999999627
1.00000000914
1.00000002777
1.00000001506
1.00000001252
1.0000000007
1
1
1
1.00000000002
1.0000000019
1.00000000836
1.00000000588
1.00000001317
1.00000000678
0.999999996322
1.0000000028
1.00000000573
1.00000001783
0.999999962668
0.999999998111
0.999999998533
1.00000003129
1.000000019
1.0000000119
1.00000000738
1.00000000056
1
1.00000000003
1.00000000121
1.00000000523
1.00000000656
1.00000001171
1.00000001338
1.00000000742
1.00000001125
1.00000000117
1.00000000612
1.00000000883
0.999999959498
0.999999966107
0.999999966622
0.999999997788
1.00000002607
1.000000015
1.00000000975
1.00000000662
1.00000000048
1.00000000138
1.00000000536
1.0000000062
1.00000001069
1.00000000986
1.00000000488
1.0000000428
1.00000000343
0.999999999842
1.00000001832
1.00000007216
0.999999999999
0.999999963009
0.999999963429
0.999999962708
1.00000001056
1.00000002298
1.00000001057
1.00000000643
1.00000000882
1.00000000752
1.00000000789
1.00000001131
1.00000001221
1.00000000035
1.00000007499
0.999999972565
0.999999981104
0.999999979
1.00000002956
1.00000002581
1
1
0.999999964593
0.999999988857
0.999999988608
1.00000000591
1.00000002979
0.999999996459
1.00000002135
1.00000001181
1.00000001646
1.00000003008
1.00000000001
1.00000007099
0.99999999534
0.999999966022
0.999999968521
0.999999970599
1.00000006552
1.00000003475
1
1.00000000091
1
0.999999982123
0.999999979621
1.00000000061
0.999999996164
0.999999984297
0.999999989888
1.00000001704
1.00000002396
1.00000000003
1.00000006777
0.99999997908
0.999999984974
0.999999971335
0.999999968458
1.00000001117
1.00000005473
1
1.00000000931
1.00000000002
1.00000000553
0.999999998639
0.999999988449
1.00000000064
0.999999992695
1.00000000017
1.00000000966
1.00000003537
1.00000000013
1.00000004474
0.999999985445
0.999999977378
0.999999965706
0.999999964215
0.999999985792
0.999999985018
1.00000001125
1.00000025368
1
1.00000008375
1.00000000011
1.00000019379
1.00000000322
1.00000008004
1.00000000115
0.999999999036
1.0000000084
1.00000000211
1.00000009092
1.00000000002
0.999999967272
0.999999992656
1.0000000016
1
0.999999985627
1.00000000362
1.00000021917
1.0000025057
1.00000010889
1.0000000002
0.999999999242
1.00000000007
0.999999900928
0.999999889327
0.999999935421
0.999999867625
0.999999960863
0.999999910047
0.999999839042
0.999999818093
0.999999889009
0.999999898376
1
1.00000000498
1
1.00000006314
1.00000235372
1.00000000961
1.00000000007
1.0000000007
0.999999974517
0.999999915156
0.999999919987
0.999999907409
0.999999911278
0.99999991986
0.999999989562
0.999999986433
0.999999992449
0.999999878229
0.999999904217
0.9999998656
0.99999986257
0.999999998916
0.999999988161
0.999999999681
1.00000000258
1.00000000081
1.00000000002
1
0.999999914358
0.999999935603
0.999999984099
0.999999919598
0.999999912369
0.999999932351
1.00000000077
0.999999997332
0.999999997595
0.999999919769
0.9999999521
0.999999977892
0.999999932151
0.999999923503
0.999999998828
0.999999999926
0.999999999824
0.99999997985
0.99999996903
0.9999999954
0.999999948863
0.999999923846
0.999999995436
0.999999919607
0.99999969771
0.999999979457
0.999999979585
0.999999928339
0.999999853479
0.99999973754
0.999999735124
0.999999966953
0.999999971904
0.999999918255
0.999999901555
1.00000000006
0.999999972021
0.999999978908
0.999999990622
0.999999928307
0.999999820022
0.999999959531
0.999999998169
0.999999997763
0.99999999426
0.999999994043
0.999999994633
0.999999993872
0.999999992516
0.999999991573
0.999999996184
0.999999991764
0.999999802124
0.999999823755
0.999999874026
1
0.999999988419
0.999999988097
0.999999994806
0.999999765619
0.999999890499
1.00000000018
1.00000000016
0.999989139499
0.999936427174
0.999917092394
0.999922850155
0.999924693155
0.999919866172
0.999936039019
0.999990627338
0.999999996093
0.999999973217
0.999999949021
1
1
1.00000000005
0.999999794468
0.999999797592
0.999999951593
0.999999859175
1.00000000001
0.999987254286
0.999846794651
0.999747131067
0.999766512884
0.999805803662
0.999807107271
0.999765843297
0.999752413943
0.999850137304
0.999987596174
1
0.999999993472
1
0.999999979438
1.0000000003
0.999999774976
0.999999926041
1.00000000036
0.99999999996
1.00000000004
0.999931384212
0.999773851663
0.999744393787
0.999805336052
0.999831186814
0.999828758653
0.999806336761
0.999746252723
0.999777662075
0.999930615724
1
0.999999999952
1
0.99999999916
1.00000000721
0.999999984359
0.999999896985
0.999999990892
1.00000000025
1
0.999912496142
0.999798556922
0.999806593037
0.99981232359
0.999824187973
0.999815801823
0.999809417298
0.999806564938
0.99980281799
0.999910902987
1
1
0.999999930689
0.99999983467
0.999999954866
0.999999964543
0.999999989282
1.00000000046
1
1.00000000011
0.999924908922
0.999825300982
0.999821463333
0.999798748747
0.999811152815
0.999816186805
0.999796541183
0.999817525452
0.999824628016
0.999925208716
1
1
1.00000000203
0.999999995243
0.999999991634
0.999999915215
0.999999915362
0.999999915279
0.999999978701
0.99999999999
0.999923263979
0.99982490884
0.999823738006
0.999803522591
0.999814277738
0.999817306054
0.99980291359
0.999821958461
0.999825396036
0.999923741309
0.999999999994
1.00000000218
1.00000001539
1.00000000186
0.999999983147
0.999999992255
0.999999929073
1.00000000027
1.00000000066
1.00000000009
0.999910144262
0.999798539784
0.999809297654
0.999821355004
0.999817529677
0.999815811431
0.99982424729
0.999810340228
0.999802469748
0.999908842409
1.00000000002
1.00000000924
1.00000000209
1.00000001229
1.0000000058
1.00000002142
1.00000000103
1.00000000579
1.00000000045
1.00000000058
0.999927625022
0.999768605132
0.999746109186
0.999804468439
0.999827481327
0.999827398854
0.999807070297
0.999749398971
0.999768005332
0.999927011998
1.0000000029
1.00000000109
1.00000001189
0.99999999363
1.00000000524
1.00000000926
0.999999969551
1.00000000905
1.00000000293
0.999999999894
0.999984640871
0.999841574564
0.99974825699
0.999769318701
0.999805281128
0.99980597745
0.999766183367
0.999747002613
0.999841035422
0.999985857473
1.00000000042
1.00000000641
1.00000001374
0.999999955527
1.00000000992
1.0000000505
0.999999994231
1.00000005328
1.00000001013
1.00000000115
0.999999998575
0.999985393734
0.99993101092
0.99991287998
0.99992005124
0.999921734136
0.999915531048
0.999931074165
0.999985532529
1
1.00000000341
1.00000001953
0.999999986076
0.999999956732
1.00000002101
1.00000001306
1.00000000688
1.00000001134
1.00000003631
1.00000000323
1.00000000084
1
1.00000000035
1.00000000002
1.00000000071
1.00000000087
1.00000000059
1.00000000178
1
1.0000000125
1.00000000795
1.00000003378
0.999999992781
0.99999999963
1.00000005195
1.00000003854
1
1.00000001269
1.00000002588
1.00000001361
0.999999996943
1.00000000221
1.00000000028
0.99999999719
1.00000000498
1.00000000844
1.00000001004
1.00000000003
1.00000003001
1.0000000006
1.00000001932
1.00000001005
0.999999988654
1.00000000088
1.00000008229
1
1.00000000957
1.00000000003
1.00000002044
1.00000001344
0.999999983689
0.999999999666
0.999999998672
0.999999986685
1.00000000812
1.0000000238
1.00000000216
1.00000003794
0.999999996242
0.999999992228
0.999999984359
1.00000000342
1.00000000126
1.00000000096
1.00000002046
1.00000011307
0.999999988945
1.00000002405
1.00000000011
1.00000003081
1.00000000005
1.0000000036
1.00000000029
1.00000000061
1.00000000921
1.00000000229
1.00000006987
1.00000000003
1.00000002084
0.999999998581
0.999999974162
1.00000000012
1.00000000166
0.999999980907
1.00000001809
1.00000194999
1.00000009881
1.00000000131
1.00000010619
1.00000018694
1.00000005207
1.00000001861
1.00000008262
1.00000000131
1.00000001907
1.00000009332
1.00000000365
1.0000000457
1.00000000126
1.00000002475
1.00000000283
1.00000001266
1.000000007
1.00000000329
1.00000196229
1.00000347929
1.00000537308
1.00000202991
1.00000000044
1.00000000076
1
0.999999780168
0.99999976246
0.999999813573
0.999999979825
0.999999963138
0.99999972403
0.999999853595
0.999999818894
0.999999986385
1.00000000209
1.00000000057
1.00000153488
1.00000518217
1.00000414172
1.00000454323
1.00000000258
1.00000000002
0.999999998358
0.999999992646
0.999999945024
0.999999982328
0.999999986633
0.999999980598
0.999999992148
0.99999999245
0.999999941122
0.99999995367
0.999999905703
0.99999998322
0.999999866085
0.99999992112
0.999999757377
0.999999693453
1.00000462291
1.00000234289
0.999999932825
0.999999798457
0.999999997939
0.999999910214
0.999999985072
0.999999986643
0.999999986633
0.99999999213
0.999999999124
0.99999999816
0.999999992449
0.999999986029
0.999999978607
0.999999983066
0.99999997885
0.999999920545
0.999999689718
0.999999574415
1.00000181265
1.00000027536
1.00000000002
0.999999985203
0.999999992059
0.99999996867
0.999999991164
0.999968531605
0.999922931538
0.999911091718
0.99991584576
0.999916456212
0.999912182961
0.999924874901
0.999971058673
0.999999979742
0.999999982715
0.999999858089
0.999999896644
0.999999771225
1.0000000001
0.999999801297
0.999999957569
0.999999970005
0.99999999256
0.999993079486
0.999852501733
0.999625974887
0.999476181217
0.999465718773
0.999476727585
0.99947618635
0.999465215916
0.999477286677
0.999627137277
0.999855398851
0.999994520861
0.999999527965
1
1.00000000013
0.999999899885
0.999999988183
0.999999992424
0.999999984327
0.999999846983
0.999850211697
0.999471854304
0.999170423393
0.999149312735
0.999154644879
0.999200311804
0.9992017499
0.999155730344
0.999149997042
0.999172502979
0.99947202377
0.999851238113
1
1
1
1.00000000089
0.999999871297
0.9999999654
0.999999994438
0.999964289756
0.99962294611
0.999159966422
0.998953331585
0.998442131144
0.998029693692
0.997613489556
0.99761112664
0.998037660854
0.998439666903
0.998944047885
0.999161774734
0.999622951671
0.999964726896
1
0.999999896725
0.999999850551
0.999999700324
0.999999997976
1
0.999919401977
0.999479428036
0.999141896092
0.998190111183
0.996996816761
0.996489263176
0.996542729091
0.996549620158
0.996499238391
0.996981750073
0.998167615324
0.999140091424
0.999481007624
0.999918769981
0.999999999949
1.00000000124
0.999999862897
0.999999692201
0.999999995055
0.999999997976
0.999908667895
0.999468741352
0.999138184234
0.997754638506
0.996486655305
0.996869130108
0.997125999316
0.997107665946
0.99683412733
0.996490105437
0.997742537052
0.999137366986
0.999469152512
0.999908311742
1
0.999999930231
0.999999833401
0.999999709856
0.99999999873
1
0.99990964284
0.999475351767
0.999185754219
0.997515256516
0.996575575048
0.997157130092
0.997230503688
0.997240576196
0.997151245888
0.996572572393
0.997510957245
0.999187102478
0.999474515495
0.999909363432
1
0.99999999362
0.9999998334
0.999999947376
0.999999976378
0.999999999965
0.999907892366
0.999476373807
0.999185747615
0.997509436249
0.996564530728
0.997080910864
0.997198232365
0.997187266062
0.997105155269
0.996578158039
0.997506762722
0.999186816292
0.99947559276
0.999907502813
1
0.999999979477
0.999999866004
0.999999939271
0.99999999567
1.00000000002
0.999902035923
0.999467216443
0.999139839388
0.997754954504
0.996500620983
0.996813461922
0.997107352497
0.997090498457
0.996808785306
0.996503193679
0.997740718892
0.999139775739
0.99946656991
0.999902088438
1
1.00000000416
0.999999944842
1.00000000544
0.999999971086
1.0000000001
0.999912159131
0.999475861678
0.999137757962
0.998215123877
0.996980564711
0.996514204122
0.996581957981
0.996580601232
0.996516615172
0.996978552626
0.998212091296
0.999136378711
0.99947581007
0.99991199969
1.00000000153
1.00000000437
1.00000000665
1.00000001655
1.00000000123
1.0000000098
0.999957289434
0.999617842344
0.999153460118
0.998975019414
0.998395781683
0.997971540607
0.997602400298
0.997604924115
0.99798115489
0.998400325103
0.998975529735
0.999154482403
0.999617470898
0.999957752409
1.00000000339
1.00000000401
1.00000001005
0.999999983296
0.999999998935
0.999999690237
1.00000000338
0.999842234652
0.999465149565
0.999159758532
0.999140912983
0.999144492635
0.999190634712
0.999191801138
0.999146672444
0.999142329711
0.999159809756
0.999465146545
0.999842214937
1.0000000037
0.999999998861
1.00000000184
1.00000002269
1.00000002688
0.999999997309
1.00000000666
1.00000000964
0.999980481783
0.999842732518
0.999618635129
0.999470588831
0.999459577004
0.999472353802
0.999471167902
0.999460004112
0.999470145498
0.99961871021
0.999843424051
0.999981000414
1.00000000617
1.0000000021
1.0000000022
1.00000007151
1.00000000665
1.00000000607
1
1.00000001672
1.00000000626
1.00000000274
0.99995986799
0.999913433835
0.999902506915
0.999906849843
0.999905870936
0.999902632848
0.999913629441
0.999960665325
1.00000000512
1.00000000378
1.00000000557
1.00000000199
1.00000000042
1.00000002977
1.00000167706
0.999999963251
1.00000001198
0.999999995569
1.00000002029
1.00000000136
1.00000000273
1.00000000076
1.00000000003
1.00000001067
1.00000000194
1.00000001389
0.99999999364
1.00000001131
0.999999999427
1.00000001087
1.0000000009
1.0000000034
0.999999907999
1.00000121242
1.00000401933
0.999999620873
0.99999995919
1.00000002443
0.9999999989
1.00000000566
1.00000000659
1.00000000114
1.00000000138
1.00000001842
1.00000005009
1.0000000075
1.00000003939
0.999999992952
1.00000000053
1.00000000051
1.00000000633
0.999999995415
0.999999540312
1.0000039995
1.00000691938
1.00000430139
1.00000162118
1.00000000364
1.00000008632
1.00000000821
1.00000025293
1.00000001
1.00000004593
1.00000000254
1.00000001695
1.00000005299
1.00000000344
1.00000003518
1.00000000904
1.00000003818
1.00000000592
1.00000160206
1.00000444132
1.00000661007
1.00000045333
1.00000411758
1.00000873948
1.0000020953
1
0.999999813513
0.999999881154
0.999999193919
0.999999327385
0.999999974526
0.999999973686
0.999999745628
0.999999490726
0.999999826063
0.999999742701
1.00000000069
1.00000166811
1.00000678164
1.00000489928
1.00000097849
1.00000137782
1.00000000007
0.999999236252
0.999999836222
0.999999691386
0.999999796878
0.999999986596
0.999999883742
0.999999973605
0.999999979504
0.99999998052
0.99999991881
0.999999906212
0.999999825509
0.999999818292
0.999999772079
0.999999698024
0.99999928292
1
1.00000220278
1.00000312995
0.999999335486
0.999998986998
0.999999363497
0.999999947919
0.999999986157
0.999972643023
0.999932729809
0.999922790445
0.999922077469
0.99992165027
0.999921719098
0.999932241322
0.999971926167
0.999999980033
0.999999950143
0.999999683156
0.999998983305
0.999999379117
1.00000041992
1
0.999999613441
0.999999738563
0.999999885889
0.999958827988
0.999741665965
0.99946166914
0.999277228182
0.99924196209
0.999265388715
0.999265120602
0.99924198561
0.999277594843
0.99946217089
0.99974135398
0.999957215947
0.999999719618
0.999999558498
0.999999318653
1.00000000008
0.999999633278
0.999999953504
0.999999943654
0.999959282555
0.99960906881
0.998964386683
0.998471389019
0.998226070632
0.998165464849
0.998203397517
0.998205997591
0.998171171863
0.998233090741
0.998476970181
0.998964498229
0.999609692484
0.999957683824
0.999999999998
0.99999972986
0.999999239877
0.999999886259
0.999999879614
0.999999954207
0.999741243814
0.998965933648
0.998104862145
0.996546150691
0.995504290191
0.995563770664
0.995221632574
0.995214536315
0.995564413105
0.995506398823
0.996547858585
0.998108804416
0.998966961953
0.99973968514
0.999999999993
0.999999926275
0.999999659895
0.999999913794
0.999999712871
0.999972551698
0.999464436662
0.998451693646
0.996570887708
0.994565393431
0.99455268678
0.994552636066
0.994552641711
0.994552641546
0.994552636211
0.994552686822
0.994563796901
0.996575847414
0.998454656504
0.999465177123
0.999972015884
0.999999763163
0.999999559464
0.999999783374
0.999999664476
0.999931821154
0.999274079688
0.998259857436
0.995594264069
0.994552686785
0.994552636362
0.994552559437
0.994552553434
0.99455255399
0.994552559525
0.994552636653
0.994552686841
0.995622717182
0.998262730467
0.999274328888
0.999929629026
0.999999889984
0.999999645125
0.999999998784
0.999999913856
0.999921254648
0.999237515339
0.998202401293
0.995713273877
0.994552640514
0.99455256261
0.994552470502
0.994552471002
0.994552471716
0.994552470843
0.994552561382
0.994552640749
0.995716892542
0.998202027982
0.999238270819
0.999918427648
0.999999955488
1
0.999999992815
0.999999871551
0.999916829896
0.999268270701
0.99817964977
0.995303953702
0.994552646654
0.994552553968
0.99455246852
0.994552473236
0.994552469879
0.99455246595
0.994552552251
0.994552644264
0.995292828946
0.998171886578
0.99926906189
0.999914326836
0.99999999887
1
0.999999839887
0.99999999998
0.999915173768
0.999267142912
0.998184980214
0.995295037861
0.994552631479
0.994552540893
0.994552458194
0.994552462486
0.99455246059
0.99455245229
0.994552537501
0.994552629335
0.995285508699
0.998173519429
0.999268096013
0.999912557395
0.999999903199
0.999999999997
1
1
0.999912862676
0.999235996242
0.998195590128
0.99567803089
0.99455261829
0.994552548759
0.994552453269
0.99455245324
0.994552451978
0.994552451159
0.994552546041
0.994552615703
0.995672628536
0.998197645114
0.999236302141
0.999911376863
0.999999901927
1.00000000001
1.00000001156
0.999999999999
0.999922932419
0.999273295386
0.998259322112
0.995594253977
0.994552658246
0.994552605332
0.994552535113
0.994552529814
0.994552528375
0.994552533213
0.99455260235
0.994552652927
0.995602440033
0.998262100637
0.99927234575
0.999921757164
1.00000000261
0.999999893186
0.999999986933
1.00000000052
0.99996405963
0.999463434469
0.998453150416
0.996606357973
0.994567506597
0.99455265822
0.99455260472
0.994552611473
0.994552609259
0.994552601844
0.994552652916
0.994569151802
0.996601209663
0.998442245841
0.99946386501
0.999964332435
0.999999854015
0.999999723328
0.999999985487
0.999999987005
0.999999375102
0.999730580634
0.998962915608
0.998127645329
0.996586449658
0.995522312551
0.995591303931
0.995230555946
0.995229050966
0.995580908163
0.995508156376
0.996589891243
0.998130267346
0.998959767993
0.999731002526
1
0.999999903364
0.999999767718
1.00000000819
0.99999957739
1
0.999943088703
0.999606337056
0.998960827911
0.998450695603
0.998239472022
0.998182134958
0.998173881704
0.998174595338
0.998185590868
0.99824261763
0.998449215576
0.998958385923
0.999606837012
0.999944179635
1.00000000087
0.999999374988
0.99999941757
1.00000007244
0.999999778398
1.00000000217
0.999999138265
0.999942701228
0.999729625103
0.999460661257
0.999271120659
0.999232798827
0.999263254561
0.999263254904
0.999232245419
0.999270783026
0.999460660124
0.999729991697
0.999944460239
0.999999564741
1.00000000046
0.999999229091
1.00000002025
1.00000339174
0.999998784963
0.999999444842
1.00000000402
1.00000000072
0.999997980681
0.999962950785
0.999922853172
0.999909159258
0.999907862349
0.999908729559
0.999907652273
0.999921331905
0.999963900212
0.999999209042
1.0000000003
0.999999870173
0.999998945802
0.999998657717
1.0000000021
1.00000240494
1
0.999999239434
0.999999995304
1.00000000305
1.00000000099
0.999999996608
1.00000000014
1.00000000168
1.00000002237
1.00000000826
1.0000000327
0.99999999876
1.00000000876
1.00000000042
1.00000000417
0.999999836845
0.999998903658
1
1.00000060221
1.00000113592
1.00000700567
1.00000900793
1.00000253154
1.0000000072
1.00000051684
1.00000002586
1.00000024683
1.00000000835
1.00000005234
1.00000003635
1.00000000569
1.00000004466
1.00000001847
1.00000011982
1.00000001122
1.00000239159
1.0000081414
1.00000594052
1.00000032587
1.00000121453
1.00000000029
1.0000007784
1.00001535262
1.00000000249
1
0.999999921101
0.999999314345
0.99999990182
0.999999972088
0.999999966028
0.999999708505
0.999999916932
1
0.999999999908
1.00000000329
1.0000142123
1.00000066769
1
1.00000099744
0.999999997625
0.999999993987
0.999999988909
0.999997495938
0.999998979726
0.999999743758
0.999999976031
0.999999921659
0.999999967693
0.999999974459
0.999999973636
0.999999944025
0.999999982376
0.999999961103
0.99999972313
0.999998699552
0.999997680168
0.999999972372
0.999999959816
0.999999973642
1.0000000048
0.999999969059
0.999998010644
0.999997120329
0.999999736259
0.999911649172
0.999753810067
0.999665736351
0.999654813465
0.999669563446
0.999670156079
0.999654714307
0.999665433792
0.999754035278
0.999908505502
0.99999978544
0.999997412169
0.999998408634
0.999999951894
1.00000000265
1
0.999997376063
0.999997510557
0.999991969427
0.999694976949
0.999212268269
0.998738620434
0.998361790074
0.998312571904
0.998373272679
0.998375790074
0.99831521261
0.998362517822
0.99873948394
0.999210522639
0.999693628956
0.999991944012
0.999997380003
0.999997968713
1.00000000002
0.99999999997
0.999998527657
0.999999874798
0.999690046631
0.998890085952
0.997807392645
0.9958154985
0.994552810255
0.994552717137
0.994654200417
0.994637948102
0.994552717633
0.994552811374
0.995798176269
0.997809726039
0.998892824785
0.999690841775
0.999999928695
0.999997931663
1
0.999998981473
0.999999462694
0.999908297408
0.999203948847
0.99780936844
0.994553244273
0.994552810104