/*--------------------------------*- C++ -*----------------------------------*\
| =========                 |                                                 |
| \\      /  F ield         | OpenFOAM: The Open Source CFD Toolbox           |
|  \\    /   O peration     | Version:  3.0.1                                 |
|   \\  /    A nd           | Web:      www.OpenFOAM.org                      |
|    \\/     M anipulation  |                                                 |
\*---------------------------------------------------------------------------*/
FoamFile
{
    version     2.0;
    format      ascii;
    class       surfaceScalarField;
    location    "1.4";
    object      meshPhiCN_0;
}
// * * * * * * * * * * * * * * * * * * * * * * * * * * * * * * * * * * * * * //

dimensions      [0 3 -1 0 0 0 0];

internalField   nonuniform List<scalar> 
22672
(
0
0
0
0
0
0
0
0
0
0
0
0
0
0
0
0
0
0
0
0
0
0
0
0
0
0
0
0
0
0
0
0
0
0
0
0
0
0
0
0
0
0
0
0
0
0
0
0
0
0
0
0
0
0
0
0
0
0
0
0
0
0
0
0
0
0
0
0
0
0
0
0
0
0
0
0
0
0
0
0
0
0
0
0
0
0
0
0
0
0
0
0
0
0
0
0
0
0
0
0
0
0
0
0
0
0
0
0
0
0
0
0
0
0
0
0
0
0
0
0
0
0
0
0
0
0
0
0
0
0
0
0
0
0
0
0
0
0
0
0
0
0
0
0
0
0
0
0
0
0
0
0
0
0
0
0
0
0
0
0
0
0
0
0
0
0
0
0
0
0
0
0
0
0
0
0
0
0
0
0
0
0
0
0
0
0
0
0
0
0
0
0
0
0
0
0
0
0
0
0
0
0
0
0
0
0
0
0
0
0
0
0
0
0
0
0
0
0
0
0
0
0
0
0
0
0
0
0
0
0
0
0
0
0
0
0
0
0
0
0
0
0
0
0
0
0
0
0
0
0
0
0
0
0
0
0
0
0
0
0
0
0
0
0
0
0
0
0
0
0
0
0
0
0
0
0
0
0
0
0
0
0
0
0
0
0
0
0
0
0
0
0
0
0
0
0
0
0
0
0
0
0
0
0
0
0
0
0
0
0
0
0
0
0
0
0
0
0
0
0
0
0
0
0
0
0
0
0
0
0
0
0
0
0
0
0
0
0
0
0
0
0
0
0
0
0
0
0
0
0
0
0
0
0
0
0
0
0
0
0
0
0
0
0
0
0
0
0
0
0
0
0
0
0
0
0
0
0
0
0
0
0
0
0
0
0
0
0
0
0
0
0
0
0
0
0
0
0
0
0
0
0
0
0
0
0
0
0
0
0
0
0
0
0
0
0
0
0
0
0
0
0
0
0
0
0
0
0
0
0
0
0
0
0
0
0
0
0
0
0
0
0
0
0
0
0
0
0
0
0
0
0
0
0
0
0
0
0
0
0
0
0
0
0
0
0
0
0
0
0
0
0
0
0
0
0
0
0
0
0
0
0
0
0
0
0
0
0
0
0
0
0
0
0
0
0
0
0
0
0
0
0
0
0
0
0
0
0
0
0
0
0
0
0
0
0
0
0
0
0
0
0
0
0
0
0
0
0
0
0
0
0
0
0
0
0
0
0
0
0
0
0
0
0
0
0
0
0
0
0
0
0
0
0
0
0
0
0
0
0
0
0
0
0
0
0
0
0
0
0
0
0
0
0
0
0
0
0
0
0
0
0
0
0
0
0
0
0
0
0
0
0
0
0
0
0
0
0
0
0
0
0
0
0
0
0
0
0
0
0
0
0
0
0
0
0
0
0
0
0
0
0
0
0
0
0
0
0
0
0
0
0
0
0
0
0
0
0
0
0
0
0
0
0
0
0
0
0
0
0
0
0
0
0
0
0
0
0
0
0
0
0
0
0
0
0
0
0
0
0
0
0
0
0
0
0
0
0
0
0
0
0
0
0
0
0
0
0
0
0
0
0
0
0
0
0
0
0
0
0
0
0
0
0
0
0
0
0
0
0
0
0
0
0
0
0
0
0
0
0
0
0
0
0
0
0
0
0
0
0
0
0
0
0
0
0
0
0
0
0
0
0
0
0
0
0
0
0
0
0
0
0
0
0
0
0
0
0
0
0
0
0
0
0
0
0
0
0
0
0
0
0
0
0
0
0
0
0
0
0
0
0
0
0
0
0
0
0
0
0
0
0
0
0
0
0
0
0
0
0
0
0
0
0
0
0
0
0
0
0
0
0
0
0
0
0
0
0
0
0
0
0
0
0
0
0
0
0
0
0
0
0
0
0
0
0
0
0
0
0
0
0
0
0
0
0
0
0
0
0
0
0
0
0
0
0
0
0
0
0
0
0
0
0
0
0
0
0
0
0
0
0
0
0
0
0
0
0
0
0
0
0
0
0
0
0
0
0
0
0
0
0
0
0
0
0
0
0
0
0
0
0
0
0
0
0
0
0
0
0
0
0
0
0
0
0
0
0
0
0
0
0
0
0
0
0
0
0
0
0
0
0
0
0
0
0
0
0
0
0
0
0
0
0
0
0
0
0
0
0
0
0
0
0
0
0
0
0
0
0
0
0
0
0
0
0
0
0
0
0
0
0
0
0
0
0
0
0
0
0
0
0
0
0
0
0
0
0
0
0
0
0
0
0
0
0
0
0
0
0
0
0
0
0
0
0
0
0
0
0
0
0
0
0
0
0
0
0
0
0
0
0
0
0
0
0
0
0
0
0
0
0
0
0
0
0
0
0
0
0
0
0
0
0
0
0
0
0
0
0
0
0
0
0
0
0
0
0
0
0
0
0
0
0
0
0
0
0
0
0
0
0
0
0
0
0
0
0
0
0
0
0
0
0
0
0
0
0
0
0
0
0
0
0
0
0
0
0
0
0
0
0
0
0
0
0
0
0
0
0
0
0
0
0
0
0
0
0
0
0
0
0
0
0
0
0
0
0
0
0
0
0
0
0
0
0
0
0
0
0
0
0
0
0
0
0
0
0
0
0
0
0
0
0
0
0
0
0
0
0
0
0
0
0
0
0
0
0
0
0
0
0
0
0
0
0
0
0
0
0
0
0
0
0
0
0
0
0
0
0
0
0
0
0
0
0
0
0
0
0
0
0
0
0
0
0
0
0
0
0
0
0
0
0
0
0
0
0
0
0
0
0
0
0
0
0
0
0
0
0
0
0
0
0
0
0
0
0
0
0
0
0
0
0
0
0
0
0
0
0
0
0
0
0
0
0
0
0
0
0
0
0
0
0
0
0
0
0
0
0
0
0
0
0
0
0
0
0
0
0
0
0
0
0
0
0
0
0
0
0
0
0
0
0
0
0
0
0
0
0
0
0
0
0
0
0
0
0
0
0
0
0
0
0
0
0
0
0
0
0
0
0
0
0
0
0
0
0
0
0
0
0
0
0
0
0
0
0
0
0
0
0
0
0
0
0
0
0
0
0
0
0
0
0
0
0
0
0
0
0
0
0
0
0
0
0
0
0
0
0
0
0
0
0
0
0
0
0
0
0
0
0
0
0
0
0
0
0
0
0
0
0
0
0
0
0
0
0
0
0
0
0
0
0
0
0
0
0
0
0
0
0
0
0
0
0
0
0
0
0
0
0
0
0
0
0
0
0
0
0
0
0
0
0
0
0
0
0
0
0
0
0
0
0
0
0
0
0
0
0
0
0
0
0
0
0
0
0
0
0
0
0
0
0
0
0
0
0
0
0
0
0
0
0
0
0
0
0
0
0
0
0
0
0
0
0
0
0
0
0
0
0
0
0
0
0
0
0
0
0
0
0
0
0
0
0
0
0
0
0
0
0
0
0
0
0
0
0
0
0
0
0
0
0
0
0
0
0
0
0
0
0
0
0
0
0
0
0
0
0
0
0
0
0
0
0
0
0
0
0
0
0
0
0
0
0
0
0
0
0
0
0
0
0
0
0
0
0
0
0
0
0
0
0
0
0
0
0
0
0
0
0
0
0
0
0
0
0
0
0
0
0
0
0
0
0
0
0
0
0
0
0
0
0
0
0
0
0
0
0
0
0
0
0
0
0
0
0
0
0
0
0
0
0
0
0
0
0
0
0
0
0
0
0
0
0
0
0
0
0
0
0
0
0
0
0
0
0
0
0
0
0
0
0
0
0
0
0
0
0
0
0
0
0
0
0
0
0
0
0
0
0
0
0
0
0
0
0
0
0
0
0
0
0
0
0
0
0
0
0
0
0
0
0
0
0
0
0
0
0
0
0
0
0
0
0
0
0
0
0
0
0
0
0
0
0
0
0
0
0
0
0
0
0
0
0
0
0
0
0
0
0
0
0
0
0
0
0
0
0
0
0
0
0
0
0
0
0
0
0
0
0
0
0
0
0
0
0
0
0
0
0
0
0
0
0
0
0
0
0
0
0
0
0
0
0
0
0
0
0
0
0
0
0
0
0
0
0
0
0
0
0
0
0
0
0
0
0
0
0
0
0
0
0
0
0
0
0
0
0
0
0
0
0
0
0
0
0
0
0
0
0
0
0
0
0
0
0
0
0
0
0
0
0
0
0
0
0
0
0
0
0
0
0
0
0
0
0
0
0
0
0
0
0
0
0
0
0
0
0
0
0
0
0
0
0
0
0
0
0
0
0
0
0
0
0
0
0
0
0
0
0
0
0
0
0
0
0
0
0
0
0
0
0
0
0
0
0
0
0
0
0
0
0
0
0
0
0
0
0
0
0
0
0
0
0
0
0
0
0
0
0
0
0
0
0
0
0
0
0
0
0
0
0
0
0
0
0
0
0
0
0
0
0
0
0
0
0
0
0
0
0
0
0
0
0
0
0
0
0
0
0
0
0
0
0
0
0
0
0
0
0
0
0
0
0
0
0
0
0
0
0
0
0
0
0
0
0
0
0
0
0
0
0
0
0
0
0
0
0
0
0
0
0
0
0
0
0
0
0
0
0
0
0
0
0
0
0
0
0
0
0
0
0
0
0
0
0
0
0
0
0
0
0
0
0
0
0
0
0
0
0
0
0
0
0
0
0
0
0
0
0
0
0
0
0
0
0
0
0
0
0
0
0
0
0
0
0
0
0
0
0
0
0
0
0
0
0
0
0
0
0
0
0
0
0
0
0
0
0
0
0
0
0
0
0
0
0
0
0
0
0
0
0
0
0
0
0
0
0
0
0
0
0
0
0
0
0
0
0
0
0
0
0
0
0
0
0
0
0
0
0
0
0
0
0
0
0
0
0
0
0
0
0
0
0
0
0
0
0
0
0
0
0
0
0
0
0
0
0
0
0
0
0
0
0
0
0
0
0
0
0
0
0
0
0
0
0
0
0
0
0
0
0
0
0
0
0
0
0
0
0
0
0
0
0
0
0
0
0
0
0
0
0
0
0
0
0
0
0
0
0
0
0
0
0
0
0
0
0
0
0
0
0
0
0
0
0
0
0
0
0
0
0
0
0
0
0
0
0
0
0
0
0
0
0
0
0
0
0
0
0
0
0
0
0
0
0
0
0
0
0
0
0
0
0
0
0
0
0
0
0
0
0
0
0
0
0
0
0
0
0
0
0
0
0
0
0
0
0
0
0
0
0
0
0
0
0
0
0
0
0
0
0
0
0
0
0
0
0
0
0
0
0
0
0
0
0
0
0
0
0
0
0
0
0
0
0
0
0
0
0
0
0
0
0
0
0
0
0
0
0
0
0
0
0
0
0
0
0
0
0
0
0
0
0
0
0
0
0
0
0
0
0
0
0
0
0
0
0
0
0
0
0
0
0
0
0
0
0
0
0
0
0
0
0
0
0
0
0
0
0
0
0
0
0
0
0
0
0
0
0
0
0
0
0
0
0
0
0
0
0
0
0
0
0
0
0
0
0
0
0
0
0
0
0
0
0
0
0
0
0
0
0
0
0
0
0
0
0
0
0
0
0
0
0
0
0
0
0
0
0
0
0
0
0
0
0
0
0
0
0
0
0
0
0
0
0
0
0
0
0
0
0
0
0
0
0
0
0
0
0
0
0
0
0
0
0
0
0
0
0
0
0
0
0
0
0
0
0
0
0
0
0
0
0
0
0
0
0
0
0
0
0
0
0
0
0
0
0
0
0
0
0
0
0
0
0
0
0
0
0
0
0
0
0
0
0
0
0
0
0
0
0
0
0
0
0
0
0
0
0
0
0
0
0
0
0
0
0
0
0
0
0
0
0
0
0
0
0
0
0
0
0
9.28361414417e-10
-3.00569788681e-09
6.45392913165e-09
1.6694250438e-09
-8.44751713473e-09
1.82816530886e-08
1.66942474252e-09
-1.09079847475e-08
2.38777270754e-08
1.66942448288e-09
-1.09608591872e-08
2.43177373239e-08
1.66942409878e-09
-1.10137328025e-08
2.47577467858e-08
1.66942382771e-09
-1.10666056477e-08
2.51977555031e-08
9.28360863096e-10
-8.64139610027e-09
1.99045762443e-08
0
-3.09376564783e-09
7.19240462474e-09
0
0
0
0
0
0
0
0
0
0
0
0
0
0
0
0
0
0
0
0
0
0
0
0
0
0
0
0
0
0
0
0
2.68123038551e-09
-8.50410217472e-09
1.67962916432e-08
8.07008947701e-09
-3.13467450974e-08
6.86913492485e-08
1.08435670779e-08
-5.24192048619e-08
1.2327063517e-07
1.0843560396e-08
-5.92437513527e-08
1.44088171895e-07
1.08435536989e-08
-5.95306686772e-08
1.46871404307e-07
1.08435469881e-08
-5.9817564017e-08
1.49654615437e-07
1.08435403118e-08
-6.01044372521e-08
1.52437805324e-07
8.07005759018e-09
-5.36628735569e-08
1.35241113077e-07
2.68122181909e-09
-3.2349677353e-08
7.79049141517e-08
0
-8.83788110232e-09
1.96026401065e-08
0
0
0
0
0
0
0
0
0
0
0
0
0
0
0
0
0
0
0
0
0
0
0
0
0
0
9.57717879098e-10
-2.97633450698e-09
5.38830809335e-09
9.95887525393e-09
-2.56287749843e-08
6.34345341302e-08
2.15899830448e-08
-6.80066972862e-08
1.85846911637e-07
2.66714700985e-08
-1.00568813767e-07
2.8874594642e-07
2.66714944241e-08
-1.10693838514e-07
3.25177272301e-07
2.66715187503e-08
-1.11229587576e-07
3.31801649428e-07
2.66715430355e-08
-1.11765263032e-07
3.38425974886e-07
2.6671567444e-08
-1.12300864743e-07
3.45050248693e-07
2.1590053354e-08
-1.02967838597e-07
3.18866116836e-07
9.95886092985e-09
-7.02238699043e-08
2.13200275288e-07
9.57716140715e-10
-2.66641977659e-08
7.50682079057e-08
0
-3.12311438548e-09
6.61682872749e-09
0
0
0
0
0
0
0
0
0
0
0
0
0
0
0
0
0
0
0
0
0
0
0
2.70962476869e-09
-5.35219958838e-09
1.4317070688e-08
1.67979167479e-08
-3.44515038575e-08
1.03928914021e-07
3.22195800122e-08
-8.40254416981e-08
2.62526977861e-07
3.87239490029e-08
-1.20876378094e-07
3.84603790794e-07
3.87240551062e-08
-1.32246422784e-07
4.27996329127e-07
3.87241612755e-08
-1.32886482568e-07
4.37334720789e-07
3.87242675127e-08
-1.33526439025e-07
4.46673082684e-07
3.87243736381e-08
-1.34166292087e-07
4.56011414907e-07
3.22200130494e-08
-1.2376343851e-07
4.27974168002e-07
1.67980553642e-08
-8.67755682583e-08
3.04731409624e-07
2.70962514279e-09
-3.58567569889e-08
1.24805806301e-07
0
-5.61611726635e-09
1.77632806277e-08
0
0
0
0
0
0
0
0
0
0
0
0
0
0
0
0
0
0
0
0
0
0
0
3.52959415817e-09
-5.35218927414e-09
1.71073476859e-08
1.91670677464e-08
-3.44511350599e-08
1.09955447089e-07
3.58083466986e-08
-8.40233972224e-08
2.66981714313e-07
4.27797441615e-08
-1.20872211124e-07
3.86302973514e-07
4.27798677713e-08
-1.3224153563e-07
4.29327897085e-07
4.27799913984e-08
-1.32881766866e-07
4.39443327721e-07
4.27801150694e-08
-1.33521894667e-07
4.49558758328e-07
4.27802388023e-08
-1.34161919095e-07
4.59674188908e-07
3.58088749582e-08
-1.23759711491e-07
4.33531744917e-07
1.91672778687e-08
-8.67735444587e-08
3.13688311458e-07
3.52960339982e-09
-3.58563140384e-08
1.34029245463e-07
0
-5.61610397988e-09
2.15410390115e-08
0
0
0
0
0
0
0
0
0
0
0
0
0
0
0
0
0
0
0
0
0
0
0
3.58246190685e-09
-5.35217884079e-09
1.56337180517e-08
1.94537489299e-08
-3.44507662347e-08
1.00647225441e-07
3.63431458533e-08
-8.40213527811e-08
2.44828375792e-07
4.34182475707e-08
-1.20868044129e-07
3.55039219744e-07
4.3418319541e-08
-1.32236648424e-07
3.95436911786e-07
4.34183914534e-08
-1.32877051093e-07
4.05552342402e-07
4.34184634069e-08
-1.3351735026e-07
4.15667773025e-07
4.34185353684e-08
-1.34157546136e-07
4.25783203634e-07
3.63434530407e-08
-1.23755984417e-07
4.02287123155e-07
1.94538709024e-08
-8.67715206116e-08
2.9156827822e-07
3.58246728603e-09
-3.58558711485e-08
1.24734745985e-07
0
-5.61609075446e-09
2.00679133851e-08
0
0
0
0
0
0
0
0
0
0
0
0
0
0
0
0
0
0
0
0
0
0
0
3.63533222881e-09
-5.35216851977e-09
1.41600858347e-08
1.97405032796e-08
-3.4450397492e-08
9.1338933228e-08
3.68781894711e-08
-8.40193083789e-08
2.2267486598e-07
4.40570937759e-08
-1.20863877112e-07
3.23775367588e-07
4.40571140785e-08
-1.32231761325e-07
3.61545926505e-07
4.40571343352e-08
-1.32872335347e-07
3.71661357099e-07
4.40571545979e-08
-1.33512805888e-07
3.81776787703e-07
4.40571748495e-08
-1.34153173187e-07
3.91892218354e-07
3.68782755779e-08
-1.23752257464e-07
3.71042599768e-07
1.97405369586e-08
-8.67694968202e-08
2.69448416188e-07
3.63533374784e-09
-3.58554281407e-08
1.15440317009e-07
0
-5.61607743431e-09
1.85947903314e-08
0
0
0
0
0
0
0
0
0
0
0
0
0
0
0
0
0
0
0
0
0
0
0
3.68820519405e-09
-5.35215818432e-09
1.26864510401e-08
2.00273307847e-08
-3.44500287017e-08
8.2030570502e-08
3.74134774986e-08
-8.40172639156e-08
2.00521184925e-07
4.4696282796e-08
-1.20859710161e-07
2.92511417055e-07
4.46962514118e-08
-1.32226874127e-07
3.27654941219e-07
4.46962199475e-08
-1.32867619475e-07
3.37770371817e-07
4.46961885524e-08
-1.33508261565e-07
3.47885802422e-07
4.469615713e-08
-1.34148800215e-07
3.58001233036e-07
3.7413342511e-08
-1.23748530394e-07
3.39798174745e-07
2.00272761676e-08
-8.67674729688e-08
2.47328725429e-07
3.68820277157e-09
-3.58549852303e-08
1.06145958608e-07
0
-5.61606418386e-09
1.71216698684e-08
0
0
0
0
0
0
0
0
0
0
0
0
0
0
0
0
0
0
0
0
0
0
0
2.90346186128e-09
-2.9763152236e-09
8.88240523693e-09
1.80406319637e-08
-2.56275261545e-08
6.39163729154e-08
3.4615200064e-08
-6.79985950576e-08
1.61914451538e-07
4.1605677361e-08
-1.00551262052e-07
2.39656589821e-07
4.16056497108e-08
-1.1067293724e-07
2.70097218579e-07
4.16056221413e-08
-1.11209419549e-07
2.79415391758e-07
4.16055944289e-08
-1.11745828224e-07
2.88733594551e-07
4.16055667786e-08
-1.12282163152e-07
2.98051827045e-07
3.46150977477e-08
-1.02952044933e-07
2.83023407548e-07
1.80406176484e-08
-7.0215668713e-08
2.04192170957e-07
2.90346572715e-09
-2.66626336774e-08
8.48258574197e-08
0
-3.12308964195e-09
1.23288617311e-08
0
0
0
0
0
0
0
0
0
0
0
0
0
0
0
0
0
0
0
0
0
0
0
1.04576882829e-09
0
2.91495368243e-09
1.09609665374e-08
-8.50390410953e-09
3.26339371712e-08
2.38040884275e-08
-3.13444146138e-08
9.45286976922e-08
2.94171288665e-08
-5.24126499162e-08
1.4786690042e-07
2.94171449953e-08
-5.92354164921e-08
1.69277052088e-07
2.9417161059e-08
-5.95226264635e-08
1.75866234181e-07
2.94171772473e-08
-5.98098143227e-08
1.82455467855e-07
2.94171932824e-08
-6.00969801648e-08
1.89044753164e-07
2.38041799063e-08
-5.36568169969e-08
1.77904967892e-07
1.09610298185e-08
-3.23470776154e-08
1.21877793949e-07
1.04577130139e-09
-8.83760798964e-09
4.42708977119e-08
0
0
4.1432411824e-09
0
0
0
0
0
0
0
0
0
0
0
0
0
0
0
0
0
0
0
0
0
0
0
0
0
0
3.01488030314e-09
0
7.40282069468e-09
9.10466022444e-09
-3.00566837351e-09
2.98027017975e-08
1.22474998545e-08
-8.44730553844e-09
5.35203855281e-08
1.22475147041e-08
-1.09076158928e-08
6.36719059242e-08
1.22475295359e-08
-1.09605033063e-08
6.64406384656e-08
1.22475444275e-08
-1.10133898445e-08
6.92093922541e-08
1.22475592191e-08
-1.10662756728e-08
7.19781673263e-08
9.1047203718e-09
-8.6411720363e-09
6.54551107781e-08
3.01489366886e-09
-3.09372182149e-09
3.90107536972e-08
0
0
1.02090244492e-08
0
0
0
0
0
0
0
0
0
0
0
0
0
0
0
0
0
0
0
0
0
0
0
0
0
0
0
0
0
0
0
0
1.07512527093e-09
0
2.33917655015e-09
1.93329474324e-09
0
6.7415794088e-09
1.93329529265e-09
0
9.0316201987e-09
1.93329584085e-09
0
9.47109791653e-09
1.93329642401e-09
0
9.91057638722e-09
1.93329688979e-09
0
1.03500556857e-08
1.07512629888e-09
0
8.36414312855e-09
0
0
3.07784912376e-09
0
0
0
0
0
0
0
0
0
0
0
0
0
0
0
0
0
0
0
0
0
0
0
0
0
0
0
0
0
0
0
0
0
0
0
0
0
0
0
0
0
0
0
0
0
0
0
0
0
0
0
0
0
0
0
0
0
0
0
0
0
0
0
0
0
0
0
0
0
0
0
0
0
0
0
0
0
0
0
0
0
0
0
0
0
0
0
0
0
0
0
0
0
0
0
0
0
0
0
0
0
0
0
0
0
0
0
0
0
0
0
0
0
0
0
0
0
0
0
0
0
0
0
0
0
0
0
0
0
0
0
0
0
0
0
0
0
0
0
0
0
0
0
0
0
0
0
0
0
0
0
0
0
0
0
0
0
0
0
0
0
0
0
0
0
0
0
0
0
0
0
0
0
0
0
0
0
0
0
0
0
0
0
0
0
0
0
0
0
0
0
0
0
0
0
0
0
0
0
0
0
0
0
0
0
0
0
0
0
0
0
0
0
0
0
0
0
0
0
0
0
0
0
0
0
0
0
0
0
0
0
0
0
0
0
0
0
0
0
0
0
0
0
0
0
0
0
0
0
0
0
0
0
0
0
0
0
0
0
0
0
0
0
0
0
0
0
0
0
0
0
0
0
0
0
0
0
0
0
0
0
0
0
0
0
0
0
0
0
0
0
0
0
0
0
0
0
0
0
0
0
0
0
0
0
0
0
0
0
0
0
0
0
0
0
0
0
0
0
0
0
0
0
0
0
0
0
0
0
0
0
0
0
0
0
0
0
0
0
0
0
0
0
0
0
0
0
0
0
0
0
0
0
0
0
0
0
0
0
0
0
0
0
0
0
0
0
0
0
0
0
0
0
0
0
0
0
0
0
0
0
0
0
0
0
0
0
0
0
0
0
0
0
0
0
0
0
0
0
0
0
0
0
0
0
0
0
0
0
0
0
0
0
0
0
0
0
0
0
0
0
0
0
0
0
1.42240508262e-09
-4.63942025594e-09
1.21088350125e-08
4.51874246504e-09
-1.95129595677e-08
5.11231719499e-08
5.97928169194e-09
-3.47597527841e-08
9.15937397201e-08
5.97928103241e-09
-3.98417636591e-08
1.06027194618e-07
5.97928028656e-09
-4.00650287075e-08
1.07860290892e-07
5.97927956684e-09
-4.02882802138e-08
1.09693373648e-07
5.97927882617e-09
-4.05115182438e-08
1.11526442893e-07
4.51873997373e-09
-3.57117756569e-08
9.94999668443e-08
1.42240467317e-09
-2.02288550697e-08
5.71378304869e-08
0
-4.85056327742e-09
1.38783431209e-08
0
0
0
0
0
0
0
0
0
0
0
0
0
0
0
0
0
0
0
0
0
0
0
0
0
0
3.33910468954e-09
-1.06320122195e-08
2.56210954293e-08
1.34634025141e-08
-4.93623658167e-08
1.30593983764e-07
2.59956331158e-08
-1.08701818451e-07
3.0336582661e-07
3.1688406867e-08
-1.54176884721e-07
4.39913877605e-07
3.16884320232e-08
-1.6893746501e-07
4.87481634203e-07
3.16884572092e-08
-1.69873127547e-07
4.96223157319e-07
3.16884824206e-08
-1.70808601036e-07
5.04964504103e-07
3.16885075629e-08
-1.71743885479e-07
5.13705674532e-07
2.5995714858e-08
-1.58401382066e-07
4.80356890089e-07
1.34633805109e-08
-1.12819169555e-07
3.43043259586e-07
3.3390956612e-09
-5.17314290901e-08
1.52374522509e-07
0
-1.12401390925e-08
3.07232383568e-08
0
0
0
0
0
0
0
0
0
0
0
0
0
0
0
0
0
0
0
0
1.47518804178e-09
-4.58661051621e-09
1.01953456523e-08
1.56515625402e-08
-4.29296727071e-08
1.2053429379e-07
4.33301472851e-08
-1.36864371274e-07
3.9644480902e-07
7.14719803025e-08
-2.57215355938e-07
7.32608634451e-07
8.33234888595e-08
-3.42715660415e-07
9.64612870929e-07
8.33237683639e-08
-3.68976319353e-07
1.04604743007e-06
8.33240477564e-08
-3.7098753961e-07
1.06576597119e-06
8.33243272103e-08
-3.72998129233e-07
1.08548404945e-06
8.33246066003e-08
-3.75008088122e-07
1.10520166478e-06
7.1473263076e-08
-3.51986711004e-07
1.0596495236e-06
4.33308044946e-08
-2.66880396707e-07
8.3757749242e-07
1.56515834883e-08
-1.43473552876e-07
4.69736981976e-07
1.47518439473e-09
-4.54371769966e-08
1.46949928526e-07
0
-4.90332420128e-09
1.28450311885e-08
0
0
0
0
0
0
0
0
0
0
0
0
0
0
0
0
0
6.2614174624e-09
-1.45710077112e-08
4.00466691934e-08
3.48101932571e-08
-8.29874468873e-08
2.550021294e-07
8.22499563797e-08
-2.25928401441e-07
6.65185213873e-07
1.26455908252e-07
-3.95743610716e-07
1.10083104612e-06
1.44164105684e-07
-5.09892910225e-07
1.391378895e-06
1.44164981979e-07
-5.44460294297e-07
1.49655075778e-06
1.4416585825e-07
-5.47407533315e-07
1.52665023028e-06
1.44166734498e-07
-5.50353649647e-07
1.5567491591e-06
1.44167610777e-07
-5.53298643255e-07
1.58684754422e-06
1.26460201147e-07
-5.23606496556e-07
1.53966594996e-06
8.22528466993e-08
-4.10547411852e-07
1.27396036093e-06
3.48109763592e-08
-2.3680347184e-07
8.01269515589e-07
6.26140596136e-09
-8.78750778571e-08
3.16972268134e-07
0
-1.557670149e-08
5.11596256187e-08
0
0
0
0
0
0
0
0
0
0
0
0
0
0
0
0
0
1.12606571658e-08
-1.92805207127e-08
6.59230836171e-08
4.98813907078e-08
-1.01191121585e-07
3.33703574703e-07
1.10716548257e-07
-2.63445911031e-07
7.86460064066e-07
1.64620793427e-07
-4.51223104033e-07
1.24637583057e-06
1.8585455599e-07
-5.7571901625e-07
1.55101101556e-06
1.85856120501e-07
-6.1329657925e-07
1.66469377945e-06
1.85857684869e-07
-6.16611732755e-07
1.70085970818e-06
1.85859249282e-07
-6.19925549905e-07
1.73702539358e-06
1.85860813694e-07
-6.23238030601e-07
1.77319083562e-06
1.64628639315e-07
-5.91183334966e-07
1.73108620448e-06
1.10722323696e-07
-4.68083285631e-07
1.4616720632e-06
4.98834529894e-08
-2.761136848e-07
9.63744881543e-07
1.1260781341e-08
-1.07153256991e-07
4.23111907805e-07
0
-2.06109787357e-08
8.5642523445e-08
0
0
0
0
0
0
0
0
0
0
0
0
0
0
0
0
0
1.30469654018e-08
-1.92803263085e-08
6.91104225209e-08
5.52517301878e-08
-1.01187380384e-07
3.32737181882e-07
1.20490654119e-07
-2.63428206392e-07
7.65198933933e-07
1.77679771729e-07
-4.51182959493e-07
1.20112845784e-06
2.00122459232e-07
-5.75661004549e-07
1.49125957463e-06
2.00123996847e-07
-6.13233983078e-07
1.60227204708e-06
2.00125534442e-07
-6.16551352465e-07
1.64002509562e-06
2.00127072076e-07
-6.19867385475e-07
1.67777814418e-06
2.00128609657e-07
-6.23182082043e-07
1.71553119275e-06
1.7768753054e-07
-5.91132386287e-07
1.67986992928e-06
1.20496498965e-07
-4.68046534238e-07
1.42807950655e-06
5.52539602467e-08
-2.7609668708e-07
9.54174679152e-07
1.30471583894e-08
-1.07149413706e-07
4.30368156208e-07
0
-2.06107640085e-08
9.16013922463e-08
0
0
0
0
0
0
0
0
0
0
0
0
0
0
0
0
0
1.32701441796e-08
-1.92801318833e-08
6.29792802247e-08
5.61857909456e-08
-1.01183639185e-07
3.03588394346e-07
1.22495260446e-07
-2.63410501666e-07
6.99502028727e-07
1.80612867829e-07
-4.51142815031e-07
1.10072066208e-06
2.03417907377e-07
-5.75602992791e-07
1.37028999305e-06
2.03418776788e-07
-6.13171386816e-07
1.47578969505e-06
2.03419646204e-07
-6.16490972055e-07
1.5135427436e-06
2.03420515608e-07
-6.19809220879e-07
1.55129579215e-06
2.03421384995e-07
-6.23126133368e-07
1.5890488407e-06
1.80617258493e-07
-5.91081437425e-07
1.55905731179e-06
1.22498582512e-07
-4.68009782795e-07
1.32802242156e-06
5.61870757301e-08
-2.76079689351e-07
8.88776395317e-07
1.32702561408e-08
-1.071455704e-07
4.01333138669e-07
0
-2.06105492273e-08
8.54789688852e-08
0
0
0
0
0
0
0
0
0
0
0
0
0
0
0
0
0
1.34933677567e-08
-1.92799374491e-08
5.68480931248e-08
5.71204786674e-08
-1.0117989793e-07
2.74439022028e-07
1.24501958268e-07
-2.6339279703e-07
6.33803588494e-07
1.8354968709e-07
-4.51102670496e-07
1.00031106338e-06
2.06717787182e-07
-5.75544981019e-07
1.24931960453e-06
2.06717988442e-07
-6.13108790604e-07
1.349307343e-06
2.06718189583e-07
-6.16430591656e-07
1.38706039158e-06
2.0671839087e-07
-6.19751056475e-07
1.42481344011e-06
2.0671859199e-07
-6.23070184685e-07
1.46256648869e-06
1.83550709759e-07
-5.91030488715e-07
1.43824550125e-06
1.24502757747e-07
-4.67973031291e-07
1.22796713951e-06
5.71208180896e-08
-2.76062691688e-07
8.23379646435e-07
1.34933985456e-08
-1.07141727014e-07
3.72298705879e-07
0
-2.06103344412e-08
7.9356590409e-08
0
0
0
0
0
0
0
0
0
0
0
0
0
0
0
0
0
1.37166361283e-08
-1.92797430387e-08
5.07168612077e-08
5.80557933806e-08
-1.01176156657e-07
2.45289064981e-07
1.26510747475e-07
-2.63375092306e-07
5.68103613221e-07
1.8649022947e-07
-4.51062525937e-07
8.998996617e-07
2.10022098655e-07
-5.75486969248e-07
1.12834840899e-06
2.10021631748e-07
-6.13046194293e-07
1.22282499095e-06
2.1002116479e-07
-6.1637021124e-07
1.26057803953e-06
2.10020697703e-07
-6.19692891878e-07
1.29833108806e-06
2.10020230777e-07
-6.23014236066e-07
1.33608413663e-06
1.86487884001e-07
-5.9097953992e-07
1.31743449765e-06
1.26509024276e-07
-4.67936279814e-07
1.12791366039e-06
5.8055187613e-08
-2.76045693977e-07
7.5798443264e-07
1.37165859095e-08
-1.07137883772e-07
3.43264857871e-07
0
-2.06101197395e-08
7.32342566607e-08
0
0
0
0
0
0
0
0
0
0
0
0
0
0
0
0
0
1.22122122714e-08
-1.45703369715e-08
3.94824247456e-08
5.40996494311e-08
-8.29713634033e-08
1.98940481078e-07
1.19962975751e-07
-2.25844677581e-07
4.70316209168e-07
1.78282740532e-07
-3.95545448372e-07
7.52986838751e-07
2.0124805814e-07
-5.09601614219e-07
9.50858316304e-07
2.01247478919e-07
-5.44144673799e-07
1.03556554275e-06
2.01246899758e-07
-5.47103082219e-07
1.07156551471e-06
2.01246320463e-07
-5.50060367918e-07
1.10756572999e-06
2.01245741336e-07
-5.53016530956e-07
1.14356618858e-06
1.7827985908e-07
-5.23350542995e-07
1.1309018571e-06
1.19960933176e-07
-4.10365709487e-07
9.69121567713e-07
5.40990090477e-08
-2.36722778054e-07
6.48449936518e-07
1.22121990613e-08
-8.78583577049e-08
2.88674860075e-07
0
-1.55759606195e-08
5.92192605805e-08
0
0
0
0
0
0
0
0
0
0
0
0
0
0
0
0
0
6.97681909325e-09
-4.58652068605e-09
1.99245288702e-08
3.89198742635e-08
-4.29229883221e-08
1.22784367193e-07
9.18848517412e-08
-1.36814671578e-07
3.16297837713e-07
1.41199297627e-07
-2.57077695549e-07
5.25893186285e-07
1.60946622141e-07
-3.42500403522e-07
6.75994497821e-07
1.60946445739e-07
-3.68739580279e-07
7.42377462228e-07
1.60946269293e-07
-3.70759166401e-07
7.72106170115e-07
1.60946092927e-07
-3.7277812177e-07
8.01835421709e-07
1.60945916531e-07
-3.7479644644e-07
8.31565216989e-07
1.41198479946e-07
-3.51797204077e-07
8.23340724141e-07
9.18844368737e-08
-2.66753344837e-07
6.98952953782e-07
3.89199023467e-08
-1.43424839471e-07
4.52622185587e-07
6.97686991486e-09
-4.54298254267e-08
1.84851242339e-07
0
-4.90322490057e-09
3.10337184454e-08
0
0
0
0
0
0
0
0
0
0
0
0
0
0
0
0
0
1.68627617803e-09
0
4.26956419235e-09
1.80172934179e-08
-1.06314432064e-08
4.78222855131e-08
4.9922512272e-08
-4.93522136168e-08
1.52505232537e-07
8.23099830203e-08
-1.08659228211e-07
2.80332697451e-07
9.59435786847e-08
-1.54098914075e-07
3.75438256129e-07
9.59436221496e-08
-1.68848369778e-07
4.18173257179e-07
9.59436657113e-08
-1.69787167259e-07
4.37576156888e-07
9.59437092186e-08
-1.7072577571e-07
4.56979519525e-07
9.59437527027e-08
-1.71664194907e-07
4.76383345049e-07
8.23102430561e-08
-1.58332304131e-07
4.69546913382e-07
4.99228031254e-08
-1.12778959397e-07
3.84965701018e-07
1.80174816019e-08
-5.17206618686e-08
2.25770238936e-07
1.68628270383e-09
-1.12394626351e-08
7.42383734257e-08
0
0
6.91848336142e-09
0
0
0
0
0
0
0
0
0
0
0
0
0
0
0
0
0
0
0
0
3.94694944396e-09
0
8.54597244221e-09
1.59674572796e-08
-4.63929583041e-09
4.24067853522e-08
3.08733963633e-08
-1.95110874656e-08
9.68512082113e-08
3.7637142532e-08
-3.47538854391e-08
1.42098669536e-07
3.7637191138e-08
-3.98341063791e-08
1.62381692367e-07
3.76372397185e-08
-4.00576402314e-08
1.7100298318e-07
3.76372883337e-08
-4.02811606148e-08
1.79624450362e-07
3.76373369574e-08
-4.05046675212e-08
1.88246093862e-07
3.08736373659e-08
-3.570635511e-08
1.82187638998e-07
1.59676208261e-08
-2.02267656354e-08
1.36403657023e-07
3.94697112812e-09
-4.85040390584e-09
6.41764813096e-08
0
0
1.36477327812e-08
0
0
0
0
0
0
0
0
0
0
0
0
0
0
0
0
0
0
0
0
0
0
0
0
0
0
1.73906421449e-09
0
3.23560323143e-09
5.52390845469e-09
0
1.39444898116e-08
7.30884766152e-09
0
2.56483081528e-08
7.30885256468e-09
0
3.08256172394e-08
7.30885744474e-09
0
3.26495006919e-08
7.30886235484e-09
0
3.44733976571e-08
7.30886724073e-09
0
3.62973081432e-08
5.5239252813e-09
0
3.35350848416e-08
1.7390665042e-09
0
1.99614830161e-08
0
0
5.00573251267e-09
0
0
0
0
0
0
0
0
0
0
0
0
0
0
0
0
0
0
0
0
0
0
0
0
0
0
0
0
0
0
0
0
0
0
0
0
0
0
0
0
0
0
0
0
0
0
0
0
0
0
0
0
0
0
0
0
0
0
0
0
0
0
0
0
0
0
0
0
0
0
0
0
0
0
0
0
0
0
0
0
0
0
0
0
0
0
0
0
0
0
0
0
0
0
0
0
0
0
0
0
0
0
0
0
0
0
0
0
0
0
0
0
0
0
0
0
0
0
0
0
0
0
0
0
0
0
0
0
0
0
0
0
0
0
0
0
0
0
0
0
0
0
0
0
0
0
0
0
0
0
0
0
0
0
0
0
0
0
0
0
0
0
0
0
0
0
0
0
0
0
0
0
0
0
0
0
0
0
0
0
0
0
0
0
0
0
0
0
0
0
0
0
0
0
0
0
0
0
0
0
0
0
0
0
0
0
0
0
0
0
0
0
0
0
0
0
0
0
0
0
0
0
0
0
0
0
0
0
0
0
0
0
0
0
0
0
0
0
0
0
0
0
0
0
0
0
0
0
0
0
0
0
0
0
0
0
0
0
0
0
0
0
0
0
0
0
0
0
0
0
0
0
0
0
0
0
0
0
0
0
0
0
0
0
0
0
0
0
0
0
0
0
0
0
0
0
0
0
0
0
0
0
0
0
1.1753860611e-09
-3.90021680718e-09
1.28438449799e-08
3.73411416823e-09
-1.64177574987e-08
5.41549635114e-08
4.9411183386e-09
-2.92719004526e-08
9.68849101889e-08
4.94112209272e-09
-3.35846423619e-08
1.1202356066e-07
4.94112586773e-09
-3.38078871122e-08
1.13856636638e-07
4.94112969628e-09
-3.40311183611e-08
1.15689699152e-07
4.94113342114e-09
-3.42543360852e-08
1.17522748106e-07
3.73412719714e-09
-3.02238878437e-08
1.04778809959e-07
1.17538779288e-09
-1.71336671949e-08
6.01546740455e-08
0
-4.11136217793e-09
1.46116825869e-08
0
0
0
0
0
0
0
0
0
0
0
0
0
0
0
0
0
0
0
0
0
0
0
7.26532577764e-11
-2.32592118187e-10
7.07110802315e-10
5.0519268727e-09
-1.65211005802e-08
5.02626590305e-08
1.69680923321e-08
-6.80632134554e-08
2.03487486744e-07
3.11878673498e-08
-1.42938288795e-07
4.21229461032e-07
3.72880308582e-08
-1.992380764e-07
5.86004700231e-07
3.7288069821e-08
-2.169113567e-07
6.42920312488e-07
3.72881087805e-08
-2.18304808524e-07
6.53809022265e-07
3.72881477241e-08
-2.19697949642e-07
6.6469742135e-07
3.72881866976e-08
-2.21090780061e-07
6.75585509705e-07
3.11880443203e-08
-2.05587191467e-07
6.36865421658e-07
1.69681861939e-08
-1.49260699584e-07
4.73354248251e-07
5.05194209263e-09
-7.19297022101e-08
2.35820890717e-07
7.26532205566e-11
-1.76492712107e-08
5.97245825293e-08
0
-2.51742810656e-10
8.67175313105e-10
0
0
0
0
0
0
0
0
0
0
0
0
0
0
0
0
0
5.23647278437e-09
-1.61740336289e-08
4.62772786406e-08
2.8747749436e-08
-9.10419498414e-08
2.71990869437e-07
6.75854427917e-08
-2.4055015216e-07
7.04375728887e-07
1.03388916923e-07
-4.09933389292e-07
1.1742201783e-06
1.17670205463e-07
-5.20867455528e-07
1.48689907187e-06
1.17670548098e-07
-5.54576205109e-07
1.59652200881e-06
1.17670890776e-07
-5.5807099577e-07
1.62472652143e-06
1.1767123346e-07
-5.61564536558e-07
1.65292991854e-06
1.17671576015e-07
-5.65056827449e-07
1.68113220012e-06
1.03390597555e-07
-5.372067807e-07
1.62436516328e-06
6.75865795681e-08
-4.27853386043e-07
1.33272060179e-06
2.8748055598e-08
-2.5409977885e-07
8.28070620609e-07
5.23646665266e-09
-9.73407815569e-08
3.29407855286e-07
0
-1.75045763873e-08
5.75755928695e-08
0
0
0
0
0
0
0
0
0
0
0
0
0
0
1.25455766122e-09
-3.82100004879e-09
9.97361160197e-09
2.17934144754e-08
-5.44195411808e-08
1.73367416136e-07
7.68010920477e-08
-2.14416360573e-07
6.44247996074e-07
1.49319156593e-07
-4.68324164786e-07
1.32742810198e-06
2.08784539789e-07
-7.22852399329e-07
1.98751182921e-06
2.31521663899e-07
-8.82027900058e-07
2.41339330441e-06
2.31523044091e-07
-9.3006502008e-07
2.56875874432e-06
2.31524424263e-07
-9.35878502326e-07
2.61676732694e-06
2.31525804501e-07
-9.41689351835e-07
2.66477406384e-06
2.31527184647e-07
-9.47497568509e-07
2.71277895509e-06
2.08791626278e-07
-9.09507451662e-07
2.65339597749e-06
1.49324834016e-07
-7.5427954562e-07
2.28133872969e-06
7.68036033572e-08
-4.94572089228e-07
1.58532968698e-06
2.17937203682e-08
-2.29189201359e-07
7.95697535846e-07
1.2545552465e-09
-5.88834631565e-08
2.19586199688e-07
0
-4.19050422857e-09
1.30617132448e-08
0
0
0
0
0
0
0
0
0
0
0
5.3375410119e-09
-1.21389698082e-08
3.91206984341e-08
4.62800971818e-08
-1.00150392672e-07
3.25611754779e-07
1.32400595071e-07
-3.28281287044e-07
9.69471396755e-07
2.33233318766e-07
-6.55170171708e-07
1.79059653073e-06
3.12051760066e-07
-9.67485889466e-07
2.5482666626e-06
3.41583906668e-07
-1.15869137431e-06
3.03365358483e-06
3.41587119305e-07
-1.21626826442e-06
3.21802335804e-06
3.41590331795e-07
-1.22384634026e-06
3.28245140882e-06
3.41593544405e-07
-1.23142057119e-06
3.34687770392e-06
3.41596757003e-07
-1.23899095744e-06
3.41130224325e-06
3.12068642484e-07
-1.19468944104e-06
3.36084971356e-06
2.33247970425e-07
-1.00944916626e-06
2.96221167271e-06
1.32408447025e-07
-6.91804986913e-07
2.17549614787e-06
4.62819210969e-08
-3.50845958035e-07
1.22254149267e-06
5.3375438486e-09
-1.0834766089e-07
4.21828070178e-07
0
-1.33123474925e-08
5.20404127259e-08
0
0
0
0
0
0
0
0
0
0
0
9.6225363203e-09
-1.60624995108e-08
6.43266569111e-08
6.5256553879e-08
-1.19773058451e-07
4.07883953941e-07
1.7024263342e-07
-3.73692061791e-07
1.09826857458e-06
2.88034360884e-07
-7.26559605213e-07
1.93732982221e-06
3.78263114275e-07
-1.05904380703e-06
2.69807468051e-06
4.11749739324e-07
-1.26123187535e-06
3.18719937243e-06
4.11754896049e-07
-1.3220781069e-06
3.37984799847e-06
4.11760052881e-07
-1.33031372178e-06
3.45316870884e-06
4.1176520967e-07
-1.33854501709e-06
3.52648870112e-06
4.11770366456e-07
-1.34677199289e-06
3.59980797528e-06
3.78290517042e-07
-1.30040440491e-06
3.56267848649e-06
2.8805902419e-07
-1.10495956322e-06
3.18069486219e-06
1.70256936837e-07
-7.67164142875e-07
2.39761103147e-06
6.52606519531e-08
-3.9936115046e-07
1.41529631656e-06
9.62269470426e-09
-1.29570066933e-07
5.40886017608e-07
0
-1.76148525839e-08
8.72018580134e-08
0
0
0
0
0
0
0
0
0
0
0
1.11792087485e-08
-1.60622901751e-08
6.73209437421e-08
7.19281106624e-08
-1.1976730589e-07
4.0202271344e-07
1.83507783828e-07
-3.73659531708e-07
1.05556401929e-06
3.0747631295e-07
-7.26473494461e-07
1.8419344009e-06
4.01958696357e-07
-1.05889501059e-06
2.55450525911e-06