/*--------------------------------*- C++ -*----------------------------------*\
| =========                 |                                                 |
| \\      /  F ield         | OpenFOAM: The Open Source CFD Toolbox           |
|  \\    /   O peration     | Version:  3.0.1                                 |
|   \\  /    A nd           | Web:      www.OpenFOAM.org                      |
|    \\/     M anipulation  |                                                 |
\*---------------------------------------------------------------------------*/
FoamFile
{
    version     2.0;
    format      ascii;
    class       surfaceScalarField;
    location    "1.6";
    object      alphaPhi;
}
// * * * * * * * * * * * * * * * * * * * * * * * * * * * * * * * * * * * * * //

dimensions      [0 3 -1 0 0 0 0];

internalField   nonuniform List<scalar> 
22672
(
2.8796243764e-32
2.33453397894e-32
-7.76282810537e-29
1.37627041835e-30
3.21435448416e-31
-1.21494219214e-27
5.03005924921e-30
6.84163267314e-31
-2.85405063279e-27
8.76757963668e-30
1.08619200556e-30
-3.82741813017e-27
1.32227558944e-29
1.94081462391e-30
-5.38634181888e-27
8.08836729804e-30
1.56354632481e-30
-3.06094095843e-27
2.99062825195e-30
8.04425942961e-31
-1.46722409118e-27
2.87850227431e-31
1.17722719859e-31
-2.50588306854e-28
4.79700115885e-33
3.67789845595e-33
-1.62961520084e-29
2.0508728537e-37
8.9630018044e-37
3.76737150285e-38
-1.0565893923e-33
2.16126408129e-37
1.11013904827e-38
-1.40004650255e-31
1.19652804264e-33
-7.48740977002e-30
-1.42508087345e-30
6.63358165061e-32
-1.37876843893e-28
-4.4988993744e-30
4.03591081437e-31
-7.32641249969e-28
-1.01369264758e-29
8.6486838657e-31
-1.7653417825e-27
-9.7810522997e-30
1.42335881591e-30
-4.23432178065e-27
-5.68795210483e-30
1.14259460033e-30
-4.66003274883e-27
-1.71210376783e-30
7.5038645681e-31
-3.67874540285e-27
-4.77148615532e-32
4.1101354723e-31
-1.93919061862e-27
4.53631060817e-32
-1.71600769393e-28
4.13902188738e-31
1.15130952079e-30
-1.18634074862e-27
9.43933922222e-30
7.98474965582e-30
-8.29289323758e-27
3.8588156521e-29
2.01025261341e-29
-2.000559607e-26
7.94674947107e-29
3.59102542082e-29
-2.92664058927e-26
9.67776393741e-29
4.59433760557e-29
-3.19137667096e-26
4.69775973851e-29
2.61820679361e-29
-1.5734782948e-26
9.42475801959e-30
6.73018196389e-30
-3.60330956138e-27
1.07167265042e-30
1.10354927061e-30
-5.54372566284e-28
8.37656943967e-32
1.58910972537e-31
-8.06806496871e-29
3.05171934892e-33
3.89228067767e-32
-2.07672431398e-29
-5.32182533797e-32
3.93198619398e-32
-2.08408725455e-29
-5.03504588697e-31
1.38654402436e-31
-7.06782913009e-29
-2.97101549472e-30
5.88556702635e-31
-3.03967762403e-28
-1.40708239735e-29
2.25468270262e-30
-1.25205053826e-27
-4.28658947689e-29
8.09037666638e-30
-5.06852683671e-27
-6.27581123144e-29
2.08213009753e-29
-1.51951451839e-26
-4.0645028103e-29
2.93039885504e-29
-2.49694773809e-26
-1.01637572091e-29
2.24949957145e-29
-2.27650885957e-26
-4.38815367718e-31
9.61130199007e-30
-1.04637495237e-26
1.63100712924e-30
-1.93812782815e-27
8.43543359365e-31
4.13058782393e-30
-2.64619371774e-27
2.28509665227e-29
3.28103177359e-29
-1.9403955957e-26
9.70119773185e-29
8.56384270806e-29
-4.4990195767e-26
1.43772705016e-28
1.08223845308e-28
-4.75823675281e-26
6.60988840892e-29
5.0641428294e-29
-1.96066386206e-26
6.99577501757e-30
6.09389697972e-30
-2.01970658227e-27
3.38578026868e-31
3.68925937566e-31
-9.99322208002e-29
1.58525865776e-32
2.46062240878e-32
-5.54924324676e-30
5.22315276805e-34
1.50921928911e-33
-2.76259845032e-31
9.48224113194e-36
2.58477298931e-34
-4.13104468875e-32
-4.0086943858e-34
2.63885803605e-34
-4.30756555534e-32
-9.57935476449e-33
1.42130075212e-33
-2.71316471915e-31
-1.29456397647e-31
1.60918484566e-32
-3.81894444237e-30
-1.37251461658e-30
1.46599807293e-31
-4.04077229401e-29
-1.34277178775e-29
1.22510415058e-30
-3.99988995216e-28
-5.58762991193e-29
1.05679142523e-29
-4.14130231208e-27
-7.01672489881e-29
4.39153558151e-29
-2.00648045934e-26
-2.31739513015e-29
6.66020553461e-29
-3.41996456885e-26
-8.05362772028e-31
3.76751919694e-29
-2.24270233792e-26
5.46366804435e-30
-3.77615479844e-27
1.26886618421e-30
7.3626392322e-30
-3.8928893386e-27
4.08612123001e-29
7.07575476543e-29
-3.00534662213e-26
1.26032978497e-28
1.35042142088e-28
-5.06068658343e-26
6.74854766549e-29
6.138001119e-29
-2.03258708046e-26
5.58649410412e-30
5.11252669535e-30
-1.40106338127e-27
2.5279727259e-31
2.59882236389e-31
-4.6426054788e-29
5.14694633303e-33
6.56648027975e-33
-5.63922500687e-31
1.31082227646e-34
2.38320406934e-34
4.47245932039e-36
9.53643779921e-36
3.31083153178e-35
2.89707500297e-36
1.09203959508e-37
9.00737073333e-36
1.0132183431e-36
-3.99499004099e-36
6.7447178481e-36
7.84758835322e-37
-5.21239496864e-35
1.46893541969e-35
1.07944973416e-36
-1.99797008508e-33
9.58873191872e-35
6.875647324e-37
-8.18401534241e-32
2.55172239208e-33
-2.59819249554e-31
-1.07466754993e-30
8.44954482833e-32
-1.61138265676e-29
-1.15719152705e-29
1.0012789303e-30
-2.5407849001e-28
-4.46550213917e-29
1.09681180317e-29
-3.62166610418e-27
-2.9120660097e-29
5.15123375008e-29
-1.93264751863e-26
-1.25062462055e-30
5.71786012242e-29
-2.42214518339e-26
9.96447854563e-30
-5.09424831512e-27
2.08541071305e-30
1.11504226959e-29
-5.03164632762e-27
5.96247000215e-29
1.02884161654e-28
-3.85623394215e-26
7.8967504326e-29
8.60202326247e-29
-2.88631889916e-26
8.83938419663e-30
8.20348391613e-30
-2.31323874809e-27
3.32687354606e-31
3.09692175478e-31
-5.16417374915e-29
6.10963715446e-33
6.35991004727e-33
-3.57917220836e-31
1.29323258985e-34
1.66722030223e-34
1.51553971344e-35
4.77926559399e-36
8.82931636449e-36
1.7031134787e-36
2.58885613499e-37
9.46167518044e-37
2.33332901309e-37
-1.82983126961e-39
2.56590050587e-37
7.1674724967e-38
-6.95036202241e-38
1.51703495019e-37
4.06704659913e-38
-4.9782676092e-37
2.27799399757e-37
5.21986844424e-38
-2.07742865209e-35
8.61185173281e-37
1.38267183398e-37
-1.75556512304e-33
2.56480376848e-35
1.68265417934e-36
-1.05327580539e-31
1.78920306841e-33
-1.25163882069e-31
-1.32064258563e-30
9.8517824396e-32
-1.80573350817e-29
-1.24496322737e-29
1.27059878339e-30
-3.25994117782e-28
-2.19591028318e-29
1.4579736783e-29
-4.90618167523e-27
-1.4891160658e-30
4.28299439167e-29
-1.63460166864e-26
1.04969152327e-29
-4.50444481835e-27
3.38124220802e-30
1.47716283195e-29
-6.75795814923e-27
4.46923421871e-29
6.87038460278e-29
-2.37152185047e-26
2.44913957209e-29
2.43305114978e-29
-8.08109013888e-27
8.25668342747e-31
7.03147369748e-31
-1.566051769e-28
1.48942220973e-32
1.27192751155e-32
-9.53204570419e-31
2.10372475424e-34
2.00505619686e-34
2.28420303901e-35
3.78676991423e-36
4.46919223693e-36
1.09930986278e-36
1.08392814741e-37
1.84628968568e-37
6.43400216761e-38
4.68191104079e-39
1.64307035196e-38
6.89879773598e-39
-9.89368999968e-41
4.77778170578e-39
2.19973423615e-39
-9.19445551273e-40
2.30312738663e-39
1.03745913217e-39
-5.1776246846e-39
2.43532723045e-39
9.68954436319e-40
-2.76396081334e-37
7.6076817408e-39
2.4181703543e-39
-3.08429905278e-35
2.97715835559e-37
6.31367935197e-38
-3.49482675902e-33
2.79749141932e-35
2.23110516644e-36
-1.88077821155e-31
2.95215421337e-33
-2.77813336907e-31
-2.16320086817e-30
1.64806874439e-31
-3.68999169359e-29
-1.08500014672e-29
2.30272397662e-30
-7.36799843784e-28
-1.22695948166e-30
1.87649748059e-29
-7.23919976745e-27
6.79181922991e-30
-2.89582968423e-27
2.39416868363e-30
7.98076538323e-30
-4.00287864921e-27
2.16559958128e-29
2.72359301163e-29
-1.0126074761e-26
3.50657671435e-30
2.90610917922e-30
-1.03721307055e-27
5.74945274202e-32
4.10391446514e-32
-7.03258747044e-30
5.28081435114e-34
3.7790685529e-34
2.87644634795e-35
6.63827619876e-36
5.29328554038e-36
1.46087365641e-36
8.05507836204e-38
7.95116865597e-38
3.490759827e-38
1.55742290416e-39
2.23396334084e-39
1.27210108446e-39
2.77874271871e-40
8.58406443703e-40
6.01507957612e-40
-2.74906185027e-41
3.18786785368e-40
2.34685258383e-40
-1.04319807658e-40
3.02013517157e-40
2.17579098184e-40
-4.25124479013e-41
2.03773274317e-40
1.34070912174e-40
-3.41364931961e-39
4.82193577528e-41
2.51246217503e-41
-5.21989863573e-37
2.9163561717e-39
1.13764843826e-39
-7.60273607657e-35
3.83193690411e-37
8.88073844912e-38
-1.10635404826e-32
5.27566372336e-35
2.29359947799e-36
-3.74742210874e-31
8.03497739788e-33
-1.58565310076e-30
-3.72550649936e-30
3.30635767333e-31
-1.08999880618e-28
-4.52894473025e-31
5.23646514791e-30
-2.23936564986e-27
1.85964002745e-30
-8.49696429481e-28
9.42516713613e-31
2.20530757626e-30
-1.48607621015e-27
6.90595614068e-30
6.40509749658e-30
-3.10076119599e-27
3.13191495614e-31
1.93817156711e-31
-7.79575820284e-29
2.11682378499e-33
1.12898666279e-33
-1.01079012776e-31
1.88816670204e-35
1.00505105538e-35
2.62387881688e-36
2.08724024404e-37
1.23155112944e-37
6.53438648108e-38
1.81622639794e-39
1.32131137361e-39
1.00293809854e-39
1.57435134308e-39
1.66898894845e-39
1.70043595021e-39
1.37137151451e-40
3.27925805287e-40
3.61033310609e-40
-1.57721340529e-40
1.52912410896e-39
1.76983436895e-39
-3.87501024733e-42
8.43579878514e-40
9.58872695624e-40
-2.00551050349e-41
4.8431306496e-42
5.05825762378e-42
-4.12125192441e-41
1.52551434992e-41
1.38363668984e-41
-8.61997636702e-39
2.43164025048e-41
1.67052788816e-41
-1.62239347006e-36
4.47873022547e-39
2.08329305764e-39
-3.04139060768e-34
8.12501366845e-37
1.68887894759e-37
-4.62795477662e-32
1.6169142609e-34
-1.71808223682e-32
-8.70438703279e-31
3.00673022534e-32
-1.20798849968e-29
-9.01846774842e-32
8.92283458416e-31
-4.85263610942e-28
2.54849474293e-31
-1.62714251691e-28
2.45346632518e-31
3.41949921767e-31
-4.33013607425e-28
1.63732976926e-30
9.26824257206e-31
-7.85743868692e-28
2.70605687675e-32
1.02016459362e-32
-6.099572237e-30
1.40918741814e-34
4.5186188641e-35
4.23230761982e-36
1.13399287837e-36
3.56107893134e-37
2.24915564768e-37
1.02187658827e-38
3.4806807131e-39
3.92236408466e-39
6.36571616487e-40
2.61319610986e-40
4.48759142112e-40
4.54469046463e-40
2.66916362512e-40
5.49090862074e-40
4.22725650944e-42
5.76574279298e-42
1.28421923924e-41
-2.66783011862e-42
1.0453291391e-41
2.5362604409e-41
-1.81322770679e-43
5.36923174741e-42
1.30972031587e-41
-6.95093130718e-42
1.02564540563e-43
2.32642827242e-43
-1.11035666245e-42
2.52314738079e-42
5.01523657897e-42
-3.10882126963e-40
3.28600300375e-43
5.02367558236e-43
-7.16001834215e-38
8.51046157062e-41
9.05770258525e-41
-1.47694843632e-35
1.97621319264e-38
1.11886008012e-38
-3.16723692864e-33
4.49113027713e-36
2.85578036959e-37
-1.31354032615e-31
1.20988770319e-33
-7.28637485717e-31
-3.88194100519e-33
8.02221342677e-32
-6.8397160889e-29
6.43725150127e-33
-1.02403721626e-29
5.6971790958e-32
2.72313363708e-32
-1.26533976509e-28
4.18417729471e-31
7.8226654766e-32
-2.10998350178e-28
3.5911353585e-33
4.14716514504e-34
-7.67000636507e-31
1.86921876644e-35
1.62224374375e-36
1.27151264328e-36
1.73516338551e-37
1.22807284869e-38
4.10006699899e-38
1.93494457793e-39
1.1219767485e-40
8.32192603056e-40
6.10359896941e-40
2.6250897739e-41
4.69700093524e-40
5.87065224604e-40
8.56604486005e-42
7.68396092544e-40
2.95068637505e-42
-3.0414314529e-43
1.04446800958e-41
-1.46812447975e-44
-3.85537738684e-45
9.78173135327e-44
-1.86125657002e-42
-2.27809011245e-46
6.23489680721e-44
-3.87633017541e-41
-2.26494696366e-44
2.38666132224e-42
-1.01686116842e-41
-9.67587358784e-43
2.87070071401e-41
-5.82086249268e-41
-3.65052110569e-44
5.1182084645e-42
-1.25205931595e-38
3.68355133839e-43
1.85251625576e-41
-2.46821367299e-36
3.87217335786e-40
2.310452309e-39
-5.10810487621e-34
1.40914185084e-37
1.2263219048e-37
-3.5924072325e-32
4.86202680047e-35
-1.03916492262e-31
-3.93688936594e-34
6.47276171422e-33
-1.80132823999e-29
2.17931894805e-34
-1.91016654972e-33
2.85549748294e-32
-3.20198167073e-32
-7.04559700995e-29
2.78249378395e-31
-1.13325078633e-31
-1.41682056299e-28
1.99548177324e-33
-8.75272802066e-34
-4.16287512733e-31
9.52029395886e-36
-4.21887651599e-36
7.34493899684e-37
8.29353975343e-38
-3.54929444161e-38
2.05689482195e-38
8.24380432859e-40
-3.6508741019e-40
3.65430746783e-40
3.6762262375e-40
-3.56307466704e-41
2.91085361992e-40
7.01363421597e-40
-1.87255486375e-42
9.51272753979e-40
2.93996094718e-42
-1.14234371703e-43
1.1147883771e-41
-7.46441180934e-46
-5.17939854584e-42
6.55282965822e-44
-2.14960770508e-43
-1.09711097189e-43
2.8550353373e-45
-1.81921143728e-41
-5.55651662091e-45
2.59819146366e-43
-1.82508671646e-42
-2.20404740824e-44
1.30687045124e-41
-6.92948703894e-41
-5.4711813343e-43
8.78494285029e-43
-1.60919143772e-38
-1.356159454e-40
2.17253996457e-41
-3.31696618111e-36
-2.88089061061e-38
2.94004860034e-39
-6.97591534867e-34
-5.74229002422e-36
1.61776033622e-37
-4.57815274367e-32
-1.28979746196e-33
-1.40802431672e-31
-4.81804894237e-34
-5.44096993887e-32
-2.28993289571e-29
-1.13815637012e-33
1.09179622624e-33
7.27434990331e-32
-4.36207811779e-31
-1.49599001611e-28
5.5859992995e-31
-1.11189222378e-30
-2.76134264516e-28
5.58267664809e-33
-1.71813882874e-32
-1.19049514635e-30
2.65126846758e-35
-7.48799695309e-35
1.57591794275e-36
1.89040929844e-37
-4.68624999766e-37
4.36608052086e-38
1.48478528068e-39
-3.48546427342e-39
6.3040997578e-40
9.91633277061e-41
-2.37400427776e-41
7.6957523419e-41
2.95312561336e-42
-1.07602804514e-41
3.90654100868e-42
5.79609126432e-44
-7.08738033958e-42
2.17657351944e-43
-5.04563698498e-44
-6.07120401543e-40
9.28816930646e-42
-7.40588947312e-45
-1.17166831961e-41
1.82328031227e-43
-4.68407159713e-44
-1.50170798011e-43
8.64550229547e-45
-1.59570868535e-42
-4.40562055546e-43
3.12954712929e-44
-5.03079569676e-40
-2.53465940878e-41
6.76166126494e-43
-1.29248562934e-37
-5.32341229451e-39
1.40192724352e-40
-2.90186728652e-35
-1.04883967616e-36
1.95501284344e-38
-6.45986315945e-33
-2.03178546014e-34
5.21905734347e-37
-2.08901492112e-31
-3.12482319254e-32
-1.48248121957e-30
-1.98808727627e-33
-5.89717304716e-31
-1.09915959214e-28
-7.70076915664e-32
-7.66652798579e-33
3.03354068493e-31
-2.54977933883e-30
-4.76832028074e-28
1.84079747786e-30
-6.52589243305e-30
-9.0975147653e-28
3.98330403716e-32
-2.21519407464e-31
-9.34636701299e-30
1.85183928655e-34
-1.91952537928e-33
2.5681014297e-36
1.05774019327e-36
-1.42571586588e-35
1.94696919535e-37
6.42484685518e-39
-1.34808545711e-37
2.3810590492e-39
3.18480563354e-41
-1.50338984281e-39
2.00316003453e-41
8.7246597344e-42
-2.27856891264e-41
1.06901345194e-41
1.98993750974e-42
-1.14131236246e-42
6.83268434998e-42
-2.83102336366e-42
-4.13091680957e-42
5.80731585627e-40
-1.09849179005e-43
-1.58411096687e-42
1.04817600004e-41
-5.14004097138e-43
-3.0961128488e-42
1.19865768196e-43
-3.93562444986e-41
-7.13915790679e-41
3.04454429121e-43
-1.00689330228e-38
-2.83094568066e-39
1.43278554346e-41
-2.26127139189e-36
-3.34185458825e-37
2.2493018615e-39
-4.58233112959e-34
-5.06059311326e-35
2.2162327318e-37
-6.38900020974e-32
-8.44300509544e-33
-2.72935254586e-32
-8.30573955616e-31
-2.61031174147e-31
-1.65494121658e-29
-4.15871846309e-32
-3.00290947302e-30
-4.47775629986e-28
-5.726542786e-31
-5.34561290132e-29
1.00245653375e-30
-5.42876315539e-30
-1.59135612568e-27
6.53105195267e-30
-2.501186825e-29
-3.40684103587e-27
3.2071366573e-31
-2.40456025939e-30
-8.38656378394e-29
3.04177523817e-33
-8.20621645184e-32
-2.26652674542e-31
2.11212981828e-35
-7.92562427946e-34
2.2432235351e-36
1.67091961363e-37
-1.08372496569e-35
4.70405869233e-38
1.39269501086e-39
-2.06088413685e-37
7.1483871771e-40
1.31837019977e-41
-5.20252927052e-39
1.25187690761e-41
2.47285410374e-43
-3.54092022575e-40
6.63432523015e-43
-2.39411363368e-43
-1.03451972279e-40
2.47348599965e-42
-1.5670284682e-42
-1.66259666227e-40
8.90014659464e-43
-5.86188997571e-41
-1.07617369324e-39
1.49462475783e-42
-3.09045821597e-39
-2.17587381614e-38
2.87150589223e-41
-4.39570525842e-37
-6.05469222272e-37
8.81433558497e-40
-7.44970181174e-35
-4.13198834374e-35
6.57383954751e-38
-1.26972033403e-32
-3.83858728657e-33
1.81110719245e-36
-3.44876442143e-31
-1.71337380238e-31
-1.99928140096e-30
-2.60316746646e-30
-1.42710524718e-30
-1.030919763e-28
-1.67414643765e-31
-6.4976543358e-30
-1.61147008588e-27
-1.1928842273e-30
-2.88523610139e-28
1.43265127315e-30
-9.06436824335e-30
-2.5110913274e-27
1.83064993085e-29
-5.15923628273e-29
-1.052732505e-26
2.6273584506e-30
-2.06853392976e-29
-8.17392290901e-28
1.00028493052e-31
-1.1757933519e-30
-1.63521878787e-29
9.17131012193e-34
-6.95148782056e-32
-1.02667942769e-32
1.06645762094e-35
-1.31633455152e-33
1.63612040752e-36
1.54625501629e-37
-3.20469910388e-35
5.40101083955e-38
2.51333089684e-39
-1.0817066559e-36
1.72983950452e-39
7.01029758158e-41
-8.48682522584e-38
1.30917564473e-40
-1.60308115295e-41
-2.42562867003e-38
3.91543800964e-41
-4.15884649165e-40
-4.20707086414e-38
5.91812799818e-41
-1.40823873161e-38
-2.90791515394e-37
3.27229721204e-40
-5.26451031489e-37
-5.20098366972e-36
5.10886492853e-39
-4.33014050772e-35
-1.25867725462e-34
9.2894068001e-38
-4.47274434567e-33
-5.81051582319e-33
2.07519099184e-36
-2.01486934224e-31
-1.30037119544e-31
-4.78609534726e-31
-1.44309509983e-30
-9.46900787063e-31
-4.39833587908e-29
-4.11614536141e-30
-8.06283233418e-30
-5.33547951957e-28
-2.14068571444e-31
-1.72366989611e-29
-2.69654451351e-27
-2.26229531075e-30
-5.02870553329e-28
1.75812515749e-30
-6.69786599525e-30
-4.37271934152e-27
3.10868353275e-29
-5.20577964602e-29
-2.04990930802e-26
1.9263296223e-29
-6.20179736735e-29
-7.12696724957e-27
1.24277739863e-30
-1.60311299687e-29
-2.90486665666e-28
7.06356700542e-32
-1.46098490057e-30
-1.02882647789e-29
1.15233787002e-33
-1.61346087751e-31
-2.41157235853e-32
2.17579328107e-35
-5.06048131838e-33
2.9443438442e-36
4.8663727073e-37
-2.11180279704e-34
1.76066072666e-37
1.71077629892e-38
-1.74546614364e-35
1.7297829339e-38
-2.37778775353e-39
-4.8769087648e-36
5.27122625993e-39
-9.18232093048e-38
-8.98218872433e-36
8.46799147266e-39
-2.87586964371e-36
-6.74673854486e-35
4.56933294657e-38
-9.52138141286e-35
-1.0591734595e-33
4.87264095351e-37
-5.33661733976e-33
-2.38016459162e-32
1.28721764698e-35
-1.32822437762e-31
-2.68776721296e-31
-6.89010183154e-31
-9.69856436105e-31
-1.06005390648e-30
-2.77030140689e-29
-6.97123230643e-30
-6.51184588924e-30
-2.68398061379e-28
-8.86461319763e-30
-2.03260971936e-29
-3.34304214197e-27
-2.51790374262e-31
-1.63283915297e-29
-8.13855187092e-27
-2.19759779142e-30
-1.10141218936e-27
1.0858508287e-30
-4.14310315414e-30
-3.70920295064e-27
2.94356695378e-29
-2.71177501839e-29
-2.36305252097e-26
5.59723457724e-29
-5.9184346378e-29
-2.36535706768e-26
1.66539065061e-29
-5.58713440807e-29
-5.28344256281e-27
1.47151706383e-30
-2.31828839237e-29
-3.59254001478e-28
1.41241451956e-31
-4.19082962192e-30
-2.82147472213e-29
3.48202029553e-33
-4.67945798893e-31
-4.46169282813e-31
9.86733635187e-35
-4.33816979257e-32
1.24774823339e-37
3.95085356731e-36
-3.63001336881e-33
8.22498045872e-37
-2.18088389242e-37
-1.00488580574e-33
3.15901161326e-37
-1.89114597488e-35
-1.90365206365e-33
4.69559813928e-37
-5.50276173637e-34
-1.53435278274e-32
7.21711207518e-37
-1.73341801711e-32
-1.17961322245e-31
-8.48548776578e-32
-2.40865067547e-31
-5.51399247802e-31
-4.17093683276e-30
-1.06355920806e-30
-2.03581288399e-30
-6.09442918433e-29
-6.54888467445e-30
-8.26586875648e-30
-3.01718265629e-28
-1.70136616814e-29
-1.77337835073e-29
-2.63734215394e-27
-7.71711135239e-30
-2.05632456351e-29
-9.41350228941e-27
-1.52251774656e-31
-1.02626853262e-29
-8.67719845736e-27
-1.46266268986e-30
-1.27381458766e-27
7.41077775568e-31
-1.07602695833e-30
-3.1408104545e-27
1.77760160335e-29
-7.23141948197e-30
-1.71438980441e-26
6.29408533337e-29
-1.59187722161e-29
-3.17022667104e-26
6.86712298504e-29
-2.85629356984e-29
-2.4938434311e-26
2.75790673553e-29
-3.11379181241e-29
-9.03801105353e-27
4.32919146701e-30
-1.82003599525e-29
-1.39519561246e-27
3.81751019626e-31
-5.73121983181e-30
-1.27168593921e-28
2.44373119065e-32
-1.07401982944e-30
-1.00813777045e-29
1.05123667474e-33
-1.90275599604e-31
-7.43109352923e-31
5.54092651724e-36
-7.55033618034e-32
-1.90837067781e-31
-4.4027390622e-33
-1.07476691105e-31
-3.83197937123e-31
-6.70587984931e-32
-4.13273594834e-31
-3.62705982199e-30
-4.53575271444e-31
-1.43438757237e-30
-3.17055958703e-29
-2.10773676263e-30
-3.94011558457e-30
-1.73446742014e-28
-9.75893343967e-30
-5.73986340234e-30
-7.87751344558e-28
-2.12552658116e-29
-1.03097523512e-29
-3.96744141933e-27
-2.04920607464e-29
-9.01833531595e-30
-9.76616544547e-27
-5.59776945718e-30
-5.5108765511e-30
-1.38972031834e-26
-8.62318310015e-32
-2.66305857197e-30
-7.74936735762e-27
-4.26697900219e-31
-1.15285529626e-27
3.35563841637e-31
-2.86977931015e-32
-1.31790327855e-27
8.03011413164e-30
-2.62817484196e-31
-8.84136813297e-27
2.86797619649e-29
-5.93249176835e-31
-1.62996055077e-26
5.86379661858e-29
-9.29961044073e-31
-2.51114817739e-26
6.02387627516e-29
-1.49349579134e-30
-2.21302991678e-26
2.98212910666e-29
-1.42899901516e-30
-1.08330526376e-26
7.30230377877e-30
-5.66462376376e-31
-3.14194722066e-27
9.44011985854e-31
-1.10194861357e-31
-5.53366348968e-28
8.89279448667e-32
-5.02373604539e-33
-9.3817798578e-29
3.79934698735e-33
-4.45143365323e-34
-3.69800940078e-29
-1.59992512436e-31
-7.53058871783e-34
-5.31845522943e-29
-1.18745549902e-30
-1.19755761297e-32
-2.16511162887e-28
-4.95014188911e-30
-1.05575370523e-31
-7.84106825759e-28
-9.5123619615e-30
-2.78810134686e-31
-2.48734945072e-27
-2.05072834788e-29
-4.34077437848e-31
-3.84944478071e-27
-1.91437666216e-29
-3.22273552123e-31
-9.52613948428e-27
-1.00083921782e-29
-1.6180114825e-31
-1.04305460075e-26
-2.6469594406e-30
-8.79913736198e-32
-7.50512519849e-27
-5.05808169843e-32
-5.11420948529e-32
-4.09123795061e-27
-8.57598325684e-33
-6.31665004138e-28
3.48081475848e-32
-1.16634346441e-28
1.20428687449e-30
-1.30989357288e-27
4.60348331753e-30
-3.20060212295e-27
7.6575617139e-30
-3.88606481523e-27
1.00700819458e-29
-4.25117924417e-27
7.20288176686e-30
-2.98908936741e-27
2.03958354402e-30
-9.32655455268e-28
2.60910090568e-31
-1.72305864647e-28
6.33031625078e-33
-1.12180021924e-29
9.33211716295e-35
2.02635393756e-33
-1.09650497306e-32
-8.61594789868e-34
-2.33524594191e-31
-1.73179627984e-29
-1.06095264835e-30
-1.49313883152e-28
-2.6012718419e-30
-5.22114397018e-28
-3.03793458621e-30
-1.20635634151e-27
-2.39203615842e-30
-1.50917600861e-27
-1.49269964394e-30
-1.40474721375e-27
-4.34227528577e-31
-1.17687964503e-27
-8.86308302627e-33
-6.40027684756e-28
-4.60444903134e-29
6.23813780088e-29
5.41744473183e-29
-1.00213155439e-25
1.75804955226e-27
7.96191656857e-28
-1.10196277577e-24
6.19529693584e-27
2.13724559616e-27
-2.73504298474e-24
1.17990355711e-26
3.8254494099e-27
-3.8628585094e-24
2.26735324167e-26
7.78036922495e-27
-7.12521113868e-24
1.74097302818e-26
6.87194008456e-27
-4.81362978329e-24
1.15889780798e-26
5.71290193555e-27
-4.0095428766e-24
3.08430675396e-27
2.1388960657e-27
-1.49692117916e-24
5.09902177443e-28
6.3837075445e-28
-5.14868055352e-25
2.95691771599e-29
2.2878373141e-28
-2.23356477109e-25
-3.06801934926e-28
2.14909904239e-28
-2.06772856991e-25
-1.84224557406e-27
5.49805455374e-28
-4.24976805924e-25
-6.20902359195e-27
1.49014044784e-27
-1.03949058912e-24
-1.06227887013e-26
3.34152267671e-27
-2.31541515309e-24
-1.85122159544e-26
4.46017617077e-27
-3.13734809823e-24
-1.46172569293e-26
6.72533049786e-27
-6.04506238218e-24
-7.99202716334e-27
5.0673714465e-27
-5.40614253175e-24
-2.79050887545e-27
2.99985643846e-27
-3.92423403255e-24
-1.4038410691e-28
1.39925075337e-27
-2.22878825724e-24
1.38853259901e-28
-2.7874711891e-25
9.08992510867e-28
1.5004481928e-27
-1.0765962642e-24
8.84220108609e-27
7.67735066874e-27
-4.891380263e-24
2.86824360096e-26
1.90979515091e-26
-1.10212191381e-23
5.45365606709e-26
3.39592588543e-26
-1.48797949337e-23
7.39953493053e-26
4.84471497319e-26
-1.85305352634e-23
4.35573992112e-26
3.25963149255e-26
-1.13712934862e-23
1.12932753425e-26
1.05097339888e-26
-3.37830030219e-24
1.77737075717e-27
2.32593474843e-27
-7.16515519986e-25
2.01083219754e-28
4.78129330905e-28
-1.50620584374e-25
9.29179544647e-30
1.54703304213e-28
-5.14184644795e-26
-1.29215930105e-28
1.54465191677e-28
-5.10463217189e-26
-8.57273225294e-28
4.16174764508e-28
-1.3166080208e-25
-3.67268381517e-27
1.27588563532e-27
-4.03830978523e-25
-1.34437344804e-26
3.6746385969e-27
-1.22389332828e-24
-3.38864501681e-26
1.05844339272e-26
-3.84966947899e-24
-4.45268621465e-26
2.32640347905e-26
-9.39824706551e-24
-3.10748039749e-26
2.93207429917e-26
-1.30647859525e-23
-1.06841345535e-26
2.21873668281e-26
-1.23032266712e-23
-1.50635937063e-27
1.0059066442e-26
-6.29966771521e-24
2.71219626402e-27
-2.26358497255e-24
2.25153442889e-27
4.99398471881e-27
-2.48338598269e-24
2.08368774749e-26
2.41606562046e-26
-1.05529017498e-23
6.33777939203e-26
5.6259545995e-26
-2.08906007046e-23
8.74061247783e-26
7.22169420943e-26
-2.14440692615e-23
4.59630186488e-26
3.97369764064e-26
-1.06436406571e-23
5.94467255745e-27
5.8547160135e-27
-1.35802298254e-24
3.62971524278e-28
4.44283323217e-28
-8.41284366764e-26
2.38071727695e-29
4.11449148829e-29
-6.33436928371e-27
1.14501182519e-30
3.66654769631e-30
-4.05164245554e-28
2.82669998479e-32
8.88071323108e-31
-5.77164388504e-29
-8.70616516664e-31
8.87951627365e-31
-6.04463294658e-29
-1.4522629326e-29
3.39163646216e-30
-3.965835887e-28
-1.37494508203e-28
2.71468548834e-29
-4.37943491273e-27
-1.12740173524e-27
1.75545212645e-28
-3.33441905712e-26
-9.32997648353e-27
1.14546737576e-27
-2.61044545429e-25
-3.52527052337e-26
8.34590883312e-27
-2.28211070532e-24
-4.58868927744e-26
3.05009830594e-26
-9.60237324871e-24
-2.31389906594e-26
4.33173859525e-26
-1.49416669054e-23
-3.31457578538e-27
2.88310695595e-26
-1.22482638465e-23
7.89961526236e-27
-4.18135105375e-24
4.18013937315e-27
1.02241350058e-26
-4.36131924849e-24
3.75734166738e-26
4.81150945821e-26
-1.52738027907e-23
8.3174294049e-26
8.15210255341e-26
-2.2592697999e-23
4.57248516478e-26
4.15940442967e-26
-1.036513067e-23
4.46009255081e-27
4.23315617793e-27
-8.74298654891e-25
2.2847974482e-28
2.46779694661e-28
-3.24122726753e-26
5.78219619475e-30
7.77662503023e-30
-4.22348098254e-28
4.31721781419e-31
8.26690405633e-31
7.58402944284e-32
7.36107302316e-32
2.69049856822e-31
5.50225380373e-32
1.08438294878e-33
1.06006992684e-31
2.83190558416e-32
-2.87245430285e-32
8.12960848432e-32
2.12071112405e-32
-1.46108210299e-31
1.10386118927e-31
2.14254694507e-32
-2.34355410115e-30
2.82402479164e-31
2.05546143288e-32
-7.56422114946e-29
3.15561529335e-30
-1.98077587474e-28
-7.8319951421e-28
8.21669679225e-29
-1.13819527762e-26
-7.87569398368e-27
7.57424585022e-28
-1.43655533469e-25
-3.06070897231e-26
7.43743454006e-27
-1.89040217437e-24
-2.94846748115e-26
3.17613812772e-26
-8.89151963687e-24
-5.81620184159e-27
4.04983891992e-26
-1.27388006341e-23
1.52735121946e-26
-6.10260730107e-24
7.22722846648e-27
1.73080841488e-26
-5.96592800643e-24
5.97021027259e-26
7.52117893398e-26
-2.16839029785e-23
6.0010357392e-26
5.79054930635e-26
-1.52067145469e-23
7.24107605469e-27
6.47131519699e-27
-1.4218645159e-24
2.90463505055e-28
2.70235855776e-28
-3.39992290159e-26
8.08823245077e-30
8.55785867198e-30
-1.98467212383e-28
7.86257495913e-31
1.03852672559e-30
2.4001204633e-31
1.10929556451e-31
2.10746596299e-31
8.48375036427e-32
8.50479564833e-33
3.20485302293e-32
1.64194140947e-32
-5.59584856603e-35
1.18748328094e-32
6.82463615129e-33
-1.31570757729e-33
4.35638252881e-33
2.49479849185e-33
-4.50987704148e-33
4.40875308629e-33
2.20552879155e-33
-5.05179052872e-32
7.98862591171e-33
2.95624882869e-33
-2.16128180906e-30
6.37560424879e-32
1.19052679287e-32
-9.71146684195e-29
2.23586193532e-30
-8.18014256432e-29
-9.96252598259e-28
9.05978127184e-29
-1.23920377477e-26
-9.98232505672e-27
9.17212129519e-28
-1.84432825067e-25
-2.51146378725e-26
1.01766979569e-26
-2.75570511093e-24
-7.21760620301e-27
3.40000526438e-26
-1.02722829398e-23
1.86637160848e-26
-6.24900019327e-24
1.35049367115e-26
2.91484929306e-26
-1.01462876751e-23
4.6826224486e-26
5.34617719066e-26
-1.3802526923e-23
2.23090374256e-26
1.95210163346e-26
-5.10561743971e-24
7.70475984052e-28
6.22829513374e-28
-1.09041686734e-25
1.7683585815e-29
1.48415977608e-29
-6.80413953912e-28
1.03049838596e-30
9.82455652958e-31
2.808195717e-31
5.68174361903e-32
6.77529736723e-32
3.64975444203e-32
4.30960791199e-33
7.46571919782e-33
5.38390958286e-33
4.35912592752e-34
1.56512171066e-33
1.30414503654e-33
-1.1348188114e-35
7.51420449086e-34
6.72715182932e-34
-3.91809294567e-35
2.5705636264e-34
2.298652029e-34
-9.18251144397e-35
1.04831779697e-34
8.49448306626e-35
-1.07900555639e-33
1.36220627156e-34
8.95455381356e-35
-5.82230841868e-32
1.16866078365e-33
5.35675148673e-34
-4.22591652378e-30
5.26289383728e-32
1.11128080866e-32
-1.77573167018e-28
3.49515060772e-30
-1.87491068245e-28
-2.02674775654e-27
1.46657716264e-28
-2.53067686564e-26
-1.45499375919e-26
1.86952337708e-27
-4.83191301577e-25
-6.99523694223e-27
1.78905527418e-26
-5.51285922915e-24
1.64050274768e-26
-5.45315004012e-24
1.16319381121e-26
2.09514646188e-26
-7.75026074433e-24
2.59204997794e-26
2.47993537717e-26
-6.84293318418e-24
3.95311042627e-27
2.89667279525e-27
-8.14670454227e-25
6.62228432452e-29
4.46750669547e-29
-5.53511633054e-27
1.62129003657e-30
1.13073712369e-30
2.66569570771e-31
5.95273191664e-32
4.70322607952e-32
2.86034795489e-32
1.69037299514e-33
1.67091196687e-33
1.51597357073e-33
1.17001827285e-34
1.6947505339e-34
1.93523174785e-34
4.89194858951e-35
1.5407615823e-34
2.10510617295e-34
-4.82252264244e-36
6.25108079072e-35
8.96902106077e-35
-1.58367888639e-35
5.15134121099e-35
7.27091925702e-35
-1.09634331417e-36
3.09472372909e-35
4.00196810543e-35
-1.65176765448e-35
1.24181610333e-36
1.32656500447e-36
-1.27846118478e-33
1.40195161339e-35
1.14231436089e-35
-1.33150518022e-31
9.24039580814e-34
4.74885486588e-34
-1.43063100568e-29
8.95426885898e-32
1.43680859812e-32
-4.22823325495e-28
9.74267641005e-30
-1.38870096874e-27
-6.03244728641e-27
3.24829134061e-28
-8.48795286184e-26
-3.4595736041e-27
6.21087440886e-27
-2.12236180916e-24
6.79607117639e-27
-2.33420317068e-24
6.70701678435e-27
9.09813358924e-27
-4.25470765676e-24
1.03772481936e-26
7.48566864523e-27
-2.72016943641e-24
4.2628039863e-28
2.34616590353e-28
-7.37746262842e-26
3.42931471928e-30