/*--------------------------------*- C++ -*----------------------------------*\
| =========                 |                                                 |
| \\      /  F ield         | OpenFOAM: The Open Source CFD Toolbox           |
|  \\    /   O peration     | Version:  3.0.1                                 |
|   \\  /    A nd           | Web:      www.OpenFOAM.org                      |
|    \\/     M anipulation  |                                                 |
\*---------------------------------------------------------------------------*/
FoamFile
{
    version     2.0;
    format      ascii;
    class       volScalarField;
    location    "1.6";
    object      ddt0(k);
}
// * * * * * * * * * * * * * * * * * * * * * * * * * * * * * * * * * * * * * //

dimensions      [0 2 -3 0 0 0 0];

internalField   nonuniform List<scalar> 
7968
(
-0.00390448515636
-0.00398487832241
-0.00401769793711
-0.00401784408661
-0.00400970803076
-0.00400347522622
-0.00400074151944
-0.00400038877404
-0.00400178514388
-0.00400269919695
-0.00400381107471
-0.00400328502676
-0.00400233169678
-0.00400305152698
-0.0040061123282
-0.00401255416673
-0.00402064689073
-0.00402008220065
-0.00398655898139
-0.00390504101495
-0.00398485377867
-0.00459612524084
-0.00490291050674
-0.00499452601793
-0.00499563499497
-0.0049744065952
-0.00495736035724
-0.00494918057764
-0.00494681135828
-0.00494681357278
-0.00494745217377
-0.00494823915208
-0.00495122211803
-0.0049604243855
-0.00497878898298
-0.00500123605358
-0.0050007763316
-0.00490897062
-0.00460113947004
-0.00398646987899
-0.00401762002567
-0.00490279400533
-0.00540186719639
-0.0055850649491
-0.00561526487149
-0.00559362776595
-0.00556782124001
-0.00555213483998
-0.00554546927524
-0.00554409455331
-0.00554364211047
-0.00554510755312
-0.00555195371937
-0.00556856867166
-0.00559603642796
-0.0056195940857
-0.00559094883299
-0.00540837586163
-0.00490873486365
-0.00401992467223
-0.00401759048516
-0.00499389300738
-0.00558453551935
-0.00582174183569
-0.00587356664891
-0.00585411019275
-0.00582278940562
-0.00580823216271
-0.00579625801718
-0.0057912871212
-0.00578990068234
-0.00579224982535
-0.00580212927047
-0.00581958621737
-0.0058524696174
-0.00587448658692
-0.00582533968244
-0.00559006862255
-0.00499986940931
-0.00402030125532
-0.0040091632165
-0.00499434392468
-0.00561424576583
-0.00587331404366
-0.00593434447807
-0.00591460566022
-0.00588275195575
-0.00585424340413
-0.00583912122116
-0.00583269877047
-0.00583073653612
-0.00583343319528
-0.00584547402
-0.0058721150624
-0.00590787454767
-0.00593066494823
-0.0058734672783
-0.00561783795224
-0.00499968784736
-0.00401202603514
-0.00400260392183
-0.00497258496388
-0.00559248985265
-0.00585423628028
-0.00591520475423
-0.00589529945231
-0.00585179552439
-0.00581999615202
-0.00580338648178
-0.00579628102667
-0.00579380645209
-0.00579617891174
-0.00580878358664
-0.00583799733375
-0.00588072695069
-0.00590673209587
-0.0058504970246
-0.00559361732537
-0.00497683118762
-0.00400541713824
-0.00399957476999
-0.0049552488055
-0.00556691803687
-0.00582388805567
-0.00588556121899
-0.00585373198407
-0.00580727901918
-0.00577431078238
-0.00575748268685
-0.00575035426275
-0.00574745737102
-0.00574897609576
-0.00576093997642
-0.0057907044708
-0.00583606913022
-0.00586907090588
-0.00581649551536
-0.00556555830771
-0.00495820246286
-0.00400220473882
-0.00399896757791
-0.00494701494094
-0.0055516951024
-0.00580490537299
-0.00585888400214
-0.00582412947721
-0.00577670842404
-0.00574393802133
-0.00572774184508
-0.00572102931377
-0.00571782387019
-0.005718206365
-0.00572879329633
-0.0057578614202
-0.00580399681874
-0.00583990082538
-0.00579304138143
-0.00554815784288
-0.00494873739244
-0.00400135656778
-0.00399948950077
-0.00494488013901
-0.00554573484401
-0.00580129796501
-0.00584554824434
-0.00580963488524
-0.00576228748831
-0.00573029247642
-0.00571493944152
-0.00570876842691
-0.00570531811955
-0.00570453240348
-0.00571362901959
-0.00574159071853
-0.00578756441895
-0.00582472792698
-0.0057841853182
-0.0055405592844
-0.0049456081167
-0.00400183539911
-0.00400059609752
-0.0049454201342
-0.0055446644711
-0.00579754892348
-0.00584060773737
-0.00580434376816
-0.00575723396272
-0.00572581317683
-0.0057110429147
-0.00570525082601
-0.00570134648182
-0.00569958092594
-0.00570768569662
-0.00573495657546
-0.00578078101344
-0.00581849253734
-0.0057793248226
-0.00553847320888
-0.00494557463714
-0.00400253648575
-0.00400224413592
-0.00494684945009
-0.00554572443174
-0.00579719682475
-0.00583989514835
-0.00580335384302
-0.00575601894748
-0.00572443198498
-0.00570952315694
-0.0057033206266
-0.00569881152807
-0.0056967953427
-0.00570496320461
-0.00573253369638
-0.00577883431574
-0.00581708559273
-0.00577846174577
-0.00553918605586
-0.00494680806656
-0.00400396233148
-0.00400213499467
-0.00494865461485
-0.00554873042354
-0.00580035283764
-0.00584349414222
-0.005806761347
-0.0057586978896
-0.00572605516069
-0.00570995372374
-0.00570261774088
-0.0056978505726
-0.00569649507996
-0.0057058513186
-0.00573473810026
-0.00578210902591
-0.00582082425979
-0.0057820380021
-0.00554272245894
-0.00494877575873
-0.00400417891826
-0.00400202605687
-0.00495248100328
-0.00555647962576
-0.00581059923342
-0.00585584008796
-0.00581971301142
-0.00577107133873
-0.00573706209859
-0.00571939527798
-0.00571092635419
-0.00570616934976
-0.00570597878992
-0.00571713901091
-0.0057477530114
-0.00579607632656
-0.00583440524157
-0.00579449180395
-0.00555207271104
-0.00495348799105
-0.00400433472004
-0.00400289219048
-0.00496201602021
-0.0055733202851
-0.00582824031562
-0.00588211630593
-0.00584841544763
-0.00580037281526
-0.00576570448324
-0.00574693271003
-0.00573773888264
-0.00573325282305
-0.00573434305044
-0.00574720843993
-0.00577900444527
-0.00582710140934
-0.00586331589795
-0.0058199901435
-0.00557159854907
-0.00496461495814
-0.00400568316268
-0.00400600027305
-0.00498021446881
-0.00560019345296
-0.00586018906298
-0.00591821575643
-0.00589005271951
-0.00584453453972
-0.0058107637638
-0.00579197682156
-0.0057827361249
-0.00577877047414
-0.00578090882848
-0.00579468211898
-0.00582623943656
-0.00587218306863
-0.00590859340083
-0.00585652041169
-0.00560182022145
-0.0049847390624
-0.00400926096491
-0.00401240120984
-0.00500217111189
-0.00562258896983
-0.0058803857277
-0.00593917834775
-0.00591633632167
-0.00587607443776
-0.00584532205868
-0.00582800226393
-0.00581957369992
-0.00581630977279
-0.0058189587201
-0.00583228694559
-0.00586242479198
-0.00590760060243
-0.00593517666111
-0.00588154154652
-0.00562749918429
-0.00500845982319
-0.00401602032394
-0.00402043748391
-0.00500115133115
-0.00559262076886
-0.00582910235608
-0.0058793189185
-0.00585763613593
-0.00582359942776
-0.00580074478019
-0.00578646639965
-0.00577976167817
-0.00577732222842
-0.00577997736553
-0.0057919640213
-0.0058175396968
-0.00585471782153
-0.0058806968053
-0.00583429794822
-0.00559998646163
-0.00500859951779
-0.00402413424904
-0.00401986978083
-0.00490890143113
-0.00540894142441
-0.00559190263934
-0.00562109662881
-0.00559788243514
-0.00557000431104
-0.00555192725882
-0.00554304297326
-0.00553940017721
-0.00553849701408
-0.00554078261911
-0.00554951904841
-0.0055690848883
-0.00559985580539
-0.00562632173332
-0.00559953593863
-0.00541741174949
-0.00491653581443
-0.00402320556889
-0.00398639523642
-0.00460086753814
-0.00490865632445
-0.00500040095914
-0.00500102178757
-0.00497882703532
-0.00496043575634
-0.00495073363328
-0.00494702037979
-0.00494616733774
-0.00494637427331
-0.00494745293523
-0.00495175974585
-0.00496289268387
-0.00498334337361
-0.00500756339065
-0.00500817632659
-0.00491642660474
-0.00460737275954
-0.0039888446779
-0.00390500098035
-0.003986339335
-0.00401976873406
-0.00402020263797
-0.00401206525851
-0.00400561737308
-0.00400253086768
-0.00400171334198
-0.00400204035448
-0.00400281524062
-0.00400390332356
-0.0040035972372
-0.00400377250093
-0.00400513142716
-0.00400881483869
-0.00401573148843
-0.00402399010532
-0.0040231590084
-0.00398883586001
-0.0039059738798
-0.00398623063364
-0.00460142064432
-0.00491015150935
-0.0050025885269
-0.00500365455726
-0.00498158727596
-0.00496325025835
-0.00495362896983
-0.00494896288565
-0.00494805581639
-0.00494899102986
-0.00495001055788
-0.00495429905403
-0.00496410425433
-0.00498295070342
-0.00500549899927
-0.00500462823532
-0.00491194474858
-0.00460275993049
-0.00398720892117
-0.00460128459074
-0.00804903426925
-0.00926357105373
-0.00970943743761
-0.0098165047112
-0.00979689486513
-0.009752453238
-0.00971968944273
-0.00970264497555
-0.00969556552776
-0.00969354725787
-0.00969680467834
-0.00971132866077
-0.00974314715381
-0.00978823199092
-0.00980965541529
-0.00970493656001
-0.00926116493947
-0.00804733510894
-0.00460341129551
-0.00490999977172
-0.00926408210944
-0.010860164692
-0.0115000834236
-0.0116911109436
-0.0116934115844
-0.01164302866
-0.0115975496904
-0.0115715083564
-0.0115614526769
-0.0115578134655
-0.0115618456197
-0.0115838887609
-0.0116269366495
-0.0116772127069
-0.0116768624916
-0.0114893273696
-0.0108535233889
-0.00926037138622
-0.00491272746092
-0.00500233316403
-0.00971050215346
-0.0115011497734
-0.012256279158
-0.0125045265896
-0.0125256413802
-0.012473150274
-0.0124181621741
-0.0123836777759
-0.0123671494639
-0.0123629150497
-0.0123713911011
-0.012399360586
-0.0124495731742
-0.0125006493
-0.0124814656308
-0.0122376058458
-0.0114885767783
-0.00970349846935
-0.0050050480011
-0.00500324137925
-0.0098185831554
-0.0116943813606
-0.0125074388213
-0.0127869460679
-0.0128192274704
-0.0127628330117
-0.0127030060236
-0.0126637556307
-0.0126441186625
-0.0126387449306
-0.0126481671229
-0.0126787601125
-0.0127321954239
-0.012784140599
-0.0127543423574
-0.0124801363589
-0.0116749874199
-0.00980738543691
-0.00500541991435
-0.00498106950795
-0.00980060109393
-0.0117000148992
-0.0125330480909
-0.0128234124638
-0.0128559280095
-0.0127996461927
-0.0127372492581
-0.012695421576
-0.0126740018118
-0.0126674210096
-0.0126763124679
-0.0127073865609
-0.0127620826512
-0.012814222717
-0.0127817919918
-0.0124972658718
-0.0116737369469
-0.0097849091645
-0.00498235926457
-0.0049627243523
-0.00975806421246
-0.0116534679302
-0.0124864890821
-0.0127748868441
-0.0128071760314
-0.0127500536698
-0.0126865434766
-0.0126438725328
-0.0126216253775
-0.0126137620341
-0.0126210653606
-0.0126509400228
-0.0127054423646
-0.0127581818401
-0.0127263643722
-0.0124432848212
-0.0116210379515
-0.00973821978719
-0.00496295978224
-0.00495327849611
-0.00972714059277
-0.011612013535
-0.0124423414781
-0.0127226981727
-0.0127529769082
-0.0126953198338
-0.0126320861906
-0.0125898849695
-0.0125675199545
-0.0125583825665
-0.012563454644
-0.0125910440196
-0.0126442886926
-0.0126973184691
-0.0126676896405
-0.0123898990763
-0.0115745037121
-0.00970389699296
-0.00495246644085
-0.00494999426196
-0.0097117902128
-0.0115876861413
-0.0124071328976
-0.0126889740865
-0.0127183890175
-0.0126608858109
-0.0125986452797
-0.0125574215535
-0.0125352110704
-0.0125249041864
-0.0125277168709
-0.0125528523836
-0.012604553825
-0.0126575009984
-0.0126294006619
-0.0123544478178
-0.0115468842216
-0.00968599946656
-0.00494798743525
-0.00494926960146
-0.00970608756751
-0.0115776941966
-0.0123931961067
-0.0126735437093
-0.0127022453715
-0.0126448504812
-0.0125832110342
-0.0125424698898
-0.0125201437149
-0.0125089339941
-0.0125103087766
-0.0125340349617
-0.0125850088948
-0.0126381832833
-0.0126113015765
-0.0123385338779
-0.0115349283881
-0.00967881179666
-0.00494722214033
-0.00495047117943
-0.00970543503444
-0.0115763260271
-0.0123909292128
-0.0126706163454
-0.0126987183393
-0.0126407464573
-0.0125785028218
-0.0125370463946
-0.0125139624979
-0.0125023253589
-0.0125038457853
-0.01252822584
-0.0125801557518
-0.0126344099266
-0.0126085087579
-0.0123364531079
-0.0115333352434
-0.00967776667726
-0.0049486581225
-0.00495261525115
-0.00970994608199
-0.0115835175747
-0.0124003397474
-0.012680777933
-0.0127085521296
-0.0126494272484
-0.0125854891827
-0.0125422236323
-0.0125178742261
-0.0125063839145
-0.0125096466046
-0.0125366683465
-0.0125911193429
-0.0126471320504
-0.0126217681681
-0.0123487321052
-0.0115428177658
-0.00968322849144
-0.00495035388572
-0.00495650666119
-0.00972467739195
-0.0116057063069
-0.0124277053263
-0.0127104637717
-0.0127387174394
-0.0126786643792
-0.0126128735227
-0.0125676196506
-0.0125421020556
-0.012531270495
-0.0125371096942
-0.0125675965799
-0.0126250291552
-0.0126826903196
-0.0126570670784
-0.0123813703415
-0.0115693470844
-0.00970056138221
-0.00495496128063
-0.00496634913029
-0.00975581546391
-0.0116473585105
-0.0124761595482
-0.0127614809383
-0.0127909132648
-0.0127308963609
-0.0126642459711
-0.0126179199303
-0.0125920000394
-0.0125821992725
-0.0125904918419
-0.0126239195581
-0.0126835537639
-0.0127420106212
-0.0127153579512
-0.0124361557865
-0.0116169563706
-0.00973567346656
-0.00496590256385
-0.00498485846701
-0.00979921508063
-0.0116949315061
-0.0125237461498
-0.0128099684038
-0.0128394132896
-0.0127802961372
-0.012714358982
-0.0126684652107
-0.0126431517407
-0.0126345578395
-0.0126445553598
-0.0126795465943
-0.0127398690176
-0.0127984045584
-0.0127718133393
-0.0124921223169
-0.0116716729521
-0.00978384287136
-0.0049857855521
-0.00500684623598
-0.00981819570268
-0.0116909612474
-0.0125002632775
-0.0127756318474
-0.0128026550397
-0.0127446231456
-0.0126811873442
-0.0126375898745
-0.0126139974083
-0.0126066149259
-0.0126171722633
-0.0126517708865
-0.0127106054922
-0.0127694914149
-0.0127462819419
-0.0124771972555
-0.0116748034239
-0.00980744235367
-0.00500899467728
-0.00500535959924
-0.00971074884881
-0.0114993623152
-0.0122515710408
-0.0124965476536
-0.0125138393452
-0.0124575348763
-0.0123988197621
-0.0123597996662
-0.0123392555268
-0.0123330630421
-0.0123428419386
-0.0123748671329
-0.0124304011209
-0.0124882479808
-0.0124754592146
-0.0122362170975
-0.0114892029857
-0.00970365671237
-0.00500820220325
-0.00491218395194
-0.00926447256842
-0.0108596278386
-0.0114976729393
-0.0116862876929
-0.0116856260543
-0.0116315687168
-0.0115818349143
-0.0115506768416
-0.0115347477598
-0.0115297291089
-0.0115370730599
-0.0115630088446
-0.0116112672133
-0.011667513812
-0.0116724622385
-0.0114883756994
-0.0108536328501
-0.00925958131947
-0.0049149996605
-0.00460272545282
-0.00804869677216
-0.00926312553398
-0.00970817061042
-0.00981379877588
-0.00979216148924
-0.00974498342002
-0.00970894731376
-0.00968866788569
-0.00967884055671
-0.00967545557534
-0.00967941675059
-0.00969623497734
-0.0097317277778
-0.00978089202875
-0.00980569011378
-0.00970290737804
-0.00925940170591
-0.00804475241451
-0.00460486123946
-0.00398714038218
-0.00460353425419
-0.00491309139492
-0.00500582799449
-0.00500670881234
-0.00498403509981
-0.00496471792521
-0.00495395251429
-0.00494907617192
-0.00494768748738
-0.0049481652256
-0.0049493852161
-0.00495359526484
-0.00496465973749
-0.00498486739787
-0.0050084574075
-0.00500798979286
-0.00491497721054
-0.00460488091718
-0.00398886771601
-0.00402077919458
-0.00491446262541
-0.00541566013961
-0.00559804378237
-0.00562583431631
-0.00560085434561
-0.005571553021
-0.00555280133057
-0.00554386942626
-0.00554056319036
-0.00554047648903
-0.00554256589985
-0.00555012826603
-0.0055682063705
-0.00559756177589
-0.00562314710884
-0.00559628278306
-0.00541489976388
-0.00491473378164
-0.00402204606359
-0.00491414624815
-0.00926861809262
-0.0108615421961
-0.011496874601
-0.0116830051174
-0.0116807710577
-0.0116267316219
-0.0115786222543
-0.0115499577122
-0.0115360049431
-0.0115320209624
-0.0115381771157
-0.0115605495122
-0.011604313613
-0.0116564553479
-0.0116593253588
-0.0114764406881
-0.0108464152136
-0.00925892394342
-0.00491573715955
-0.00541557895406
-0.0108634717889
-0.0128848272198
-0.013741806117
-0.0140328009222
-0.0140665695749
-0.0140137542096
-0.0139543557922
-0.0139159151973
-0.0138973401098
-0.0138923814371
-0.0139005103181
-0.0139308004277
-0.0139831475659
-0.0140318546064
-0.0139968232392
-0.0137083666264
-0.0128580273236
-0.0108457942512
-0.00541629017254
-0.00559852312603
-0.0115021121659
-0.0137463670338
-0.014736718312
-0.0151006504658
-0.0151657608071
-0.0151197398474
-0.0150537370303
-0.0150074207348
-0.0149833855353
-0.014977807503
-0.0149907282614
-0.015026453328
-0.0150820818714
-0.0151223103506
-0.0150539473845
-0.0146911412774
-0.0137076692695
-0.0114752568538
-0.00559738154829
-0.0056272341756
-0.0116933412407
-0.0140447779861
-0.015109083227
-0.0155178669403
-0.0156048708574
-0.0155553004962
-0.0154856274251
-0.0154377575002
-0.0154123230373
-0.0154069566569
-0.0154217690069
-0.0154638275807
-0.0155219002397
-0.0155526171766
-0.0154611655983
-0.0150522731546
-0.013994644657
-0.0116570349735
-0.00562363324933
-0.0056035013449
-0.0116975233091
-0.0140879395167
-0.0151853263877
-0.0156176510157
-0.0156935075095
-0.0156270027579
-0.0155594280169
-0.0155195463793
-0.0154965951254
-0.0154943137719
-0.0155128950267
-0.0155670005837
-0.015638349895
-0.0156615107152
-0.0155496698732
-0.0151178814629
-0.0140272664308
-0.0116523682225
-0.00559726050677
-0.00557553134143
-0.0116499462207
-0.0140446328504
-0.0151501343561
-0.0155802643368
-0.0156330820204
-0.0155646152605
-0.0155153870664
-0.0154878149439
-0.0154683437135
-0.0154692774219
-0.0154911440187
-0.015556154543
-0.0156400102394
-0.0156563500435
-0.0155159940257
-0.0150738136512
-0.0139749336527
-0.011597343598
-0.0055668567104
-0.00555794948229
-0.0116072149379
-0.0139939207188
-0.0150967554102
-0.0155195577957
-0.0155621954819
-0.0155059993763
-0.0154713211719
-0.0154519900262
-0.0154339850956
-0.015435404317
-0.01545731733
-0.0155265951793
-0.0156150543034
-0.0156269587329
-0.0154645212429
-0.0150142781801
-0.0139175067628
-0.0115491420749
-0.00554730253646
-0.00554998151389
-0.0115821631232
-0.0139606838804
-0.0150588211685
-0.0154786071836
-0.015522035273
-0.0154728613232
-0.0154452421426
-0.0154293212822
-0.0154111641916
-0.0154111802542
-0.0154310362744
-0.0154997728903
-0.0155877943862
-0.0155958890112
-0.0154256424653
-0.0149712820828
-0.0138799966986
-0.0115207671696
-0.00553799325797
-0.00554736563511
-0.0115706591826
-0.0139448621139
-0.0150399445603
-0.0154585830184
-0.0155014957232
-0.0154540164727
-0.0154288990616
-0.0154142720671
-0.0153958834218
-0.0153950299422
-0.0154138321599
-0.0154823652511
-0.0155704817311
-0.0155774688884
-0.0154054827804
-0.0149515236748
-0.0138630939439
-0.0115081818462
-0.0055348691095
-0.00554773598165
-0.0115674879046
-0.0139409443394
-0.0150355600887
-0.0154539928199
-0.0154964749231
-0.0154501797423
-0.0154267384729
-0.0154126748991
-0.0153940127602
-0.015393532167
-0.0154135264374
-0.015484178249
-0.0155738351351
-0.0155800986847
-0.0154058966034
-0.0149508001137
-0.0138614771721
-0.0115063049648
-0.00553546353414
-0.00555059725739
-0.0115730927463
-0.0139489821501
-0.0150463452431
-0.0154656863561
-0.0155079843562
-0.0154626493409
-0.0154404022838
-0.0154264946142
-0.0154077387852
-0.0154088216286
-0.0154319048665
-0.0155064343249
-0.0155985119617
-0.015604084347
-0.0154270919431
-0.0149694213228
-0.0138762569266
-0.0115159292742
-0.00553887583982
-0.00555842232382
-0.0115939390096
-0.0139765352613
-0.0150780506824
-0.0155041211965
-0.0155539753879
-0.0155125459669
-0.0154907208302
-0.0154751539627
-0.0154552275047
-0.0154568420344
-0.0154817711746
-0.0155567951158
-0.0156459269295
-0.015646528021
-0.0154682026381
-0.0150105005199
-0.0139129576799
-0.0115430960442
-0.00554823486763
-0.00557602623779
-0.0116348090172
-0.0140245411718
-0.0151294393148
-0.0155624482586
-0.0156333203105
-0.0155947551547
-0.0155670074363
-0.0155445874221
-0.0155214088943
-0.0155206780614
-0.0155436939606
-0.0156111466065
-0.015687714362
-0.0156802693766
-0.015518925981
-0.0150720302741
-0.0139714722181
-0.0115920901183
-0.00556835531477
-0.00560425616756
-0.0116828093619
-0.0140675827654
-0.0151623362168
-0.0155915145071
-0.0156810246945
-0.0156424407942
-0.0155988189655
-0.015564330979
-0.0155377065677
-0.0155334875981
-0.0155527363
-0.0156070050416
-0.0156664285728
-0.0156688986435
-0.0155477770341
-0.0151168041514
-0.0140256442159
-0.0116489793574
-0.0055995234063
-0.00562825116706
-0.0116805823184
-0.0140262604824
-0.0150874978408
-0.0154945565219
-0.0155793589573
-0.0155346420862
-0.015472376238
-0.0154268928995
-0.0153996191756
-0.0153940087392
-0.0154111590152
-0.01545582817
-0.0155135330192
-0.0155445630219
-0.0154575628728
-0.0150515422616
-0.0139945299744
-0.0116550839419
-0.00562619142254
-0.00559961747804
-0.0114920776858
-0.0137310397003
-0.0147179613805
-0.0150798202101
-0.0151429355247
-0.0150940306087
-0.015027220031
-0.0149783791296
-0.01495217707
-0.0149459385198
-0.0149610278287
-0.015000680222
-0.0150633059585
-0.0151105597821
-0.015048550351
-0.0146900638848
-0.013707767633
-0.0114732357063
-0.00559943085908
-0.00541659997449
-0.0108564481498
-0.0128737305339
-0.0137274223793
-0.0140159320941
-0.0140472463674
-0.0139910842102
-0.0139279919884
-0.0138842871856
-0.0138610490678
-0.0138542783453
-0.0138659962529
-0.0139017736381
-0.0139613523289
-0.0140180420415
-0.0139900990244
-0.0137061482283
-0.0128566110826
-0.0108419649525
-0.00541724381944
-0.00491519703528
-0.0092638250092
-0.0108544914253
-0.0114874694313
-0.0116713374823
-0.0116665916783
-0.0116091651324
-0.0115568168199
-0.011523447847
-0.011505920028
-0.0115000258859
-0.011507245057
-0.0115338480346
-0.0115838640552
-0.0116428818063
-0.011651497022
-0.0114717545027
-0.0108416685365
-0.00925210538325
-0.00491600636434
-0.00402195056199
-0.00491653082809
-0.0054181503877
-0.00560039699709
-0.00562757895968
-0.00560154315671
-0.00557066386142
-0.0055499361478
-0.00553905129921
-0.00553435198193
-0.00553343538304
-0.00553584752867
-0.00554504229913
-0.00556560565791
-0.00559758936085
-0.00562514372645
-0.00559906680934
-0.00541722561249
-0.00491603331764
-0.00402411942969
-0.00402209479675
-0.00500742603835
-0.0055946082243
-0.00582293282
-0.00586410802397
-0.00583444567869
-0.00579497847684
-0.00576759152252
-0.00575334628643
-0.00574723827459
-0.00574580399586
-0.00574859657627
-0.00575952623489
-0.00578440384833
-0.00582243964855
-0.00585197201187
-0.00581238288828
-0.00558753181177
-0.00500514003045
-0.00402359340275
-0.00500676357527
-0.00969683467364
-0.0114634912453
-0.0121925235065
-0.0124178394889
-0.0124213628364
-0.0123576170948
-0.0122968336895
-0.012258451065
-0.0122389896881
-0.0122334358168
-0.0122418326952
-0.0122697870511
-0.0123213687228
-0.0123777425744
-0.012369691768
-0.0121447307607
-0.0114230389371
-0.00967029887683
-0.0050061058355
-0.00559493551946
-0.011468774545
-0.0136840844269
-0.0146483766917
-0.0149930466565
-0.0150458580787
-0.0149926746449
-0.0149257527912
-0.0148802159412
-0.0148541850925
-0.0148492318206
-0.0148643158814
-0.014899751984
-0.0149556005249
-0.0149978982903
-0.0149353592568
-0.014584999257
-0.0136234886697
-0.0114229138272
-0.00558917715547
-0.00582576308369
-0.0122071624679
-0.0146594469588
-0.0157704206295
-0.0162034742102
-0.0162903665635
-0.0162327261401
-0.0161594059911
-0.016114626611
-0.0160922233332
-0.0160922576662
-0.0161140584046
-0.0161674635715
-0.0162394507437
-0.0162603984843
-0.0161429399565
-0.0156984691167
-0.0145842808602
-0.0121440325768
-0.00581392904646
-0.00587081619182
-0.0124454665624
-0.0150193124672
-0.016218924288
-0.0166819014495
-0.0167384703017
-0.0166578854313
-0.01660615214
-0.0165863297353
-0.0165748503966
-0.0165875502586
-0.0166236961817
-0.0167115361798
-0.0168174644325
-0.0168343050242
-0.0166627984781
-0.016140918194
-0.0149326756576
-0.0123673792563
-0.00585289017708
-0.00584582714604
-0.0124638398867
-0.0150893533265
-0.0163221202477
-0.0167434145994
-0.0167569537235
-0.0166835793301
-0.0166766537424
-0.0166925364472
-0.0166931970086
-0.0167198683882
-0.0167723080171
-0.0169028759179
-0.0170632992349
-0.0170894768763
-0.0168640213081
-0.0162568961638
-0.0149921768423
-0.0123727508849
-0.00582235797032
-0.00581086970027
-0.0124142515545
-0.0150532645309
-0.0162708998473
-0.016643345959
-0.0166451334783
-0.0166054592937
-0.0166536554508
-0.0166987787884
-0.0167042127174
-0.0167374427259
-0.0167993425058
-0.0169633795553
-0.017170673174
-0.0172094331077
-0.0169410333246
-0.0162566764315
-0.014945858115
-0.0123123451542
-0.00578285081475
-0.00578697007125
-0.012364709758
-0.0150012342286
-0.0161974616998
-0.016559395248
-0.0165733785909
-0.0165736388313
-0.0166565529112
-0.0167151347243
-0.0167175892844
-0.0167490336588
-0.0168118232236
-0.0169920391594
-0.0172228161702
-0.0172671152452
-0.0169648337634
-0.0162334394534
-0.0148855899233
-0.0122550826935
-0.00575576488673
-0.00577489815435
-0.0123333722806
-0.0149652447679
-0.016154921315
-0.0165203925879
-0.016546858963
-0.016564120536
-0.0166598227725
-0.0167211992486
-0.016719364656
-0.016746869753
-0.0168074179568
-0.0169928200364
-0.0172321216573
-0.0172758722151
-0.0169582510064
-0.016205825757
-0.0148451905744
-0.0122200040758
-0.00574205820009
-0.00576972831572
-0.012317163864
-0.0149474877841
-0.0161357260084
-0.0165006681957
-0.0165279118634
-0.0165475958668
-0.0166467201535
-0.0167090690971
-0.0167059040577
-0.0167325314619
-0.0167934847061
-0.0169834932897
-0.0172295105695
-0.0172748713106
-0.0169515607725
-0.0161916102667
-0.0148286317853
-0.0122047176958
-0.00573689537631
-0.00576826986039
-0.0123105271855
-0.0149422314412
-0.0161314367315
-0.0164973474379
-0.0165268038023
-0.0165504676609
-0.0166545793981
-0.0167196091242
-0.0167170864416
-0.0167458183074
-0.0168102635173
-0.0170064719401
-0.0172580418883
-0.0173019546865
-0.016969884589
-0.0161998650543
-0.0148305823641
-0.0122039933065
-0.00573707777161
-0.00577066740941
-0.0123144648667
-0.014949529777
-0.0161425056479
-0.0165108837886
-0.0165443883353
-0.0165744318111
-0.0166862772637
-0.0167565806014
-0.0167571381892
-0.016790584546
-0.0168604080826
-0.0170626874965
-0.017317000659
-0.0173553946955
-0.0170114044721
-0.0162294818535
-0.0148515059291
-0.0122185694416
-0.00574231283555
-0.00578054742348
-0.0123363585007
-0.0149769305512
-0.016187309817
-0.0165768517968
-0.0166303771708
-0.0166743145084
-0.0167946420241
-0.0168686051473
-0.0168709857658
-0.0169063276952
-0.0169764957308
-0.0171728527852
-0.0174104333509
-0.0174240699397
-0.0170602682304
-0.0162713237994
-0.0148958717202
-0.0122546086192
-0.00575654436724
-0.00580347951047
-0.0123804853726
-0.0150231385751
-0.0162665951035
-0.0166966570187
-0.016786996792
-0.0168380188192
-0.0169505163348
-0.017016397806
-0.0170162154351
-0.0170466499253
-0.0171078698594
-0.017276199798
-0.0174648235575
-0.0174300358089
-0.0170609582023
-0.0162986630373
-0.0149587891317
-0.0123145364015
-0.00578513611281
-0.00583875171159
-0.0124286508614
-0.0150561059733
-0.0163059487588
-0.0167817718878
-0.0168981015698
-0.0169356958862
-0.0170093788681
-0.0170492618707
-0.0170428667768
-0.0170635069607
-0.0171102971835
-0.0172337125481
-0.0173522392433
-0.0172846949535
-0.0169536505643
-0.0162866528297
-0.0150065711862
-0.0123783364144
-0.00582646413299
-0.00586490055364
-0.0124119365254
-0.0149846350498
-0.0161909033885
-0.0166791022635
-0.0168017011003
-0.0168065960845
-0.0168186248056
-0.0168200389913
-0.0168050205919
-0.0168140115179
-0.0168460534703
-0.0169243207833
-0.016991520729
-0.0169340993853
-0.0167034101921
-0.0161601546628
-0.0149472955041
-0.0123753604611
-0.00585795906849
-0.00582157006633
-0.0121779744433
-0.0146257027199
-0.0157395557801
-0.0161780562901
-0.0162765306097
-0.0162463098967
-0.0162078920007
-0.0161754021623
-0.0161536357464
-0.0161536598626
-0.01617554648
-0.0162250936498
-0.0162783595992
-0.0162793156439
-0.0161557006219
-0.0157126279052
-0.0145977035367
-0.0121517752594
-0.00581838354592
-0.00559289405914
-0.0114467428847
-0.0136552406995
-0.0146185510975
-0.0149652008612
-0.0150202967709
-0.0149682779671
-0.0149016860891
-0.0148545710078
-0.0148305757757
-0.014825365325
-0.0148408876578
-0.014881999589
-0.0149443828045
-0.014994364809
-0.0149393231196
-0.0145944336963
-0.0136335501865
-0.0114266950237
-0.00559159779291
-0.00500702784409
-0.009683522101
-0.0114438000073
-0.0121694276076
-0.0123936011691
-0.0123964761807
-0.0123309194134
-0.0122667984453
-0.0122241002747
-0.0122013076056
-0.0121939988446
-0.0122041412134
-0.0122383725663
-0.0122991539555
-0.0123660926226
-0.0123675838802
-0.0121482640907
-0.0114259104969
-0.00966659736658
-0.00500661047115
-0.00402354374699
-0.00500858274869
-0.00559465095019
-0.00582179687091
-0.00586193925144
-0.00583106791831
-0.00578967710059
-0.00575962167191
-0.00574247016382
-0.00573408352444
-0.00573160990871
-0.00573529631445
-0.00574933585136
-0.0057789035927
-0.00582197809906
-0.00585541873662
-0.00581740515606
-0.00559143662674
-0.00500658029708
-0.00402623980434
-0.00401339227122
-0.00499626373481
-0.00559271818503
-0.00582085603187
-0.00585205701139
-0.00580846143166
-0.00575675867284
-0.0057213249637
-0.00570288828326
-0.00569496711769
-0.00569274669278
-0.00569596826389
-0.00570931765901
-0.00573960902717
-0.00578631351148
-0.00582570111903
-0.00579348691699
-0.00557047016168
-0.00498602346148
-0.00401463580235
-0.00499495402735
-0.00972822192366
-0.0115211863245
-0.012259044399
-0.0124836932494
-0.0124821012734
-0.0124121183239
-0.0123460741854
-0.0123044467411
-0.0122847449475
-0.0122812356713
-0.0122931803727
-0.0123251439736
-0.0123796358334
-0.0124354905933
-0.012420384397
-0.0121804397114
-0.0114382878951
-0.00966357187398
-0.00498649637557
-0.00559445792626
-0.011533630993
-0.0137847102405
-0.0147766801836
-0.0151458835079
-0.0152067133371
-0.015143285731
-0.0150777872199
-0.0150423217903
-0.0150244396203
-0.0150290071523
-0.0150549694944
-0.0151050009395
-0.015174768145
-0.0152016571417
-0.0151030835128
-0.0147057703384
-0.0136896415327
-0.0114386406597
-0.0055718734274
-0.00582969446349
-0.0122903326364
-0.0147946291048
-0.0159575925506
-0.0163882199738
-0.0164239353687
-0.0163356472622
-0.0162984355766
-0.0162967280335
-0.0162986664919
-0.016324316553
-0.0163721309308
-0.0164780388809
-0.0166102286871
-0.0166344788989
-0.0164534514904
-0.015909261328
-0.0147045008179
-0.0121795056681
-0.00579488352325
-0.00587079479748
-0.0125364943943