/*--------------------------------*- C++ -*----------------------------------*\
| =========                 |                                                 |
| \\      /  F ield         | OpenFOAM: The Open Source CFD Toolbox           |
|  \\    /   O peration     | Version:  3.0.1                                 |
|   \\  /    A nd           | Web:      www.OpenFOAM.org                      |
|    \\/     M anipulation  |                                                 |
\*---------------------------------------------------------------------------*/
FoamFile
{
    version     2.0;
    format      ascii;
    class       volScalarField;
    location    "1.6";
    object      ddt0(epsilon);
}
// * * * * * * * * * * * * * * * * * * * * * * * * * * * * * * * * * * * * * //

dimensions      [0 2 -4 0 0 0 0];

internalField   nonuniform List<scalar> 
7968
(
-0.00936964534581
-0.00978474595421
-0.0100101035
-0.0100785429136
-0.0100862225872
-0.0100804474858
-0.0100756422164
-0.010073771603
-0.0100751620082
-0.0100757193602
-0.0100781662282
-0.0100781808505
-0.0100776812888
-0.0100801408949
-0.0100854985678
-0.0100917596922
-0.0100841823283
-0.0100150380946
-0.00978834896099
-0.00937086209972
-0.00978463389878
-0.0125558036861
-0.0141465773426
-0.0147765588541
-0.0149443432036
-0.0149483285724
-0.0149200456283
-0.0148994251828
-0.0148899507724
-0.0148874310729
-0.0148892515741
-0.0148938129895
-0.0149044206985
-0.0149270178905
-0.014958191058
-0.0149572300714
-0.0147913027448
-0.014161077359
-0.0125677503331
-0.00978810417353
-0.0100098557788
-0.0141462375666
-0.016775531965
-0.0179519872223
-0.0183381633094
-0.0183943534802
-0.0183582278104
-0.0183203011056
-0.0182990210984
-0.0182942288601
-0.0182923797606
-0.0182988219556
-0.0183201065469
-0.0183596766555
-0.0183995655659
-0.0183483037398
-0.0179664550163
-0.0167917725856
-0.0141607092896
-0.0100146789466
-0.0100779920215
-0.014775195089
-0.0179508884775
-0.01946935431
-0.0200155131069
-0.0201189702459
-0.0200802107931
-0.0200516750371
-0.0200200936606
-0.0200057164526
-0.0200020792075
-0.0200093512794
-0.0200347328573
-0.0200715882356
-0.0201134708224
-0.0200164458648
-0.0194775414021
-0.0179643432837
-0.0147894509824
-0.0100834565357
-0.0100852409349
-0.0149419756335
-0.0183365462819
-0.0200157249192
-0.0206433658603
-0.0207701411091
-0.0207464350192
-0.0206834237376
-0.0206429400744
-0.0206241167029
-0.0206188175598
-0.020627354782
-0.0206588853454
-0.0207159389034
-0.0207512651688
-0.0206317980044
-0.0200142500486
-0.0183443314963
-0.0149541118986
-0.0100907391174
-0.0100790715902
-0.0149456058981
-0.0183936896186
-0.0201217281049
-0.020773451855
-0.0209201899328
-0.0208670115993
-0.0207944525628
-0.0207486321982
-0.0207271847175
-0.0207204532941
-0.0207287903924
-0.0207630372628
-0.0208276860882
-0.0208779710851
-0.0207492602497
-0.0201096962518
-0.0183945826486
-0.0149545485577
-0.0100842178723
-0.010073948476
-0.0149175974278
-0.0183594749916
-0.0200871457593
-0.0207555666041
-0.0208731471485
-0.0208114518494
-0.020734020443
-0.0206861324833
-0.0206638407013
-0.0206559804477
-0.0206627817118
-0.0206967077271
-0.0207645112513
-0.0208225711025
-0.0207079991182
-0.0200657886951
-0.0183538934232
-0.0149231901584
-0.0100785897127
-0.0100717016852
-0.0148974599705
-0.0183234590505
-0.0200469980644
-0.0206979656618
-0.0208072864423
-0.0207413964189
-0.0206628272268
-0.0206153339386
-0.0205935013066
-0.0205848837735
-0.0205893258426
-0.0206208002301
-0.0206884003982
-0.0207501757896
-0.0206440229034
-0.0200103840362
-0.0183126968834
-0.0149002337576
-0.0100758795663
-0.0100712398451
-0.0148885450325
-0.0183039229223
-0.0200353734913
-0.0206622900835
-0.0207674842861
-0.020700501497
-0.0206228480965
-0.0205767044839
-0.0205559184961
-0.020546728559
-0.0205484600371
-0.0205767479664
-0.0206425878896
-0.0207053082483
-0.0206037360645
-0.0199880549098
-0.0182897271296
-0.0148894484569
-0.0100754357709
-0.0100725576362
-0.0148867909544
-0.0182972448532
-0.0200236840085
-0.0206470485509
-0.0207506373503
-0.020683683538
-0.0206071053742
-0.020562221331
-0.0205423142251
-0.0205317727689
-0.0205309451469
-0.0205568861492
-0.0206214736295
-0.0206845889966
-0.0205853531799
-0.0199739324516
-0.0182816647054
-0.0148872656537
-0.0100759790268
-0.0100757867268
-0.0148896202296
-0.0182990813637
-0.0200221163109
-0.0206444234302
-0.0207472360121
-0.0206797964334
-0.0206030423403
-0.0205580667382
-0.020536986339
-0.0205245897624
-0.0205229554116
-0.0205490042593
-0.0206144053196
-0.0206789255055
-0.0205813427947
-0.0199716259906
-0.0182841973798
-0.0148908353084
-0.0100793344046
-0.0100760815076
-0.0148958135364
-0.0183091184483
-0.0200309474929
-0.0206547508204
-0.0207576492854
-0.0206890428615
-0.0206102893097
-0.0205626817285
-0.0205386819293
-0.0205254682208
-0.0205253638824
-0.0205542228455
-0.020622601512
-0.0206894168208
-0.0205925692893
-0.0199826167653
-0.018297036489
-0.0148984354566
-0.0100805980428
-0.0100770879794
-0.0149079177763
-0.0183320233884
-0.0200569251962
-0.0206866422803
-0.0207922577627
-0.0207234688216
-0.020642356059
-0.0205914797672
-0.0205648316988
-0.0205515974731
-0.0205542203158
-0.0205871343805
-0.0206589914457
-0.0207270751732
-0.0206281585156
-0.0200166434044
-0.0183249620817
-0.0149132528718
-0.0100824469321
-0.0100798023486
-0.0149309872955
-0.0183717905164
-0.0200937690738
-0.0207423963978
-0.0208551729273
-0.0207896463357
-0.0207084587701
-0.0206559159098
-0.0206280141048
-0.0206155504941
-0.0206210372535
-0.0206573509309
-0.0207307033588
-0.0207964620694
-0.0206913691828
-0.0200776203693
-0.0183716970841
-0.0149401858847
-0.0100861235398
-0.010085227876
-0.014961534967
-0.018409932323
-0.0201330221429
-0.0207771373457
-0.0209022932944
-0.0208443649608
-0.0207672742109
-0.0207161503508
-0.0206889986889
-0.0206780836598
-0.0206857615938
-0.0207231676838
-0.0207941421207
-0.0208532753953
-0.0207574986162
-0.0201285714981
-0.0184179991133
-0.014975052316
-0.0100924047482
-0.0100913416985
-0.0149592282122
-0.0183555373568
-0.0200311894344
-0.0206529541778
-0.0207725567038
-0.020725810623
-0.0206575811214
-0.0206117348908
-0.020587709586
-0.0205789173524
-0.020587422518
-0.0206225273995
-0.0206900051271
-0.0207551490622
-0.0206477706143
-0.0200387126053
-0.0183713670873
-0.0149765417278
-0.0100991764943
-0.0100835894158
-0.0147918669962
-0.0179702141916
-0.0194867206087
-0.0200286705136
-0.0201269839739
-0.0200825404025
-0.020030868537
-0.0199934368724
-0.0199748489317
-0.0199685961413
-0.0199774810577
-0.0200106470592
-0.0200718956526
-0.0201243799244
-0.0200367545831
-0.0195038279753
-0.0179914686498
-0.0148114606296
-0.0100915315095
-0.0100144366167
-0.0141605595094
-0.0167927194613
-0.0179685083021
-0.0183520609343
-0.018404642976
-0.0183641375882
-0.018321222271
-0.0182954820403
-0.0182840908864
-0.0182828885748
-0.0182928030266
-0.0183193363254
-0.0183661552542
-0.0184136695887
-0.0183687795418
-0.0179905014047
-0.0168155813112
-0.0141798820352
-0.010021545647
-0.00978789736632
-0.0125668937311
-0.0141602348545
-0.014790410598
-0.0149569320445
-0.01495880635
-0.0149278364269
-0.0149043096542
-0.0148924456766
-0.0148888003477
-0.0148902534075
-0.0148960225845
-0.0149100018745
-0.014936908409
-0.0149723782984
-0.0149748387732
-0.0148106801982
-0.0141796949783
-0.0125825397098
-0.0097930760974
-0.00937077155218
-0.00978779354022
-0.010014314731
-0.0100832148544
-0.0100907664132
-0.010084524275
-0.0100790904464
-0.0100763889385
-0.0100756771064
-0.0100766471259
-0.0100793175529
-0.0100798546049
-0.0100816210616
-0.0100852835398
-0.0100917166619
-0.0100987432189
-0.0100913247994
-0.0100214829379
-0.00979306166047
-0.00937287711847
-0.00978475116758
-0.0125516270294
-0.0141427907882
-0.0147754148466
-0.0149461047617
-0.0149519875385
-0.0149245837345
-0.0149038696998
-0.0148909684108
-0.0148878193981
-0.0148904269705
-0.0148942416214
-0.0149056898514
-0.0149265654386
-0.0149550831206
-0.0149503598929
-0.0147802063503
-0.0141470040496
-0.0125547630352
-0.0097868595763
-0.0125514425441
-0.00886820037142
-0.00974345203255
-0.0101301244351
-0.0102439872382
-0.0102507909427
-0.0102327042105
-0.0102179622094
-0.0102104470324
-0.0102075035936
-0.0102066754854
-0.0102080552152
-0.0102145113174
-0.0102289809384
-0.0102474879746
-0.0102415014979
-0.0101285808541
-0.00974299279403
-0.00886960612173
-0.0125566771202
-0.0141424509288
-0.00974336725223
-0.0106701368071
-0.0111134851817
-0.0112586416933
-0.0112744880767
-0.01125429694
-0.0112349005179
-0.0112239861047
-0.0112198821618
-0.0112182016813
-0.0112196678702
-0.0112287036021
-0.0112470526181
-0.0112672033561
-0.0112522204574
-0.0111086506855
-0.0106676336237
-0.00974442710163
-0.0141494581261
-0.0147747739374
-0.0101299694252
-0.0111136096967
-0.0116029537906
-0.011771491159
-0.0117927365886
-0.0117691518977
-0.0117465063874
-0.0117313822729
-0.0117241813437
-0.0117219290623
-0.0117249129442
-0.0117365753708
-0.0117580112866
-0.0117810657593
-0.011760766655
-0.0115945121777
-0.0111087567448
-0.0101301665791
-0.0147818309818
-0.014945218503
-0.0102439822832
-0.0112593698957
-0.01177240545
-0.011951454987
-0.0119731566046
-0.0119459106122
-0.0119160029406
-0.0118974657758
-0.0118886086211
-0.0118858434895
-0.0118894613465
-0.0119035032094
-0.011930161982
-0.0119567887108
-0.0119363114297
-0.0117601768878
-0.0112518707403
-0.0102428079687
-0.0149508523504
-0.0149512000515
-0.0102512349084
-0.0112763174027
-0.0117953209413
-0.011974908913
-0.0119935893616
-0.0119597740324
-0.0119259875568
-0.0119055401457
-0.0118958389302
-0.0118926243889
-0.0118961998835
-0.0119113332662
-0.0119410976395
-0.011972717291
-0.0119556347182
-0.011779487594
-0.0112661536914
-0.0102484243431
-0.0149545000476
-0.0149241976408
-0.0102337663269
-0.011257466687
-0.0117738395386
-0.0119506906526
-0.0119627747951
-0.0119252570708
-0.0118897133474
-0.0118687787426
-0.0118589553456
-0.011855327318
-0.0118582131605
-0.0118731089216
-0.0119040858666
-0.0119389824466
-0.011926929724
-0.0117548678979
-0.0112449482041
-0.0102293589946
-0.0149248462634
-0.0149042872758
-0.0102196702576
-0.0112393657946
-0.0117525459332
-0.0119235125327
-0.0119321259564
-0.0118930664697
-0.0118574150815
-0.011837032192
-0.011827562366
-0.0118235396958
-0.0118253089183
-0.0118390215026
-0.0118697056951
-0.0119059789527
-0.0118972597717
-0.0117300001038
-0.0112249073374
-0.0102139108881
-0.0149024416136
-0.0148950271183
-0.0102128196426
-0.0112293234983
-0.0117401247953
-0.0119072668723
-0.0119143560001
-0.0118751199576
-0.0118401626181
-0.0118206626592
-0.0118116375559
-0.0118072380677
-0.0118078574089
-0.0118201605736
-0.0118499023803
-0.0118863278589
-0.0118792317996
-0.0117155614917
-0.0112135084779
-0.0102060410983
-0.014890604693
-0.0148910441951
-0.0102104136061
-0.0112252515622
-0.0117341567439
-0.0118999861945
-0.0119065587006
-0.0118674774162
-0.0118330487343
-0.0118140516666
-0.0118051827091
-0.0118004071509
-0.0118002501047
-0.0118116805043
-0.011840806862
-0.0118771716993
-0.0118707465249
-0.0117085439811
-0.0112085777888
-0.0102030924952
-0.0148879663855
-0.014894010393
-0.0102102383545
-0.0112245689807
-0.0117326894988
-0.0118981204616
-0.0119044103123
-0.011865088128
-0.0118303973629
-0.0118110787063
-0.0118018314411
-0.0117967440596
-0.011796499641
-0.0118080845035
-0.0118375390416
-0.0118743143297
-0.0118683330534
-0.0117066455055
-0.0112075664282
-0.01020271185
-0.0148922215306
-0.0149004366975
-0.0102122834067
-0.0112273042109
-0.0117359913443
-0.0119019597295
-0.0119082325316
-0.0118682962915
-0.011832566693
-0.0118121132047
-0.0118020377767
-0.0117968235584
-0.0117972366847
-0.0118100026435
-0.0118406892699
-0.0118782919244
-0.0118724740084
-0.0117103860004
-0.0112108254929
-0.0102049800485
-0.0148979046925
-0.0149108521293
-0.0102190141764
-0.0112365064839
-0.0117474317811
-0.0119155901442
-0.0119228963549
-0.0118827548644
-0.0118459034465
-0.0118240611938
-0.0118130616743
-0.0118079271234
-0.0118094618279
-0.0118238986576
-0.0118560064825
-0.0118940608613
-0.0118873912353
-0.0117237159206
-0.0112214049713
-0.0102126669674
-0.0149097745157
-0.014931742589
-0.01023333608
-0.011254440233
-0.0117682349271
-0.011941359601
-0.0119516542982
-0.0119127678793
-0.0118757205632
-0.0118530039648
-0.0118413785514
-0.0118364970248
-0.0118391616856
-0.0118549520696
-0.0118876598454
-0.0119247853505
-0.0119156021497
-0.0117484833017
-0.011241601531
-0.0102285983524
-0.0149331716229
-0.0149594051922
-0.010251209945
-0.011273583581
-0.0117900179667
-0.0119669549817
-0.0119820143336
-0.0119464320996
-0.0119109119697
-0.011888483523
-0.0118768547169
-0.011872340267
-0.0118757191688
-0.0118918450773
-0.0119235691798
-0.0119580601145
-0.0119463807963
-0.0117738855403
-0.011263581924
-0.0102484388306
-0.0149639489658
-0.014953359777
-0.0102442617308
-0.011257162038
-0.0117679166666
-0.0119447352133
-0.0119637607769
-0.0119331516034
-0.0119011652317
-0.0118805403986
-0.0118697396564
-0.0118656975218
-0.0118691652724
-0.0118843023801
-0.011913512167
-0.0119452668732
-0.0119285603824
-0.0117557343344
-0.0112501467942
-0.0102433282638
-0.0149606116239
-0.0147818084175
-0.0101303045314
-0.0111120041491
-0.0115995994072
-0.0117664371755
-0.0117858730101
-0.0117602037515
-0.0117336759722
-0.0117163374367
-0.0117072543017
-0.0117038504896
-0.011706906689
-0.0117203272306
-0.0117456745999
-0.0117720227931
-0.0117549205471
-0.0115913801924
-0.011107655095
-0.0101306835758
-0.0147903864777
-0.0141475606949
-0.00974385545875
-0.0106695616831
-0.0111118985935
-0.0112559525901
-0.0112705164255
-0.0112487423418
-0.0112273933768
-0.0112143316512
-0.0112077310361
-0.0112053442219
-0.0112078301997
-0.0112182884021
-0.01123889763
-0.0112616477938
-0.0112490740955
-0.0111072771344
-0.0106673336286
-0.00974484509079
-0.0141555557378
-0.0125547873077
-0.00886996323384
-0.00974537495439
-0.0101318987953
-0.0102452686664
-0.0102512466643
-0.0102319646623
-0.0102157606406
-0.0102068321427
-0.0102027227224
-0.0102012889549
-0.0102029333974
-0.0102104931469
-0.0102266835027
-0.0102470490606
-0.0102425368403
-0.0101303822412
-0.00974482100262
-0.00887094783361
-0.0125604461222
-0.00978669583869
-0.0125568956343
-0.0141502177713
-0.0147835444212
-0.0149537178537
-0.0149581824587
-0.0149286074024
-0.014905514681
-0.0148928558844
-0.0148890421567
-0.0148911229026
-0.0148956315196
-0.0149069099277
-0.0149306001751
-0.0149620695875
-0.0149595139793
-0.0147899539707
-0.014155496577
-0.0125604488937
-0.00979065572431
-0.0100116448088
-0.0141468525333
-0.0167750929791
-0.0179509023875
-0.0183360084358
-0.0183899982516
-0.0183510954399
-0.0183104540776
-0.0182868629746
-0.0182770047013
-0.0182773968442
-0.0182843089576
-0.018304062398
-0.01834261569
-0.0183814426674
-0.0183290341716
-0.0179464026464
-0.0167731447839
-0.0141474617243
-0.0100143949054
-0.0141462984195
-0.00974458762661
-0.0106688840019
-0.011108564538
-0.0112494706096
-0.0112613487164
-0.0112381708385
-0.0112168500181
-0.0112048200744
-0.0111993832775
-0.0111978548762
-0.011200350152
-0.0112100931242
-0.0112299932863
-0.0112526858431
-0.011241231478
-0.011101719095
-0.0106645052779
-0.00974398256502
-0.0141506369075
-0.0167748762724
-0.0106689562682
-0.0113914684777
-0.0117643421672
-0.0118876511715
-0.0118958373337
-0.0118706787326
-0.0118467807128
-0.0118328631676
-0.0118265718449
-0.0118246288924
-0.0118269879173
-0.0118379349333
-0.0118593406925
-0.0118830625593
-0.0118745921518
-0.0117526420015
-0.0113832608609
-0.0106666485544
-0.0167777558773
-0.0179519483035
-0.0111094502845
-0.0117655692502
-0.012118976884
-0.0122371324979
-0.0122424596977
-0.0122139833966
-0.0121861758489
-0.0121689613537
-0.0121606146306
-0.012158313948
-0.0121621674878
-0.0121752189837
-0.0121992859759
-0.0122256236213
-0.0122193428524
-0.0121023876443
-0.0117531658929
-0.0111044286462
-0.017950414686
-0.0183395225212
-0.0112520741851
-0.0118913841028
-0.0122400749458
-0.012355692749
-0.0123579337531
-0.0123218768023
-0.0122892664546
-0.0122709493702
-0.0122621206036
-0.0122599259248
-0.0122644802457
-0.0122809695992
-0.0123089382752
-0.01233715265
-0.012333483971
-0.0122188782502
-0.0118748033938
-0.0112438095398
-0.018331573575
-0.0183971534477
-0.0112663092423
-0.0119029050599
-0.0122495046373
-0.0123626873847
-0.0123514855278
-0.0123018461387
-0.0122685894568
-0.0122542131253
-0.0122469601622
-0.0122462796131
-0.0122523128482
-0.0122746244332
-0.0123108159184
-0.0123404722598
-0.0123359128615
-0.0122240851461
-0.011882507993
-0.0112548313671
-0.018382152828
-0.0183622449468
-0.0112455417855
-0.011881120602
-0.0122250819801
-0.0123313535037
-0.0123034250879
-0.0122507038222
-0.0122262023693
-0.0122184978191
-0.0122135332069
-0.0122143685745
-0.0122212799851
-0.0122480296566
-0.012290545891
-0.0123195394141
-0.0123062763141
-0.0121961207204
-0.0118575495591
-0.0112313276356
-0.0183408268759
-0.0183250151803
-0.0112261810656
-0.0118601539254
-0.0122016706544
-0.0123015884965
-0.0122670865189
-0.0122202422589
-0.0122036968529
-0.0122011924349
-0.0121977003007
-0.0121987217958
-0.0122047620442
-0.0122322215551
-0.0122760734658
-0.0123034581219
-0.0122814763803
-0.0121699549806
-0.0118342453093
-0.0112099514214
-0.018298532846
-0.018303945046
-0.0112154486746
-0.0118478445442
-0.0121874908451
-0.0122852466115
-0.0122511059788
-0.0122083858923
-0.0121964644666
-0.0121968038967
-0.0121939061729
-0.0121942192676
-0.0121985061969
-0.0122244446733
-0.0122669013817
-0.0122919176589
-0.0122664533572
-0.0121538193071
-0.0118204682212
-0.0111979911072
-0.0182742670903
-0.0182954329147
-0.0112108938791
-0.0118423453601
-0.0121807699582
-0.0122779910951
-0.0122438323691
-0.0122024714023
-0.0121924668013
-0.0121940512121
-0.012191345698
-0.0121911627528
-0.0121944891785
-0.0122196314054
-0.0122614198969
-0.0122853943211
-0.0122588919793
-0.0121465303685
-0.0118144424492
-0.0111929895307
-0.0182651708631
-0.0182963194445
-0.0112098071149
-0.0118407562932
-0.0121786762249
-0.0122755863103
-0.0122410495759
-0.0122001160725
-0.0121907746334
-0.0121924795053
-0.0121894957162
-0.0121893433368
-0.0121931324869
-0.0122192676457
-0.0122618312821
-0.0122854891872
-0.0122579638595
-0.0121452836982
-0.011813287123
-0.0111922397346
-0.0182677302645
-0.0183049287774
-0.0112123579794
-0.0118431170131
-0.0121815595798
-0.0122784490876
-0.0122432541822
-0.0122019542597
-0.0121921989999
-0.0121930949246
-0.012189525859
-0.0121899915003
-0.0121955658584
-0.0122242205316
-0.0122686897994
-0.0122925429373
-0.0122639435346
-0.0121504183869
-0.0118175934654
-0.0111960671875
-0.0182785053341
-0.0183252007002
-0.0112217541226
-0.0118531980195
-0.0121930003264
-0.0122933463026
-0.0122615432215
-0.0122211500641
-0.0122101603592
-0.0122088901494
-0.0122039801936
-0.0122046558369
-0.0122117829881
-0.0122418293583
-0.0122859676948
-0.0123078855732
-0.0122784396299
-0.0121649406296
-0.0118305570536
-0.011207776555
-0.0183030906363
-0.0183625001779
-0.011240715187
-0.0118731560036
-0.0122154520716
-0.0123219823117
-0.0123018473176
-0.0122627962719
-0.0122479126196
-0.0122420435324
-0.0122347760891
-0.0122343396261
-0.0122413180261
-0.0122688525487
-0.012307590135
-0.0123249224911
-0.0123018082725
-0.0121911610119
-0.0118541733919
-0.0112299556497
-0.018346939273
-0.0183984371806
-0.0112619067719
-0.0118949779476
-0.0122393126437
-0.0123503940664
-0.0123440664685
-0.0123071046701
-0.0122847426539
-0.0122723396552
-0.0122627983529
-0.0122606763083
-0.0122664084617
-0.0122881552698
-0.0123180334957
-0.0123374424689
-0.0123292986195
-0.0122194047863
-0.0118801122676
-0.0112547383362
-0.018390314332
-0.0183419654722
-0.0112485207785
-0.0118843389697
-0.01223075588
-0.0123448188879
-0.0123454268907
-0.0123102615242
-0.0122805031609
-0.01226278497
-0.012252585001
-0.0122497673396
-0.012254779121
-0.0122717812292
-0.0122990358466
-0.0123277117538
-0.0123267434119
-0.012214926715
-0.0118735070655
-0.0112446014952
-0.0183404221822
-0.017954862878
-0.0111068971067
-0.0117600671842
-0.0121114199378
-0.0122281320927
-0.0122320944053
-0.0122018024001
-0.0121724951319
-0.012153556586
-0.0121437527332
-0.0121407217402
-0.0121450572888
-0.0121596534194
-0.0121867654806
-0.0122163949628
-0.0122135377776
-0.0120996829545
-0.0117527602604
-0.011105267481
-0.0179576497168
-0.0167775683055
-0.0106677137142
-0.0113884264682
-0.0117598531609
-0.0118819714101
-0.0118889127906
-0.0118620809994
-0.0118361861725
-0.0118196501201
-0.011811065757
-0.0118080916773
-0.0118116015877
-0.0118246855072
-0.0118491855879
-0.0118765307359
-0.0118714900269
-0.0117520358839
-0.0113838021553
-0.0106671006344
-0.0167817141155
-0.0141488688015
-0.00974572220453
-0.0106699861109
-0.0111092254695
-0.011249397396
-0.0112601909134
-0.0112353696846
-0.0112118989521
-0.0111975333144
-0.011190286405
-0.0111878338509
-0.0111908403707
-0.0112026496727
-0.0112256513457
-0.0112517017797
-0.0112429023649
-0.0111046155584
-0.0106670204533
-0.00974489323441
-0.0141524040518
-0.0100141308122
-0.014152554971
-0.0167823947636
-0.0179580195939
-0.0183415356801
-0.0183928609494
-0.018350123768
-0.0183047282505
-0.0182765589029
-0.0182637770111
-0.0182625662113
-0.0182708435912
-0.0182951096039
-0.0183401085534
-0.0183855198263
-0.0183378286331
-0.017956729544
-0.0167816126308
-0.0141524011953
-0.0100192747589
-0.0100824362718
-0.0147781279671
-0.01793815244
-0.0194351443727
-0.0199589043099
-0.0200421981508
-0.0199882156289
-0.0199258462006
-0.0198870200567
-0.0198689437895
-0.0198656950685
-0.0198752401022
-0.019904725748
-0.019959699239
-0.0200093918433
-0.0199258159308
-0.0194067946062
-0.0179196400142
-0.014772481004
-0.0100858337581
-0.0147767150592
-0.010125103149
-0.0110966699791
-0.011570633529
-0.0117234319084
-0.011731430227
-0.0116986600795
-0.0116687689117
-0.0116513280266
-0.0116431492658
-0.0116407203497
-0.0116441974308
-0.0116573187199
-0.0116834171825
-0.0117130847447
-0.0117032477187
-0.0115510980792
-0.0110814283611
-0.0101177510213
-0.0147758611025
-0.0179388632183
-0.011097567631
-0.0117426291751
-0.0120838435843
-0.0121912362378
-0.0121886239874
-0.0121550782877
-0.0121252264964
-0.0121079642132
-0.0120988458659
-0.0120967801213
-0.0121015100249
-0.0121148301213
-0.0121402790969
-0.0121693170923
-0.0121679889481
-0.0120589041621
-0.0117204879473
-0.0110838455889
-0.0179254185758
-0.0194423573393
-0.0115751108623
-0.0120879247968
-0.0123762339864
-0.0124650996552
-0.0124515535437
-0.012405754217
-0.012371103789
-0.0123546654921
-0.0123475902985
-0.0123477903075
-0.0123550976298
-0.0123763297238
-0.012411308409
-0.0124401797794
-0.0124398853357
-0.0123470048956
-0.0120594795561
-0.0115542780604
-0.0194125639232
-0.0199769537113
-0.0117338016097
-0.0122018239678
-0.0124718011539
-0.0125394991792
-0.0124936575399
-0.0124297505853
-0.0124025579172
-0.0123977530241
-0.0123961434199
-0.0124020706999
-0.012415291154
-0.0124519143212
-0.0125046770816
-0.0125396657354
-0.0125329785109
-0.0124391190547
-0.012168044438
-0.0117062866298
-0.0199300647653
-0.020073804177
-0.0117487288002
-0.0122067040919
-0.0124655145361
-0.0124958488045
-0.0124205509463
-0.012356323954
-0.0123491955463
-0.0123616873602
-0.0123664237159
-0.0123784102041
-0.0123975842934
-0.0124518141813
-0.0125293135973
-0.0125730721672
-0.0125529471413
-0.012438562871
-0.0121682706839
-0.0117155238779
-0.0200111927562
-0.0200330776426
-0.0117223671206
-0.0121802739965
-0.0124223001768
-0.012423102761
-0.0123392748829
-0.0122904453104
-0.0123103100132
-0.0123385186949
-0.0123467572777
-0.0123611266614
-0.0123821224792
-0.0124479885983
-0.0125441458807
-0.0125943660094
-0.0125599763568
-0.0124191935015
-0.0121376948703
-0.0116847662988
-0.0199577667259
-0.0199807393761
-0.0116972034691
-0.0121561321145
-0.0123863825051
-0.0123808447659
-0.0123030201669
-0.0122747635068
-0.0123140971201
-0.012352025456
-0.0123605649135
-0.0123733023088
-0.0123915738546
-0.0124602164802
-0.0125629557493
-0.0126139352709
-0.0125653496272
-0.0124063636514
-0.0121103802924
-0.0116567475561
-0.0198968218833
-0.0199476130059
-0.0116824004513
-0.0121420135735
-0.0123697318398
-0.0123664590056
-0.0122960200872
-0.012278499852
-0.0123275434622
-0.0123701866485
-0.0123781659794
-0.0123883015432
-0.0124027603924
-0.012469712027
-0.0125726055894
-0.0126209803386
-0.0125647170866
-0.0123965367539
-0.0120947153756
-0.011640823838
-0.0198596626803
-0.0199311706879
-0.0116751439313
-0.0121354048171
-0.0123628720165
-0.0123599437189
-0.0122910304074
-0.0122764404757
-0.0123291061969
-0.012373840075
-0.0123817893198
-0.0123910399624
-0.0124043496977
-0.0124716723493
-0.0125759848917
-0.0126237704431
-0.0125640142812
-0.0123919082348
-0.0120887543528
-0.0116342794255
-0.0198441924035
-0.0199268204376
-0.0116720667671
-0.0121326202068
-0.0123600310685
-0.012357185828
-0.0122890611039
-0.0122760720126
-0.0123306674601
-0.0123762002764
-0.0123841762855
-0.0123945478026
-0.012410173492
-0.0124813448353
-0.0125889285511
-0.0126361448937
-0.0125719593906
-0.0123948015796
-0.0120888242364
-0.0116337461605
-0.019845980055
-0.0199348014567
-0.011673714195
-0.0121338546065
-0.0123616097436
-0.0123586429949
-0.0122908067197
-0.0122785971276
-0.0123341740254
-0.0123799327091
-0.0123884827897
-0.0124019910112
-0.0124227780017
-0.0125001243855
-0.0126116053586
-0.0126574943387
-0.012587835722
-0.0124048876798
-0.0120953784375
-0.0116397408744
-0.0198632266015
-0.0199612697059
-0.0116843419029
-0.012143722795
-0.012378496317
-0.0123840831234
-0.0123232865798
-0.0123141778991
-0.0123697113442
-0.0124138468986
-0.0124222104811
-0.0124380845075
-0.0124626775032
-0.012541980258
-0.0126495540087
-0.012685930297
-0.0126071284776
-0.0124201106861
-0.0121120891781
-0.0116564579244
-0.0199023223216
-0.0200109519173
-0.0117074074358
-0.0121653149712
-0.0124173496893
-0.0124426882053
-0.0123979469653
-0.0123894515462
-0.0124379397502
-0.0124752931508
-0.0124814433619
-0.0124963009703
-0.0125198438884
-0.0125903832277
-0.0126790146199
-0.0126945118447
-0.012611901522
-0.0124341119609
-0.0121405770764
-0.0116866410555
-0.0199674765307
-0.0200531223748
-0.0117336839919
-0.0121908171982
-0.0124555259662
-0.0125092982515
-0.0124797077523
-0.0124651087853
-0.0124941134834
-0.0125174149863
-0.0125195295057
-0.0125302361209
-0.0125487731242
-0.0126012654668
-0.0126597948123
-0.0126595235908
-0.0125896934394
-0.0124472463406
-0.0121723172046
-0.0117200854121
-0.0200257363104
-0.0199603154468
-0.0117201527926
-0.0121861905238
-0.0124572952895
-0.012535222143
-0.0125185167205
-0.0124928543207
-0.0124940949972
-0.0124986019311
-0.0124954736086
-0.012500365455
-0.0125125059812
-0.012545228242
-0.0125800997266
-0.0125805368789
-0.0125458653116
-0.0124430477334
-0.01217309243
-0.0117127204561
-0.0199467876676
-0.0194311208178
-0.0115640975297
-0.0120739664463
-0.0123620900611
-0.0124520521179
-0.0124426476159
-0.0124086722014
-0.0123888812573
-0.0123772492235
-0.0123698977768
-0.0123700121694
-0.0123774810916
-0.0123970301297
-0.0124236472365
-0.0124431468518
-0.0124405975404
-0.0123502465634
-0.0120653558115
-0.0115608667003
-0.019426861697
-0.0179336965031
-0.0110904490179
-0.0117324385812
-0.012072488521
-0.0121798863852
-0.0121773327402
-0.0121431954515
-0.0121122149168
-0.0120930672596
-0.0120838141632
-0.012081260993
-0.0120863731304
-0.0121026307633
-0.0121317756975
-0.0121653167558
-0.012168709407
-0.0120636047703
-0.011727001015
-0.0110888790952
-0.0179334241652
-0.014777421794
-0.0101231517494
-0.0110928778658
-0.0115655520264
-0.0117176666078
-0.0117249157253
-0.01169053071
-0.0116580502566
-0.0116375438679
-0.0116269403358
-0.0116234177081
-0.0116280245172
-0.0116449092339
-0.01167665351
-0.0117126812394
-0.0117082688653
-0.011558930214
-0.0110884568041
-0.0101207925704
-0.0147784310357
-0.0100855755919
-0.014781859778
-0.017939504474
-0.0194332963754
-0.019954060672
-0.0200341528656
-0.0199753897382
-0.0199063791993
-0.019860256707
-0.019836619834
-0.0198313684087
-0.0198443523811
-0.0198829089477
-0.0199506781651
-0.0200136274142
-0.0199399288308
-0.0194241910852
-0.0179328889373
-0.0147782431443
-0.0100922096346
-0.0100908201743
-0.0149233377956
-0.018250658983
-0.0198469056645
-0.0203963436997
-0.0204613771547
-0.020377027067
-0.0202902221865
-0.0202372134742
-0.0202128722471
-0.0202078638459
-0.0202205777674
-0.0202594457756
-0.0203310528583
-0.0204004646157
-0.0203234250579
-0.0197721009339
-0.0181920392646
-0.0148986482629
-0.0100940806617
-0.0149201261817
-0.0102102246171
-0.0111867633307
-0.0116551494254
-0.0117941028297
-0.0117862273625
-0.0117408169301
-0.0117032261941
-0.0116821777903
-0.011673119996
-0.0116713754202
-0.0116768642674
-0.0116934994719
-0.0117251138443
-0.011762401705
-0.0117606511506
-0.0116144085066
-0.0111470066033
-0.0101833343683
-0.0149010411156
-0.0182548254498
-0.0111905513474
-0.0117922390074
-0.0121048390589
-0.0121947848469
-0.0121771889954
-0.0121284325679
-0.0120949183846
-0.0120814206724
-0.0120757650678
-0.012078193698
-0.0120884642941
-0.0121099922229
-0.0121458757551
-0.0121759314926
-0.0121736306897
-0.0120696248723
-0.0117474956277
-0.0111489428509
-0.0181975705357
-0.0198706723723
-0.0116690396174
-0.0121140324809
-0.0123666054428
-0.0124161305958
-0.0123577868993
-0.0122891555455
-0.012267907192
-0.0122710041027
-0.0122755761267
-0.0122882544975
-0.0123083567931
-0.0123548720296
-0.0124205344902
-0.0124587362819
-0.0124471071578
-0.0123416538091
-0.012069464511
-0.0116166185834
-0.0197777928329
-0.0204489007489
-0.0118213476121
-0.012214368589
-0.0124231531578
-0.0124043357826
-0.0123030444487
-0.0122428685223
-0.0122587988997
-0.0122901129834
-0.0123058098176
-0.0123305072168
-0.0123635503767
-0.0124416442451
-0.0125504088878
-0.0126129200291
-0.0125858762542
-0.012447258486
-0.0121719934541
-0.011762123633
-0.0203268436189
-0.0205463974643
-0.0118269394138
-0.0122053023394
-0.0123565872637
-0.0122812967895
-0.0121795963797
-0.0121541386465
-0.0122110551772
-0.0122665850369
-0.0122885949724
-0.0123207942231
-0.0123631729301
-0.0124691047553
-0.012619185489
-0.0127091740552
-0.012678358429
-0.012493278392
-0.012173330213
-0.0117628148669
-0.0204005078487
-0.0204915620804
-0.0117929162373
-0.0121595086566