/*--------------------------------*- C++ -*----------------------------------*\
| =========                 |                                                 |
| \\      /  F ield         | OpenFOAM: The Open Source CFD Toolbox           |
|  \\    /   O peration     | Version:  3.0.1                                 |
|   \\  /    A nd           | Web:      www.OpenFOAM.org                      |
|    \\/     M anipulation  |                                                 |
\*---------------------------------------------------------------------------*/
FoamFile
{
    version     2.0;
    format      ascii;
    class       volScalarField;
    location    "1.6";
    object      epsilon;
}
// * * * * * * * * * * * * * * * * * * * * * * * * * * * * * * * * * * * * * //

dimensions      [0 2 -3 0 0 0 0];

internalField   nonuniform List<scalar> 
7968
(
0.0039690545819
0.00427788674884
0.00448852927371
0.00459049016404
0.00463214114331
0.00464579273609
0.00464777190239
0.00464558190212
0.00464304339075
0.00464124934992
0.00464171290528
0.00464361750994
0.00464599923612
0.00464778359018
0.0046454206871
0.00463159695188
0.00459002572874
0.00448826660054
0.00427788235296
0.0039691220567
0.00427782620111
0.00600344977658
0.00716016266738
0.00777722024879
0.00807054899919
0.00819101504989
0.00822854726992
0.00823192519302
0.00822549230112
0.00822059209176
0.00822173079105
0.00822804200088
0.00823435618135
0.00822964644241
0.00819041951537
0.00806877093204
0.00777517118764
0.007158609317
0.00600271569631
0.00427778216978
0.00448846816059
0.00716021107171
0.0090628803252
0.0101464241998
0.0107024505789
0.0109544332259
0.0110482643465
0.0110710426988
0.011069329699
0.0110658055932
0.0110678047847
0.0110746636549
0.0110771072994
0.0110525494305
0.01095548763
0.0107006019314
0.0101430939294
0.00905963267856
0.00715807683861
0.00448802713972
0.00459062477363
0.00777825340862
0.0101477342029
0.0115563608351
0.0123135807737
0.0126760778163
0.0128236005832
0.0128759125584
0.0128926711688
0.0128962521337
0.0128988120306
0.0128994808114
0.0128849770701
0.012834635935
0.0126825533285
0.0123144507543
0.0115530813953
0.0101429345075
0.0077744308269
0.00458964129087
0.00463273391373
0.0080736141465
0.010706511331
0.0123165373135
0.013207874137
0.013650949261
0.0138592206456
0.0139406161179
0.0139643441982
0.0139698165248
0.0139734785596
0.0139742237133
0.0139540511589
0.013873263171
0.0136660433816
0.0132149774278
0.0123157330486
0.010701331493
0.00806849902642
0.0046312087712
0.00464703912754
0.0081967646406
0.0109621241499
0.0126828727111
0.0136543916473
0.0141693351617
0.0144103391454
0.0145021357151
0.014527636998
0.0145329752047
0.0145377682503
0.0145407482094
0.0145204250947
0.0144298018304
0.0141865619163
0.0136697440488
0.0126869604878
0.0109582630124
0.00819127558838
0.00464514764285
0.00464966142193
0.00823674855283
0.0110591576163
0.0128331839495
0.0138601097702
0.0144103801579
0.0146633752919
0.0147568945526
0.0147800516527
0.0147835070983
0.0147892672966
0.0147959417883
0.0147794904812
0.0146881092586
0.0144327076905
0.0138769966179
0.0128433063592
0.0110581682305
0.00823198507237
0.0046476843859
0.00464784545684
0.00824142222441
0.0110830288667
0.0128796695712
0.0139406326326
0.0145015047351
0.0147561837188
0.0148464050018
0.0148650831127
0.0148658837197
0.0148724414163
0.014883184314
0.014872422433
0.0147852161521
0.0145284140141
0.0139615749507
0.0128950471653
0.0110857393024
0.00823827846245
0.00464609154113
0.00464479637412
0.00823459180354
0.0110799281436
0.0128926807394
0.0139626638818
0.0145251047206
0.0147774074182
0.014863264251
0.0148778339225
0.0148764988595
0.0148837962306
0.0148977965235
0.0148920047214
0.0148098343506
0.0145556947225
0.0139870464654
0.0129090770753
0.0110866555652
0.00823368695537
0.00464369697356
0.00464234715219
0.00822773924304
0.011072435245
0.0128936949913
0.0139651487219
0.0145270487197
0.0147774302857
0.0148609078274
0.0148735949138
0.0148715234658
0.0148795015853
0.0148952811996
0.0148921577605
0.0148129325642
0.0145609194264
0.0139926732162
0.0129128680984
0.0110833934345
0.00822951259574
0.0046422453753
0.00464199976227
0.00822610585543
0.0110702479684
0.0128931860811
0.0139650321246
0.0145274960114
0.0147787563084
0.0148634331864
0.0148774441153
0.0148763897253
0.0148847765766
0.0149006591907
0.014897338659
0.0148175521311
0.014564723998
0.0139955770336
0.0129150098288
0.0110853295294
0.00823059607729
0.00464258331017
0.00464372242985
0.00822997404128
0.0110735680495
0.0128911892148
0.0139623661505
0.0145264498336
0.0147812870979
0.0148705098959
0.014888594656
0.0148899309464
0.0148986163805
0.0149130638725
0.0149066997677
0.0148228371247
0.0145662535606
0.0139949721892
0.0129149972382
0.0110914888142
0.00823625201135
0.00464427723825
0.00464630477418
0.00823468465423
0.0110734772933
0.0128750230875
0.0139401906777
0.0145036741895
0.0147622485786
0.0148575060679
0.014881235052
0.0148858469082
0.0148946523919
0.0149061699396
0.0148943856685
0.014804309114
0.0145434824166
0.0139726121302
0.0129047277423
0.0110911743735
0.00824079950857
0.00464645197884
0.00464799617993
0.00822917715377
0.0110478474593
0.0128219599387
0.0138590766388
0.0144129535695
0.014670676435
0.0147701903247
0.0147992524177
0.0148071668543
0.0148156421127
0.0148231928198
0.0148052317112
0.0147099569408
0.0144493427412
0.013888874748
0.0128519638292
0.0110618874468
0.00823321264276
0.00464760796911
0.00464557431924
0.00818978179301
0.0109512538178
0.0126712432699
0.0136467705643
0.0141714681358
0.0144175521656
0.014515466885
0.0145469740559
0.0145568820481
0.0145644404649
0.0145681703762
0.0145459593971
0.014450965155
0.01420259528
0.0136835099436
0.0126925753808
0.0109591157941
0.00819060915344
0.00464452745664
0.00463169058393
0.0080683053222
0.010697714567
0.0123065251228
0.0132004327676
0.0136502100116
0.0138651460775
0.0139519174487
0.0139810362219
0.0139906738783
0.0139968191327
0.013998123435
0.0139763543425
0.013892311871
0.013686103593
0.0132247226774
0.012317525993
0.0106992463021
0.00806594929301
0.00463009610013
0.00459005867844
0.00777496039624
0.0101416819213
0.0115489068553
0.0123075484786
0.0126749327841
0.0128297397885
0.0128843500883
0.0129052453385
0.0129121999665
0.0129168441135
0.0129184533936
0.012910832496
0.0128578815475
0.0126967474662
0.012319361937
0.0115515386599
0.0101385539894
0.0077704444089
0.00458818689638
0.00448825922013
0.00715856861514
0.00905925945741
0.0101414893226
0.0106980444054
0.0109529638521
0.0110517097222
0.0110800204171
0.0110834412277
0.0110834507298
0.0110882147448
0.0110962793773
0.0110969119073
0.011067326833
0.0109632328909
0.0107016144082
0.0101394335006
0.00905409949329
0.00715344256295
0.00448648497786
0.00427786739241
0.00600281172763
0.00715821987828
0.00777431856328
0.00806772434956
0.00818961916619
0.00822966467213
0.00823607517593
0.00823258658561
0.00823014466211
0.00823281957213
0.00823952113991
0.00824454846732
0.0082367755212
0.00819342607698
0.00806775365202
0.00777131681196
0.00715369177563
0.00599875421971
0.00427662095112
0.00396912659207
0.00427783638735
0.00448815910796
0.00458981759692
0.00463133975479
0.0046451384295
0.00464750968367
0.00464581697649
0.00464344038888
0.00464223603175
0.00464301735205
0.00464498954773
0.00464741435276
0.00464849910407
0.00464522942398
0.00463056746658
0.00458843770453
0.00448657545317
0.00427663276196
0.00396880611291
0.00427320478227
0.00597484601032
0.00712089012289
0.0077368500716
0.00803498805143
0.00816344700236
0.00820980960313
0.0082209552863
0.00821928047243
0.00821614856925
0.0082172031207
0.00822144115569
0.00822299477563
0.00821109412729
0.00816375222359
0.00803450248572
0.00773600632835
0.00712009137029
0.00597437328501
0.00427319775185
0.00597521121272
0.00683931385145
0.00784823591549
0.0084411558479
0.00874364872684
0.00888062278878
0.00893408126254
0.00895044149822
0.00895312152835
0.00895284834394
0.00895350784052
0.00895473841939
0.00895231722847
0.00893557547235
0.00888139242617
0.00874371280466
0.00844076090697
0.00784768409417
0.00683880720601
0.00597488627167
0.00712118816828
0.00784851186178
0.0089664581053
0.00966979585169
0.0100517438274
0.010236765663
0.0103155029151
0.0103436869577
0.0103514095863
0.0103532150748
0.0103542127574
0.0103541483963
0.0103473555834
0.0103191396506
0.010239577398
0.0100534161628
0.00967040980714
0.00896631918813
0.00784790255516
0.00712025375643
0.00773726444986
0.00844168461936
0.00966998109707
0.0104735504149
0.0109279495941
0.0111582440767
0.0112621867177
0.0113038804883
0.0113182998871
0.0113225917456
0.0113239143158
0.0113219772694
0.011309181436
0.0112683670427
0.0111636835664
0.0109317803581
0.0104755624003
0.00967044776479
0.00844097657889
0.00773567548541
0.00803604211081
0.0087446586613
0.0100522217127
0.0109280969684
0.0114363845355
0.0117022153533
0.0118289027722
0.0118815626255
0.0118998747641
0.0119053514184
0.011907026531
0.0119045791235
0.0118884619183
0.0118369300407
0.0117104594821
0.0114428689588
0.0109319839245
0.0100536307716
0.00874404220044
0.00803401832229
0.00816560241398
0.00888233086464
0.0102376449651
0.0111584572997
0.011701944548
0.0119940796056
0.0121344323712
0.012192330399
0.0122117547465
0.0122171913739
0.0122191818163
0.0122173900542
0.0122007147177
0.0121442986091
0.0120040932219
0.0117110662144
0.0111645314042
0.0102403457934
0.00888212812694
0.00816358679533
0.00821310165129
0.00893642396038
0.0103166403087
0.0112620580575
0.0118273598764
0.0121333169784
0.0122793977764
0.0123381290769
0.0123563198685
0.0123606597161
0.0123628843855
0.0123626569018
0.0123476762413
0.0122908109348
0.0121450212731
0.0118379335609
0.0112702182733
0.0103208483798
0.00893697658721
0.00821162490018
0.00822499493272
0.00895300520837
0.0103445392352
0.0113020523824
0.0118787839633
0.0121899372479
0.0123367953936
0.0123936871419
0.0124093470909
0.0124120565219
0.0124144334766
0.0124161452722
0.0124040335821
0.0123493413444
0.0122029958907
0.0118907606732
0.0113118305835
0.0103502483459
0.00895454740561
0.00822447593936
0.00822385432606
0.00895532458081
0.0103514241143
0.0113152284026
0.0118959168241
0.0122080546021
0.0123536136993
0.0124079868507
0.0124211408339
0.0124223846813
0.0124248953166
0.0124283313517
0.0124190015059
0.012367101824
0.0122222358831
0.01190906358
0.0113260396037
0.0103585805156
0.00895799450335
0.0082244397513
0.00822005981573
0.00895408183352
0.0103518117987
0.0113183735774
0.011900177367
0.0122121481076
0.0123565729481
0.012409389072
0.0124211684031
0.0124217034532
0.012424413881
0.0124289413536
0.0124213284302
0.0123712306943
0.0122275799498
0.0119145280604
0.0113303378182
0.0103604014267
0.00895799818237
0.00822203166546
0.00821918086027
0.00895355183111
0.010351522197
0.0113186082829
0.0119006764831
0.0122128518852
0.0123575066661
0.012410620193
0.0124227488246
0.0124236316651
0.0124266498351
0.0124314351845
0.012423957146
0.0123737862129
0.0122298422974
0.0119163568089
0.0113317263976
0.0103614582957
0.00895870731752
0.00822292700467
0.0082215967804
0.00895379835704
0.0103505412657
0.0113158530705
0.0118973303178
0.0122100780615
0.0123563221123
0.0124115690651
0.0124257288167
0.0124279754605
0.0124313899629
0.0124355497876
0.0124265482614
0.0123743613484
0.012228588577
0.011914147051
0.011329890788
0.0103613940351
0.00895977227465
0.00822642416716
0.00822187791198
0.00895074363926
0.010343155562
0.0113026428383
0.011880828499
0.0121929945302
0.0123409709905
0.0123992657878
0.0124165078397
0.0124207768444
0.0124245382239
0.0124272695707
0.0124154788937
0.01236013457
0.0122122430418
0.011898045632
0.0113174205589
0.0103539368169
0.00895665762957
0.00822654658308
0.00820975555962
0.0089338342662
0.0103148724058
0.0112616337545
0.0118294536128
0.0121368540098
0.0122844140653
0.0123449653503
0.0123651757947
0.012371464359
0.0123753415414
0.0123761893376
0.0123613146431
0.0123033511397
0.0121554956617
0.0118460284564
0.0112760663161
0.0103244151239
0.00893875938726
0.00821305462154
0.00816261296324
0.00887986730863
0.0102358440179
0.0111576653259
0.0117030273824
0.0119973355071
0.0121394201424
0.0121993551488
0.0122210087121
0.0122285405607
0.0122322047193
0.0122313428502
0.0122144877755
0.0121566695423
0.0120143136152
0.0117190384731
0.0111695618078
0.0102431259496
0.00888323165428
0.00816407616192
0.0080338039996
0.00874264598683
0.0100506240939
0.0109271232129
0.0114366473002
0.0117044698628
0.0118331231008
0.01188778393
0.0119082736716
0.0119157395862
0.0119189099173
0.0119171791885
0.0119007963652
0.01184798414
0.0117200573873
0.0114492825875
0.0109356153353
0.010055438512
0.00874446221438
0.00803361907103
0.00773579747049
0.00844021853861
0.00966868041112
0.0104725156827
0.010927694984
0.011159531782
0.0112655573863
0.0113088977644
0.0113252306214
0.0113312255121
0.0113338044396
0.011332533085
0.0113202719785
0.0112784355094
0.011171061519
0.0109362199947
0.0104778571472
0.00967148533902
0.00844095491002
0.00773466566224
0.00712026537392
0.0078475684672
0.00896549623483
0.00966881897456
0.0100511700414
0.0102372833199
0.0103177517369
0.0103479237618
0.0103575636953
0.0103608118977
0.0103629944014
0.0103635742429
0.0103562870923
0.0103264637726
0.0102445581355
0.0100562020112
0.00967175262869
0.00896691160329
0.00784774733045
0.00711904146127
0.00597468402175
0.00683889976425
0.00784766606659
0.00844035516526
0.00874295271874
0.00888061039618
0.00893529314771
0.00895317375173
0.00895738841077
0.00895836076359
0.00895987103393
0.00896140647348
0.00895843165661
0.00894036756008
0.00888443770135
0.00874519694141
0.00844130862616
0.00784786989699
0.00683862520202
0.00597385229749
0.00427322575859
0.00597491951346
0.00712028692765
0.0077355207057
0.00803343194948
0.0081624493292
0.00821008341465
0.00822298224229
0.008223648324
0.00822247960052
0.00822461775323
0.00822864513874
0.00822870245856
0.00821500992275
0.0081655523795
0.00803452278773
0.00773510064401
0.00711920323248
0.0059739006645
0.00427265297894
0.0044800518431
0.00710682597021
0.00898826525189
0.0100694040901
0.0106347945248
0.0109021861685
0.0110125159291
0.0110489295944
0.0110560213001
0.0110557941403
0.0110579141211
0.0110610853767
0.011055070564
0.0110181185273
0.0109062453317
0.0106369710733
0.0100698294473
0.00898743571268
0.00710568178143
0.00447999742335
0.00710756441569
0.0078376812083
0.0089574045366
0.00966390339436
0.01004994891
0.0102390873535
0.0103211454413
0.0103513701091
0.0103600677788
0.0103620636108
0.0103631638374
0.0103629595954
0.0103552484789
0.0103251417206
0.0102425428249
0.0100524499352
0.00966523282358
0.0089575892711
0.00783703802364
0.00710663910423
0.0089887812123
0.00895789514417
0.00993331183696
0.0106112595895
0.0110061399628
0.0112118996959
0.0113078091454
0.011346946238
0.0113605818584
0.0113650177101
0.0113666745385
0.0113652591702
0.0113538285925
0.0113157373803
0.0112197194594
0.0110128040594
0.0106159623928
0.00993569406286
0.00895816212832
0.00898788641255
0.010069490593
0.00966434309769
0.0106109553873
0.0113085763073
0.0117323192921
0.0119625817311
0.0120750257745
0.0121238234671
0.0121420637788
0.0121483863279
0.0121507788733
0.0121489046898
0.0121341992945
0.0120875737624
0.0119755665281
0.0117439769783
0.0113174105839
0.0106161263869
0.00966588478003
0.010069449165
0.0106347712993
0.0100500851357
0.01100484953
0.0117308623708
0.0121827238229
0.0124344897645
0.0125605033212
0.0126157033427
0.0126362615509
0.0126433501265
0.0126464513273
0.0126452097381
0.0126294801991
0.0125775112971
0.0124525620164
0.0121994641651
0.0117439875055
0.0110129886628
0.0100530701176
0.0106361986683
0.0109024973405
0.0102388751752
0.0112092227222
0.0119588033442
0.0124315388521
0.0126981231727
0.0128316597553
0.0128888955668
0.0129088338833
0.0129151808143
0.0129188413755
0.0129194522304
0.0129053553467
0.0128522225516
0.0127204869538
0.0124527114683
0.0119758037781
0.0112201264991
0.0102433208432
0.010905866427
0.0110132732494
0.0103205555514
0.0113036160538
0.0120685366881
0.0125540325839
0.0128277077158
0.012962822094
0.0130179351072
0.0130347045796
0.0130390333089
0.0130430909213
0.0130465295263
0.013036334469
0.0129858715134
0.0128530414679
0.0125785323929
0.0120886270018
0.0113168267889
0.0103263918789
0.0110189180078
0.0110497233761
0.0103502545304
0.0113412916418
0.0121147207579
0.0126058659472
0.0128810368579
0.0130137812377
0.0130644216326
0.0130767974273
0.0130785267021
0.0130828277519
0.0130894030509
0.0130841429164
0.013038542258
0.0129083360772
0.0126325742154
0.0121369150735
0.011356245884
0.0103573430946
0.0110577172907
0.0110560080711
0.0103581309792
0.0113535041703
0.0121309333749
0.0126237634981
0.0128978120775
0.0130270567889
0.0130731780824
0.0130815845344
0.0130810490414
0.0130855440397
0.0130948290755
0.013094017574
0.0130532787724
0.0129267185721
0.0126521102986
0.0121546362577
0.0113697938421
0.0103663712706
0.0110663000533
0.0110540038285
0.0103590631671
0.0113566193235
0.012135778206
0.0126289791336
0.0129019227227
0.0130288774436
0.0130723038183
0.013078494218
0.0130768497819
0.0130817134584
0.0130928389046
0.0130948571254
0.0130571153026
0.0129328023638
0.0126590412265
0.0121608407734
0.0113740896889
0.0103684769175
0.0110666900695
0.011053444118
0.0103590532294
0.0113573393046
0.0121371966724
0.0126309143611
0.0129042316963
0.0130314519735
0.0130751644139
0.0130817804211
0.0130807295638
0.0130863132408
0.0130981546902
0.0131006169691
0.0130627955165
0.0129378425537
0.0126630433778
0.0121636537599
0.0113758917456
0.0103696342438
0.0110686167774
0.0110545132489
0.0103580467115
0.0113554511807
0.0121348960134
0.0126292264579
0.0129043873517
0.0130344620753
0.0130815092655
0.0130912569691
0.0130925138506
0.0130990881115
0.0131103355338
0.0131106162625
0.0130694388545
0.0129408723471
0.0126631998399
0.0121623115248
0.0113746075222
0.0103693137402
0.0110710267519
0.0110476786551
0.0103500600772
0.0113440447885
0.0121204392605
0.0126138357868
0.0128907313417
0.0130248774993
0.013077192715
0.0130919301733
0.0130966290231
0.0131041262318
0.0131134437731
0.0131093800338
0.0130625881769
0.0129289148845
0.0126482805143
0.0121474247733
0.0113625128968
0.0103608655659
0.0110632969415
0.0110110997287
0.0103202429996
0.0113066080266
0.0120747970035
0.0125630280604
0.0128387891881
0.0129757934776
0.0130333050024
0.0130533655295
0.0130615913486
0.0130695029975
0.0130758600403
0.0130664273066
0.0130137913168
0.012876205474
0.0125955153959
0.0120994140835
0.0113227651893
0.0103293149811
0.0110237350772
0.0109005173254
0.0102384237063
0.0112118563873
0.0119644323986
0.0124400293059
0.0127088540189
0.0128446837418
0.0129048430942
0.0129286120315
0.0129392148464
0.0129467288761
0.0129498185336
0.0129357012468
0.0128795042381
0.0127422298146
0.0124678007894
0.011984614966
0.0112244550873
0.0102450043227
0.0109091119283
0.0106331252974
0.0100494505361
0.011006691888
0.0117350958875
0.012189197024
0.0124433297082
0.0125719109325
0.0126303169839
0.0126547115295
0.0126657533274
0.0126721026242
0.0126725085579
0.0126559523109
0.0126004616256
0.0124699643177
0.0122105870936
0.0117497947952
0.0110154153474
0.0100536063012
0.0106379061771
0.0100679942654
0.00966347445898
0.0106118114188
0.011311085546
0.0117364429526
0.0119685828284
0.0120834419882
0.0121352620191
0.012156909031
0.0121664814646
0.0121713063737
0.0121703455093
0.0121543833882
0.0121045627088
0.0119875737351
0.011750906743
0.0113205824856
0.0106172821165
0.00966592725582
0.0100702140473
0.00898725275679
0.00895693390243
0.00993338745953
0.0106122726875
0.0110081547165
0.0112152892287
0.0113131756723
0.0113548467961
0.0113711519667
0.0113779337868
0.0113813183192
0.011380504061
0.0113678690791
0.0113269051709
0.0112270861882
0.0110167108491
0.0106177031029
0.00993657275926
0.00895847208549
0.00898832957899
0.00710626794782
0.00783704810545
0.00895722631078
0.00966401817372
0.0100505079005
0.0102405541788
0.0103241190667
0.0103563114915
0.0103670754866
0.0103708859503
0.0103731747851
0.0103732448127
0.0103645456739
0.010332272872
0.0102470066225
0.0100547271035
0.00966644356947
0.00895866562188
0.00783789100335
0.00710672958361
0.00448002329019
0.00710669576529
0.00898738931327
0.0100678744585
0.010633346085
0.0109020142226
0.0110148379122
0.0110545526066
0.0110651407253
0.0110680712881
0.0110720192185
0.0110753304907
0.0110676073966
0.011027350825
0.0109115865403
0.0106392536761
0.010070788754
0.00898856549709
0.00710686274202
0.00447924354333
0.00458158236666
0.00771394619767
0.0100592733604
0.0114719832213
0.0122501509172
0.0126398612746
0.0128116674219
0.0128740939648
0.0128902225804
0.0128932869966
0.0128977106479
0.0129017837583
0.0128897158081
0.0128283081774
0.0126550470891
0.0122619717026
0.0114789665827
0.010061067851
0.00771260714577
0.00458160186775
0.00771511150431
0.00842496593238
0.00966009826412
0.0104743815065
0.0109416460494
0.0111838822419
0.0112962129765
0.0113413220624
0.0113563611153
0.0113609691096
0.0113633831632
0.0113630804734
0.01135125908
0.0113080803037
0.0111963254975
0.0109530907291
0.0104830288873
0.00966464880995
0.00842562657943
0.00771393103658
0.0100598114358
0.00966052081563
0.0106157722625
0.0113237189216
0.0117581612585
0.0119975857996
0.0121164089198
0.0121684975087
0.0121885173615
0.0121960523056
0.0121995988964
0.012198769158
0.0121844887622
0.0121365577473
0.0120198387109
0.0117798399191
0.0113417185612
0.0106275220446
0.00966544913129
0.0100617487083
0.0114704291302
0.0104734068821
0.0113215022493
0.0120053137168
0.0124449710754
0.0126976829122
0.0128286567273
0.0128884645716
0.0129121362765
0.0129213952456
0.0129263673777
0.0129266789302
0.0129115108435
0.0128584133621
0.0127315041436
0.0124787042545
0.0120342601084
0.0113417929494
0.0104838029456
0.0114784096282
0.0122456103232
0.0109377549299
0.0117511329356
0.0124388852884
0.0128926298796
0.0131592080766
0.0132985643572
0.0133612003404
0.0133846972678
0.0133936591711
0.0133999990423
0.0134033047532
0.0133907795739
0.0133370295574
0.0132034511567
0.0129376611968
0.0124783100412
0.0117795500414
0.0109534680067
0.012260675724
0.0126322107419
0.0111764124514
0.0119843132591
0.0126829659386
0.013149212526
0.0134231929829
0.0135634369129
0.0136223809228
0.0136410703456
0.0136472924809
0.0136549045532
0.0136634155449
0.0136577839417
0.013609135575
0.0134755178182
0.0132029036076
0.0127307823244
0.0120192760073
0.0111964060969
0.0126541576974
0.0128012557351
0.0112854013994
0.0120970030438
0.01280476184
0.0132773534759
0.0135511539169
0.0136851605149
0.0137347437505
0.0137447928403
0.0137462053979
0.0137548639285
0.0137702288145
0.0137748876952
0.0137364142222
0.013609144646
0.0133366584048
0.0128580816139
0.0121364414272
0.0113083458438
0.0128291932344
0.0128611892502
0.0113279140073
0.0121443336546
0.0128573273837
0.0133304195433
0.0135988216305
0.0137225838299
0.0137602102028
0.0137601959483
0.0137559489058
0.0137653147048
0.0137878250628
0.0138038151906
0.0137777950752
0.0136605399469
0.0133930174751
0.0129137424803
0.0121862928142
0.0113525798113
0.0128937769101
0.0128746458758
0.0113411071766
0.0121612503578
0.0128763370369
0.013347502399
0.0136093607755
0.0137231753958
0.0137501808933
0.0137416420321
0.0137325687445
0.0137424480287
0.0137709544143
0.0137965789138
0.0137816365296
0.013673981858
0.0134123371694
0.0129344577044
0.0122044365738
0.01136670973
0.0129106264645
0.0128746765938
0.0113445164393
0.0121673100163
0.0128835410839
0.0133533639378
0.0136111172995
0.0137188865329
0.0137395709048
0.0137261185457
0.0137146049071
0.0137253214255
0.0137579339089
0.0137898072181
0.0137815718218
0.0136792961075
0.0134205793128
0.012943014403
0.0122112403779
0.0113708405642
0.0129134775192
0.0128757738724
0.0113462166621
0.0121706830402
0.0128884153004
0.013359293452
0.0136175440956
0.0137255203997
0.0137465101334
0.013733769429
0.013723461845
0.0137358056012
0.0137701173933
0.0138030728068
0.0137946482619
0.0136908218699
0.0134296189421
0.0129493134251
0.0122151299937
0.0113732227544
0.0129173887299
0.0128776909273
0.0113458179063
0.0121706557013
0.0128900489609
0.0133642353799
0.0136275488663
0.013742081625
0.0137702489117
0.0137641194723
0.0137587896135
0.0137733926857
0.013806538131
0.0138348080495
0.0138188158815
0.0137063013001
0.0134372882201
0.0129515130538
0.0122146918019
0.0113726884137
0.0129203542399
0.0128656312489
0.0113347095517
0.0121580063668
0.0128772760229
0.0133547639707
0.0136253808368
0.0137505288919
0.0137905958781
0.0137951077987
0.0137972572544
0.0138139576226
0.0138429477898
0.0138618455077
0.0138329987008
0.0137073661276
0.013428093792
0.0129367509317
0.0121992341507
0.0113594054377
0.0129051325168
0.0128063259054
0.0112930541659
0.0121125684406
0.0128274305408
0.0133047528359
0.0135811102366
0.0137171502315
0.0137705510369
0.0137871945393
0.0137972462403
0.013814910786
0.0138372807525
0.0138439142452
0.0138003479867
0.0136615924296
0.0133741700733
0.0128809638309
0.0121477146294
0.0113131848923
0.0128383466242
0.0126369163201
0.0111835426597
0.0119991402954
0.0127044065976
0.0131752928203
0.0134519431713
0.013594768742
0.0136585655014
0.0136852025847
0.0137011331097
0.0137179868286
0.0137326700764
0.013727287995
0.0136714308647
0.0135243469703
0.013235430058
0.0127481651936
0.012025778302
0.0111977339751
0.0126592696078
0.0122489304709
0.0109431340206
0.0117631280622
0.0124565328563
0.0129142221991
0.013183668694
0.0133260893373
0.0133940700082
0.0134256640754
0.0134438626026
0.0134581515832
0.0134657023909
0.0134514113902
0.0133890436364
0.0132415794377
0.0129603420279
0.0124876471055
0.0117807078501
0.0109517076775
0.0122622079706
0.0114714636287
0.0104762865131
0.0113294683867
0.0120175796716
0.0124603435889
0.0127158380236
0.0128504378454
0.0129155258995
0.0129462993553
0.0129630123196
0.0129736690696
0.0129759665908
0.0129574798554
0.0128955375488
0.0127563427795
0.0124907451885
0.012036627135
0.011339583709
0.0104809732543
0.011478376351
0.0100585117983
0.00966111142166
0.0106198248219
0.0113306663771
0.0117672274976
0.0120087832563
0.0121307868103
0.0121875000061
0.0122130030331
0.012225760212
0.0122328565902
0.0122326372382
0.0122148637194
0.0121594252277
0.0120331170569
0.0117843101636
0.0113407398107
0.0106251578424
0.00966390217889
0.0100621069872
0.00771297136789
0.0084245101023
0.0096615793312
0.0104774658855
0.0109459861246
0.0111897169431
0.0113044649531
0.0113530526377
0.0113720933714
0.0113803478313
0.0113849646168
0.0113846136775
0.0113698849386
0.0113211839013
0.0112029311084
0.0109545060221
0.0104821910679
0.00966431897952
0.0084264026944
0.00771459593123
0.00458155812448
0.00771348214624
0.0100587783679
0.0114719473757
0.0122513231718
0.0126437672083
0.0128203164632
0.0128890571172
0.0129118946792
0.0129207552333
0.0129284650331
0.0129325294894
0.0129163739286
0.0128471882433
0.0126649873799
0.0122651250657
0.0114795094003
0.0100625394004
0.00771486613159
0.00458054836525
0.00462669236403
0.0080207110745
0.0106475834197
0.0122906525234
0.0132345895644
0.0137284863333
0.0139553863471
0.0140408261624
0.0140640636614
0.0140701538921
0.0140791708068
0.0140885972263
0.0140762548999
0.0139971306381
0.0137722511757
0.0132753647898
0.0123218345436
0.0106636661791
0.00802324338563
0.00462721493972
0.00802235026409
0.00873828899144
0.010068745639
0.0109784107398
0.0115247508255
0.011823512104
0.0119702712877
0.0120328701865
0.0120553694278
0.0120633801443
0.0120685798757
0.0120703667538
0.0120565838352
0.012001469586
0.0118602809827
0.0115632434959
0.0110122155773
0.0100912532953
0.0087474073618
0.00802502301605
0.0106471904346
0.0100677951397
0.0110557414421
0.0118237332194
0.0123182615157
0.0126056482256
0.0127563970318
0.0128260480931
0.012854431289
0.0128661584472
0.0128732562736
0.0128754541387
0.0128604993286
0.0128032083827
0.0126624109735
0.0123795828146
0.0118809185706
0.0110991172167
0.0100921850042
0.0106646033841
0.0122826740673
0.0109707179164
0.0118145232813
0.0125397564564
0.0130301262919
0.01332683928
0.0134882247375
0.0135643031505
0.0135948615476
0.0136077739554
0.0136172958783
0.0136232631523
0.0136110869725
0.0135524434556
0.0134056009629
0.0131166880679
0.0126225769009
0.0118805520457
0.0110126795251
0.0123207830921
0.0132140747067
0.0115051175595
0.0122921915957
0.0130101920101
0.0135078665223
0.0138131954299
0.0139769878204
0.0140496717573
0.0140750008277
0.0140852854623
0.0140975630002
0.0141114967715
0.0141092257584
0.0140576948414
0.0139115902937
0.0136161600324
0.0131151273452
0.0123778357363
0.0115623474966
0.0132726773249
0.0136936503188
0.0117899701949
0.0125593324961
0.0132809367866
0.0137839483803
0.0140870140793
0.0142398990309
0.0142972049625
0.0143088156497
0.0143121438612
0.0143275710113
0.0143544201457
0.0143703886784
0.0143363489223
0.0142014930473
0.0139084585301
0.0134016604523
0.0126589627211
0.011857791664
0.0137693671239
0.0139078388651
0.011924605858
0.012691581019
0.0134165893226
0.0139169829013
0.0142062761333
0.0143364485453
0.0143685905299
0.0143597962986
0.0143522988457
0.0143708566662
0.0144144969284
0.0144552110062
0.0144473044646
0.0143332344171
0.0140517364345
0.013546592647
0.0127988925404
0.0119980106887
0.0139960885917
0.0139838234364
0.0119791519852
0.0127481860061
0.0134736683255
0.0139647621314
0.0142337933204
0.0143360940389
0.014339839656
0.0143088734909
0.0142887795125
0.0143097871244
0.0143709391986
0.014437552684
0.0144587116442
0.0143699465265
0.0141053011582
0.0136074120185
0.0128580895007
0.0120539497544
0.0140794781837
0.0140006408235
0.0119979757217
0.0127699756758
0.0134939653226
0.0139749044984
0.0142249021846
0.0143025478121
0.0142823751385
0.0142335112012
0.0142025660873
0.014225262698
0.0143009964903
0.0143885900106
0.0144344091637
0.0143679904068
0.01411892734
0.0136285844088
0.0128794543249
0.0120715625015
0.0140994018686
0.0140026066669
0.0120057903107
0.0127812126281
0.0135049159149
0.0139800033505
0.0142185966061
0.0142812458145
0.0142461341866
0.0141857421094
0.014148909586
0.0141735558896
0.0142591117071
0.0143613398675
0.0144226536116
0.0143686967833
0.0141271251011
0.0136393112781
0.0128889017273
0.0120772227351
0.0141022487592
0.0140092773615
0.0120128877429
0.0127918149858
0.0135184090784
0.0139950710071
0.0142340556294
0.0142966672288
0.0142619871568
0.0142029078421