/*--------------------------------*- C++ -*----------------------------------*\
| =========                 |                                                 |
| \\      /  F ield         | OpenFOAM: The Open Source CFD Toolbox           |
|  \\    /   O peration     | Version:  3.0.1                                 |
|   \\  /    A nd           | Web:      www.OpenFOAM.org                      |
|    \\/     M anipulation  |                                                 |
\*---------------------------------------------------------------------------*/
FoamFile
{
    version     2.0;
    format      ascii;
    class       surfaceScalarField;
    location    "1.6";
    object      meshPhiCN_0;
}
// * * * * * * * * * * * * * * * * * * * * * * * * * * * * * * * * * * * * * //

dimensions      [0 3 -1 0 0 0 0];

internalField   nonuniform List<scalar> 
22672
(
0
0
0
0
0
0
0
0
0
0
0
0
0
0
0
0
0
0
0
0
0
0
0
0
0
0
0
0
0
0
0
0
0
0
0
0
0
0
0
0
0
0
0
0
0
0
0
0
0
0
0
0
0
0
0
0
0
0
0
0
0
0
0
0
0
0
0
0
0
0
0
0
0
0
0
0
0
0
0
0
0
0
0
0
0
0
0
0
0
0
0
0
0
0
0
0
0
0
0
0
0
0
0
0
0
0
0
0
0
0
0
0
0
0
0
0
0
0
0
0
0
0
0
0
0
0
0
0
0
0
0
0
0
0
0
0
0
0
0
0
0
0
0
0
0
0
0
0
0
0
0
0
0
0
0
0
0
0
0
0
0
0
0
0
0
0
0
0
0
0
0
0
0
0
0
0
0
0
0
0
0
0
0
0
0
0
0
0
0
0
0
0
0
0
0
0
0
0
0
0
0
0
0
0
0
0
0
0
0
0
0
0
0
0
0
0
0
0
0
0
0
0
0
0
0
0
0
0
0
0
0
0
0
0
0
0
0
0
0
0
0
0
0
0
0
0
0
0
0
0
0
0
0
0
0
0
0
0
0
0
0
0
0
0
0
0
0
0
0
0
0
0
0
0
0
0
0
0
0
0
0
0
0
0
0
0
0
0
0
0
0
0
0
0
0
0
0
0
0
0
0
0
0
0
0
0
0
0
0
0
0
0
0
0
0
0
0
0
0
0
0
0
0
0
0
0
0
0
0
0
0
0
0
0
0
0
0
0
0
0
0
0
0
0
0
0
0
0
0
0
0
0
0
0
0
0
0
0
0
0
0
0
0
0
0
0
0
0
0
0
0
0
0
0
0
0
0
0
0
0
0
0
0
0
0
0
0
0
0
0
0
0
0
0
0
0
0
0
0
0
0
0
0
0
0
0
0
0
0
0
0
0
0
0
0
0
0
0
0
0
0
0
0
0
0
0
0
0
0
0
0
0
0
0
0
0
0
0
0
0
0
0
0
0
0
0
0
0
0
0
0
0
0
0
0
0
0
0
0
0
0
0
0
0
0
0
0
0
0
0
0
0
0
0
0
0
0
0
0
0
0
0
0
0
0
0
0
0
0
0
0
0
0
0
0
0
0
0
0
0
0
0
0
0
0
0
0
0
0
0
0
0
0
0
0
0
0
0
0
0
0
0
0
0
0
0
0
0
0
0
0
0
0
0
0
0
0
0
0
0
0
0
0
0
0
0
0
0
0
0
0
0
0
0
0
0
0
0
0
0
0
0
0
0
0
0
0
0
0
0
0
0
0
0
0
0
0
0
0
0
0
0
0
0
0
0
0
0
0
0
0
0
0
0
0
0
0
0
0
0
0
0
0
0
0
0
0
0
0
0
0
0
0
0
0
0
0
0
0
0
0
0
0
0
0
0
0
0
0
0
0
0
0
0
0
0
0
0
0
0
0
0
0
0
0
0
0
0
0
0
0
0
0
0
0
0
0
0
0
0
0
0
0
0
0
0
0
0
0
0
0
0
0
0
0
0
0
0
0
0
0
0
0
0
0
0
0
0
0
0
0
0
0
0
0
0
0
0
0
0
0
0
0
0
0
0
0
0
0
0
0
0
0
0
0
0
0
0
0
0
0
0
0
0
0
0
0
0
0
0
0
0
0
0
0
0
0
0
0
0
0
0
0
0
0
0
0
0
0
0
0
0
0
0
0
0
0
0
0
0
0
0
0
0
0
0
0
0
0
0
0
0
0
0
0
0
0
0
0
0
0
0
0
0
0
0
0
0
0
0
0
0
0
0
0
0
0
0
0
0
0
0
0
0
0
0
0
0
0
0
0
0
0
0
0
0
0
0
0
0
0
0
0
0
0
0
0
0
0
0
0
0
0
0
0
0
0
0
0
0
0
0
0
0
0
0
0
0
0
0
0
0
0
0
0
0
0
0
0
0
0
0
0
0
0
0
0
0
0
0
0
0
0
0
0
0
0
0
0
0
0
0
0
0
0
0
0
0
0
0
0
0
0
0
0
0
0
0
0
0
0
0
0
0
0
0
0
0
0
0
0
0
0
0
0
0
0
0
0
0
0
0
0
0
0
0
0
0
0
0
0
0
0
0
0
0
0
0
0
0
0
0
0
0
0
0
0
0
0
0
0
0
0
0
0
0
0
0
0
0
0
0
0
0
0
0
0
0
0
0
0
0
0
0
0
0
0
0
0
0
0
0
0
0
0
0
0
0
0
0
0
0
0
0
0
0
0
0
0
0
0
0
0
0
0
0
0
0
0
0
0
0
0
0
0
0
0
0
0
0
0
0
0
0
0
0
0
0
0
0
0
0
0
0
0
0
0
0
0
0
0
0
0
0
0
0
0
0
0
0
0
0
0
0
0
0
0
0
0
0
0
0
0
0
0
0
0
0
0
0
0
0
0
0
0
0
0
0
0
0
0
0
0
0
0
0
0
0
0
0
0
0
0
0
0
0
0
0
0
0
0
0
0
0
0
0
0
0
0
0
0
0
0
0
0
0
0
0
0
0
0
0
0
0
0
0
0
0
0
0
0
0
0
0
0
0
0
0
0
0
0
0
0
0
0
0
0
0
0
0
0
0
0
0
0
0
0
0
0
0
0
0
0
0
0
0
0
0
0
0
0
0
0
0
0
0
0
0
0
0
0
0
0
0
0
0
0
0
0
0
0
0
0
0
0
0
0
0
0
0
0
0
0
0
0
0
0
0
0
0
0
0
0
0
0
0
0
0
0
0
0
0
0
0
0
0
0
0
0
0
0
0
0
0
0
0
0
0
0
0
0
0
0
0
0
0
0
0
0
0
0
0
0
0
0
0
0
0
0
0
0
0
0
0
0
0
0
0
0
0
0
0
0
0
0
0
0
0
0
0
0
0
0
0
0
0
0
0
0
0
0
0
0
0
0
0
0
0
0
0
0
0
0
0
0
0
0
0
0
0
0
0
0
0
0
0
0
0
0
0
0
0
0
0
0
0
0
0
0
0
0
0
0
0
0
0
0
0
0
0
0
0
0
0
0
0
0
0
0
0
0
0
0
0
0
0
0
0
0
0
0
0
0
0
0
0
0
0
0
0
0
0
0
0
0
0
0
0
0
0
0
0
0
0
0
0
0
0
0
0
0
0
0
0
0
0
0
0
0
0
0
0
0
0
0
0
0
0
0
0
0
0
0
0
0
0
0
0
0
0
0
0
0
0
0
0
0
0
0
0
0
0
0
0
0
0
0
0
0
0
0
0
0
0
0
0
0
0
0
0
0
0
0
0
0
0
0
0
0
0
0
0
0
0
0
0
0
0
0
0
0
0
0
0
0
0
0
0
0
0
0
0
0
0
0
0
0
0
0
0
0
0
0
0
0
0
0
0
0
0
0
0
0
0
0
0
0
0
0
0
0
0
0
0
0
0
0
0
0
0
0
0
0
0
0
0
0
0
0
0
0
0
0
0
0
0
0
0
0
0
0
0
0
0
0
0
0
0
0
0
0
0
0
0
0
0
0
0
0
0
0
0
0
0
0
0
0
0
0
0
0
0
0
0
0
0
0
0
0
0
0
0
0
0
0
0
0
0
0
0
0
0
0
0
0
0
0
0
0
0
0
0
0
0
0
0
0
0
0
0
0
0
0
0
0
0
0
0
0
0
0
0
0
0
0
0
0
0
0
0
0
0
0
0
0
0
0
0
0
0
0
0
0
0
0
0
0
0
0
0
0
0
0
0
0
0
0
0
0
0
0
0
0
0
0
0
0
0
0
0
0
0
0
0
0
0
0
0
0
0
0
0
0
0
0
0
0
0
0
0
0
0
0
0
0
0
0
0
0
0
0
0
0
0
0
0
0
0
0
0
0
0
0
0
0
0
0
0
0
0
0
0
0
0
0
0
0
0
0
0
0
0
0
0
0
0
0
0
0
0
0
0
0
0
0
0
0
0
0
0
0
0
0
0
0
0
0
0
0
0
0
0
0
0
0
0
0
0
0
0
0
0
0
0
0
0
0
0
0
0
0
0
0
0
0
0
0
0
0
0
0
0
0
0
0
0
0
0
0
0
0
0
0
0
0
0
0
0
0
0
0
0
0
0
0
0
0
0
0
0
0
0
0
0
0
0
0
0
0
0
0
0
0
0
0
0
0
0
0
0
0
0
0
0
0
0
0
0
0
0
0
0
0
0
0
0
0
0
0
0
0
0
0
0
0
0
0
0
0
0
0
0
0
0
0
0
0
0
0
0
0
0
0
0
0
0
0
0
0
0
0
0
0
0
0
0
0
0
0
0
0
0
0
0
0
0
0
0
0
0
0
0
0
0
0
0
0
0
0
0
0
0
0
0
0
0
0
0
0
0
0
0
0
0
0
0
0
0
0
0
0
0
0
0
0
0
0
0
0
0
0
0
0
0
0
0
0
0
0
0
0
0
0
0
0
0
0
0
0
0
0
0
0
0
0
0
0
0
0
0
0
0
0
0
0
0
0
0
0
0
0
0
0
0
0
0
0
0
0
0
0
0
0
0
0
0
0
0
0
0
0
0
0
0
0
0
0
0
0
0
0
0
0
0
0
0
0
0
0
0
0
0
0
0
0
0
0
0
0
0
0
0
0
0
0
0
0
0
0
0
0
0
0
0
0
0
0
0
0
0
0
0
0
0
0
0
0
0
0
0
0
0
0
0
0
0
0
0
0
0
0
0
0
0
0
0
0
0
0
0
0
0
0
0
0
0
0
0
0
0
0
0
0
0
0
0
0
0
0
0
0
0
0
0
0
0
0
0
0
0
0
0
0
0
0
0
0
0
0
0
0
0
0
0
0
0
0
0
0
0
0
0
0
0
0
0
0
0
0
0
0
0
0
0
0
0
0
0
0
0
0
0
0
0
0
0
0
0
0
0
0
0
0
0
0
0
0
0
0
0
0
0
0
0
0
0
0
0
0
0
0
0
0
0
0
0
0
0
0
0
0
0
0
0
0
0
0
0
0
0
0
0
0
0
0
0
0
0
0
0
0
0
0
0
0
0
0
0
0
0
0
0
0
0
0
0
0
0
0
0
0
0
0
0
0
0
0
0
0
0
0
0
0
0
0
0
0
0
0
0
0
0
0
0
0
0
0
0
0
0
0
0
0
0
0
0
0
0
0
0
0
0
0
0
0
0
0
0
0
0
0
0
0
0
0
0
0
0
0
0
0
0
0
0
0
0
0
0
0
0
0
0
0
0
0
0
0
0
0
0
0
0
0
0
0
0
0
0
0
0
0
0
0
0
0
0
0
0
0
0
0
0
0
0
0
0
0
0
0
0
0
0
0
0
0
0
0
0
0
0
0
0
0
0
0
0
0
0
0
0
0
0
0
0
0
0
0
0
0
0
0
0
0
0
0
0
0
0
0
0
0
0
0
0
0
0
0
0
0
0
0
0
0
0
0
0
0
0
0
0
0
0
0
0
0
0
0
0
0
0
0
0
0
0
0
0
0
0
0
0
0
0
0
0
0
0
0
0
0
0
0
0
0
0
0
0
0
0
0
0
0
0
0
0
0
0
0
0
0
0
0
0
0
0
0
0
0
0
0
0
0
0
0
0
0
0
0
0
0
0
0
0
0
0
0
0
0
0
0
0
0
0
0
0
0
0
0
0
0
0
0
0
0
0
0
0
0
0
0
0
0
0
0
0
0
0
0
0
0
0
0
0
0
0
0
0
0
0
0
0
0
0
0
0
0
0
0
0
0
0
0
0
0
0
0
0
0
0
0
0
0
0
0
0
0
0
0
0
0
0
0
0
0
0
0
0
0
0
0
0
0
0
0
0
1.68676929348e-08
9.55696877372e-09
2.47989941442e-09
3.02879533243e-08
2.57992341021e-08
5.86557197452e-09
3.02863813302e-08
3.15675107095e-08
5.70314747375e-09
3.02848092826e-08
2.97251740072e-08
3.56699076146e-09
3.02832371431e-08
2.78824602524e-08
1.43121102338e-09
3.02816651468e-08
2.60393696621e-08
-7.04191744583e-10
1.68647671611e-08
1.9037859369e-08
-1.97299574542e-09
0
6.47897352845e-09
-1.08752861466e-09
0
0
0
0
0
0
0
0
0
0
0
0
0
0
0
0
0
0
0
0
0
0
0
0
0
0
0
0
0
0
0
0
4.92581944144e-08
2.85152918259e-08
8.21305875154e-09
1.46732645451e-07
9.98196006654e-08
2.79134238411e-08
1.96204954637e-07
1.57687916834e-07
3.94072562963e-08
1.96165741105e-07
1.67832769687e-07
3.26611597717e-08
1.96126527508e-07
1.58066048814e-07
1.91565041569e-08
1.96087314161e-07
1.48288688804e-07
5.66211095311e-09
1.96048100963e-07
1.38500689658e-07
-7.82201988506e-09
1.4658363992e-07
1.15206725936e-07
-1.779179323e-08
4.92281322684e-08
6.52742854224e-08
-1.57718097485e-08
0
1.68931538541e-08
-5.2636396448e-09
0
0
0
0
0
0
0
0
0
0
0
0
0
0
0
0
0
0
0
0
0
0
0
0
0
0
1.78946571567e-08
1.058259573e-08
3.3156748134e-09
1.82918546943e-07
8.56503122871e-08
3.18745851273e-08
3.89742404577e-07
2.13757599348e-07
7.67244107945e-08
4.78000289179e-07
2.96683652581e-07
9.12462836401e-08
4.77933332885e-07
3.07004442853e-07
7.01107102095e-08
4.77866379411e-07
2.8918774962e-07
3.79728184975e-08
4.77799428362e-07
2.71335511364e-07
5.85983449467e-09
4.7773248029e-07
2.53447728213e-07
-2.62282418188e-08
3.89434889244e-07
2.16430037616e-07
-5.13993612837e-08
1.82773578167e-07
1.38618276892e-07
-5.06657261663e-08
1.78901705914e-08
4.99209766532e-08
-2.30484000151e-08
0
5.45060105437e-09
-2.63028365131e-09
0
0
0
0
0
0
0
0
0
0
0
0
0
0
0
0
0
0
0
0
0
0
0
5.09420251008e-08
1.89970753684e-08
8.95191984993e-09
3.09161531565e-07
1.14889863417e-07
5.35946952755e-08
5.80651378329e-07
2.62519384325e-07
1.09626178489e-07
6.92018899142e-07
3.53776532089e-07
1.19769314895e-07
6.9205783124e-07
3.63695322689e-07
8.69432066638e-08
6.92096772992e-07
3.42607207713e-07
4.16225330097e-08
6.92135724338e-07
3.21469241454e-07
-3.68383258449e-09
6.92174685192e-07
3.00281423954e-07
-4.89758902591e-08
5.80794626164e-07
2.57959503647e-07
-8.4730751695e-08
3.09180403676e-07
1.69870777586e-07
-8.50640666879e-08
5.09363283118e-08
6.65634904653e-08
-4.38364212018e-08
0
9.78268576248e-09
-7.66811638381e-09
0
0
0
0
0
0
0
0
0
0
0
0
0
0
0
0
0
0
0
0
0
0
0
6.70098418385e-08
1.89977915789e-08
1.09534473894e-08
3.55930909421e-07
1.14910066134e-07
5.78657483585e-08
6.50532023128e-07
2.62574038715e-07
1.11917606577e-07
7.7049425021e-07
3.53816466613e-07
1.17393904986e-07
7.70636656964e-07
3.6370471963e-07
8.02633243024e-08
7.70779075904e-07
3.42609938844e-07
3.11558320897e-08
7.70921506912e-07
3.21465306735e-07
-1.79516602206e-08
7.71063950046e-07
3.00270823413e-07
-6.70591524403e-08
6.51141385442e-07
2.57918087371e-07
-1.05045826761e-07
3.56174147392e-07
1.69812872659e-07
-1.02923355002e-07
6.70206161778e-08
6.65405762528e-08
-5.41060271484e-08
0
9.7818264819e-09
-1.0393466871e-08
0
0
0
0
0
0
0
0
0
0
0
0
0
0
0
0
0
0
0
0
0
0
0
6.88524538053e-08
1.89985078993e-08
1.03183461429e-08
3.65709320204e-07
1.1493026841e-07
5.38646398327e-08
6.68400874474e-07
2.62628693295e-07
1.02381336905e-07
7.91673822945e-07
3.53856404229e-07
1.03896473813e-07
7.91841157585e-07
3.63714120762e-07
6.56157488371e-08
7.92008504359e-07
3.42612674134e-07
1.65082566398e-08
7.92175863354e-07
3.21461376201e-07
-3.25992356815e-08
7.92343234442e-07
3.00260227075e-07
-8.17067279063e-08
6.69116879903e-07
2.5787667423e-07
-1.18525952564e-07
3.65995116297e-07
1.69754969037e-07
-1.12429491944e-07
6.8865112765e-08
6.65176624304e-08
-5.80947163235e-08
0
9.78096718134e-09
-1.10281120958e-08
0
0
0
0
0
0
0
0
0
0
0
0
0
0
0
0
0
0
0
0
0
0
0
7.06951664074e-08
1.89992240705e-08
9.68314419251e-09
3.75490574918e-07
1.14950469882e-07
4.98607885525e-08
6.86279236581e-07
2.62683347844e-07
9.28384058882e-08
8.12866739282e-07
3.53896344705e-07
9.03952142981e-08
8.13059001899e-07
3.63723525983e-07
5.0968173335e-08
8.13251276633e-07
3.42615413533e-07
1.86068110759e-09
8.13443563457e-07
3.21457449816e-07
-4.72468112167e-08
8.1363586243e-07
3.00249634805e-07
-9.63543033872e-08
6.87101884976e-07
2.57835264385e-07
-1.32002250064e-07
3.75818929325e-07
1.6969706676e-07
-1.21928967655e-07
7.07097100867e-08
6.64947489901e-08
-6.20806627663e-08
0
9.7801078855e-09
-1.16626566471e-08
0
0
0
0
0
0
0
0
0
0
0
0
0
0
0
0
0
0
0
0
0
0
0
7.25379796689e-08
1.89999401334e-08
9.04784165509e-09
3.85274673658e-07
1.14970670944e-07
4.58541944994e-08
7.04167109297e-07
2.62738002564e-07
8.32888135243e-08
8.34072999414e-07
3.53936288357e-07
7.68901263979e-08
8.34290189877e-07
3.63732935324e-07
3.63205977663e-08
8.34507392505e-07
3.4261815696e-07
-1.27868944312e-08
8.34724607137e-07
3.21453527494e-07
-6.18943866812e-08
8.34941834132e-07
3.00239046646e-07
-1.11001878847e-07
7.05096400726e-07
2.57793857631e-07
-1.45474719253e-07
3.85645586191e-07
1.69639165549e-07
-1.31421781963e-07
7.25544081288e-08
6.64718358284e-08
-6.60638663616e-08
0
9.77924866423e-09
-1.22971004897e-08
0
0
0
0
0
0
0
0
0
0
0
0
0
0
0
0
0
0
0
0
0
0
0
5.76969476636e-08
1.05839286371e-08
6.61725293572e-09
3.51576075805e-07
8.57245985887e-08
3.65766999731e-08
6.60850374667e-07
2.13991994423e-07
6.71223755926e-08
7.87923284448e-07
2.96861327026e-07
5.87259734068e-08
7.88190448224e-07
3.07044609254e-07
2.055861001e-08
7.88457620524e-07
2.89199405783e-07
-2.47044450597e-08
7.88724801314e-07
2.71318657332e-07
-6.99818081186e-08
7.88991990862e-07
2.53402363915e-07
-1.15273479249e-07
6.62000350917e-07
2.16245735369e-07
-1.45543219649e-07
3.52046018252e-07
1.38368732347e-07
-1.27290155127e-07
5.77192898728e-08
4.98354245353e-08
-6.0755531345e-08
0
5.449001921e-09
-9.99914244098e-09
0
0
0
0
0
0
0
0
0
0
0
0
0
0
0
0
0
0
0
0
0
0
0
2.09697458628e-08
0
2.2526502066e-09
2.17360907743e-07
2.85292252032e-08
1.88464542913e-08
4.64682746185e-07
9.99103145835e-08
3.86824001211e-08
5.70561367835e-07
1.57769904724e-07
3.30646293786e-08
5.70783356195e-07
1.67848739448e-07
5.98395493124e-09
5.71005344866e-07
1.58070647267e-07
-2.60537161171e-08
5.71227334067e-07
1.48281916066e-07
-5.81162948839e-08
5.71449323542e-07
1.38482545754e-07
-9.0203781514e-08
4.65609372559e-07
1.15121502192e-07
-1.09287609016e-07
2.17689215601e-07
6.51754369785e-08
-8.84320184136e-08
2.09765946342e-08
1.68763711675e-08
-3.6004937031e-08
0
0
-3.69211517017e-09
0
0
0
0
0
0
0
0
0
0
0
0
0
0
0
0
0
0
0
0
0
0
0
0
0
0
6.08625592928e-08
0
4.19661030836e-09
1.82381366854e-07
9.55908612395e-09
1.15263823027e-08
2.44468265029e-07
2.58046464683e-08
1.03205573107e-08
2.44536094567e-07
3.15682152203e-08
-7.34546390001e-10
2.44603923036e-07
2.97253751761e-08
-1.41979576375e-08
2.44671750302e-07
2.78821581178e-08
-2.76716312734e-08
2.44739576577e-07
2.60385643385e-08
-4.11555674045e-08
1.82627425135e-07
1.90321098663e-08
-4.67728063918e-08
6.09077906026e-08
6.47641244379e-09
-3.20863787175e-08
0
0
-9.27067963992e-09
0
0
0
0
0
0
0
0
0
0
0
0
0
0
0
0
0
0
0
0
0
0
0
0
0
0
0
0
0
0
0
0
2.19982221905e-08
0
7.09344772956e-10
3.9499949582e-08
0
9.15368567988e-10
3.95022831683e-08
0
-6.5474408958e-10
3.95046166495e-08
0
-2.78938711847e-09
3.95069502514e-08
0
-4.92440709961e-09
3.95092838815e-08
0
-7.05980401093e-09
2.20025653616e-08
0
-6.9194983522e-09
0
0
-2.85693246217e-09
0
0
0
0
0
0
0
0
0
0
0
0
0
0
0
0
0
0
0
0
0
0
0
0
0
0
0
0
0
0
0
0
0
0
0
0
0
0
0
0
0
0
0
0
0
0
0
0
0
0
0
0
0
0
0
0
0
0
0
0
0
0
0
0
0
0
0
0
0
0
0
0
0
0
0
0
0
0
0
0
0
0
0
0
0
0
0
0
0
0
0
0
0
0
0
0
0
0
0
0
0
0
0
0
0
0
0
0
0
0
0
0
0
0
0
0
0
0
0
0
0
0
0
0
0
0
0
0
0
0
0
0
0
0
0
0
0
0
0
0
0
0
0
0
0
0
0
0
0
0
0
0
0
0
0
0
0
0
0
0
0
0
0
0
0
0
0
0
0
0
0
0
0
0
0
0
0
0
0
0
0
0
0
0
0
0
0
0
0
0
0
0
0
0
0
0
0
0
0
0
0
0
0
0
0
0
0
0
0
0
0
0
0
0
0
0
0
0
0
0
0
0
0
0
0
0
0
0
0
0
0
0
0
0
0
0
0
0
0
0
0
0
0
0
0
0
0
0
0
0
0
0
0
0
0
0
0
0
0
0
0
0
0
0
0
0
0
0
0
0
0
0
0
0
0
0
0
0
0
0
0
0
0
0
0
0
0
0
0
0
0
0
0
0
0
0
0
0
0
0
0
0
0
0
0
0
0
0
0
0
0
0
0
0
0
0
0
0
0
0
0
0
0
0
0
0
0
0
0
0
0
0
0
0
0
0
0
0
0
0
0
0
0
0
0
0
0
0
0
0
0
0
0
0
0
0
0
0
0
0
0
0
0
0
0
0
0
0
0
0
0
0
0
0
0
0
0
0
0
0
0
0
0
0
0
0
0
0
0
0
0
0
0
0
0
0
0
0
0
0
0
0
0
0
0
0
0
0
0
0
0
0
0
0
0
0
0
0
0
0
0
0
0
0
0
3.04385616225e-08
1.83923130932e-08
5.83911527784e-09
9.60423149213e-08
7.34564172768e-08
2.08951450565e-08
1.26658240453e-07
1.23980906688e-07
3.0474790391e-08
1.2662888638e-07
1.33975971269e-07
2.63842978936e-08
1.26599532281e-07
1.26329089274e-07
1.748774506e-08
1.26570178568e-07
1.18675689821e-07
8.59770964919e-09
1.26540824785e-07
1.11015772993e-07
-2.85808293187e-10
9.59410294189e-08
9.13061193402e-08
-7.51126936655e-09
3.04249800707e-08
4.87256132706e-08
-7.84841144913e-09
0
1.10275325852e-08
-2.70155030001e-09
0
0
0
0
0
0
0
0
0
0
0
0
0
0
0
0
0
0
0
0
0
0
0
0
0
0
7.199187692e-08
4.42742227985e-08
1.5128590686e-08
2.84543715918e-07
1.92536603753e-07
6.57549208713e-08
5.36160859031e-07
3.92843846462e-07
1.25912897304e-07
6.46986802894e-07
5.19534785168e-07
1.43722901441e-07
6.46607873446e-07
5.34710813387e-07
1.15682863121e-07
6.46228946012e-07
5.04380528403e-07
7.33000890097e-08
6.45850021102e-07
4.73959067764e-07
3.10023543416e-08
6.45471098149e-07
4.43446431629e-07
-1.12103409614e-08
5.34472634689e-07
3.81908918805e-07
-4.7446236834e-08
2.83718716922e-07
2.56874666787e-07
-5.82947087554e-08
7.19058074509e-08
1.12244514373e-07
-3.63758975148e-08
0
2.31654848993e-08
-9.369152044e-09
0
0
0
0
0
0
0
0
0
0
0
0
0
0
0
0
0
0
0
0
3.22829672603e-08
2.02320392905e-08
7.34100428775e-09
3.33462579984e-07
1.75730828333e-07
7.33596177127e-08
8.82287760914e-07
5.11385915063e-07
2.04533786291e-07
1.40730715913e-06
8.7932544535e-07
3.0648617775e-07
1.62112041192e-06
1.09072405204e-06
3.10377550284e-07
1.62010028293e-06
1.10330237224e-06
2.36977895045e-07
1.61908019823e-06
1.04101182319e-06
1.41432981163e-07
1.61806015751e-06
9.78417181354e-07
4.6111268538e-08
1.6170401606e-06
9.15518446946e-07
-4.89872428997e-08
1.40239045847e-06
8.01481919539e-07
-1.32511337916e-07
8.79140507982e-07
5.73310043674e-07
-1.67634487037e-07
3.32586581718e-07
2.95300188329e-07
-1.28141778899e-07
3.22641027482e-08
9.05405835408e-08
-5.0264346417e-08
0
9.17820124913e-09
-5.47071497211e-09
0
0
0
0
0
0
0
0
0
0
0
0
0
0
0
0
0
1.37028060453e-07
6.37080426617e-08
2.95138043231e-08
7.26394688316e-07
3.32493615471e-07
1.60940903146e-07
1.62113288423e-06
8.17093261328e-07
3.52406721872e-07
2.40676018051e-06
1.30868913329e-06
4.65393167996e-07
2.71192557805e-06
1.57083227816e-06
4.4240430805e-07
2.71106658949e-06
1.57640943671e-06
3.23019480669e-07
2.71020775318e-06
1.48769730973e-06
1.77169861105e-07
2.7093490684e-06
1.39844390483e-06
3.15823666922e-08
2.7084905344e-06
1.30864922228e-06
-1.13743002546e-07
2.40242986418e-06
1.15402882788e-06
-2.41949768639e-07
1.6178745517e-06
8.51378401333e-07
-3.01070704715e-07
7.2513969112e-07
4.69753778574e-07
-2.50623308985e-07
1.36884282887e-07
1.69300234717e-07
-1.22021393404e-07
0
2.88765979336e-08
-2.36921337977e-08
0
0
0
0
0
0
0
0
0
0
0
0
0
0
0
0
0
2.46538201941e-07
8.39655727441e-08
5.00758799149e-08
1.02910372662e-06
4.01872269413e-07
2.18832702344e-07
2.15266918037e-06
9.42768865827e-07
4.28787907416e-07
3.09267100989e-06
1.47684029878e-06
5.34539547636e-07
3.45310565504e-06
1.75556394071e-06
4.88472997779e-07
3.45377392236e-06
1.7575618504e-06
3.40344433005e-07
3.45444242897e-06
1.65872055201e-06
1.64957189257e-07
3.45511117434e-06
1.55923498556e-06
-1.03127404591e-08
3.45578015801e-06
1.45910515102e-06
-1.85465356139e-07
3.09598178992e-06
1.28907007938e-06
-3.39160567665e-07
2.15498446995e-06
9.59093965061e-07
-4.08927418296e-07
1.02980606005e-06
5.4042412191e-07
-3.46909515499e-07
2.4653353113e-07
2.03781181817e-07
-1.84112682226e-07
0
3.80246846767e-08
-4.35437573824e-08
0
0
0
0
0
0
0
0
0
0
0
0
0
0
0
0
0
2.8744096537e-07
8.39785445197e-08
5.44938452181e-08
1.14354624681e-06
4.02065837314e-07
2.26066855286e-07
2.35082031038e-06
9.43415504456e-07
4.27972973373e-07
3.35101299118e-06
1.47775784075e-06
5.19635313204e-07
3.7340524271e-06
1.75613009286e-06
4.60211948988e-07
3.73594788681e-06
1.75773172033e-06
3.02557072488e-07
3.73784359365e-06
1.65880389374e-06
1.19353734862e-07
3.73973954742e-06
1.5592317991e-06
-6.38496028031e-08
3.74163574848e-06
1.45901543646e-06
-2.47052940515e-07
3.36055401333e-06
1.28857204198e-06
-4.05744711323e-07
2.35792546731e-06
9.58198393491e-07
-4.71577257852e-07
1.14617395507e-06
5.39757558994e-07
-3.95428637591e-07
2.87664485871e-07
2.03568742208e-07
-2.12125400045e-07
0
3.80092404688e-08
-5.19621557145e-08
0
0
0
0
0
0
0
0
0
0
0
0
0
0
0
0
0
2.95090228271e-07
8.39915156471e-08
5.18641851476e-08
1.17394434024e-06
4.02259393073e-07
2.13659791775e-07
2.41345327032e-06
9.44062116271e-07
3.99941850933e-07
3.44053776233e-06
1.47867538605e-06
4.76459440179e-07
3.83409864986e-06
1.75669630576e-06
4.07810471793e-07
3.83631629017e-06
1.7579016747e-06
2.47637502437e-07
3.83853417763e-06
1.6588873201e-06
6.44341647904e-08
3.84075231225e-06
1.55922869731e-06
-1.18769172915e-07
3.842970694e-06
1.45892580634e-06
-3.01972510659e-07
3.4517028475e-06
1.28807409233e-06
-4.580085261e-07
2.42177495527e-06
9.57302892814e-07
-5.14445437039e-07
1.17702797303e-06
5.39091031448e-07
-4.23197604342e-07
2.95352854713e-07
2.03356310416e-07
-2.24432521146e-07
0
3.79937968055e-08
-5.45841585394e-08
0
0
0
0
0
0
0
0
0
0
0
0
0
0
0
0
0
3.02741232962e-07
8.40044864506e-08
4.9232783331e-08
1.20436685447e-06
4.02452936658e-07
2.01229960667e-07
2.47616785108e-06
9.44708701408e-07
3.71850846067e-07
3.53020804653e-06
1.4795929346e-06
4.3321310217e-07
3.9343181745e-06
1.75726257962e-06
3.55377420435e-07
3.93685799561e-06
1.75807171393e-06
1.92717932393e-07
3.93939806378e-06
1.65897083096e-06
9.5145946434e-09
3.94193837894e-06
1.55922568008e-06
-1.73688743049e-07
3.94447894152e-06
1.45883626108e-06
-3.56892080741e-07
3.5429971947e-06
1.28757623034e-06
-5.10240766678e-07
2.48570606422e-06
9.56407462773e-07
-5.57243151283e-07
1.20790641186e-06
5.38424539287e-07
-4.50906688643e-07
3.03042965274e-07
2.03143886466e-07
-2.36716874667e-07
0
3.79783534011e-08
-5.72044196497e-08
0
0
0
0
0
0
0
0
0
0
0
0
0
0
0
0
0
3.10393979417e-07
8.40174566415e-08
4.65996397098e-08
1.2348137896e-06
4.02646468088e-07
1.88777361891e-07
2.53896405269e-06
9.45355259999e-07
3.43699958821e-07
3.6200238438e-06
1.48051048715e-06
3.89896299156e-07
4.03471100121e-06
1.75782891447e-06
3.02912794962e-07
4.03757300305e-06
1.75824183762e-06
1.3779836231e-07
4.04043525184e-06
1.65905442649e-06
-4.54049754874e-08
4.0432977479e-06
1.55922274736e-06
-2.28608313178e-07
4.04616049105e-06
1.45874680018e-06
-4.1181165084e-07
3.63443705505e-06
1.2870784561e-06
-5.62441433049e-07
2.5497187939e-06
9.55512103334e-07
-5.99970400418e-07
1.23880927124e-06
5.37758082131e-07
-4.78555890539e-07
3.10734817675e-07
2.02931470406e-07
-2.48978460436e-07
0
3.79629103115e-08
-5.98229388886e-08
0
0
0
0
0
0
0
0
0
0
0
0
0
0
0
0
0
2.79117599849e-07
6.37527911776e-08
3.87811251559e-08
1.16603978265e-06
3.33343472284e-07
1.62214220461e-07
2.44069777253e-06
8.20174866332e-07
2.9718549592e-07
3.50906743186e-06
1.31323479764e-06
3.29938835162e-07
3.92111495385e-06
1.57367211548e-06
2.39968259861e-07
3.92481299522e-06
1.57725101943e-06
8.04520845319e-08
3.92851122977e-06
1.488102958e-06
-9.44545077834e-08
3.93220965804e-06
1.39841361873e-06
-2.69478414059e-07
3.93590828011e-06
1.30818300169e-06
-4.44619634428e-07
3.5276518518e-06
1.15150307096e-06
-5.8561580059e-07
2.45447077477e-06
8.46914147926e-07
-6.10336905581e-07
1.17109072664e-06
4.66557138456e-07
-4.76069304872e-07
2.79559481282e-07
1.68358109438e-07
-2.39868618617e-07
0
2.88233167853e-08
-5.47740463607e-08
0
0
0
0
0
0
0
0
0
0
0
0
0
0
0
0
0
1.61649401837e-07
2.02380374833e-08
2.09298347905e-08
8.61152781234e-07
1.76124065675e-07
1.05947862967e-07
1.92413539673e-06
5.13282865119e-07
2.10373231511e-07
2.86102901083e-06
8.82537214792e-07
2.34880371169e-07
3.22900475065e-06
1.09281887604e-06
1.5829811497e-07
3.2329145696e-06
1.10389374985e-06
2.54206686918e-08
3.23682443463e-06
1.04127713307e-06
-1.19357016836e-07
3.24073434635e-06
9.78356423713e-07
-2.6439682753e-07
3.24464430547e-06
9.15131621633e-07
-4.09698763401e-07
2.88039406553e-06
7.99545622338e-07
-5.22622079654e-07
1.93777384312e-06
5.70088222559e-07
-5.27086310459e-07
8.65590677355e-07
2.93292379648e-07
-3.89599620288e-07
1.61938482509e-07
9.00893121452e-08
-1.76117038181e-07
0
9.17105860485e-09
-3.22291809104e-08
0
0
0
0
0
0
0
0
0
0
0
0
0
0
0
0
0
3.96355802922e-08
0
4.79456636446e-09
4.13164927479e-07
4.43128199875e-08
4.28261495277e-08
1.09634360801e-06
1.93007846574e-07
1.04755519422e-07
1.75202939177e-06
3.93912883362e-07
1.25121986909e-07
2.02228482899e-06
5.20306517381e-07
7.70599369882e-08
2.02464568378e-06
5.34901737496e-07
-9.84912191592e-09
2.02700649498e-06
5.04449471351e-07
-1.04484171019e-07
2.02936726271e-06
4.73906029877e-07
-1.99342421453e-07
2.03172798749e-06
4.432714126e-07
-2.94423873073e-07
1.76326984959e-06
3.81138609434e-07
-3.63151502068e-07
1.10321848449e-06
2.5575970623e-07
-3.45865887877e-07
4.14800865865e-07
1.11723554978e-07
-2.26167548903e-07
3.96635830689e-08
2.3119357206e-08
-8.04622178516e-08
0
0
-8.01234387105e-09
0
0
0
0
0
0
0
0
0
0
0
0
0
0
0
0
0
0
0
0
9.30487977263e-08
0
7.82396003921e-09
3.69262434483e-07
1.84009074913e-08
2.87986520982e-08
6.98521028161e-07
7.35386586135e-08
4.1118679287e-08
8.4458791679e-07
1.24062434044e-07
2.29495894811e-08
8.45242335038e-07
1.33990631806e-07
-1.53392962174e-08
8.45896729675e-07
1.2633330243e-07
-5.73765711799e-08
8.46551100382e-07
1.18669455857e-07
-9.94988855863e-08
8.47205447644e-07
1.10999091699e-07
-1.41706239342e-07
7.01387143024e-07
9.12213194709e-08
-1.67270123418e-07
3.70569188928e-07
4.86350378274e-08
-1.42163121852e-07
9.31749586443e-08
1.10172214497e-08
-7.29950916533e-08
0
0
-1.66489138571e-08
0
0
0
0
0
0
0
0
0
0
0
0
0
0
0
0
0
0
0
0
0
0
0
0
0
0
4.14850625408e-08
0
2.02364514417e-09
1.30825828269e-07
0
5.03743046077e-09
1.72559261674e-07
0
2.54878616668e-09
1.72601783654e-07
0
-5.35490295075e-09
1.72644304869e-07
0
-1.4225037162e-08
1.72686825008e-07
0
-2.31016887774e-08
1.72729344262e-07
0
-3.19848578225e-08
1.30972546116e-07
0
-3.53681987398e-08
4.1504736313e-08
0
-2.36599519215e-08
0
0
-6.51238344698e-09
0
0
0
0
0
0
0
0
0
0
0
0
0
0
0
0
0
0
0
0
0
0
0
0
0
0
0
0
0
0
0
0
0
0
0
0
0
0
0
0
0
0
0
0
0
0
0
0
0
0
0
0
0
0
0
0
0
0
0
0
0
0
0
0
0
0
0
0
0
0
0
0
0
0
0
0
0
0
0
0
0
0
0
0
0
0
0
0
0
0
0
0
0
0
0
0
0
0
0
0
0
0
0
0
0
0
0
0
0
0
0
0
0
0
0
0
0
0
0
0
0
0
0
0
0
0
0
0
0
0
0
0
0
0
0
0
0
0
0
0
0
0
0
0
0
0
0
0
0
0
0
0
0
0
0
0
0
0
0
0
0
0
0
0
0
0
0
0
0
0
0
0
0
0
0
0
0
0
0
0
0
0
0
0
0
0
0
0
0
0
0
0
0
0
0
0
0
0
0
0
0
0
0
0
0
0
0
0
0
0
0
0
0
0
0
0
0
0
0
0
0
0
0
0
0
0
0
0
0
0
0
0
0
0
0
0
0
0
0
0
0
0
0
0
0
0
0
0
0
0
0
0
0
0
0
0
0
0
0
0
0
0
0
0
0
0
0
0
0
0
0
0
0
0
0
0
0
0
0
0
0
0
0
0
0
0
0
0
0
0
0
0
0
0
0
0
0
0
0
0
0
0
0
0
3.05861019456e-08
1.87089193984e-08
6.15669826376e-09
9.6517293997e-08
7.47657586232e-08
2.22136572485e-08
1.27288643818e-07
1.26295769443e-07
3.28001512371e-08
1.27257117156e-07
1.36618857352e-07
2.90313902946e-08
1.27225590593e-07
1.28972961884e-07
2.01338509283e-08
1.27194064194e-07
1.21320548995e-07
1.12428290098e-08
1.27162537859e-07
1.13661618629e-07
2.35832449062e-09
9.64085122798e-08
9.36385201452e-08
-5.18740994697e-09
3.05715153127e-08
5.00535037891e-08
-6.52893455324e-09
0
1.13461734367e-08
-2.38382085601e-09
0
0
0
0
0
0
0
0
0
0
0
0
0
0
0
0
0
0
0
0
0
0
0
1.91029920332e-09
1.24721309217e-09
4.83575991126e-10
1.31195574201e-07
8.26852657251e-08
2.92392870129e-08
4.24858075729e-07
3.13954519332e-07
1.02374734417e-07
7.59317490251e-07
6.05501866193e-07
1.75580023838e-07
8.98991660947e-07
7.86840023639e-07
1.94634340358e-07
8.98128491324e-07
8.05184227865e-07
1.58927240574e-07
8.97265322631e-07
7.60398424062e-07
1.06140890177e-07
8.96402155224e-07
7.15462793769e-07
5.3504366048e-08
8.95538988886e-07
6.70377337283e-07
1.01766821028e-09
7.55408564074e-07
5.82186725063e-07
-4.58075397366e-08
4.2285311978e-07
3.99684039069e-07
-6.64806629508e-08
1.30891171678e-07
1.8474533188e-07
-4.89144820356e-08
1.91022148006e-09
4.38526703813e-08
-1.59373540408e-08
0
5.76438022395e-10
-2.93445263789e-10
0
0
0
0
0
0
0
0
0
0
0
0
0
0
0
0
0
1.36947589104e-07
8.52375565052e-08
3.23783800729e-08
7.11263513784e-07
4.32510218023e-07
1.64571038642e-07
1.59263673922e-06
1.03207900956e-06
3.60976352254e-07
2.36432109601e-06
1.616653635e-06
4.90966835379e-07
2.6620416163e-06
1.92081498486e-06
4.85300225461e-07
2.65843864839e-06
1.92472339567e-06
3.77788360365e-07
2.65483572033e-06
1.81851210855e-06
2.41219216482e-07
2.6512328321e-06
1.71169822912e-06
1.05187895659e-07
2.64762998294e-06
1.60428175735e-06
-3.03056022841e-08
2.34639572167e-06
1.42194533064e-06
-1.53260729443e-07
1.57979814743e-06
1.06398582759e-06
-2.2116609923e-07
7.06890957587e-07
6.02023522542e-07
-1.95563857442e-07
1.36596185687e-07
2.23929831724e-07
-1.00389152522e-07
0
3.93888544991e-08
-2.16826245583e-08
0
0
0
0
0
0
0
0
0
0
0
0
0
0
3.33527914455e-08
2.14681754582e-08
8.40978388666e-09
5.51991782417e-07
2.76087114658e-07
1.25172064198e-07
1.80979650441e-06
9.68886258941e-07
4.03486284771e-07
3.34876202676e-06
1.91350546128e-06
6.95233539272e-07
4.54912718804e-06
2.72402469649e-06
8.36875431576e-07
4.99292770776e-06
3.11482245046e-06
7.77693663502e-07
4.98700993041e-06
3.09387629781e-06
5.82523354118e-07
4.98109234864e-06
2.92438673146e-06
3.50217191059e-07
4.97517496027e-06
2.75362823317e-06
1.18800620507e-07
4.96925776363e-06
2.58160080304e-06
-1.11726357784e-07
4.51840876591e-06
2.30795724674e-06
-3.21856115453e-07
3.32323721903e-06
1.79115579821e-06
-4.47564824389e-07
1.79744164766e-06
1.11076910705e-06
-4.27246367598e-07
5.49696380803e-07
4.9638594986e-07
-2.71819077606e-07
3.332990335e-08
1.25864983641e-07
-9.03572658876e-08
0
8.57175594523e-09
-6.53744320454e-09
0
0
0
0
0
0
0
0
0
0
0
1.41480003604e-07
6.75834191073e-08
3.39601724356e-08
1.13526791515e-06
4.94185672091e-07
2.45319033556e-07
3.01846899215e-06
1.44037691006e-06
6.30219015868e-07
5.06853542506e-06
2.60543861106e-06
9.63393700134e-07
6.59556083568e-06
3.55605294359e-06
1.08718101256e-06
7.15175153509e-06
3.99591521681e-06
9.69855674873e-07
7.14750479466e-06
3.95284611273e-06
6.98809373811e-07
7.14325852407e-06
3.73726658336e-06
3.86990944025e-07
7.13901272025e-06
3.51983429782e-06
7.60185249089e-08
7.13476737992e-06
3.30054925622e-06
-2.3410788349e-07
6.57301221114e-06
2.96158702475e-06
-5.16531511928e-07
5.0483206811e-06
2.33519367171e-06
-6.88918416497e-07
3.00689988034e-06
1.50686830095e-06
-6.72782078945e-07
1.13203797603e-06
7.3238762769e-07
-4.70224510243e-07
1.41304396785e-07
2.22614107324e-07
-1.92736105232e-07
0
2.69460540412e-08
-2.81163830037e-08
0
0
0
0
0
0
0
0
0
0
0
2.54349888569e-07
8.90625241489e-08
5.79005155058e-08
1.57546088341e-06
5.85819618014e-07
3.21791111945e-07
3.82553726408e-06
1.62537217453e-06
7.43739526505e-07
6.17470261243e-06
2.8669611219e-06
1.07654598885e-06
7.89440605575e-06
3.86480232071e-06
1.1721347177e-06
8.52039800452e-06
4.31894688624e-06
1.01320216187e-06
8.52221437396e-06
4.26614644906e-06
6.98433993362e-07
8.52403138631e-06
4.03367163513e-06
3.4315964231e-07
8.52584903979e-06
3.79911543956e-06
-1.17687421584e-08
8.52766733293e-06
3.56247786225e-06
-3.66351160062e-07
7.90402231076e-06
3.19897688456e-06
-6.87644231226e-07
6.18321723302e-06
2.53248136943e-06
-8.80179444686e-07
3.83024776143e-06
1.65218352968e-06
-8.5656127976e-07
1.57660164102e-06
8.22426761497e-07
-6.16628864189e-07
2.5433797675e-07
2.62506652103e-07
-2.7608508993e-07
0
3.5467215848e-08
-5.13305825273e-08
0
0
0
0
0
0
0
0
0
0
0
2.96302369491e-07
8.90760764712e-08
6.33903576234e-08
1.73679486118e-06
5.86220105179e-07
3.31891032135e-07
4.12687316581e-06
1.62724785531e-06
7.43676341373e-07
6.59942554443e-06
2.87061353716e-06
1.05362621386e-06
8.40345977087e-06
3.86878454822e-06
1.12256781209e-06
9.06203347465e-06
4.32113414687e-06
9.41977688976e-07
9.06825236335e-06
4.26679422567e-06
6.13340107048e-07
9.07447188128e-06
4.03403790806e-06
2.47121744539e-07