/*--------------------------------*- C++ -*----------------------------------*\
| =========                 |                                                 |
| \\      /  F ield         | OpenFOAM: The Open Source CFD Toolbox           |
|  \\    /   O peration     | Version:  3.0.1                                 |
|   \\  /    A nd           | Web:      www.OpenFOAM.org                      |
|    \\/     M anipulation  |                                                 |
\*---------------------------------------------------------------------------*/
FoamFile
{
    version     2.0;
    format      ascii;
    class       surfaceVectorField;
    location    "1.6";
    object      Uf_0;
}
// * * * * * * * * * * * * * * * * * * * * * * * * * * * * * * * * * * * * * //

dimensions      [0 1 -1 0 0 0 0];

internalField   nonuniform List<vector> 
22672
(
(0.000169065855574 2.77593983037e-05 -0.000159060423696)
(4.61011425829e-05 0.00013653833648 -0.000158671101393)
(8.5213316061e-05 6.72831860313e-05 -0.000305602957879)
(0.000452456857727 7.24197933265e-06 -0.000183845690477)
(0.000276970332958 0.000105086982816 -0.000265415269599)
(0.000342299123293 7.26238115514e-05 -0.000388476581182)
(0.000753509885214 3.27757023735e-06 -0.000170609932975)
(0.000624279739679 0.0001018636638 -0.00029725856436)
(0.000668255384694 8.29518139254e-05 -0.00040291513844)
(0.000993738313399 1.48970580972e-05 -0.00013459289396)
(0.000929614485087 0.000122420440309 -0.000276625356046)
(0.000954390400461 0.000103147276882 -0.000362647161383)
(0.00112530238475 3.90178856785e-05 -9.07875439187e-05)
(0.00113862707895 0.000164422843325 -0.000233325114597)
(0.00114811473035 0.000131814140937 -0.000295985047787)
(0.00112534453173 6.8027816471e-05 -4.61836311847e-05)
(0.0012126137906 0.00021680748418 -0.000179955455118)
(0.00121350312987 0.000163582013111 -0.000216847601826)
(0.000994737702112 9.51735033299e-05 -5.1438358478e-06)
(0.00114167458338 0.000267021836627 -0.000125589883153)
(0.00113906865764 0.000191980582726 -0.00013641282065)
(0.000751840210756 0.000115792648485 2.76425709941e-05)
(0.000937504284136 0.000307498665831 -7.66477904163e-05)
(0.000934532212574 0.000213562779759 -6.45988478847e-05)
(0.000431855479095 0.000126694457353 4.76491838154e-05)
(0.000630473778663 0.00033269446934 -4.08716163071e-05)
(0.000628701722246 0.000226171518569 -1.27072983006e-05)
(7.343389174e-05 0.000127275774492 5.44989284817e-05)
(0.000261132419981 0.00034026435833 -2.25767901554e-05)
(0.000262005117433 0.000229299528744 1.81597475672e-05)
(-0.000278161128048 0.000118369653305 4.97815959864e-05)
(-0.000123433959414 0.00033129679013 -2.14704615693e-05)
(-0.000118838158578 0.000223443601559 2.03007931058e-05)
(-0.000580065492262 0.000100618331285 3.34022496445e-05)
(-0.000475757493737 0.000307574224472 -3.61348568104e-05)
(-0.000468398690452 0.000209536063422 -5.66728183825e-06)
(-0.000804320572103 7.57003079919e-05 6.40958717554e-06)
(-0.000759075771169 0.000270289594435 -6.55045576822e-05)
(-0.000750409227719 0.000188940131792 -4.60319437157e-05)
(-0.000925582743717 4.74253027553e-05 -2.76345936048e-05)
(-0.000944610507486 0.000224383348713 -0.000105607049267)
(-0.000936334874792 0.000163402810039 -0.000103118627656)
(-0.000931838265641 2.00473300134e-05 -6.58183559709e-05)
(-0.00101191602806 0.000175249192736 -0.000151719055513)
(-0.00100748015753 0.000135625028483 -0.000168991148539)
(-0.000823576761213 -7.90784303481e-07 -0.000104905460623)
(-0.000952968624615 0.000128686915119 -0.000199419479169)
(-0.000957852839594 0.000107957190035 -0.000236945925013)
(-0.000620209589102 -9.05109205445e-06 -0.000138432041894)
(-0.00077582132905 9.44198754441e-05 -0.000240735666527)
(-0.000796988926001 8.50707416743e-05 -0.000297784582245)
(-0.000363700434043 -3.64606063898e-06 -0.000151701022632)
(-0.000511984642849 8.02360662099e-05 -0.000262076309484)
(-0.000553640617822 6.98595573763e-05 -0.000336742747822)
(-0.00012505426177 1.61996955977e-05 -0.000128191661894)
(-0.000211184436648 8.57517378954e-05 -0.000232961684807)
(-0.000275492359785 6.12898830353e-05 -0.00032439532956)
(-2.068690636e-05 0.00011707480549 -0.000127587750318)
(-5.99082583553e-05 5.59525449489e-05 -0.000242127376352)
(0.000138912943983 0.000226428996662 -0.000265025947295)
(2.5121104576e-05 0.000386049062073 -0.000184520763363)
(9.44009256159e-05 0.000291989789857 -0.000388422282369)
(0.000455954024064 0.000214835473496 -0.000378828143482)
(0.000266881304932 0.000384971415836 -0.000381284099372)
(0.000361118602676 0.000302731436311 -0.000596923941105)
(0.000806649748929 0.00023847629836 -0.000403273987431)
(0.000670275800196 0.000419295472066 -0.000451847178516)
(0.000722395195622 0.000339405771677 -0.000668125797499)
(0.00108742784887 0.000292669532868 -0.000375357576683)
(0.00101958732968 0.000490271228419 -0.00043766945709)
(0.00103787411896 0.000404549128317 -0.00064862698534)
(0.00124160174309 0.000366441724244 -0.000322493025797)
(0.00125588031816 0.000588200284598 -0.000383150239512)
(0.00125134062072 0.00048809247662 -0.000577949262353)
(0.0012443881278 0.000442927665464 -0.000259361707086)
(0.00133605902906 0.000692423881947 -0.000309250914003)
(0.00132274327464 0.000573840490198 -0.000478400539884)
(0.00109777351576 0.000508346689641 -0.000197093837721)
(0.00125198125132 0.000783355120107 -0.00023169670689)
(0.00123936577525 0.000647113744623 -0.000369716269223)
(0.000824853843221 0.00055408901684 -0.000145161977718)
(0.00102012739102 0.000850332445772 -0.000162404452235)
(0.00101283756952 0.000699785952332 -0.00026991156638)
(0.000464837154874 0.000575724255227 -0.000111097590278)
(0.000676112572391 0.000887365672388 -0.000111318595941)
(0.000675524779138 0.000728045351673 -0.000194651865116)
(6.49964336032e-05 0.0005730907502 -9.85461802064e-05)
(0.000266700203687 0.000894211621015 -8.50856616027e-05)
(0.000272834414474 0.000732468512009 -0.000154103818231)
(-0.000325283431982 0.000548381217257 -0.000107386914366)
(-0.000156112466456 0.000873184658624 -8.48116572917e-05)
(-0.000143992239226 0.000715724578249 -0.000151605240324)
(-0.000662036556614 0.000504168683194 -0.000135041664137)
(-0.000542665372301 0.00082834910296 -0.000108279884928)
(-0.000526073254609 0.000680495670196 -0.000184018980713)
(-0.000910104321646 0.000444482937474 -0.000177521194125)
(-0.000853326637177 0.000763197365411 -0.000151378623274)
(-0.000833660787945 0.000629537736019 -0.000244837243042)
(-0.00104288892987 0.000375428854593 -0.000229691511175)
(-0.00105631625672 0.000682755597675 -0.000208897202044)
(-0.00103584001299 0.000566112708182 -0.000325584900017)
(-0.00104483046 0.000304202301628 -0.000285320178711)
(-0.00112925765251 0.000593324053333 -0.000274779847562)
(-0.00111244866901 0.000494415909391 -0.000416130615903)
(-0.000914578929867 0.000241060542351 -0.000335249685074)
(-0.00106077970978 0.000502359089907 -0.000341048191388)
(-0.0010562027461 0.000419801964345 -0.000503921016455)
(-0.000671608007456 0.000198227570966 -0.000364379934117)
(-0.000856852304247 0.000422769691879 -0.000393738402616)
(-0.000876786900493 0.000351724443702 -0.000571318079723)
(-0.000365519490706 0.000182494222994 -0.000343336971659)
(-0.000551763425125 0.000367997129743 -0.000410445912439)
(-0.000605654421269 0.000300447660342 -0.000593846934744)
(-9.40032646643e-05 0.000197692069054 -0.000232357773231)
(-0.000197267489464 0.000342130657969 -0.000344384642436)
(-0.000292097108561 0.000271736733009 -0.000527892478369)
(2.77880611068e-07 0.00034512274279 -0.000150695295615)
(-6.94751778706e-05 0.000264350217804 -0.000322049507764)
(0.000134921508523 0.00053982772259 -0.00030077891544)
(1.95072586366e-05 0.000660798549546 -0.000175697557847)
(0.000105345501314 0.000583100916594 -0.000409669511998)
(0.000491750501515 0.000580978719486 -0.000454303134406)
(0.000289339360559 0.000705559455196 -0.000413277001738)
(0.000400403525615 0.00062732254939 -0.000677415360562)
(0.000889260095534 0.000659990063308 -0.000486242648175)
(0.000750894357013 0.00078412737515 -0.000492186607239)
(0.000806399227534 0.000706767669122 -0.000762339662428)
(0.00120195944588 0.000772092562628 -0.000445462119919)
(0.00114117715906 0.000903595045411 -0.000460865857949)
(0.00115152777841 0.000824698465846 -0.000726021169083)
(0.00136650883272 0.000897900853762 -0.000369908127718)
(0.00139486403799 0.00104562618393 -0.000377622492133)
(0.00137623833945 0.000961686122157 -0.000621973124467)
(0.00135929796621 0.00101432910451 -0.000281585913806)
(0.00146790526229 0.00118291566569 -0.000272929764186)
(0.0014402274958 0.00109278743001 -0.000483278596591)
(0.00118739208394 0.00110519130619 -0.000197007321404)
(0.0013585291267 0.00129350272109 -0.000168723242976)
(0.00133489179751 0.00119821494279 -0.000338239251262)
(0.000880101756812 0.00116261758475 -0.000128561070459)
(0.00109089804375 0.00136808243348 -8.04522970397e-05)
(0.00107758166311 0.00126890540537 -0.000210457067489)
(0.000482450873411 0.00118456550345 -8.53066672662e-05)
(0.000707129271586 0.00140338167269 -1.8010169332e-05)
(0.000705820250834 0.00130275835967 -0.000118362426826)
(4.60459933481e-05 0.00117323690697 -7.1351138688e-05)
(0.000258928639275 0.00140233223406 1.17017941243e-05)
(0.000269030412091 0.00130267547614 -7.17129779239e-05)
(-0.000377174127071 0.00113276460984 -8.5704627854e-05)
(-0.000198710314492 0.00136973241628 8.07871929061e-06)
(-0.00017886637479 0.00127329493256 -7.33248477974e-05)
(-0.000741500642532 0.00106784103216 -0.000124616844066)
(-0.000614786228147 0.00131069351667 -2.5250799833e-05)
(-0.000587660572666 0.00121951853449 -0.000118015099645)
(-0.00101002086186 0.000983179145146 -0.000182754631194)
(-0.000949087473551 0.00123024571947 -8.26994235135e-05)
(-0.000916841569263 0.00114547486843 -0.000198525344523)
(-0.00115469081593 0.000884041715629 -0.000253985538432)
(-0.00116906104719 0.00113234599059 -0.000158050057773)
(-0.00113488967211 0.00105460677031 -0.000304917666199)
(-0.00115724534847 0.000776796831167 -0.000330507860239)
(-0.00125076798917 0.00102156955354 -0.000245651247342)
(-0.00122059093747 0.000950231684535 -0.000425688214505)
(-0.00101305802378 0.00067144953865 -0.00039953690893)
(-0.0011792230335 0.000903362827718 -0.000336159069334)
(-0.00116402106586 0.000837528593103 -0.000545188327714)
(-0.000740383046152 0.000582076730754 -0.000439804380938)
(-0.000956079881491 0.000790065726589 -0.000411723797539)
(-0.000972077914199 0.000727336226549 -0.000639968300376)
(-0.000393366550386 0.000519686263068 -0.000411493583215)
(-0.000615496018027 0.000697504825621 -0.00044241867356)
(-0.000675665462465 0.000634333668499 -0.000676521493256)
(-8.83358953477e-05 0.00048540917102 -0.000262722164819)
(-0.000211677306944 0.000634581838568 -0.000368428412178)
(-0.000323712550648 0.000569543476335 -0.000597479135458)
(6.63952007656e-06 0.000592928966831 -0.000138150936017)
(-7.9394902156e-05 0.000528680568697 -0.00033614042545)
(0.000153215653204 0.000823138869727 -0.000288195644145)
(2.87981949458e-05 0.000889639345893 -0.000146599939437)
(0.000124544293369 0.000846860306216 -0.000382054906038)
(0.000561779618603 0.000905583871878 -0.000451160474572)
(0.000340668400486 0.000972617177415 -0.000396995091045)
(0.000465141963669 0.000918948393356 -0.000675619961726)
(0.001010040709 0.00102344733309 -0.000466809817013)
(0.000862637148351 0.00108158922502 -0.000465174845738)
(0.000925947985153 0.00102698952497 -0.000745721057508)
(0.00135032287082 0.00117068929695 -0.000393026230163)
(0.00128991653032 0.00122714543059 -0.000401294998733)
(0.00130283771429 0.00117561246787 -0.000663830508938)
(0.00151431178157 0.00132151498626 -0.000280644128601)
(0.0015501731122 0.00138462305804 -0.000279155748159)
(0.00153145849688 0.00133793093855 -0.000502983595214)
(0.00148390726467 0.00145045822437 -0.000160067093356)
(0.00160306644841 0.00152445472205 -0.000140259265246)
(0.00157519765992 0.00148417607782 -0.000311132205904)
(0.00127566965841 0.00154251430342 -5.21682186118e-05)
(0.00145752680002 0.00162740617312 -1.20055031193e-05)
(0.00143485056249 0.00159402224776 -0.000125663382165)
(0.000926398002243 0.00159326482297 3.00986040873e-05)
(0.00114765043033 0.00168706065792 9.08625649148e-05)
(0.0011368708193 0.00166064003183 3.02960045247e-05)
(0.000487757151068 0.00160483826882 7.89982920585e-05)
(0.000722800763956 0.00170630396263 0.000159460740927)
(0.000725111656978 0.00168534430864 0.00013572121658)
(1.4417946739e-05 0.00158254270861 9.11316521029e-05)
(0.000238176382997 0.00169181038784 0.000188782948473)
(0.000252437757961 0.00167442627924 0.000183863759496)
(-0.000440236029274 0.00153227808754 6.85325473116e-05)
(-0.000250032281534 0.00165066706297 0.000178904630326)
(-0.000226041086687 0.00163475377959 0.000173722064879)
(-0.000830248473359 0.00145930564979 1.6666620719e-05)
(-0.000691039897268 0.0015886659034 0.000135047640429)
(-0.00066019120956 0.00157228685568 0.00011204279801)
(-0.0011193639003 0.00136776085375 -5.79948500926e-05)
(-0.00104545383711 0.00150970298147 6.42977412151e-05)
(-0.00101024067673 0.00149118446939 9.6608968723e-06)
(-0.00127814214111 0.00126074529959 -0.000149715766682)
(-0.0012816921143 0.00141637589428 -2.6776942299e-05)
(-0.00124553047819 0.00139383769504 -0.000125248945123)
(-0.00128623805957 0.00114160784666 -0.000251302456436)
(-0.00137515231374 0.00130909847421 -0.000133615013402)
(-0.00134414920193 0.00128148200328 -0.000279430297173)
(-0.00113378086679 0.00101787845105 -0.000348345957942)
(-0.00130678414601 0.00118991839867 -0.0002488274001)
(-0.00129255924635 0.0011568528978 -0.000439010068174)
(-0.000834905674551 0.000903106056488 -0.00041433809016)
(-0.00107157107668 0.00106767681119 -0.000352525348554)
(-0.00109169113944 0.00102960411534 -0.000576483595303)
(-0.000446144843181 0.000810736706283 -0.000399353502523)
(-0.000700103066973 0.000957238045543 -0.000407951006273)
(-0.000768525368061 0.000915657276163 -0.000648491378558)
(-0.00010038626862 0.000739945154137 -0.000243857183377)
(-0.000249220357924 0.000870628917594 -0.000343295767715)
(-0.000372767826007 0.000829544920637 -0.000581802983378)
(5.64602359223e-07 0.000793294717905 -0.000106073274878)
(-9.36356432221e-05 0.000762773425337 -0.000300750357962)
(0.000192305847704 0.00102896361401 -0.000255399386337)
(5.0179548562e-05 0.00102895816195 -0.000110888497013)
(0.000152017342826 0.00103745792388 -0.000331623104432)
(0.000657617996733 0.00113752865529 -0.000411009462212)
(0.000411229324969 0.00113471532763 -0.000357573918833)
(0.000547521447687 0.00112915563431 -0.000627408567349)
(0.00115191464918 0.00127195418653 -0.000399660027458)
(0.000987332960391 0.00125429859622 -0.000405797474988)
(0.00106351894827 0.00124873103971 -0.000667004141263)
(0.00150885212468 0.00142504129712 -0.000287424516729)
(0.00144119416761 0.00139944792055 -0.000306142250302)
(0.00146660550893 0.00140142975525 -0.000529237934279)
(0.00165914235672 0.00156909570066 -0.000138770884803)
(0.00169527506517 0.00154338174556 -0.000147818268063)
(0.00168850485863 0.0015572879519 -0.000309046745517)
(0.00159509307174 0.00168069145667 7.80232499126e-06)
(0.00171715287537 0.001659489457 1.64611883873e-05)
(0.00170104999048 0.00168726590382 -7.09831434777e-05)
(0.00134351750515 0.00174951154429 0.000131025280407)
(0.00152965657804 0.00173206741307 0.000158207231973)
(0.00151809762495 0.0017747441666 0.000146916749574)
(0.000952178443248 0.00177677431925 0.000220224701755)
(0.00117778383048 0.00176212032182 0.000266162452701)
(0.00117645491876 0.00181747923926 0.000316281915287)
(0.000476737899279 0.00176954713582 0.000269245397342)
(0.000717552981583 0.00175646310656 0.000333402815285)
(0.000726518141192 0.00182100097281 0.000425283984807)
(-2.66715327412e-05 0.00173638471591 0.000276555926696)
(0.000205718316101 0.00172666697869 0.000358063356296)
(0.000223218474937 0.00179558496146 0.00046855546511)
(-0.000505186170764 0.00168423148808 0.000245419723443)
(-0.000302805841133 0.00168167121255 0.000341457642105)
(-0.000279060780787 0.00174992152059 0.000447513125774)
(-0.000914518787687 0.00161757553825 0.000182678760925)
(-0.00075940958359 0.00162696081517 0.000289491676734)
(-0.000731964756307 0.00169001795516 0.000371040336515)
(-0.00121972871201 0.00153852972406 9.55156490087e-05)
(-0.00112690086621 0.0015642204601 0.000210273324475)
(-0.00109787493208 0.00161854805564 0.00025069506072)
(-0.00139307097682 0.00144702174423 -1.06761890185e-05)
(-0.00137584789231 0.00149248306951 0.000110421973376)
(-0.00134808296945 0.00153571869675 9.72376875193e-05)
(-0.00141092409712 0.0013420808961 -0.000131139957066)
(-0.00148203516651 0.00140907817978 -6.9162950866e-06)
(-0.00146093359693 0.00143979070426 -8.21239978218e-05)
(-0.00125798842812 0.00122680763172 -0.000253006790713)
(-0.00142249589233 0.0013111195763 -0.000138323226183)
(-0.00141894389427 0.00132985947236 -0.000274134262498)
(-0.000941610070731 0.00111130873068 -0.000346138264666)
(-0.00118422926991 0.00120336251607 -0.000265056971551)
(-0.00121528322428 0.00121187480193 -0.000452061484596)
(-0.000517432776068 0.00100853496396 -0.000351893271464)
(-0.000791235328059 0.0010969219749 -0.000345177811654)
(-0.00087014005752 0.00109924535756 -0.000563858650068)
(-0.000129553744021 0.000916283083923 -0.000205511859217)
(-0.000301645024177 0.00100408729235 -0.000296906110587)
(-0.000433143286862 0.00100695199011 -0.000521334836876)
(-1.62206005747e-05 0.000907746718922 -6.87620157218e-05)
(-0.000113408085155 0.000923430648615 -0.000244004158678)
(0.00024170608159 0.00112153996737 -0.000213063029509)
(7.69559891328e-05 0.00105641080854 -7.36799638507e-05)
(0.000182586299686 0.00112155532118 -0.000269157196697)
(0.000759721778049 0.00123760661955 -0.00035236193161)
(0.000485519670656 0.00116773058307 -0.000306929904108)
(0.000632672945763 0.00122127206795 -0.00055102925866)
(0.00128876424846 0.00136601830842 -0.000312279697832)
(0.00110345076645 0.00127973337407 -0.000332506861371)
(0.00119537679022 0.00133521454608 -0.000554475407894)
(0.00164929804685 0.00149987655667 -0.000166536001635)
(0.00157106921663 0.00140370471917 -0.000201818609717)
(0.00161430339843 0.00146921499272 -0.000364788608466)
(0.00177590244416 0.00161355365799 7.41380512765e-06)
(0.0018080776875 0.0015155308082 -1.78183742127e-05)
(0.00181973564168 0.00159528752866 -9.87513295586e-05)
(0.00167144916545 0.00168877465892 0.000166866095369)
(0.00179298796214 0.00159210992162 0.000159199411616)
(0.00179487556875 0.0016889152238 0.00017183507339)
(0.00137792849509 0.00172159681281 0.000293344404266)
(0.00156381839614 0.00162609262284 0.000302620329674)
(0.00156818402224 0.00173921962021 0.000399497829203)
(0.000950585572259 0.0017182254457 0.000379340566231)
(0.00117557367099 0.00162176003311 0.000404915507359)
(0.00118670766512 0.00174871735433 0.000567705663557)
(0.000449142478168 0.00169007681504 0.000422220774239)
(0.0006902180221 0.00159007286793 0.000462974976599)
(0.000706814110064 0.0017266086453 0.000667835837723)
(-7.14052283487e-05 0.00164888739878 0.000422965071705)
(0.000164835165999 0.00154698835761 0.000479408013885)
(0.000184218258094 0.00168716317968 0.000700228854134)
(-0.000561617405903 0.00160199432567 0.000385529595397)
(-0.000349939215539 0.00150298123609 0.000457174536749)
(-0.00032993142144 0.00164057681542 0.000668904674042)
(-0.000980335836171 0.00155206234486 0.000317086240284)
(-0.000810060373153 0.0014624146306 0.000401778780159)
(-0.000791114620841 0.00159194242119 0.000583267108454)
(-0.00129538072926 0.00149787752322 0.000225179648842)
(-0.00118211373495 0.00142412595929 0.000321189345955)
(-0.00116504435619 0.00154145205144 0.000455141853147)
(-0.00148035824263 0.00143581959441 0.000114181867308)
(-0.00143904593212 0.00138288856855 0.000221168751664)
(-0.00142543433337 0.00148599051681 0.000294574443993)
(-0.0015105343453 0.00136133042188 -1.40995642032e-05)
(-0.00155693058338 0.0013327686293 0.000102817750399)
(-0.00155116446687 0.00142087867342 0.000106488067033)
(-0.00136390113766 0.00127302957182 -0.000150373407021)
(-0.00150968682269 0.00126794260514 -3.43683867947e-05)
(-0.00152142515653 0.00134195894488 -0.000103453824752)
(-0.00104023366723 0.00117635800561 -0.000264096518538)
(-0.00127628911351 0.00118863698675 -0.000174606696568)
(-0.00132133000201 0.001251030734 -0.000308939531071)
(-0.000591285080203 0.00108156447553 -0.000290190650776)
(-0.000872513824451 0.0011019399376 -0.000273896722116)
(-0.000962383801843 0.00115698533121 -0.000453964139626)
(-0.000166938490706 0.000985345951366 -0.000160156267092)
(-0.000355929023358 0.00101797067974 -0.000243085160221)
(-0.000492909359974 0.00107242079748 -0.00043822757285)
(-3.76316052005e-05 0.000919703183854 -3.1842909633e-05)
(-0.000135344550907 0.000984085714439 -0.000178893485674)
(0.000290422657705 0.00108860766546 -0.00016754683845)
(0.000103329356866 0.000967914825797 -3.78024227898e-05)
(0.000210814456845 0.00108523747153 -0.000201925206512)
(0.000850348723708 0.00119554725963 -0.000287074833869)
(0.000550768634394 0.00106877127424 -0.000253187503053)
(0.000706759101563 0.00118030657453 -0.000460965135175)
(0.00140053012186 0.00130186266833 -0.000222045773257)
(0.00119612416152 0.00115971860386 -0.00025778020283)
(0.00130311566718 0.00127556776088 -0.000430164856776)
(0.00175391886225 0.00140220890607 -5.31009822951e-05)
(0.00166593956011 0.00125075822602 -0.000104029789176)
(0.001727041976 0.00137752577327 -0.000200440320665)
(0.00184980460467 0.00147579970548 0.000133967232276)
(0.00187935313006 0.00132245447004 9.47372282575e-05)
(0.00190961125555 0.00146341363487 9.7192672176e-05)
(0.00170582122045 0.00151051193637 0.000294953645921)
(0.00182715758085 0.00135898112737 0.000274531893534)
(0.00184639541196 0.0015150327152 0.000377114388769)
(0.00137536361557 0.00150701671263 0.000414191432767)
(0.00156060024496 0.00135703043009 0.000410502321005)
(0.00157972681895 0.00152672000207 0.000599522116705)
(0.000921481533612 0.00147459940255 0.000488549917728)
(0.00114364476144 0.00132352190286 0.0004990445507)
(0.00116586274603 0.0015040362463 0.000752122607552)
(0.000407409222502 0.00142845220637 0.000520162216245)
(0.000644493335635 0.00127157718918 0.000541235631046)
(0.000667146937459 0.00145876889938 0.000832570424276)
(-0.000115256429395 0.00138307007344 0.000513617478928)
(0.00011964143878 0.00122021856638 0.000546612979432)
(0.00013917917634 0.00140879485201 0.000849437878551)
(-0.000603104313536 0.00134581896348 0.000473423721511)
(-0.000387283584069 0.0011808086608 0.000520251205875)
(-0.00037280264347 0.0013653213654 0.000810022862003)
(-0.00102030837843 0.00131722191918 0.00040588188583)
(-0.000839013453137 0.00115640531033 0.000466829698947)
(-0.000830320070831 0.00133226735941 0.000723215731545)
(-0.00133833727722 0.0012923464518 0.000317178448778)
(-0.00120749712737 0.00114339653114 0.000392412682268)
(-0.00120380228314 0.00130713134117 0.000598760610043)
(-0.00153185686099 0.00126382875053 0.000209804634755)
(-0.00146804680158 0.00113265765464 0.000299675050354)
(-0.001469368486 0.00128300507092 0.000443752728222)
(-0.00157437432917 0.00122441317496 8.25489278072e-05)
(-0.00159602209806 0.00111589722436 0.000187452010862)
(-0.00160573561064 0.00125255148082 0.000259391074154)
(-0.00143875890241 0.00116989668559 -5.86016763425e-05)
(-0.00156232980058 0.00108541739282 5.19145880105e-05)
(-0.00158890813244 0.00120931900833 4.69119797884e-05)
(-0.00111641645518 0.00110199597816 -0.000184406900147)
(-0.00133884519587 0.00103904623928 -9.36607467755e-05)
(-0.00139688446651 0.00115220975022 -0.000172749505782)
(-0.000654200447407 0.00102725966739 -0.000226791231561)
(-0.00093357156497 0.000980113925154 -0.000205691910553)
(-0.00103283355591 0.0010857356064 -0.000340387799468)
(-0.000203063196678 0.000941609025007 -0.000114771802762)
(-0.00040204407911 0.000915328136017 -0.000190230702954)
(-0.00054224150531 0.00101848110265 -0.000348492520537)
(-5.80425379489e-05 0.000830160088604 1.87389503422e-06)
(-0.000154770678802 0.000937391950125 -0.000113518779154)
(0.000331213599013 0.000935357761746 -0.000123443087393)
(0.000124683691167 0.000773745311595 -6.18835173008e-06)
(0.000233306618354 0.000931818584576 -0.00013704269883)
(0.000919552311098 0.00102044678797 -0.000223892872014)
(0.000599103986442 0.000851250601116 -0.000203618084268)
(0.000762083924383 0.00101034727035 -0.000370816502005)
(0.0014783558089 0.00109575939497 -0.000139764218749)
(0.00125853811756 0.000913038372113 -0.000191371100025)
(0.00137839690569 0.00107898165234 -0.000312121571765)
(0.00181758532616 0.00115769656913 4.3808421377e-05)
(0.00172228686437 0.000967428133476 -2.27008522089e-05)
(0.00179881125968 0.0011441089893 -5.58975608087e-05)
(0.00188252166455 0.00119187421535 0.000235301889516)
(0.00191095691886 0.000999995913444 0.000183245026418)
(0.00195658120555 0.00118941983584 0.000257524246884)
(0.00170280670112 0.00119168523878 0.000390080568618)
(0.00182622591058 0.00100274139145 0.000359459343577)
(0.0018585573034 0.00120341336445 0.000535956872468)
(0.00134241627995 0.00116003081847 0.000495355438938)
(0.00152889513191 0.000975090231716 0.00048325024908)
(0.00155824047777 0.00118394159436 0.000742332904547)
(0.00087166283494 0.0011074352102 0.000551730264018)
(0.0010913022265 0.000924457766145 0.000553394763858)
(0.00112028854247 0.0011378943536 0.000869819937453)
(0.000357212940235 0.00105076256742 0.000567686394232)
(0.00058812185542 0.000863836734676 0.000575037805281)
(0.000613368093846 0.00107767159474 0.000922192729711)
(-0.000154578678671 0.0010058444868 0.000553246706378)
(7.4948127647e-05 0.00081199092724 0.000567387903411)
(9.24691425932e-05 0.0010231726783 0.000920021616517)
(-0.000628090927792 0.000979659634387 0.00051365718331)
(-0.000413385767895 0.000779651756366 0.000538250667135)
(-0.000405168281073 0.000985681632374 0.00087467144804)
(-0.0010344889568 0.000971078642562 0.000453360495384)
(-0.000847698759125 0.000768702577579 0.000491507760103)
(-0.000848640248851 0.000968055230961 0.000794102963435)
(-0.0013496123377 0.000972380531011 0.000374909283844)
(-0.0012064564956 0.000774862157751 0.000429736704652)
(-0.00121434581245 0.000965967680075 0.000683659855881)
(-0.00154873686455 0.000973582406961 0.000277322426461)
(-0.00146709756963 0.000787514249428 0.000349735274484)
(-0.00148069719655 0.000969593342839 0.000544269950336)
(-0.00160297548807 0.000966062258585 0.000156817671065)
(-0.00160316132744 0.000797432064247 0.000247619024942)
(-0.00162533280927 0.000969940076971 0.000372705752163)
(-0.00148031120363 0.000944306042729 1.68555175775e-05)
(-0.00158235650687 0.00079670662536 0.000117458593039)
(-0.00162093935239 0.000959462398448 0.000166048435452)
(-0.00116497071403 0.000907454552955 -0.000114945757181)
(-0.00137089673488 0.000781830685417 -2.92882846234e-05)
(-0.00143939980773 0.000935178767612 -5.81229851868e-05)
(-0.000699197516011 0.000858771250103 -0.000169131381945)
(-0.000970491557988 0.000752401454065 -0.000148527056237)
(-0.00107706301393 0.000898419635522 -0.000238058775109)
(-0.000232087332629 0.000794332565677 -7.35850051575e-05)
(-0.000434046710077 0.000712882277666 -0.000144855333014)
(-0.000576288003458 0.000853873717767 -0.000264662387502)
(-7.37462859948e-05 0.000652622537449 2.97375396486e-05)
(-0.000169241526059 0.000790625697415 -5.45486241631e-05)
(0.000358868726488 0.000679869534737 -8.63633486044e-05)
(0.000137940236289 0.000497587815512 1.71859055455e-05)
(0.000247416733615 0.000678009130125 -8.27099271374e-05)
(0.000962375180448 0.000734396234904 -0.000171096312279)
(0.000626501200388 0.000541864840402 -0.000165681355977)
(0.000795377451974 0.000730857175102 -0.000294119234766)
(0.0015209894152 0.000775149940683 -7.43077334851e-05)
(0.00128903504902 0.00057032819235 -0.000141980915644)
(0.00141972221824 0.000769383830893 -0.0002159024262)
(0.00184300867058 0.000800366422373 0.000116735752832)
(0.0017428118701 0.000587756152351 3.46274616604e-05)
(0.00183155975679 0.00079852072002 5.7654542061e-05)
(0.00188122825844 0.000802190081711 0.000307402480479)
(0.00191049867853 0.000587420659458 0.000242486191246)
(0.00196671283929 0.000808944192698 0.000374357664376)
(0.00167302231791 0.000778328423001 0.000452629024039)
(0.00180163117743 0.000566474918397 0.000413026503145)
(0.00184063076909 0.000795149239609 0.000644474567321)
(0.00129087006301 0.000732669236207 0.000541289573999)
(0.00148313345702 0.000526586500315 0.000524785515907)
(0.00151482429351 0.000757486218104 0.000830658253805)
(0.00081165807164 0.000674899201966 0.000576702305121)
(0.00103376185265 0.000474318494114 0.000577737170409)
(0.00106087874135 0.000702688807204 0.000929353593876)
(0.000305766191527 0.000619849780202 0.00057473931446)
(0.000533399017944 0.000420055990621 0.000580420291452)
(0.000554071488357 0.000641688177015 0.00094967496252)
(-0.000186635833751 0.000581168137051 0.000552391864168)
(3.6570873051e-05 0.000377301735284 0.000561254495845)
(4.8835017395e-05 0.00059178348525 0.000927093507996)
(-0.000638181737257 0.000564506612335 0.000516101243928)
(-0.000429849990227 0.000353554249665 0.000530357509015)
(-0.000426619047071 0.000562355078444 0.000877645603554)
(-0.00102782533852 0.000568466084932 0.000467883969371)
(-0.000843720998603 0.000349941475688 0.00049112624897)
(-0.000849344190686 0.000555434112238 0.000808406765119)
(-0.00133597929498 0.000585690724549 0.000404562695292)
(-0.00118939791346 0.000364106821258 0.000442710247677)
(-0.00120231236696 0.000567168666273 0.000718911216283)
(-0.00153784729315 0.000606441626773 0.000320031872965)
(-0.00144652186348 0.000388399525554 0.000375713611532)
(-0.00146605122678 0.000588255307039 0.00060098452984)
(-0.0016017312566 0.000622476336707 0.000208259946916)
(-0.00158691957104 0.000414947670169 0.000283478322086)
(-0.00161626976568 0.000609903541926 0.000446370093973)
(-0.00149123978375 0.000627972218915 7.13147908379e-05)
(-0.00157569161078 0.000436794210476 0.000158910740773)
(-0.00162246718595 0.00062475682585 0.000249422651501)
(-0.00118630225049 0.000620278099672 -6.28695836785e-05)