/*--------------------------------*- C++ -*----------------------------------*\
| =========                 |                                                 |
| \\      /  F ield         | OpenFOAM: The Open Source CFD Toolbox           |
|  \\    /   O peration     | Version:  3.0.1                                 |
|   \\  /    A nd           | Web:      www.OpenFOAM.org                      |
|    \\/     M anipulation  |                                                 |
\*---------------------------------------------------------------------------*/
FoamFile
{
    version     2.0;
    format      ascii;
    class       volScalarField;
    location    "1.1";
    object      ddt0(epsilon);
}
// * * * * * * * * * * * * * * * * * * * * * * * * * * * * * * * * * * * * * //

dimensions      [0 2 -4 0 0 0 0];

internalField   nonuniform List<scalar> 
7968
(
-0.0279335661197
-0.0284149801641
-0.0286105898147
-0.0286342473578
-0.0286257204099
-0.0286263030122
-0.0286357494037
-0.028647813233
-0.0286583904391
-0.0286660350539
-0.0286658951136
-0.0286580992558
-0.0286475047413
-0.0286354734766
-0.0286260825811
-0.0286255731475
-0.0286341712112
-0.0286105617254
-0.0284150681418
-0.0279336108033
-0.0284151422614
-0.0324277954321
-0.0343922797097
-0.0349279261118
-0.0349798224636
-0.0349655375358
-0.0349834765244
-0.0350237250076
-0.0350615483699
-0.0350831433388
-0.0350830038732
-0.0350611773575
-0.0350232345405
-0.0349829073592
-0.0349649837015
-0.0349793437186
-0.0349275289479
-0.0343920194235
-0.0324279294058
-0.0284153328448
-0.0286109150058
-0.0343923481502
-0.0376498490763
-0.0387257175805
-0.0389025205594
-0.0388789531582
-0.0388812961837
-0.0389243955184
-0.038972445968
-0.0390006818608
-0.0390005146706
-0.0389719237487
-0.038923644344
-0.0388804415886
-0.0388780260651
-0.0389016314647
-0.0387250090794
-0.0376493749896
-0.0343923452248
-0.0286111298741
-0.0286346060288
-0.0349275113153
-0.0387251676762
-0.0400796468766
-0.0403262259498
-0.0402877719368
-0.0402668242515
-0.0403026386845
-0.0403523504833
-0.0403829176002
-0.040382671225
-0.0403517015696
-0.0403016809545
-0.0402656357484
-0.0402865996882
-0.0403250050585
-0.0400786552431
-0.0387245233941
-0.0349273984751
-0.0286348350866
-0.0286259796226
-0.0349785500087
-0.0389008594229
-0.0403249919433
-0.0405707400625
-0.040496477126
-0.0403695894295
-0.0403418212763
-0.0403563542427
-0.0403726307396
-0.0403725335407
-0.0403561154687
-0.0403415035587
-0.0403692649661
-0.0404947941903
-0.0405691888153
-0.0403236823527
-0.0389000324382
-0.0349782886774
-0.0286262009788
-0.0286263502197
-0.0349631212967
-0.0388758150309
-0.0402846648448
-0.0404943274209
-0.0402983177
-0.0401515006723
-0.0401082371824
-0.04011980183
-0.0401365661864
-0.0401364515493
-0.0401194764319
-0.040107784163
-0.0401510505389
-0.0402979281514
-0.0404922933798
-0.0402829908307
-0.0388747015928
-0.0349627290433
-0.0286265506199
-0.0286354946563
-0.0349798821576
-0.038876525467
-0.0402615885134
-0.0403670300743
-0.0401502908006
-0.0399880346792
-0.0399461991183
-0.039962162652
-0.0399817115839
-0.039981582474
-0.0399617442438
-0.0399455914016
-0.0399873785426
-0.0401497461748
-0.0403667113004
-0.0402594820337
-0.0388750873133
-0.0349793336837
-0.0286356653306
-0.0286472137823
-0.0350191592771
-0.0389182841839
-0.0402956329682
-0.0403381567264
-0.0401060951423
-0.0399454528423
-0.0399105497336
-0.0399312868888
-0.0399526526171
-0.0399525139853
-0.0399307921664
-0.0399098196985
-0.0399446285908
-0.0401053096776
-0.0403376217984
-0.0402929484233
-0.0389164836145
-0.0350184425224
-0.0286473182889
-0.0286574824645
-0.0350564137812
-0.0389655631823
-0.0403442899147
-0.040351738071
-0.0401168341256
-0.0399609000525
-0.0399310164006
-0.0399538335784
-0.0399754977548
-0.0399753494408
-0.0399532836463
-0.0399301812098
-0.0399599350464
-0.0401158963987
-0.0403509999042
-0.0403410565323
-0.0389634113816
-0.0350554939251
-0.0286575036841
-0.0286650548717
-0.0350780685669
-0.0389938750744
-0.0403747405436
-0.0403674462034
-0.0401328386347
-0.0399795715055
-0.039951748878
-0.0399753060524
-0.0399968320012
-0.0399964859854
-0.0399744991341
-0.0399507565109
-0.0399784970879
-0.0401318170346
-0.0403665804861
-0.040371179768
-0.0389913853309
-0.0350768916011
-0.028664966592
-0.0286652156077
-0.0350783400338
-0.038994215577
-0.0403751455349
-0.0403674670443
-0.0401328233462
-0.0399795359031
-0.0399517242874
-0.0399753792331
-0.0399969487471
-0.0399965898935
-0.0399744431278
-0.0399506139645
-0.0399784388109
-0.0401318191265
-0.0403665899122
-0.040371496494
-0.0389916260398
-0.0350770096107
-0.0286650792895
-0.0286579465308
-0.035057195385
-0.0389665868429
-0.0403454961232
-0.0403517636056
-0.0401166624944
-0.0399605537531
-0.03993056089
-0.0399534533005
-0.0399751993419
-0.0399750053153
-0.0399527938024
-0.0399297088211
-0.0399596936434
-0.040115839817
-0.040350995408
-0.040341888265
-0.0389640396706
-0.0350559509189
-0.0286578593867
-0.0286477756801
-0.0350202701295
-0.0389197218044
-0.0402972424592
-0.0403380202196
-0.040105610021
-0.0399446886122
-0.0399096167807
-0.0399303295103
-0.0399516661196
-0.0399515583879
-0.0399299818364
-0.0399091056005
-0.0399441256652
-0.0401050251959
-0.0403374441546
-0.0402938947945
-0.038917366318
-0.0350191525219
-0.0286477487592
-0.0286360456507
-0.034981175464
-0.0388781735229
-0.0402632933753
-0.0403665487152
-0.0401493751457
-0.0399867891255
-0.0399447785691
-0.0399606887694
-0.0399801835897
-0.0399801791301
-0.0399606496668
-0.0399446384636
-0.0399865495268
-0.0401490866182
-0.0403662031397
-0.0402605040392
-0.0388762402524
-0.0349803093236
-0.0286361060577
-0.0286268505795
-0.0349644539096
-0.038877437417
-0.0402862331998
-0.0404951277215
-0.0402969196407
-0.0401497961729
-0.0401063020957
-0.0401177451815
-0.0401344840769
-0.0401345436189
-0.0401179218371
-0.0401064846586
-0.0401498930303
-0.0402968799157
-0.0404929239417
-0.0402842279616
-0.0388760915412
-0.0349639320855
-0.0286269615919
-0.0286264026238
-0.0349798061808
-0.0389022739793
-0.0403263380244
-0.0405714364865
-0.0404959201592
-0.0403674384048
-0.0403394493486
-0.0403538070235
-0.0403701028018
-0.0403702121022
-0.040354119045
-0.040339831377
-0.0403677562747
-0.0404949227269
-0.040570196484
-0.0403251837735
-0.0389015611163
-0.0349795399394
-0.0286265564128
-0.0286349542812
-0.0349286433803
-0.0387265279122
-0.0400807488927
-0.0403268403922
-0.0402874701996
-0.0402654299474
-0.040300574288
-0.0403501306182
-0.0403809239651
-0.0403810279562
-0.0403503813259
-0.0403007560529
-0.040265342455
-0.0402870135938
-0.0403262026152
-0.0400801919342
-0.0387260066017
-0.0349285921307
-0.028635129897
-0.0286111675165
-0.0343932610412
-0.0376509537203
-0.0387267026048
-0.0389030316613
-0.0388787703485
-0.038880324489
-0.0389228524823
-0.0389707274996
-0.038999185173
-0.0389992760691
-0.0389709768932
-0.0389230987898
-0.0388804403188
-0.0388786690517
-0.0389027888035
-0.0387263119349
-0.0376505914552
-0.0343932188658
-0.0286113154836
-0.0284153553415
-0.0324286084523
-0.0343931688516
-0.0349286639772
-0.0349802134465
-0.0349654069974
-0.0349827640818
-0.0350226036418
-0.0350602718107
-0.0350820260564
-0.0350821303718
-0.0350605055362
-0.0350229082184
-0.0349830049081
-0.0349655281581
-0.0349802043032
-0.0349285116569
-0.0343929037872
-0.0324285190291
-0.0284154218558
-0.0279336193642
-0.0284151683502
-0.028610821287
-0.0286345166462
-0.0286259432195
-0.0286264439486
-0.0286357792903
-0.0286477158949
-0.0286582210535
-0.0286658504605
-0.0286657938975
-0.0286580917064
-0.0286475642291
-0.0286356095595
-0.0286262770077
-0.0286257745443
-0.0286343699279
-0.0286106941684
-0.0284151150738
-0.0279336053079
-0.0284348565865
-0.0324992379952
-0.0344778668424
-0.0350023706987
-0.035025663982
-0.0349748288972
-0.0349574877105
-0.0349693136038
-0.0349890702604
-0.035003059392
-0.0350029867241
-0.0349888963197
-0.0349690923401
-0.0349572588292
-0.0349746509798
-0.0350255648932
-0.0350023523568
-0.0344779073425
-0.0324993265081
-0.0284349029009
-0.0324991044288
-0.0248787418028
-0.0261455361598
-0.0264612120062
-0.0264230612868
-0.0263488166758
-0.0263173863468
-0.0263180856052
-0.0263283528399
-0.0263356467453
-0.0263356369144
-0.0263283275717
-0.0263180546626
-0.026317356124
-0.0263487911125
-0.0264230402821
-0.0264611879515
-0.0261455015937
-0.024878716321
-0.032499095627
-0.0344782298864
-0.0261456962474
-0.0272663680503
-0.0275308733342
-0.0274531028484
-0.0273452755698
-0.0272928775117
-0.0272847443784
-0.0272928087627
-0.027299931292
-0.0272999265121
-0.0272927952986
-0.0272847280172
-0.0272928572462
-0.0273452514324
-0.0274530684156
-0.0275308313929
-0.0272663113744
-0.0261456638077
-0.0344783828278
-0.0350029426712
-0.0264614227484
-0.0275308777063
-0.0277569525807
-0.0276388545672
-0.0274973960101
-0.0274239074783
-0.0274074301922
-0.0274136761545
-0.0274210572541
-0.0274210605432
-0.0274136910067
-0.0274074655122
-0.0274239532936
-0.0274974430154
-0.0276389018749
-0.0277569981953
-0.0275309043791
-0.0264614730564
-0.0350032487809
-0.035026060258
-0.0264231496187
-0.0274529704652
-0.0276386886873
-0.0274806979404
-0.0273042969333
-0.0271955829347
-0.0271601556846
-0.027158631485
-0.0271637178629
-0.027163744576
-0.027158720349
-0.0271603000181
-0.0271957635171
-0.0273044136617
-0.0274808107089
-0.0276388072416
-0.0274530692298
-0.0264232659955
-0.0350264459013
-0.0349748276685
-0.0263486629209
-0.0273448794921
-0.0274968981256
-0.0273039606621
-0.0270843670021
-0.0269592116509
-0.0269176188267
-0.0269166603372
-0.0269234150733
-0.0269234558359
-0.0269167852691
-0.0269177983449
-0.0269594540762
-0.0270846580346
-0.0273041399098
-0.0274970645103
-0.0273450235632
-0.0263488219865
-0.034975230121
-0.0349569682325
-0.0263169330307
-0.0272921471215
-0.02742301664
-0.0271951695636
-0.0269590764706
-0.0268283147272
-0.0267907138122
-0.0267966807188
-0.026808044781
-0.0268080934117
-0.0267968100986
-0.0267909062485
-0.0268285804741
-0.026959410674
-0.027195543199
-0.0274232028495
-0.027292307421
-0.0263171142919
-0.0349573674168
-0.0349682994639
-0.0263173619731
-0.0272837150748
-0.0274061712076
-0.0271595742722
-0.0269174644646
-0.0267908707537
-0.0267630369435
-0.0267791636523
-0.0267967709187
-0.0267968257934
-0.0267792914631
-0.0267632200034
-0.0267911302954
-0.026917809051
-0.0271599695287
-0.0274063213125
-0.027283857214
-0.0263175444956
-0.034968632358
-0.0349877149568
-0.0263274474212
-0.0272915830089
-0.027412179362
-0.0271578075846
-0.0269162789597
-0.0267966489113
-0.0267791219479
-0.0268055600895
-0.0268292957342
-0.0268293486947
-0.0268056762055
-0.0267793038388
-0.0267969011725
-0.0269166210696
-0.0271581950233
-0.0274122707678
-0.0272916867384
-0.0263276091805
-0.034987957983
-0.0350016445642
-0.0263346872029
-0.0272986331349
-0.0274194075615
-0.027162650886
-0.0269227263579
-0.0268076929933
-0.0267964814975
-0.0268290894345
-0.0268565182682
-0.0268565682305
-0.0268292381336
-0.0267966865273
-0.0268079550163
-0.0269230654099
-0.0271630259471
-0.0274194428214
-0.0272986836401
-0.0263348012686
-0.035001759699
-0.0350017496546
-0.0263346883594
-0.0272986188895
-0.0274193702598
-0.0271625432852
-0.0269225847794
-0.0268075202237
-0.0267962615502
-0.0268288089937
-0.0268562659322
-0.0268563216931
-0.0268289899231
-0.0267964932057
-0.0268077803785
-0.0269229062195
-0.027162892457
-0.0274193605308
-0.0272986256486
-0.026334765099
-0.0350017909923
-0.034988048938
-0.0263274520366
-0.0272915368971
-0.0274120758951
-0.0271574879857
-0.0269158663743
-0.0267961702563
-0.0267785830127
-0.0268049327343
-0.0268286431838
-0.0268286935011
-0.0268050895957
-0.0267787806695
-0.0267963992462
-0.0269161741596
-0.0271578196986
-0.0274120318988
-0.0272915188689
-0.0263275214857
-0.0349881248463
-0.0349687488269
-0.0263173343538
-0.0272836042103
-0.0274059740137
-0.0271590786934
-0.0269168497243
-0.0267901694993
-0.0267623212842
-0.0267784019696
-0.0267959690405
-0.0267960169346
-0.0267785291487
-0.0267624787606
-0.026790386138
-0.0269171433069
-0.0271593962591
-0.0274059172635
-0.0272835829315
-0.0263174070105
-0.0349688994411
-0.0349574172064
-0.0263168393192
-0.0272919296665
-0.0274226765311
-0.0271945048973
-0.0269583156226
-0.0268274865517
-0.026789855562
-0.0267957546334
-0.0268070614481
-0.0268071076559
-0.0267958703524
-0.0267900123172
-0.0268277014241
-0.0269586024222
-0.0271948048421
-0.0274226628822
-0.0272919465394
-0.0263169487599
-0.034957703516
-0.0349752082077
-0.0263484759406
-0.0273445224403
-0.0274963820219
-0.0273032435756
-0.0270834191922
-0.0269581987974
-0.0269165180701
-0.0269154500574
-0.0269221243866
-0.026922167462
-0.0269155644883
-0.0269166832974
-0.0269584132376
-0.0270836823833
-0.0273033255497
-0.0274964507992
-0.0273446211259
-0.0263486379058
-0.0349755885569
-0.0350263460816
-0.0264228664074
-0.027452477661
-0.0276380204075
-0.0274798546167
-0.0273032281178
-0.0271943661414
-0.0271588228944
-0.027157194747
-0.0271622166703
-0.0271622429485
-0.0271572979588
-0.0271589848339
-0.0271945689175
-0.0273033698747
-0.0274799999886
-0.0276381867791
-0.0274526434394
-0.0264230560689
-0.0350267853931
-0.0350031428009
-0.0264610924297
-0.0275303330037
-0.0277562315094
-0.027637994627
-0.027496343921
-0.0274226256036
-0.0274059462725
-0.0274121043843
-0.0274194491329
-0.0274194783357
-0.027412188856
-0.027406065596
-0.027422756044
-0.0274964806463
-0.0276381567746
-0.027756407957
-0.0275304766804
-0.0264612407502
-0.0350035182329
-0.0344783950176
-0.0261454273189
-0.0272658945536
-0.0275302458308
-0.0274523766966
-0.027344417639
-0.0272918308134
-0.0272835363264
-0.0272915138216
-0.0272986263328
-0.0272986438066
-0.027291568484
-0.027283613857
-0.027291919289
-0.027344508542
-0.0274524794463
-0.0275303355504
-0.0272659376766
-0.0261454392033
-0.0344785278756
-0.0324993259313
-0.0248787018717
-0.0261452927737
-0.0264608297214
-0.02642259851
-0.0263482516471
-0.0263166717893
-0.0263172361674
-0.0263274364851
-0.0263347391125
-0.0263347670968
-0.0263275132288
-0.0263173446449
-0.0263167913197
-0.0263483714297
-0.0264227099362
-0.0264609083046
-0.0261453010134
-0.0248786085851
-0.0324991517374
-0.0284348538392
-0.0324993477789
-0.0344779373352
-0.0350024047326
-0.0350256148113
-0.0349746314951
-0.0349570883861
-0.0349687201278
-0.0349884079392
-0.0350024235831
-0.0350024500147
-0.0349884729053
-0.0349687977249
-0.0349571521149
-0.0349746866714
-0.0350256573395
-0.0350024414445
-0.0344779450289
-0.0324993395022
-0.0284348511149
-0.0286463880518
-0.0345416332312
-0.0378320627845
-0.0388885936913
-0.0390159176929
-0.038929572629
-0.0388710214401
-0.038865402706
-0.0388824932038
-0.0388970174156
-0.0388969677353
-0.0388823566731
-0.0388652029222
-0.0388707968203
-0.038929392412
-0.0390158209847
-0.0388885866799
-0.0378321228416
-0.03454170354
-0.0286465299917
-0.0345413754195
-0.0261871475549
-0.0273007688502
-0.0275542449423
-0.0274655206043
-0.0273482924792
-0.0272887649878
-0.0272757919336
-0.0272813200013
-0.027287568782
-0.0272875915463
-0.0272813833397
-0.0272758867876
-0.0272888806625
-0.0273484212629
-0.0274656427052
-0.0275543410843
-0.027300814518
-0.026187116362
-0.0345412570408
-0.0378322860237
-0.0273009606593
-0.0277087735987
-0.0276739804432
-0.027469937246
-0.0273032657929
-0.0272196127765
-0.0271944814006
-0.0271940421081
-0.0271980318591
-0.027198051829
-0.0271941015069
-0.0271945745532
-0.0272197204187
-0.0273033681798
-0.0274700123014
-0.0276740216877
-0.0277087813935
-0.0273009790322
-0.0378323712267
-0.0388889988702
-0.027554630865
-0.0276741463171
-0.0274862858414
-0.0271972914004
-0.0269833931243
-0.0268756970947
-0.0268399836566
-0.0268321965215
-0.026834687177
-0.026834700223
-0.0268322380137
-0.0268400926102
-0.0268758404315
-0.0269835419309
-0.0271974322905
-0.0274864037631
-0.0276742498307
-0.0275548001953
-0.0388893387596
-0.0390159602894
-0.0274659803965
-0.0274702473729
-0.0271974407546
-0.0268475653237
-0.0265910038444
-0.0264742307992
-0.0264546243824
-0.026461102626
-0.0264659085621
-0.0264660560586
-0.026461551315
-0.0264548517132
-0.0264741515107
-0.0265911712376
-0.0268477761687
-0.0271976519817
-0.0274704493051
-0.0274662743704
-0.0390164496413
-0.0389289676031
-0.0273487249592
-0.0273036514008
-0.0269836203245
-0.0265911326343
-0.026349075116
-0.0263269678392
-0.026402643373
-0.0264441023741
-0.0264537493913
-0.0264545413765
-0.0264464808893
-0.0264048128503
-0.0263272493473
-0.0263488599085
-0.0265913876664
-0.0269839169573
-0.027303939502
-0.0273491060417
-0.0389294939611
-0.0388696165262
-0.02728909343
-0.0272199841317
-0.026875899854
-0.0264741391899
-0.0263291217024
-0.0264856844839
-0.0266810568958
-0.0267620684228
-0.0267801816002
-0.0267819292433
-0.0267672967164
-0.0266867577211
-0.0264879134308
-0.0263284909905
-0.0264743768922
-0.0268762604942
-0.02722033421
-0.0272895308637
-0.0388701311551
-0.0388632845984
-0.0272760058033
-0.0271948121294
-0.0268401984789
-0.0264556784983
-0.026408565531
-0.0266843417579
-0.0269472966773
-0.0270568860061
-0.0270849376296
-0.0270873208474
-0.0270639836514
-0.0269555050898
-0.0266886148779
-0.0264081215805
-0.0264557451525
-0.0268405695398
-0.027195188625
-0.0272764671259
-0.0388637115475
-0.038879927019
-0.0272814405651
-0.0271943749733
-0.0268326260127
-0.0264628909863
-0.0264501651388
-0.0267632018836
-0.0270532759747
-0.0271812176079
-0.0272181128832
-0.0272206583612
-0.0271888218467
-0.0270622190854
-0.0267681688115
-0.0264499851462
-0.026462866303
-0.0268329824528
-0.0271947421111
-0.0272818959603
-0.0388802329892
-0.0388943612913
-0.0272876243085
-0.0271983271242
-0.0268350476902
-0.0264671144852
-0.0264566141124
-0.02677421698
-0.0270716819629
-0.0272077696495
-0.0272491811556
-0.0272517145331
-0.0272153578882
-0.0270806804372
-0.0267793141088
-0.0264565387177
-0.0264670967452
-0.0268353930997
-0.0271986647245
-0.0272880497763
-0.0388945226607
-0.0388944791849
-0.0272875726454
-0.0271982637605
-0.0268349705791
-0.0264666768125
-0.0264542314942
-0.0267688079408
-0.0270642270152
-0.0271997148766
-0.0272411448642
-0.0272436768361
-0.0272072937395
-0.0270732380504
-0.0267739901338
-0.0264542413645
-0.0264666522529
-0.0268352914621
-0.02719855836
-0.0272879622974
-0.0388945578183
-0.038880286755
-0.0272812953334
-0.0271941902122
-0.0268324100424
-0.02646160823
-0.0264430352416
-0.0267470063107
-0.0270309851707
-0.0271571768881
-0.02719403813
-0.0271965631177
-0.0271646894874
-0.0270399673586
-0.0267522327724
-0.026443103894
-0.0264615585134
-0.0268326935076
-0.0271944375883
-0.0272816517447
-0.0388803684508
-0.0388637772402
-0.0272757608099
-0.0271945179515
-0.0268399124903
-0.0264551594
-0.0264023842894
-0.0266669568039
-0.0269217096464
-0.0270288886303
-0.0270568313754
-0.0270591270402
-0.0270357382034
-0.0269297928934
-0.0266713953987
-0.0264021257723
-0.026455091901
-0.0268400820205
-0.0271947139451
-0.0272760931675
-0.0388639374285
-0.038870113566
-0.0272887331469
-0.0272195583166
-0.0268754813596
-0.0264745504234
-0.0263289586883
-0.0264796204752
-0.0266683327342
-0.0267471207933
-0.026765045383
-0.0267666449569
-0.0267519123168
-0.0266736036899
-0.0264816817379
-0.0263282464002
-0.0264745690444
-0.026875613082
-0.0272197358869
-0.027289065501
-0.0388704543146
-0.0389293803929
-0.0273482296871
-0.0273030695953
-0.0269830250002
-0.0265905976788
-0.0263501671995
-0.0263297919294
-0.0264049113184
-0.0264455262332
-0.0264549778327
-0.0264556186433
-0.0264474573991
-0.0264065827267
-0.0263297825213
-0.0263497874919
-0.0265907377278
-0.0269831664124
-0.0273032531157
-0.0273485685037
-0.0389298816785
-0.0390162532666
-0.0274653579237
-0.0274695218292
-0.0271966843837
-0.0268468462961
-0.026590361538
-0.0264738853921
-0.0264548429966
-0.0264615390149
-0.0264662337641
-0.0264663209211
-0.0264617959746
-0.0264548678673
-0.0264736581138
-0.0265904055662
-0.0268469423364
-0.0271968217237
-0.0274696946885
-0.0274656726786
-0.0390168424964
-0.0388892123458
-0.0275539662624
-0.0276733544606
-0.0274854527001
-0.0271964894479
-0.0269825911341
-0.026874785656
-0.0268389937071
-0.0268313227309
-0.0268337480364
-0.0268337216621
-0.0268312596155
-0.026838926478
-0.0268747372467
-0.0269825795899
-0.0271965364969
-0.0274855443717
-0.0276734714758
-0.0275541821544
-0.0388896792805
-0.0378325767772
-0.0273004378057
-0.0277080585034
-0.0276731905773
-0.0274691889687
-0.0273025387437
-0.0272188098159
-0.0271935682682
-0.0271930640653
-0.0271969954632
-0.0271969681686
-0.0271930020252
-0.0271934928747
-0.0272187404852
-0.0273024971677
-0.0274691891045
-0.0276732197528
-0.0277080884341
-0.0273004781699
-0.0378326680396
-0.0345418028367
-0.0261869918635
-0.0273003009097
-0.0275536391321
-0.0274649214385
-0.0273477043033
-0.0272881112578
-0.0272750463769
-0.0272805067735
-0.027286722292
-0.0272867311219
-0.0272805328488
-0.0272750902241
-0.0272881779388
-0.0273477975797
-0.0274650380271
-0.0275537555546
-0.0273003698191
-0.0261869290792
-0.0345415304474
-0.0286463585755
-0.0345419057789
-0.0378322630737
-0.0388886416683
-0.0390157663269
-0.0389291393666
-0.03887024073
-0.0388643464495
-0.0388813624618
-0.0388959714715
-0.0388960685516
-0.0388816108311
-0.0388646672071
-0.0388705586475
-0.0389294157797
-0.0390159960895
-0.0388888198851
-0.0378323748078
-0.0345419468466
-0.0286464289085
-0.0286707184249
-0.0351397514168
-0.0389920131084
-0.0403158512239
-0.0404904088398
-0.0403639627258
-0.0402622234894
-0.040234169734
-0.0402438036348
-0.0402566336013
-0.0402565909045
-0.0402436758238
-0.0402339643986
-0.0402619851048
-0.0403637631088
-0.0404902949266
-0.0403158404436
-0.0389921215954
-0.035139888183
-0.0286709481872
-0.0351394482628
-0.0265555485143
-0.0276122266057
-0.0278126210395
-0.0276669541441
-0.0275009526588
-0.0274095551044
-0.0273807228638
-0.0273804675839
-0.0273853724042
-0.0273854006201
-0.0273805410714
-0.0273808257454
-0.0274096769782
-0.0275010908485
-0.0276670895668
-0.0278127319465
-0.0276122821805
-0.0265555132446
-0.0351393462261
-0.0389921294898
-0.0276124573676
-0.0277195847708
-0.0275145167582
-0.0272081040128
-0.0269788910611
-0.0268589152575
-0.0268149717413
-0.0268075542954
-0.0268098013376
-0.0268098174212
-0.0268076006511
-0.0268150393273
-0.0268590072374
-0.0269789831457
-0.0272081700299
-0.0275145508764
-0.027719594641
-0.0276124860526
-0.0389922369208
-0.0403159760302
-0.0278131161765
-0.02751477
-0.027096648066
-0.0266768462469
-0.0264155552129
-0.026352019488
-0.0263747870755
-0.0263928667173
-0.0263966767098
-0.026397216432
-0.0263944771915
-0.0263763546452
-0.0263523316922
-0.0264154866957
-0.0266769573484
-0.0270967466297
-0.0275148805496
-0.0278133283073
-0.0403163401276
-0.0404897475431
-0.0276675788984
-0.0272086337263
-0.0266771360883
-0.0262422785358
-0.0261454775587
-0.0263301216859
-0.0265122054494
-0.0265750352777
-0.0265857716747
-0.0265880288627
-0.0265818057873
-0.0265201157716
-0.0263350220157
-0.0261469503741
-0.0262423631382
-0.0266773353496
-0.0272088543042
-0.0276679347943
-0.0404902315522
-0.0403622184131
-0.0275016141532
-0.026979638947
-0.0264155727007
-0.0261469157959
-0.0263837743581
-0.026785767253
-0.0270470857874
-0.0271399019999
-0.0271638941288
-0.0271681864985
-0.0271527721515
-0.0270629938253
-0.0267980250262
-0.0263901272651
-0.0261479170443
-0.026415978617
-0.0269799651498
-0.0275020662885
-0.0403626818108
-0.0402591769334
-0.0274101634925
-0.0268597674473
-0.0263526540448
-0.0263333098095
-0.0267882072952
-0.0272476430493
-0.0275384249322
-0.0276621780843
-0.0277051509073
-0.0277108150037
-0.0276791287475
-0.0275595561632
-0.0272647973694
-0.0267993976664
-0.0263370300448
-0.0263533285966
-0.0268601794067
-0.0274106727645
-0.0402595358972
-0.0402299699995
-0.0273812402145
-0.0268159065322
-0.0263782403245
-0.0265172673564
-0.0270529877909
-0.0275425762549
-0.0278731298859
-0.0280352982396
-0.0280989013345
-0.0281052026541
-0.0280541079952
-0.0278965862631
-0.0275618909354
-0.027066251172
-0.0265231185838
-0.0263789679131
-0.0268163597065
-0.0273817737039
-0.0402301334562
-0.0402388667828
-0.0273808950837
-0.0268084744595
-0.026396077251
-0.026576834093
-0.0271388652483
-0.0276570401471
-0.0280247472374
-0.0282226336746
-0.0283042943401
-0.0283107184252
-0.0282418535247
-0.0280487679617
-0.0276769765825
-0.0271528084797
-0.0265833405377
-0.0263969203826
-0.0268089442203
-0.0273814267749
-0.0402388142508
-0.040251510626
-0.0273857206868
-0.026810717086
-0.026397754782
-0.0265784836321
-0.0271453730085
-0.0276768482237
-0.028062717412
-0.0282779725372
-0.0283682023045
-0.0283746074908
-0.0282971410312
-0.0280868746688
-0.0276971646304
-0.0271597822243
-0.0265853385994
-0.026398703578
-0.0268111665053
-0.0273862349095
-0.0402512725309
-0.0402517219232
-0.0273856568123
-0.0268106669815
-0.0263961594888
-0.0265716608352
-0.0271322342838
-0.0276593297546
-0.0280430623519
-0.0282577545273
-0.0283478933442
-0.0283542794362
-0.0282768691997
-0.028067276919
-0.0276799625596
-0.0271470827812
-0.0265788444999
-0.0263972034354
-0.0268110873081
-0.0273861492921
-0.0402514002518
-0.0402394888592
-0.0273807249949
-0.0268083368537
-0.0263913106609
-0.026556415803
-0.0270994871285
-0.0276045656077
-0.0279658703874
-0.0281621240929
-0.0282436269042
-0.028249998064
-0.0281811679126
-0.0279901288583
-0.0276255003929
-0.027114748452
-0.0265638903385
-0.0263924315086
-0.0268087148591
-0.0273811871384
-0.040239167944
-0.0402308784562
-0.0273809736961
-0.0268156584693
-0.026373498126
-0.0264936816736
-0.0270048678033
-0.0274778273596
-0.0278003123589
-0.0279603442216
-0.0280236376504
-0.0280297430355
-0.0279785832091
-0.0278235986798
-0.0274979517235
-0.027019445619
-0.0265005127641
-0.0263745599649
-0.0268160035535
-0.0273814080243
-0.0402306810378
-0.0402601697626
-0.0274097711463
-0.0268593926947
-0.0263519228313
-0.0263192877853
-0.0267520379001
-0.0271963534249
-0.027479941266
-0.0276017253162
-0.0276441576588
-0.027649413914
-0.0276174628417
-0.0274999871429
-0.0272133741011
-0.0267636980136
-0.0263234566037
-0.0263525111416
-0.0268596967654
-0.0274102050031
-0.0402602419918
-0.0403630985567
-0.0275010553641
-0.0269790765013
-0.0264157747176
-0.02614324681
-0.0263658516625
-0.0267532259116
-0.0270079260686
-0.0270988767461
-0.0271223015602
-0.0271261043677
-0.0271102787412
-0.0270222966627
-0.0267647750868
-0.0263721324343
-0.026144358548
-0.0264160579222
-0.0269793529481
-0.0275014881308
-0.0403634848619
-0.0404904254949
-0.0276668446606
-0.0272078744231
-0.0266764838487
-0.0262423587929
-0.0261436037198
-0.0263203800985
-0.0264957755682
-0.0265567788673
-0.0265671074475
-0.0265689956989
-0.0265624342014
-0.0265024992465
-0.0263246333743
-0.026144853934
-0.0262423892405
-0.0266766596857
-0.0272080921942
-0.0276672265675
-0.0404910174645
-0.0403165074268
-0.0278123203927
-0.0275138987552
-0.027095851042
-0.0266762047255
-0.0264148729437
-0.0263509767875
-0.0263737585038
-0.0263914365904
-0.0263950316839
-0.0263954073207
-0.0263925736628
-0.0263748402987
-0.0263510788035
-0.0264146954972
-0.0266762315873
-0.0270959315843
-0.0275140212035
-0.0278125762275
-0.0403170337865
-0.0389927398539
-0.0276118623431
-0.0277187679612
-0.0275136905295
-0.0272074281652
-0.0269783526332
-0.0268583715944
-0.0268143741505
-0.0268068422056
-0.0268090180152
-0.0268089728578
-0.0268067348091
-0.0268142322785
-0.0268582449801
-0.0269782618346
-0.0272073851297
-0.0275136911184
-0.0277187981019
-0.0276119240422
-0.0389928972456
-0.0351401375675
-0.0265554354469
-0.0276117246239
-0.0278119684338
-0.0276663653764
-0.027500462661
-0.0274090665877
-0.0273801726057
-0.0273798533164
-0.0273847222036
-0.0273847272855
-0.0273798705952
-0.0273802036477
-0.0274091190515
-0.0275005431825
-0.0276664714534
-0.0278120890534
-0.0276118241913
-0.0265554120276
-0.0351399189217
-0.0286706221348
-0.0351402259817
-0.038992571617
-0.0403162731013
-0.0404905021975
-0.040363653422
-0.0402614239701
-0.040233024128
-0.0402425952716
-0.0402555948665
-0.0402557758754
-0.0402430844488
-0.0402336728594
-0.0402620858285
-0.0403642278166
-0.0404909653273
-0.0403166262447
-0.0389928511038
-0.0351404021964
-0.0286707475179
-0.0286401901551
-0.0352093304473
-0.0392046613048
-0.0405843992256
-0.0407344890142
-0.0405546407147
-0.0404098797018
-0.0403591612442
-0.0403600974824
-0.0403703618286
-0.0403703097602
-0.0403599389476
-0.0403589020202
-0.0404095859308
-0.0405543981738
-0.0407343335787
-0.0405843919061
-0.0392048011701
-0.0352095827342
-0.0286404994831
-0.0352089837849
-0.0265509042701
-0.0275611894847
-0.0277003408959
-0.0274923578619
-0.0272757898219
-0.0271514783444
-0.0271057177829
-0.0270988869982
-0.0271020017674
-0.0271020135725
-0.0270989075651
-0.0271057374072
-0.0271515014054
-0.0272758264812
-0.0274924083901
-0.0277003919649
-0.0275612014607
-0.0265508380123
-0.0352089278484
-0.0392047352359
-0.0275614558051
-0.0275340274102
-0.0272145914092
-0.0268186239474
-0.0265540120614
-0.0264815853391
-0.0265037422384
-0.0265169707847
-0.0265184850372
-0.0265190128766
-0.0265185573103
-0.0265054136621
-0.026482037917
-0.0265539609096
-0.0268186185096
-0.0272145615772
-0.0275339852083
-0.027561440078
-0.0392048632429
-0.0405843502557
-0.0277008845108
-0.0272148763473
-0.0266502518381
-0.026236355046
-0.0261864109768
-0.0263460775561
-0.0264924687279
-0.0265435621811
-0.0265523372141
-0.0265548450903
-0.0265510921768
-0.0265014499839
-0.0263520058256
-0.026189489567
-0.026236776376
-0.026650308373
-0.0272149330587
-0.0277010393953
-0.0405847007193
-0.0407331678046
-0.0274929892322
-0.0268191981989
-0.026235718581
-0.0260914019925
-0.0263513589454
-0.0266757924596
-0.026880449956
-0.026959534514
-0.0269852676501
-0.0269903060705
-0.0269746306604
-0.0268991420368
-0.0266907246462
-0.0263610172522
-0.0260952504553
-0.0262367744961
-0.0268193780971
-0.0274932515188
-0.0407334791525
-0.0405517454944
-0.0272764169651
-0.0265540168723
-0.0261872876232
-0.0263536866587
-0.0267259199158
-0.0270718928261
-0.0273135836605
-0.0274349383488
-0.02748764243
-0.0274945623866
-0.0274556581867
-0.0273394023862
-0.0270932487123
-0.0267413247532
-0.0263623997122
-0.0261904164295
-0.0265546852855
-0.0272767394822
-0.0405519221193
-0.0404051445728
-0.0271520118613
-0.0264808760068
-0.0263497025064