/*--------------------------------*- C++ -*----------------------------------*\
| =========                 |                                                 |
| \\      /  F ield         | OpenFOAM: The Open Source CFD Toolbox           |
|  \\    /   O peration     | Version:  3.0.1                                 |
|   \\  /    A nd           | Web:      www.OpenFOAM.org                      |
|    \\/     M anipulation  |                                                 |
\*---------------------------------------------------------------------------*/
FoamFile
{
    version     2.0;
    format      ascii;
    class       surfaceScalarField;
    location    "0.1";
    object      phi;
}
// * * * * * * * * * * * * * * * * * * * * * * * * * * * * * * * * * * * * * //

dimensions      [0 3 -1 0 0 0 0];

internalField   nonuniform List<scalar> 
3731
(
1.94775e-05
1.83967e-05
1.94775e-05
4.22318e-05
5.58305e-05
6.17092e-05
4.45744e-05
9.6931e-05
0.000106284
3.06468e-05
0.000130975
0.00013693
1.57137e-05
0.000151303
0.000152644
4.95778e-06
0.000157061
0.000157602
1.95387e-07
0.00015455
0.000157797
6.13982e-07
0.00014985
0.000158411
5.73388e-06
0.000144699
0.000164145
1.31077e-05
0.000139811
0.000177253
1.02281e-06
-1.02281e-06
2.41069e-06
-1.38784e-06
3.8001e-06
-1.38938e-06
5.09669e-06
-1.29654e-06
6.22836e-06
-1.13162e-06
7.15235e-06
-9.23954e-07
7.86075e-06
-7.08374e-07
8.36814e-06
-5.07353e-07
8.69913e-06
-3.30962e-07
8.87995e-06
-1.80802e-07
8.93312e-06
-5.31575e-08
8.88045e-06
5.26679e-08
8.7491e-06
1.31345e-07
8.56013e-06
1.88961e-07
8.3275e-06
2.3264e-07
8.06147e-06
2.6605e-07
7.77008e-06
2.91387e-07
7.45967e-06
3.10359e-07
7.1353e-06
3.24357e-07
6.80088e-06
3.34456e-07
6.45945e-06
3.41457e-07
6.1134e-06
3.46015e-07
5.76465e-06
3.48709e-07
5.41462e-06
3.50011e-07
5.0644e-06
3.50248e-07
4.71476e-06
3.49656e-07
4.36627e-06
3.48455e-07
4.01938e-06
3.46862e-07
3.67434e-06
3.45045e-07
3.33128e-06
3.43103e-07
2.9902e-06
3.411e-07
2.65105e-06
3.39103e-07
2.31379e-06
3.37201e-07
1.97828e-06
3.3547e-07
1.64434e-06
3.33948e-07
1.31172e-06
3.32632e-07
9.80183e-07
3.31504e-07
6.49596e-07
3.30522e-07
3.20227e-07
3.29314e-07
3.20215e-07
1.03972e-06
-2.0625e-06
2.54463e-06
-2.89267e-06
4.07315e-06
-2.91782e-06
5.49425e-06
-2.71757e-06
6.72178e-06
-2.3591e-06
7.71353e-06
-1.91565e-06
8.46718e-06
-1.46198e-06
9.00271e-06
-1.04285e-06
9.34945e-06
-6.77675e-07
9.53971e-06
-3.71061e-07
9.60591e-06
-1.19376e-07
9.57807e-06
8.04998e-08
9.46813e-06
2.41286e-07
9.28919e-06
3.67923e-07
9.05565e-06
4.66192e-07
8.77997e-06
5.41706e-07
8.47218e-06
5.99136e-07
8.14028e-06
6.42263e-07
7.79058e-06
6.74092e-07
7.42803e-06
6.97005e-07
7.05651e-06
7.12926e-07
6.67905e-06
7.23423e-07
6.29802e-06
7.2974e-07
5.91523e-06
7.32838e-07
5.53199e-06
7.33477e-07
5.14932e-06
7.32286e-07
4.76794e-06
7.29797e-07
4.38839e-06
7.2643e-07
4.01099e-06
7.22497e-07
3.63586e-06
7.18238e-07
3.26303e-06
7.13857e-07
2.8925e-06
7.09545e-07
2.52419e-06
7.05459e-07
2.15795e-06
7.01712e-07
1.79352e-06
6.98369e-07
1.43062e-06
6.95473e-07
1.06896e-06
6.93066e-07
7.08217e-07
6.91187e-07
3.47791e-07
6.89711e-07
6.68001e-07
9.15752e-07
-2.97822e-06
2.4812e-06
-4.45807e-06
4.13236e-06
-4.56894e-06
5.65603e-06
-4.24121e-06
6.93686e-06
-3.63991e-06
7.94111e-06
-2.91987e-06
8.68341e-06
-2.20426e-06
9.19631e-06
-1.55574e-06
9.5166e-06
-9.97974e-07
9.67934e-06
-5.33826e-07
9.71526e-06
-1.55309e-07
9.65147e-06
1.44315e-07
9.50871e-06
3.84077e-07
9.30414e-06
5.72495e-07
9.05151e-06
7.18803e-07
8.76193e-06
8.31286e-07
8.44425e-06
9.16812e-07
8.10556e-06
9.80947e-07
7.75148e-06
1.02817e-06
7.3864e-06
1.06207e-06
7.01376e-06
1.08555e-06
6.63625e-06
1.10093e-06
6.25597e-06
1.11002e-06
5.87452e-06
1.11428e-06
5.49307e-06
1.1149e-06
5.11251e-06
1.11282e-06
4.73349e-06
1.10882e-06
4.35645e-06
1.1035e-06
3.98163e-06
1.09733e-06
3.60914e-06
1.0907e-06
3.23901e-06
1.08393e-06
2.8712e-06
1.0773e-06
2.50562e-06
1.07102e-06
2.14207e-06
1.06525e-06
1.78032e-06
1.0601e-06
1.42008e-06
1.05565e-06
1.06106e-06
1.05201e-06
7.02961e-07
1.04924e-06
3.45478e-07
1.04717e-06
1.01347e-06
6.78931e-07
-3.65713e-06
2.34395e-06
-6.12306e-06
4.22174e-06
-6.4467e-06
5.92239e-06
-5.94184e-06
7.28198e-06
-4.99948e-06
8.29455e-06
-3.93243e-06
9.00924e-06
-2.91892e-06
9.47971e-06
-2.02622e-06
9.75417e-06
-1.27245e-06
9.87371e-06
-6.53358e-07
9.87093e-06
-1.52498e-07
9.77367e-06
2.41596e-07
9.60245e-06
5.55279e-07
9.37451e-06
8.00408e-07
9.10308e-06
9.90219e-07
8.79859e-06
1.1358e-06
8.46921e-06
1.2462e-06
8.12145e-06
1.32871e-06
7.76039e-06
1.38922e-06
7.39001e-06
1.43245e-06
7.01339e-06
1.46217e-06
6.63297e-06
1.48134e-06
6.2506e-06
1.49236e-06
5.86772e-06
1.49715e-06
5.48536e-06
1.49725e-06
5.10431e-06
1.49388e-06
4.7251e-06
1.48803e-06
4.34812e-06
1.48049e-06
3.97355e-06
1.47189e-06
3.60147e-06
1.46275e-06
3.23187e-06
1.45349e-06
2.86469e-06
1.44444e-06
2.49981e-06
1.43589e-06
2.13701e-06
1.42803e-06
1.77604e-06
1.42103e-06
1.41662e-06
1.41502e-06
1.05846e-06
1.41011e-06
7.01257e-07
1.40639e-06
3.44793e-07
1.40361e-06
1.35825e-06
2.07498e-07
-3.86461e-06
2.00419e-06
-7.91973e-06
4.33251e-06
-8.77498e-06
6.33419e-06
-7.9435e-06
7.79508e-06
-6.46035e-06
8.79891e-06
-4.93624e-06
9.46067e-06
-3.58066e-06
9.86443e-06
-2.42996e-06
1.00721e-05
-1.48007e-06
1.01305e-05
-7.11746e-07
1.00769e-05
-9.88852e-08
9.9361e-06
3.82311e-07
9.72951e-06
7.61828e-07
9.47298e-06
1.05693e-06
9.17867e-06
1.28458e-06
8.85594e-06
1.45857e-06
8.51212e-06
1.59002e-06
8.15295e-06
1.68785e-06
7.78293e-06
1.75924e-06
7.40552e-06
1.80986e-06
7.02345e-06
1.84424e-06
6.6388e-06
1.86597e-06
6.25321e-06
1.87794e-06
5.8679e-06
1.88246e-06
5.48376e-06
1.8814e-06
5.10142e-06
1.87621e-06
4.72134e-06
1.8681e-06
4.3438e-06
1.85802e-06
3.96894e-06
1.84673e-06
3.59679e-06
1.83487e-06
3.2273e-06
1.82294e-06
2.86037e-06
1.81134e-06
2.49583e-06
1.8004e-06
2.13346e-06
1.79038e-06
1.77299e-06
1.78147e-06
1.41413e-06
1.77384e-06
1.05657e-06
1.76762e-06
7.00009e-07
1.7629e-06
3.44222e-07
1.75937e-06
1.70246e-06
-8.8991e-07
-2.97468e-06
1.20072e-06
-1.00103e-05
4.43248e-06
-1.20067e-05
6.95389e-06
-1.04649e-05
8.53127e-06
-8.0377e-06
9.48202e-06
-5.88695e-06
1.00479e-05
-4.14645e-06
1.03519e-05
-2.73395e-06
1.04679e-05
-1.59614e-06
1.04467e-05
-6.90528e-07
1.03277e-05
2.00948e-08
1.01328e-05
5.77198e-07
9.8826e-06
1.01199e-06
9.5912e-06
1.34836e-06
9.26911e-06
1.60672e-06
8.92435e-06
1.80335e-06
8.56311e-06
1.95123e-06
8.19021e-06
2.06072e-06
7.80942e-06
2.14005e-06
7.4236e-06
2.19571e-06
7.03497e-06
2.23287e-06
6.64525e-06
2.25565e-06
6.2558e-06
2.26737e-06
5.86759e-06
2.27068e-06
5.48131e-06
2.26768e-06
5.09746e-06
2.26007e-06
4.71634e-06
2.2492e-06
4.33817e-06
2.23617e-06
3.963e-06
2.22189e-06
3.5908e-06
2.20705e-06
3.22146e-06
2.19224e-06
2.85485e-06
2.17792e-06
2.49077e-06
2.16447e-06
2.12896e-06
2.15217e-06
1.76914e-06
2.14127e-06
1.41098e-06
2.13195e-06
1.05418e-06
2.12437e-06
6.98417e-07
2.11861e-06
3.4345e-07
2.11429e-06
2.04589e-06
-2.45904e-06
-5.15599e-07
2.62339e-07
-1.27317e-05
4.68969e-06
-1.6434e-05
7.87927e-06
-1.36544e-05
9.55482e-06
-9.71323e-06
1.03737e-05
-6.70576e-06
1.07783e-05
-4.55106e-06
1.09397e-05
-2.89537e-06
1.09359e-05
-1.59234e-06
1.08163e-05
-5.70978e-07
1.06172e-05
2.19206e-07
1.03584e-05
8.36005e-07
1.00573e-05
1.31313e-06
9.72542e-06
1.68024e-06
9.37132e-06
1.96084e-06
9.00128e-06
2.17338e-06
8.62011e-06
2.33236e-06
8.23156e-06
2.44927e-06
7.83849e-06
2.53315e-06
7.44306e-06
2.59115e-06
7.04697e-06
2.62894e-06
6.65152e-06
2.65107e-06
6.25771e-06
2.66118e-06
5.86623e-06
2.66217e-06
5.47757e-06
2.65637e-06
5.09201e-06
2.64561e-06
4.70978e-06
2.63141e-06
4.33095e-06
2.61499e-06
3.95548e-06
2.59733e-06
3.58329e-06
2.57923e-06
3.21419e-06
2.5613e-06
2.84801e-06
2.54407e-06
2.48451e-06
2.52795e-06
2.12341e-06
2.51326e-06
1.76439e-06
2.50027e-06
1.40711e-06
2.48919e-06
1.05124e-06
2.48018e-06
6.96454e-07
2.47334e-06
3.42482e-07
2.46822e-06
2.38834e-06
-1.89419e-06
1.37863e-06
1.66195e-06
-1.62878e-05
6.23655e-06
-2.10086e-05
9.42339e-06
-1.68412e-05
1.09381e-05
-1.12279e-05
1.14926e-05
-7.26027e-06
1.16509e-05
-4.70937e-06
1.16193e-05
-2.86378e-06
1.14653e-05
-1.43834e-06
1.12297e-05
-3.35339e-07
1.09375e-05
5.11378e-07
1.06062e-05
1.16738e-06
1.0248e-05
1.67131e-06
9.87129e-06
2.05697e-06
9.48187e-06
2.35027e-06
9.08403e-06
2.5712e-06
8.68102e-06
2.73537e-06
8.27532e-06
2.85499e-06
7.86881e-06
2.93969e-06
7.46289e-06
2.99705e-06
7.05866e-06
3.03312e-06
6.65698e-06
3.05272e-06
6.25845e-06
3.05973e-06
5.86345e-06
3.0572e-06
5.47221e-06
3.04761e-06
5.08487e-06
3.03293e-06
4.70148e-06
3.01477e-06
4.322e-06
2.99446e-06
3.94629e-06
2.97303e-06
3.57417e-06
2.95132e-06
3.20542e-06
2.93002e-06
2.8398e-06
2.90966e-06
2.47703e-06
2.8907e-06
2.11679e-06
2.87349e-06
1.75874e-06
2.85831e-06
1.40251e-06
2.84538e-06
1.04775e-06
2.83487e-06
6.94116e-07
2.82691e-06
3.41324e-07
2.82096e-06
2.72965e-06
4.21319e-06
-2.83457e-06
8.16319e-06
-2.02378e-05
1.06443e-05
-2.34897e-05
1.2072e-05
-1.82689e-05
1.27299e-05
-1.18858e-05
1.28166e-05
-7.34698e-06
1.26435e-05
-4.53624e-06
1.23716e-05
-2.59191e-06
1.20405e-05
-1.10722e-06
1.16734e-05
3.17942e-08
1.12783e-05
9.06508e-07
1.0868e-05
1.57767e-06
1.04485e-05
2.09082e-06
1.00239e-05
2.48164e-06
9.59687e-06
2.77726e-06
9.16955e-06
2.99851e-06
8.7434e-06
3.16151e-06
8.31956e-06
3.27884e-06
7.89885e-06
3.36041e-06
7.48187e-06
3.414e-06
7.0691e-06
3.44585e-06
6.66088e-06
3.46094e-06
6.2574e-06
3.46323e-06
5.85873e-06
3.4559e-06
5.46485e-06
3.44148e-06
5.0757e-06
3.42204e-06
4.69118e-06
3.39927e-06
4.31111e-06
3.37452e-06
3.93525e-06
3.34888e-06
3.56332e-06
3.32323e-06
3.19505e-06
3.29826e-06
2.83013e-06
3.27455e-06
2.46825e-06
3.25257e-06
2.10905e-06
3.23269e-06
1.75214e-06
3.21521e-06
1.39714e-06
3.20034e-06
1.04368e-06
3.18827e-06
6.91391e-07
3.17914e-06
3.39974e-07
3.17233e-06
3.0696e-06
1.2779e-05
-1.56135e-05
1.71958e-05
-2.46546e-05
1.67587e-05
-2.30526e-05
1.55494e-05
-1.70596e-05
1.47806e-05
-1.11171e-05
1.42344e-05
-6.80071e-06
1.36951e-05
-3.99694e-06
1.31608e-05
-2.05763e-06
1.264e-05
-5.86324e-07
1.21299e-05
5.419e-07
1.16274e-05
1.409e-06
1.11348e-05
2.07024e-06
1.06517e-05
2.57389e-06
1.01777e-05
2.95572e-06
9.71209e-06
3.24286e-06
9.25452e-06
3.45606e-06
8.80466e-06
3.61136e-06
8.36223e-06
3.72127e-06
7.92699e-06
3.79564e-06
7.49871e-06
3.84224e-06
7.07724e-06
3.86731e-06
6.66237e-06
3.87582e-06
6.2539e-06
3.87174e-06
5.85155e-06
3.85826e-06
5.45506e-06
3.83795e-06
5.06417e-06
3.81289e-06
4.67862e-06
3.78481e-06
4.29808e-06
3.75506e-06
3.92219e-06
3.72477e-06
3.5506e-06
3.69479e-06
3.18296e-06
3.66586e-06
2.81891e-06
3.63857e-06
2.4581e-06
3.61338e-06
2.10012e-06
3.59068e-06
1.74454e-06
3.57077e-06
1.39097e-06
3.55387e-06
1.03901e-06
3.54018e-06
6.88266e-07
3.52982e-06
3.38427e-07
3.52212e-06
3.40801e-06
3.07805e-05
0.000128402
0.000154952
5.30818e-05
4.76867e-05
0.00011163
0.000131067
7.15715e-05
5.26615e-05
9.60218e-05
0.000106711
7.70174e-05
5.14739e-05
8.335e-05
8.625e-05
7.19347e-05
4.815e-05
7.38911e-05
7.18863e-05
6.25137e-05
4.46043e-05
6.70508e-05
6.28069e-05
5.36836e-05
4.13498e-05
6.19654e-05
5.711e-05
4.70466e-05
3.8396e-05
5.7997e-05
5.32765e-05
4.22294e-05
3.56578e-05
5.48197e-05
5.04868e-05
3.84474e-05
3.30905e-05
4.83567e-05
3.52205e-05
4.66864e-05
3.2369e-05
4.53494e-05
2.9824e-05
4.42627e-05
2.75308e-05
4.33619e-05
2.54461e-05
4.25988e-05
2.35308e-05
4.19393e-05
2.17528e-05
4.13589e-05
2.0087e-05
4.08387e-05
1.85136e-05
4.03645e-05
1.70165e-05
3.99251e-05
1.55825e-05
3.95117e-05
1.42007e-05
3.91174e-05
1.28615e-05
3.87362e-05
1.15568e-05
3.8363e-05
1.02792e-05
3.79932e-05
9.02214e-06
3.76223e-05
7.77968e-06
3.72456e-05
6.54629e-06
3.68586e-05
5.31691e-06
3.6456e-05
4.08714e-06
3.60319e-05
2.85326e-06
3.55799e-05
1.61222e-06
3.50925e-05
3.61747e-07
-8.98767e-07
-9.5173e-06
6.2599e-05
-2.17127e-05
1.21954e-05
-1.14825e-05
-1.02302e-05
-1.88332e-05
7.35056e-06
5.44348e-05
7.97357e-05
3.80786e-05
2.85515e-05
3.12302e-05
-3.38187e-06
-2.04376e-05
3.28345e-05
8.17846e-05
7.49685e-05
7.33548e-05
3.69812e-05
6.3033e-05
6.93994e-06
-1.00917e-05
5.26871e-05
8.11878e-05
6.57154e-05
7.84802e-05
3.96888e-05
6.90847e-05
1.63354e-05
1.65497e-06
5.73379e-05
7.08691e-05
5.736e-05
7.06297e-05
3.99282e-05
6.40012e-05
2.29639e-05
1.09695e-05
5.46866e-05
5.97462e-05
5.12973e-05
6.03879e-05
3.92863e-05
5.63647e-05
2.6987e-05
1.73496e-05
4.99845e-05
5.10638e-05
4.728e-05
5.1877e-05
3.8473e-05
4.95732e-05
2.92908e-05
2.15294e-05
4.53934e-05
4.48791e-05
4.46303e-05
4.55716e-05
3.77805e-05
4.42113e-05
3.0651e-05
2.43119e-05
4.14287e-05
4.02793e-05
4.27984e-05
4.08118e-05
3.7248e-05
3.99533e-05
3.15095e-05
2.62414e-05
3.80238e-05
3.65681e-05
4.14508e-05
3.69887e-05
3.68273e-05
3.64192e-05
3.20789e-05
2.7629e-05
3.50315e-05
3.34093e-05
4.04105e-05
3.37591e-05
3.64774e-05
3.33731e-05
3.24648e-05
2.86486e-05
3.23535e-05
3.06506e-05
3.95837e-05
3.09491e-05
3.61789e-05
3.06891e-05
3.27248e-05
2.94042e-05
2.99334e-05
2.82039e-05
3.89105e-05
2.84653e-05
3.59174e-05
2.82954e-05
3.28947e-05
2.99665e-05
2.77332e-05
2.60075e-05
3.83489e-05
2.62428e-05
3.56821e-05
2.61387e-05
3.29986e-05
3.03853e-05
2.57199e-05
2.40114e-05
3.78681e-05
2.42288e-05
3.54647e-05
2.41742e-05
3.30532e-05
3.06958e-05
2.38637e-05
2.21748e-05
3.7446e-05
2.23807e-05
3.52588e-05
2.23651e-05
3.30689e-05
3.09222e-05
2.21386e-05
2.04662e-05
3.70669e-05
2.06658e-05
3.50592e-05
2.06821e-05
3.30526e-05
3.10816e-05
2.05227e-05
1.88615e-05
3.6719e-05
1.90587e-05
3.4862e-05
1.91023e-05
3.30089e-05
3.11859e-05
1.8998e-05
1.7342e-05
3.63935e-05
1.75397e-05
3.46643e-05
1.76076e-05
3.2941e-05
3.1244e-05
1.75496e-05
1.58924e-05
3.60837e-05
1.60932e-05
3.44635e-05
1.61832e-05
3.2851e-05
3.12619e-05
1.61653e-05
1.45003e-05
3.5784e-05
1.47063e-05
3.42575e-05
1.48171e-05
3.27402e-05
3.12445e-05
1.48345e-05
1.31555e-05
3.54901e-05
1.33684e-05
3.40446e-05
1.34991e-05
3.26096e-05
3.11949e-05
1.35487e-05
1.18488e-05
3.51981e-05
1.20706e-05
3.38228e-05
1.22209e-05
3.24593e-05
3.11154e-05
1.23004e-05
1.05727e-05
3.49046e-05
1.08052e-05
3.35904e-05
1.09752e-05
3.22893e-05
3.10076e-05
1.1083e-05
9.32032e-06
3.46064e-05
9.56536e-06
3.33453e-05
9.75571e-06
3.2099e-05
3.08721e-05
9.89121e-06
8.08578e-06
3.43002e-05
8.34547e-06
3.30856e-05
8.55712e-06
3.18874e-05
3.07092e-05
8.72013e-06
6.86377e-06
3.39827e-05
7.14051e-06
3.28088e-05
7.37481e-06
3.16531e-05
3.05183e-05
7.56572e-06
5.6495e-06
3.36503e-05
5.9461e-06
3.25122e-05
6.20486e-06
3.13944e-05
3.02987e-05
6.42455e-06
4.43885e-06
3.32987e-05
4.75848e-06
3.21927e-05
5.04397e-06
3.11089e-05
3.00488e-05
5.29384e-06
3.22849e-06
3.29236e-05
3.57466e-06
3.18465e-05
3.88956e-06
3.07941e-05
2.9767e-05
4.17142e-06
2.0158e-06
3.25201e-05
2.39248e-06
3.14699e-05
2.73983e-06
3.04467e-05
2.9451e-05
3.05585e-06
7.99233e-07
3.20828e-05
1.21081e-06
3.10584e-05
1.59392e-06
3.00636e-05
2.90984e-05
1.9465e-06
-4.22417e-07
2.90882e-08
4.51586e-07
8.43428e-07
1.97437e-05
-2.80067e-05
2.2852e-05
-2.77629e-05
2.13847e-05
-2.15853e-05
1.88683e-05
-1.45432e-05
1.70403e-05
-9.28909e-06
1.58939e-05
-5.65432e-06
1.50001e-05
-3.10311e-06
1.42001e-05
-1.25757e-06
1.34783e-05
1.35503e-07
1.28107e-05
1.20945e-06
1.2189e-05
2.03076e-06
1.16033e-05
2.65585e-06
1.10467e-05
3.13052e-06
1.05137e-05
3.48875e-06
1.00003e-05
3.75623e-06
9.50365e-06
3.95272e-06
9.0215e-06
4.09351e-06
8.55217e-06
4.19061e-06
8.09431e-06
4.25348e-06
7.64687e-06
4.28966e-06
7.20899e-06
4.30517e-06
6.77997e-06
4.30485e-06
6.35915e-06
4.29258e-06
5.94594e-06
4.27147e-06
5.53981e-06
4.24404e-06
5.1403e-06
4.21238e-06
4.74693e-06
4.17817e-06
4.35926e-06
4.14276e-06
3.97679e-06
4.10724e-06
3.59907e-06
4.07248e-06
3.22568e-06
4.03921e-06
2.85622e-06
4.00801e-06
2.49024e-06
3.97936e-06
2.1273e-06
3.95363e-06
1.76694e-06
3.93112e-06
1.40871e-06
3.91207e-06
1.05218e-06
3.89664e-06
6.96961e-07
3.88499e-06
3.42688e-07
3.87636e-06
3.75069e-06
3.196e-05
-2.71322e-05
2.82569e-05
-2.40598e-05
2.4256e-05
-1.75845e-05
2.11366e-05
-1.14237e-05
1.89557e-05
-7.1082e-06
1.74042e-05
-4.10281e-06
1.61685e-05
-1.8674e-06
1.5112e-05
-2.00986e-07
1.4192e-05
1.05543e-06
1.33774e-05
2.02409e-06
1.26431e-05
2.76499e-06
1.19703e-05
3.32872e-06
1.13451e-05
3.75568e-06
1.07577e-05
4.07614e-06
1.02009e-05
4.31308e-06
9.66919e-06
4.48436e-06
9.15871e-06
4.60398e-06
8.66634e-06
4.68299e-06
8.18966e-06
4.73016e-06
7.72678e-06
4.75253e-06
7.27619e-06
4.75575e-06
6.83666e-06
4.7444e-06
6.4071e-06
4.72214e-06
5.9866e-06
4.69194e-06
5.57438e-06
4.65623e-06
5.16975e-06
4.617e-06
4.77206e-06
4.57587e-06
4.3807e-06
4.53414e-06
3.99507e-06
4.49286e-06
3.61463e-06
4.45288e-06
3.23888e-06
4.41491e-06
2.86735e-06
4.37952e-06
2.49954e-06
4.34717e-06
2.13496e-06
4.31823e-06
1.7731e-06
4.29297e-06
1.41349e-06
4.27164e-06
1.05569e-06
4.2544e-06
6.99246e-07
4.24139e-06
3.43798e-07
4.23177e-06
4.09448e-06
4.2416e-05
-1.68611e-05
3.37762e-05
-1.54201e-05
2.76531e-05
-1.14613e-05
2.36424e-05
-7.41296e-06
2.08739e-05
-4.33982e-06
1.88414e-05
-2.07028e-06
1.72592e-05
-2.85223e-07
1.5961e-05
1.09725e-06
1.48605e-05
2.15591e-06
1.39111e-05
2.9735e-06
1.3073e-05
3.60308e-06
1.23186e-05
4.08312e-06
1.16288e-05
4.44553e-06
1.09897e-05
4.71523e-06
1.03912e-05
4.9115e-06
9.82595e-06
5.04963e-06
9.28818e-06
5.14176e-06
8.77355e-06
5.19763e-06
8.27864e-06
5.22505e-06
7.80082e-06
5.23034e-06
7.33794e-06
5.21863e-06
6.88825e-06
5.19409e-06
6.45028e-06
5.16009e-06
6.02281e-06
5.11938e-06
5.60479e-06
5.07421e-06
5.19532e-06
5.02646e-06
4.79359e-06
4.97762e-06
4.39882e-06
4.92893e-06
4.01031e-06
4.88135e-06
3.62742e-06
4.83572e-06
3.24959e-06
4.7927e-06
2.87627e-06
4.75283e-06
2.50691e-06
4.71654e-06
2.14095e-06
4.68419e-06
1.77788e-06
4.65604e-06
1.41717e-06
4.6323e-06
1.05836e-06
4.61316e-06
7.0098e-07
4.59873e-06
3.44636e-07
4.58809e-06
4.4391e-06
4.54906e-05
-5.01382e-06
3.62713e-05
-6.20078e-06
2.98534e-05
-5.04342e-06
2.55178e-05
-3.07739e-06
2.23896e-05
-1.21168e-06
2.00239e-05
2.95419e-07
1.81868e-05
1.55191e-06
1.66996e-05
2.58448e-06
1.54562e-05
3.39931e-06
1.43931e-05
4.03658e-06
1.34645e-05
4.53166e-06
1.26377e-05
4.90998e-06
1.18894e-05
5.19375e-06
1.12031e-05
5.40151e-06
1.05663e-05
5.54824e-06
9.96987e-06
5.6461e-06
9.40661e-06
5.70504e-06
8.8711e-06
5.73315e-06
8.35908e-06
5.73706e-06
7.86719e-06
5.72222e-06
7.39273e-06
5.69308e-06
6.9335e-06
5.65332e-06
6.48766e-06
5.6059e-06
6.05368e-06
5.55331e-06
5.6303e-06
5.49757e-06
5.2164e-06
5.44037e-06
4.81099e-06
5.38306e-06
4.41316e-06
5.32676e-06
4.02211e-06
5.27238e-06
3.63711e-06
5.22067e-06
3.25752e-06
5.17225e-06
2.88273e-06
5.12762e-06
2.51213e-06
5.08717e-06
2.14512e-06
5.05122e-06
1.78113e-06
5.02001e-06
1.41964e-06
4.99376e-06
1.06013e-06
4.97262e-06
7.02114e-07
4.95671e-06
3.45178e-07
4.94501e-06
4.78428e-06
4.4783e-05
4.88977e-06
3.68434e-05
1.73879e-06
3.09147e-05
8.85235e-07
2.66154e-05
1.22184e-06
2.3404e-05
1.99965e-06
2.09063e-05
2.79313e-06
1.89228e-05
3.53544e-06
1.73085e-05
4.19874e-06
1.59592e-05
4.74852e-06
1.48074e-05
5.18847e-06
1.38051e-05
5.53393e-06
1.29175e-05
5.79757e-06
1.21193e-05
5.99195e-06
1.13919e-05
6.12892e-06
1.07213e-05
6.21881e-06
1.0097e-05
6.27043e-06
9.51076e-06
6.29125e-06
8.95635e-06
6.28755e-06
8.42877e-06
6.26462e-06
7.92407e-06
6.2269e-06
7.43907e-06
6.17808e-06
6.97115e-06
6.12122e-06
6.51817e-06
6.05886e-06
6.07833e-06
5.99311e-06
5.65015e-06
5.92574e-06
5.23232e-06
5.8582e-06
4.8237e-06
5.7917e-06
4.42325e-06
5.72721e-06
4.03007e-06
5.66553e-06
3.64336e-06
5.60734e-06
3.2624e-06
5.55319e-06
2.8865e-06
5.50352e-06
2.51501e-06
5.45868e-06
2.14729e-06
5.41895e-06
1.78274e-06
5.38455e-06
1.42079e-06
5.35567e-06
1.06092e-06
5.33245e-06
7.026e-07
5.315e-06
3.454e-07
5.30219e-06
5.12968e-06
4.2638e-05
1.22363e-05
3.62954e-05
8.08137e-06
3.11667e-05
6.01386e-06
2.71558e-05
5.23263e-06
2.40157e-05
5.13975e-06
2.15007e-05
5.30817e-06
1.94572e-05
5.57893e-06
1.77725e-05
5.8834e-06
1.63556e-05
6.16539e-06
1.51418e-05
6.40229e-06
1.40848e-05
6.59093e-06
1.315e-05
6.73232e-06
1.23117e-05
6.83025e-06
1.15504e-05
6.89017e-06
1.08515e-05
6.91777e-06
1.02035e-05
6.91847e-06
9.59752e-06
6.89719e-06
9.02672e-06
6.85833e-06
8.48557e-06
6.80575e-06
7.96966e-06
6.74279e-06
7.47543e-06
6.67231e-06
6.99993e-06
6.5967e-06
6.54074e-06
6.51801e-06
6.09584e-06
6.43796e-06
5.66356e-06
6.358e-06
5.24243e-06
6.27934e-06
4.83116e-06
6.20298e-06
4.42862e-06
6.12974e-06
4.03379e-06
6.06032e-06
3.64582e-06
5.99528e-06
3.26391e-06
5.93509e-06
2.88732e-06
5.88013e-06
2.51534e-06
5.83069e-06
2.14729e-06
5.78701e-06
1.78255e-06
5.74929e-06
1.42052e-06
5.71767e-06
1.06064e-06
5.69229e-06
7.02384e-07
5.67324e-06
3.45276e-07
5.65929e-06
5.47495e-06
4.01223e-05
1.75074e-05
3.51578e-05
1.30458e-05
3.08303e-05
1.03414e-05
2.72192e-05
8.84365e-06
2.42596e-05
8.0994e-06
2.18185e-05
7.74926e-06
1.97883e-05
7.60909e-06
1.80854e-05
7.58633e-06
1.66374e-05
7.61335e-06
1.53883e-05
7.6514e-06
1.42962e-05
7.6831e-06
1.33287e-05
7.69979e-06
1.2461e-05
7.69788e-06
1.16741e-05
7.67712e-06
1.09529e-05
7.63891e-06
1.0286e-05
7.58542e-06
9.66404e-06
7.51912e-06
9.0798e-06
7.44254e-06
8.52745e-06
7.35809e-06
8.00226e-06
7.26798e-06
7.50037e-06
7.1742e-06
7.0186e-06
7.07846e-06
6.55431e-06
6.98226e-06
6.10531e-06
6.88691e-06
5.66977e-06
6.79353e-06
5.24607e-06
6.70304e-06
4.83281e-06
6.61624e-06
4.42877e-06
6.53377e-06
4.03286e-06
6.4562e-06
3.64414e-06
6.38397e-06
3.26177e-06
6.31746e-06
2.88494e-06
6.25698e-06
2.5129e-06
6.20275e-06
2.14495e-06
6.15497e-06
1.78042e-06
6.1138e-06
1.41871e-06
6.07936e-06
1.05923e-06
6.05175e-06
7.01415e-07
6.03105e-06
3.44782e-07
6.01592e-06
5.81973e-06
3.76033e-05
2.13328e-05
3.37089e-05
1.69401e-05
3.00946e-05
1.39556e-05
2.69161e-05
1.20222e-05
2.42003e-05
1.08152e-05
2.18928e-05
1.00567e-05
1.99283e-05
9.57354e-06
1.82494e-05
9.26526e-06
1.68027e-05
9.06004e-06
1.55431e-05
8.91102e-06
1.44347e-05
8.79148e-06
1.3449e-05
8.68553e-06
1.2563e-05
8.58377e-06
1.17589e-05
8.48123e-06
1.10223e-05
8.37557e-06
1.03416e-05
8.26607e-06
9.7078e-06
8.15292e-06
9.11343e-06
8.03687e-06
8.55254e-06
7.91896e-06
8.02025e-06
7.80029e-06
7.5125e-06
7.68195e-06
7.02596e-06
7.56497e-06
6.55786e-06
7.45032e-06
6.10586e-06
7.33886e-06
5.66801e-06
7.23136e-06
5.24258e-06
7.12846e-06
4.82809e-06
7.03072e-06
4.42323e-06
6.93861e-06
4.02685e-06
6.85254e-06
3.63797e-06
6.77283e-06
3.25567e-06
6.69977e-06
2.8791e-06
6.63357e-06
2.50749e-06
6.57439e-06
2.14009e-06
6.52238e-06
1.77622e-06
6.47765e-06
1.41526e-06
6.4403e-06
1.0566e-06
6.41041e-06
6.99639e-07
6.388e-06
3.4389e-07
6.37167e-06
6.16362e-06
3.51796e-05
2.41769e-05
3.2102e-05
2.00177e-05
2.90998e-05
1.69578e-05
2.63424e-05
1.47796e-05
2.3897e-05
1.32606e-05
2.17582e-05
1.21954e-05
1.98951e-05
1.14367e-05
1.82725e-05
1.08878e-05
1.68541e-05
1.04785e-05
1.56058e-05
1.01594e-05
1.44986e-05
9.89871e-06
1.35083e-05
9.6758e-06
1.26149e-05
9.47708e-06
1.18023e-05
9.29391e-06
1.10569e-05
9.12094e-06
1.0368e-05
8.95496e-06
9.72665e-06
8.7942e-06
9.1257e-06
8.6378e-06
8.55918e-06
8.48549e-06
8.02217e-06
8.33732e-06
7.51055e-06
8.19356e-06
7.02093e-06
8.05457e-06
6.55043e-06
7.92077e-06
6.09666e-06
7.79259e-06
5.65757e-06
7.67043e-06
5.23135e-06
7.55466e-06
4.81646e-06
7.44559e-06
4.41153e-06
7.34351e-06
4.01538e-06
7.24866e-06
3.62696e-06
7.16125e-06
3.24531e-06
7.08143e-06
2.86956e-06
7.00934e-06
2.49888e-06
6.94508e-06
2.13253e-06
6.88873e-06
1.76981e-06
6.84037e-06
1.41006e-06
6.80004e-06
1.05267e-06
6.76781e-06
6.97004e-07
6.74367e-06
3.42575e-07
6.72611e-06
6.50619e-06
3.28752e-05
2.63332e-05
3.04291e-05
2.24637e-05
2.79433e-05
1.94437e-05
2.55738e-05
1.71491e-05
2.34013e-05
1.54331e-05
2.14486e-05
1.4148e-05
1.97094e-05
1.31759e-05
1.81666e-05
1.24307e-05
1.67977e-05
1.18475e-05
1.55788e-05
1.13782e-05
1.4488e-05
1.09895e-05
1.35057e-05
1.06581e-05
1.26152e-05
1.03676e-05
1.18023e-05
1.01069e-05
1.10549e-05
9.86826e-06
1.03632e-05
9.64662e-06
9.7189e-06
9.43848e-06
9.11506e-06
9.24163e-06
8.54595e-06
9.05461e-06
8.00675e-06
8.87654e-06
7.4934e-06
8.70691e-06
7.00249e-06
8.54545e-06
6.53115e-06
8.39206e-06
6.07695e-06
8.24676e-06
5.63777e-06
8.10959e-06
5.21179e-06
7.98062e-06
4.79741e-06
7.85995e-06
4.39324e-06
7.74766e-06
3.99805e-06
7.64382e-06
3.61077e-06
7.54852e-06
3.23041e-06
7.46181e-06
2.85606e-06
7.38372e-06
2.48688e-06
7.31427e-06
2.12212e-06
7.25351e-06
1.76105e-06
7.20144e-06
1.40301e-06
7.15809e-06
1.04735e-06
7.12347e-06
6.93458e-07
7.09758e-06
3.4081e-07
7.07875e-06
6.847e-06
3.06995e-05
2.79872e-05
2.87481e-05
2.44151e-05
2.66933e-05
2.14985e-05
2.46696e-05
1.91728e-05
2.27582e-05
1.73444e-05
2.09961e-05
1.59101e-05
1.93931e-05
1.47789e-05
1.79455e-05
1.38784e-05
1.66417e-05
1.31512e-05
1.54668e-05
1.25531e-05
1.44052e-05
1.20512e-05
1.34419e-05
1.16213e-05
1.25635e-05
1.1246e-05
1.17581e-05
1.09123e-05
1.10152e-05
1.06111e-05
1.03261e-05
1.03357e-05
9.68326e-06
1.00813e-05
9.08026e-06
9.84463e-06
8.51168e-06
9.6232e-06
7.97293e-06
9.41531e-06
7.46006e-06
9.21975e-06
6.96978e-06
9.03569e-06
6.49924e-06
8.86256e-06
6.04601e-06
8.69995e-06
5.608e-06
8.54759e-06
5.18335e-06
8.40525e-06
4.77046e-06
8.27281e-06
4.36792e-06
8.15016e-06
3.97451e-06
8.03722e-06
3.5891e-06
7.93393e-06
3.2107e-06
7.84022e-06
2.83838e-06
7.75605e-06
2.47129e-06
7.68136e-06
2.10867e-06
7.61613e-06
1.7498e-06
7.56032e-06
1.39399e-06
7.51392e-06
1.04058e-06
7.4769e-06
6.88951e-07
7.44922e-06
3.38573e-07
7.42913e-06
7.18556e-06
2.86561e-05
2.92645e-05
2.70943e-05
2.5977e-05
2.53965e-05
2.31962e-05
2.36751e-05
2.08943e-05
2.20053e-05
1.90142e-05
2.04295e-05
1.74859e-05
1.89671e-05
1.62413e-05
1.76236e-05
1.5222e-05
1.63958e-05
1.4379e-05
1.52759e-05
1.3673e-05
1.42538e-05
1.30733e-05
1.33188e-05
1.25563e-05
1.24607e-05
1.21041e-05
1.16697e-05
1.17032e-05
1.09374e-05
1.13434e-05
1.0256e-05
1.1017e-05
9.61892e-06
1.07184e-05
9.02042e-06
1.04431e-05
8.4555e-06
1.01881e-05
7.91984e-06
9.95097e-06
7.40975e-06
9.72982e-06
6.92206e-06
9.52335e-06
6.45402e-06
9.33057e-06
6.00326e-06
9.15069e-06
5.56771e-06
8.98312e-06
5.14554e-06
8.8274e-06
4.73518e-06
8.68315e-06
4.33521e-06
8.5501e-06
3.94441e-06
8.42801e-06
3.56165e-06
8.31669e-06
3.18592e-06
8.21596e-06
2.8163e-06
8.12568e-06
2.45193e-06
8.04573e-06
2.09206e-06
7.97601e-06
1.73595e-06
7.91646e-06
1.38291e-06
7.86699e-06
1.03229e-06
7.82755e-06
6.83434e-07
7.79809e-06
3.35839e-07
7.77672e-06
7.52139e-06
2.67413e-05
3.02563e-05
2.54873e-05
2.72309e-05
2.40843e-05
2.45992e-05
2.26239e-05
2.23546e-05
2.11729e-05
2.04652e-05
1.97738e-05
1.8885e-05
1.84507e-05
1.75644e-05
1.72152e-05
1.64575e-05
1.60701e-05
1.55241e-05
1.50129e-05
1.47301e-05
1.40383e-05
1.40479e-05
1.31392e-05
1.34554e-05
1.23082e-05
1.29351e-05
1.1538e-05
1.24735e-05
1.08216e-05
1.20598e-05
1.01526e-05
1.1686e-05
9.52548e-06
1.13455e-05
8.93503e-06
1.10336e-05
8.3768e-06
1.07464e-05
7.84688e-06
1.04809e-05
7.34186e-06
1.02348e-05
6.85874e-06
1.00064e-05
6.39494e-06
9.79435e-06
5.94817e-06
9.59745e-06
5.51643e-06
9.41485e-06
5.09795e-06
9.24585e-06
4.69118e-06
9.08988e-06
4.29476e-06
8.9465e-06
3.90745e-06
8.81531e-06
3.52815e-06
8.69599e-06
3.15584e-06
8.58826e-06
2.78962e-06
8.4919e-06
2.42863e-06
8.40671e-06
2.07212e-06
8.33253e-06
1.71937e-06
8.26924e-06
1.36968e-06
8.21672e-06
1.02239e-06
8.17487e-06
6.76864e-07
8.14363e-06
3.32587e-07
8.12099e-06
7.85397e-06
2.49464e-05
3.10298e-05
2.39368e-05
2.82406e-05
2.27768e-05
2.57592e-05
2.15403e-05
2.35911e-05
2.02845e-05
2.17211e-05
1.90495e-05
2.012e-05
1.7861e-05
1.8753e-05
1.67336e-05
1.75849e-05
1.56745e-05
1.65832e-05
1.46852e-05
1.57195e-05
1.37638e-05
1.49693e-05
1.29066e-05
1.43127e-05
1.21085e-05
1.37332e-05
1.13642e-05
1.32177e-05
1.06686e-05
1.27554e-05
1.00164e-05
1.23381e-05
9.40293e-06
1.1959e-05
8.82386e-06
1.16127e-05
8.27527e-06
1.1295e-05
7.75366e-06
1.10025e-05
7.25595e-06
1.07325e-05
6.7794e-06
1.0483e-05
6.32158e-06
1.02522e-05
5.88034e-06
1.00387e-05
5.45378e-06
9.84139e-06
5.04021e-06
9.65938e-06
4.63816e-06
9.49191e-06
4.24628e-06
9.33836e-06
3.86338e-06
9.1982e-06
3.48837e-06
9.07099e-06
3.12027e-06
8.95636e-06
2.75816e-06
8.85399e-06
2.40124e-06
8.76362e-06
2.04875e-06
8.68503e-06
1.69997e-06
8.61805e-06
1.35422e-06
8.56251e-06
1.01084e-06
8.51829e-06
6.69201e-07
8.48528e-06
3.28797e-07
8.46137e-06
8.18275e-06
2.32595e-05
3.1634e-05
2.24454e-05
2.90547e-05
2.14864e-05
2.67182e-05
2.04414e-05
2.46362e-05
1.93584e-05
2.2804e-05
1.82737e-05
2.12047e-05
1.72125e-05
1.98142e-05
1.6191e-05
1.86064e-05
1.52187e-05
1.75555e-05
1.43e-05
1.66382e-05
1.34358e-05
1.58335e-05
1.26248e-05
1.51237e-05
1.18641e-05
1.44939e-05
1.11503e-05
1.39314e-05
1.04796e-05
1.34262e-05
9.84795e-06
1.29698e-05
9.25163e-06
1.25553e-05
8.68704e-06
1.21773e-05
8.15084e-06
1.18312e-05
7.64001e-06
1.15133e-05
7.1518e-06
1.12207e-05
6.68375e-06
1.0951e-05
6.23364e-06
1.07023e-05
5.79946e-06
1.04728e-05
5.37947e-06
1.02614e-05
4.97206e-06
1.00668e-05
4.57584e-06
9.88811e-06
4.18953e-06
9.72465e-06
3.81198e-06
9.57574e-06
3.44212e-06
9.44084e-06
3.07902e-06
9.31946e-06
2.72178e-06
9.21121e-06
2.36963e-06
9.11577e-06
2.02182e-06
9.03286e-06
1.67766e-06
8.96225e-06
1.33646e-06
8.90375e-06
9.97584e-07
8.8572e-06
6.60409e-07
8.82247e-06
3.24453e-07
8.79731e-06
8.50719e-06
2.16678e-05
3.21048e-05
2.10118e-05
2.97107e-05
2.02199e-05
2.75101e-05
1.93387e-05
2.55174e-05
1.84081e-05
2.37346e-05
1.74599e-05
2.2153e-05
1.65176e-05
2.07565e-05
1.55979e-05
1.95261e-05
1.47114e-05
1.8442e-05
1.38644e-05
1.74852e-05
1.30597e-05
1.66382e-05
1.2298e-05
1.58854e-05
1.15783e-05
1.52136e-05
1.08985e-05
1.46112e-05
1.02561e-05
1.40686e-05
9.64834e-06
1.35776e-05
9.07225e-06
1.31314e-05
8.52495e-06
1.27246e-05
8.00371e-06
1.23524e-05
7.50597e-06
1.2011e-05
7.02936e-06
1.16973e-05
6.57168e-06
1.14087e-05
6.13095e-06
1.1143e-05
5.70536e-06
1.08984e-05
5.29329e-06
1.06734e-05
4.89329e-06
1.04667e-05
4.50403e-06
1.02773e-05
4.12433e-06
1.01044e-05
3.75306e-06
9.947e-06
3.38925e-06
9.80465e-06
3.03195e-06
9.67673e-06
2.68036e-06
9.56278e-06
2.33369e-06
9.46243e-06
1.99125e-06
9.37532e-06
1.65235e-06
9.3012e-06
1.31633e-06
9.23982e-06
9.82569e-07
9.191e-06
6.50458e-07
9.15458e-06
3.19539e-07
9.12821e-06
8.82671e-06
2.01592e-05
3.24684e-05
1.96327e-05
3.02371e-05
1.89808e-05
2.8162e-05
1.82402e-05
2.6258e-05
1.74436e-05
2.45312e-05
1.66186e-05