/*--------------------------------*- C++ -*----------------------------------*\
| =========                 |                                                 |
| \\      /  F ield         | OpenFOAM: The Open Source CFD Toolbox           |
|  \\    /   O peration     | Version:  3.0.1                                 |
|   \\  /    A nd           | Web:      www.OpenFOAM.org                      |
|    \\/     M anipulation  |                                                 |
\*---------------------------------------------------------------------------*/
FoamFile
{
    version     2.0;
    format      ascii;
    class       volVectorField;
    location    "4.1";
    object      ddt0(rho,U);
}
// * * * * * * * * * * * * * * * * * * * * * * * * * * * * * * * * * * * * * //

dimensions      [1 -2 -2 0 0 0 0];

internalField   nonuniform List<vector> 
7968
(
(0.45448976747 0.453673205043 -0.703927363883)
(1.39032188313 0.331482740351 -0.697442188906)
(2.35093754808 0.23551619481 -0.596121438149)
(3.04640958983 0.162685336225 -0.402911104984)
(3.42155108779 0.147813125902 -0.163741900311)
(3.26867059619 0.156663642837 0.00500711617616)
(2.91043725052 0.190423250504 0.113033984346)
(2.26968876234 0.254494913884 0.18805932753)
(1.422936388 0.328608039089 0.214748325259)
(0.485619096074 0.373556964558 0.215869248703)
(-0.479369827664 0.373744143886 0.215924024531)
(-1.41717871213 0.329151066898 0.214966993471)
(-2.26482114888 0.255333028242 0.188298615244)
(-2.90670528088 0.191382562642 0.113351472869)
(-3.26600867015 0.157555877509 0.00510144702918)
(-3.41983345914 0.149119908153 -0.163390571611)
(-3.04573707015 0.163958740012 -0.402905429548)
(-2.350819548 0.23686694985 -0.596336502992)
(-1.39017989908 0.332817634271 -0.697697646991)
(-0.454585520993 0.454903202802 -0.704071565003)
(0.332405376536 1.3882596002 -0.697285710304)
(1.371742492 1.36966561721 -1.20150815156)
(2.44272165084 1.34468553558 -1.28604351358)
(3.219651557 1.3311377212 -1.12639436015)
(3.60875273708 1.36748229303 -0.849593202576)
(3.47843819416 1.41692507416 -0.582267463449)
(3.08622191734 1.43042488423 -0.376295017337)
(2.39710769088 1.48077787016 -0.201405039259)
(1.500906235 1.53772963809 -0.0940271805378)
(0.511896413653 1.57334271491 -0.0492703428467)
(-0.503926388105 1.57357216915 -0.0491238236889)
(-1.49338257643 1.53845010416 -0.0934690208467)
(-2.39058903497 1.482051815 -0.200434419682)
(-3.08114340198 1.43220711951 -0.375227340404)
(-3.47460816866 1.41917557565 -0.581317880698)
(-3.60632936675 1.37051129972 -0.848604037244)
(-3.21857653001 1.33452345541 -1.12558736923)
(-2.44267222069 1.34833039628 -1.28558500705)
(-1.37201768372 1.37323421591 -1.20139218262)
(-0.332703515407 1.39139959944 -0.697306467686)
(0.236357411306 2.34708263048 -0.596039375707)
(1.34640094495 2.43925203512 -1.28586085825)
(2.463684153 2.46108534189 -1.36274051332)
(3.26476041364 2.46128651702 -1.16074179262)
(3.64909056977 2.48689046576 -0.850790249902)
(3.54441787306 2.50587723924 -0.556185418947)
(3.14297462018 2.47919549326 -0.329694655974)
(2.45549086985 2.50160627214 -0.146195163653)
(1.54925218157 2.53921118683 -0.0318133538579)
(0.531274174531 2.56678843452 0.0204409733791)
(-0.521626233077 2.56722484498 0.0206194816541)
(-1.54019253894 2.54043185601 -0.0311991616312)
(-2.44773414048 2.50370150844 -0.145137273313)
(-3.13681229496 2.48168162321 -0.328482057396)
(-3.53969288882 2.50906726601 -0.554711908506)
(-3.64599618194 2.49102498182 -0.849288491184)
(-3.26315015603 2.46595235229 -1.15949208836)
(-2.46325878556 2.46615607373 -1.36174477632)
(-1.34657320742 2.44430375581 -1.28529881881)
(-0.236609564676 2.35169206009 -0.595916457912)
(0.163418763149 3.04180931531 -0.403087351544)
(1.33259548879 3.2155452796 -1.12618308002)
(2.46330963784 3.2619867925 -1.16069659598)
(3.26408377602 3.26229072546 -0.930722486534)
(3.63774714533 3.26101043641 -0.615522624342)
(3.53940479022 3.23434539566 -0.336877556789)
(3.14308186308 3.15230409044 -0.133905276875)
(2.4642725972 3.13067502852 0.0377266053997)
(1.55947053193 3.14844997176 0.119088531266)
(0.536333394522 3.16535941476 0.165647208867)
(-0.524811439967 3.16578833118 0.165805757014)
(-1.54848301738 3.14990010675 0.119842334201)
(-2.45498217366 3.13297462927 0.0401759168005)
(-3.13594353269 3.15546523516 -0.132564801695)
(-3.53368322173 3.23840812184 -0.335579937491)
(-3.63370100498 3.2660707591 -0.614013468293)
(-3.26164450462 3.26789382086 -0.929149808099)
(-2.46227269827 3.26802258073 -1.15926260302)
(-1.33246439167 3.22158529339 -1.12521249156)
(-0.163566621425 3.04756382327 -0.402795688373)
(0.148813829576 3.41614131227 -0.163937906704)
(1.36911859006 3.60433069692 -0.849589394673)
(2.48906716676 3.64645841616 -0.850659862848)
(3.26260547071 3.63668070719 -0.615374720139)
(3.61649244996 3.61627058858 -0.319020528673)
(3.51768506307 3.57703874658 -0.0703875582424)
(3.1300595456 3.48911238331 0.113419107425)
(2.4737122053 3.45357595675 0.279440943979)
(1.57831506835 3.45999766844 0.406184530334)
(0.544868899161 3.47130971571 0.473739632814)
(-0.531694941215 3.47183277721 0.474044905009)
(-1.56584079712 3.46144878792 0.407151864706)
(-2.46292512211 3.45585865365 0.281084300868)
(-3.12146525685 3.49266580708 0.115204940692)
(-3.51089400993 3.58173900789 -0.0685879889068)
(-3.6117810337 3.62204664292 -0.316968430642)
(-3.25965680768 3.64286146694 -0.613695134985)
(-2.48751663803 3.65287396866 -0.848993363818)
(-1.3686796366 3.61074246956 -0.848169869576)
(-0.149040089528 3.42234743336 -0.163214961367)
(0.157585939959 3.26394901459 0.00379893531632)
(1.41896107188 3.47449072663 -0.582723090031)
(2.50873550311 3.54216542783 -0.556034720012)
(3.23672704185 3.53913011398 -0.3361937316)
(3.57756389437 3.51877857127 -0.0692326052945)
(3.47446340667 3.4756123036 0.175464018092)
(3.10712271827 3.38095656654 0.354257208954)
(2.46832345511 3.32540886263 0.531532539903)
(1.57926068403 3.31263243496 0.676695169874)
(0.544904959393 3.31469352735 0.746693248037)
(-0.530216700906 3.31516738175 0.747060441062)
(-1.56538699236 3.31424075012 0.677853466693)
(-2.45608804032 3.32787603547 0.533190571647)
(-3.09699583829 3.38442981415 0.356338280628)
(-3.46647025902 3.48024640013 0.177796577084)
(-3.57198983577 3.52450412694 -0.0668990942688)
(-3.23316783806 3.54527573471 -0.334261192796)
(-2.50671019227 3.54854782958 -0.554266404432)
(-1.41802018087 3.48079768059 -0.581256133298)
(-0.157529929184 3.27043035852 0.00434586152146)
(0.191688930499 2.9063539196 0.111814399912)
(1.43322189008 3.08252196047 -0.376902552531)
(2.48316905673 3.1404518102 -0.32953388108)
(3.15619895918 3.14195603749 -0.132240010437)
(3.49055566444 3.13008521366 0.116596414094)
(3.37994131177 3.10645936164 0.356057638412)
(3.02936843766 3.02731496932 0.52735635117)
(2.41891657545 2.96867574135 0.707041642766)
(1.55061835925 2.93633639325 0.891082520071)
(0.534205689884 2.92515731926 0.98447508036)
(-0.518108517603 2.925588791 0.984970303413)
(-1.53537880721 2.93755156723 0.892522050328)
(-2.40548419506 2.97067471984 0.709054057674)
(-3.01818281287 3.03035270843 0.529641343326)
(-3.37101700456 3.11057038061 0.358608537002)
(-3.48436773386 3.13538299618 0.11935540897)
(-3.15224735467 3.14763057502 -0.129991643999)
(-2.48095827037 3.14626200487 -0.327489505691)
(-1.43219989582 3.08838582415 -0.375133494319)
(-0.191719548746 2.91250726457 0.112768999339)
(0.255828340895 2.26686446468 0.186619542509)
(1.48381870241 2.39408233546 -0.202447476902)
(2.50587864865 2.45292143671 -0.146275013985)
(3.1351495476 2.4625156773 0.0372947476314)
(3.4550683067 2.47187513522 0.283510798251)
(3.3224202777 2.46472569283 0.533208614177)
(2.96923898185 2.41198616851 0.704154161329)
(2.36918651971 2.36078699458 0.872253031682)
(1.52647242813 2.35530418194 0.901276030161)
(0.528897145083 2.35987466459 0.913973389717)
(-0.511862630481 2.36004533552 0.914153466234)
(-1.51050807079 2.35599761645 0.901762551713)
(-2.35524650197 2.36248319731 0.872257578597)
(-2.95705759455 2.41409238716 0.706395107514)
(-3.31277239323 2.46761473097 0.535966073817)
(-3.44846456028 2.4756211419 0.286855129478)
(-3.13134269885 2.46662235425 0.0404407938749)
(-2.50376779874 2.45719512501 -0.144054127732)
(-1.48270942652 2.39864599738 -0.200513815149)
(-0.255884268263 2.27195917285 0.187864903799)
(0.329742691834 1.42195020793 0.213402889958)
(1.54078151104 1.49920121019 -0.0953742149105)
(2.54378100104 1.54700840793 -0.0318029067094)
(3.1527931147 1.55712958718 0.121994603877)
(3.46026345759 1.5752875259 0.411237577623)
(3.30702746506 1.57479442758 0.677852962296)
(2.9339733905 1.54387275434 0.884475850387)
(2.36303751189 1.51742427934 0.897654198892)
(1.53837637232 1.52778255605 0.914631115268)
(0.531921850228 1.54241545506 0.940952759577)
(-0.51499165697 1.54269772021 0.940873909849)
(-1.52191041217 1.52848710385 0.91488435077)
(-2.34850121872 1.51873533699 0.898300519345)
(-2.92174679279 1.54515732314 0.886492339089)
(-3.29735713599 1.57615083281 0.680297894748)
(-3.45365559307 1.57685131402 0.414296381393)
(-3.14906075283 1.55883812542 0.124678709053)
(-2.54186368012 1.54929546398 -0.029692444716)
(-1.5397229434 1.5019918334 -0.0935073542046)
(-0.32970250182 1.42532332816 0.21485459641)
(0.374465596197 0.486822509263 0.214660871219)
(1.57557931178 0.511841060051 -0.0505707207107)
(2.57012652074 0.529907144114 0.0202188883414)
(3.16856048607 0.533600789362 0.168686360028)
(3.47078852139 0.541351524734 0.478280128931)
(3.30784485415 0.540529938055 0.747703713684)
(2.92133017876 0.529025846479 0.978065122613)
(2.36618394882 0.522254771097 0.910136249904)
(1.55220648402 0.523136579244 0.939495802579)
(0.535155684747 0.52558118622 0.979317552372)
(-0.517577060861 0.526025340279 0.979575398145)
(-1.53563101727 0.524170536537 0.94032523114)
(-2.35203913367 0.523250658339 0.911481833541)
(-2.90965742207 0.529682835276 0.979871988581)
(-3.29879813859 0.540949967378 0.749525474613)
(-3.46466561405 0.541434935099 0.480609223546)
(-3.16504663734 0.533449121194 0.170985734233)
(-2.56826872557 0.53026162452 0.0220692478274)
(-1.574663116 0.512760406732 -0.0489781164235)
(-0.374256287287 0.488250782568 0.21623164407)
(0.374537725062 -0.475689212113 0.214596731331)
(1.57467260902 -0.501846222743 -0.0501730040246)
(2.56885708757 -0.521223570169 0.0201574103335)
(3.16739691061 -0.526023044183 0.168465691478)
(3.46904863354 -0.534252734307 0.478472122729)
(3.30634611683 -0.533961018623 0.74776903263)
(2.91949629895 -0.522888198979 0.977834632431)
(2.36425756116 -0.517743877135 0.909126533996)
(1.55080992499 -0.521991471426 0.937530121855)
(0.535014694112 -0.526164956239 0.977319320147)
(-0.516832530482 -0.5261743466 0.977800830339)
(-1.53401177084 -0.521835092257 0.939216691861)
(-2.35039536546 -0.517829930169 0.911079588682)
(-2.90825069849 -0.523103742607 0.979703262952)
(-3.29755727437 -0.534250234367 0.749523453547)
(-3.46381019118 -0.535081037047 0.480558455374)
(-3.16435341212 -0.527341224145 0.170565025408)
(-2.5673226035 -0.522431910185 0.0217053291733)
(-1.57397708706 -0.50262178861 -0.0490803127209)
(-0.374214152666 -0.47607908779 0.216030923388)
(0.329889618537 -1.41044201799 0.213337439794)
(1.53830067184 -1.48862065081 -0.0943360596315)
(2.54055646787 -1.53787608644 -0.0314486606226)
(3.14912163456 -1.54865612878 0.122163550695)
(3.45650175586 -1.56759885409 0.412331048099)
(3.30263059231 -1.56698388389 0.678737289218)
(2.92940824765 -1.53602366506 0.884854569746)
(2.35824158939 -1.51062825838 0.896159505086)
(1.53506116075 -1.52267628033 0.912146684975)
(0.531265703629 -1.53843190639 0.938499144573)
(-0.5135225939 -1.53869899262 0.93888864872)
(-1.51844818642 -1.52341093585 0.913533214358)
(-2.34440796905 -1.51193672116 0.897748101122)
(-2.91795723531 -1.53710670691 0.886555545125)
(-3.29433957082 -1.56824456555 0.680783910934)
(-3.45157966418 -1.56944052166 0.414613537888)
(-3.14682209657 -1.55129030542 0.123607446383)
(-2.53940196166 -1.54031549497 -0.0304244831768)
(-1.53767283769 -1.49071280008 -0.0936442077933)
(-0.329551446129 -1.4122556677 0.214503167496)
(0.255719285881 -2.25463281025 0.186828816259)
(1.48055480895 -2.38299877475 -0.201003559566)
(2.50152367499 -2.44349313298 -0.145403509773)
(3.12998615 -2.45441671556 0.0409911041583)
(3.44889525484 -2.46426887921 0.285343564087)
(3.3164097737 -2.45676097739 0.535125707244)
(2.96216564443 -2.40329429134 0.705742850717)
(2.3624450497 -2.35311873415 0.87059213398)
(1.52210208964 -2.34862855694 0.899337979203)
(0.527670174382 -2.35453407406 0.912547942863)
(-0.510816789582 -2.35476892339 0.912759300158)
(-1.50645453221 -2.34993032337 0.900056945513)
(-2.34880895639 -2.35504816748 0.870759402161)
(-2.95096138791 -2.40517553887 0.707494157338)
(-3.30823079219 -2.45865929023 0.537394078542)
(-3.44499488607 -2.46690529912 0.287556537382)
(-3.12807926433 -2.4573910949 0.0403798335708)
(-2.50033169131 -2.44658786568 -0.144868894731)
(-1.47982113312 -2.38579670118 -0.200617517378)
(-0.255414910934 -2.25727147905 0.187583940295)
(0.191210961613 -2.89324099071 0.112432112466)
(1.42938892092 -3.0706850304 -0.375257709218)
(2.47757681955 -3.13065461468 -0.328617358004)
(3.14965716979 -3.13379233101 -0.132005914821)
(3.48404220254 -3.12245411498 0.117762311546)
(3.3728715348 -3.09812749266 0.358012944906)
(3.02148127322 -3.01883920748 0.529972245733)
(2.41023548123 -2.9597237038 0.707190788229)
(1.54477994387 -2.92835276543 0.888643980318)
(0.532191176413 -2.91811590829 0.981137747124)
(-0.516850787506 -2.91881776409 0.981540592042)
(-1.53020498997 -2.9297823961 0.889310441926)
(-2.39704601371 -2.96218668086 0.708190307978)
(-3.0101308536 -3.02127419792 0.531697514327)
(-3.365078617 -3.10126577585 0.360737516236)
(-3.47989628094 -3.12584687514 0.12056041314)
(-3.14818211717 -3.13719730569 -0.130433262181)
(-2.47667642874 -3.13407063339 -0.328076955667)
(-1.42866491459 -3.07390542682 -0.374927124629)
(-0.190960650652 -2.89629064994 0.11297183783)
(0.15683709299 -3.25000988699 0.00533643675015)
(1.41503112227 -3.46209042928 -0.580816289704)
(2.50258444663 -3.53141314701 -0.554657236779)
(3.22963850071 -3.52968195343 -0.335649952139)
(3.5703974644 -3.51022461346 -0.068026715019)
(3.46713355544 -3.46723613831 0.177778465298)
(3.09884223932 -3.37240854213 0.357166731346)
(2.46018070414 -3.31703095421 0.533556082359)
(1.57290695021 -3.30397767676 0.67701695017)
(0.542320898725 -3.30708407266 0.745802405966)
(-0.528517020138 -3.30756433907 0.74588889066)
(-1.55971058822 -3.30618530852 0.677354757679)
(-2.4474587659 -3.31971181396 0.534077294137)
(-3.08836361796 -3.37623044205 0.358912021113)
(-3.45944080022 -3.47129020212 0.180138937971)
(-3.56640658349 -3.51495983562 -0.0655358985431)
(-3.22787579875 -3.53407957649 -0.334275803314)
(-2.50167617714 -3.53547679212 -0.554233158898)
(-1.41409236945 -3.46547306312 -0.580510830965)
(-0.156552476183 -3.25323851156 0.00573472139173)
(0.147615853927 -3.40275442903 -0.162154957909)
(1.36509989713 -3.59225487218 -0.847155035751)
(2.48281388552 -3.63594170118 -0.848728650521)
(3.25484759561 -3.62718345363 -0.614188280018)
(3.60858750749 -3.60824306825 -0.317444968868)
(3.50975183317 -3.56987606041 -0.0684966575996)
(3.12217178986 -3.48309410172 0.116270029942)
(2.46575410263 -3.44768825636 0.282091107567)
(1.57218128658 -3.45507010962 0.408275026805)
(0.541969754442 -3.46670113687 0.474397953995)
(-0.530081234326 -3.46753482857 0.474338675441)
(-1.56037920152 -3.456726909 0.407899822197)
(-2.45448120247 -3.45115836111 0.282128358597)
(-3.11211871995 -3.48700603857 0.117394783491)
(-3.50275460576 -3.57467837438 -0.0666150746576)
(-3.60457580372 -3.61323864859 -0.315739151856)
(-3.25300646187 -3.63190543669 -0.613348048015)
(-2.48148878289 -3.63979985022 -0.848384945625)
(-1.36396125921 -3.59548229764 -0.846969630655)
(-0.147176225657 -3.40570694889 -0.161922299267)
(0.161967114677 -3.02914789701 -0.400203042438)
(1.32818797589 -3.20462219394 -1.12333363073)
(2.45648850165 -3.25233272636 -1.15809941609)
(3.25529517465 -3.25359696914 -0.928862653749)
(3.62796029134 -3.25341397983 -0.614411683737)
(3.52973145334 -3.22800099042 -0.336266294788)
(3.13366625943 -3.14738737366 -0.133391854007)
(2.4558034866 -3.12707643929 0.0373449121667)
(1.55285282963 -3.14537628427 0.118490027857)
(0.533353415319 -3.16288164901 0.16444449446)
(-0.522869393742 -3.16319523366 0.164225935904)
(-1.54257866803 -3.14704517781 0.117968010648)
(-2.44556722142 -3.12944626466 0.0364641751569)
(-3.12473132351 -3.15103708835 -0.133143634293)
(-3.52306912591 -3.23218954796 -0.335540164585)
(-3.62400514184 -3.25800441414 -0.613765858795)
(-3.25290840234 -3.25753654972 -0.928504791608)
(-2.45485553135 -3.25563189684 -1.15804998636)
(-1.32682253587 -3.20728361531 -1.12317725249)
(-0.161501749869 -3.03169524435 -0.399941163314)
(0.234615235837 -2.33685831349 -0.592245703369)
(1.34156248119 -2.43041662736 -1.28229205355)
(2.45641971991 -2.45334120164 -1.35949536726)
(3.25522575802 -2.45417693728 -1.15808010907)
(3.63824701211 -2.48049537032 -0.848909521435)
(3.53324443753 -2.49994473185 -0.555189539526)
(3.13248337348 -2.47435901255 -0.329786781164)
(2.44639891054 -2.49746335453 -0.147348824524)
(1.54291746601 -2.53585493289 -0.0340729188371)
(0.529023543825 -2.56328892309 0.0171184296082)
(-0.518941240323 -2.56371582203 0.017019785747)
(-1.53302238882 -2.53668185337 -0.0345306331324)
(-2.43704617282 -2.4990646628 -0.147827626939)
(-3.1242781642 -2.47658906374 -0.32994611534)
(-3.52711779062 -2.50275333888 -0.555157865535)
(-3.63406980582 -2.48330598777 -0.848749707262)
(-3.25265637491 -2.45667957334 -1.15809784851)
(-2.45459744118 -2.45535687855 -1.35956738098)
(-1.34020426468 -2.43214523548 -1.28224835632)
(-0.234149881852 -2.33867744899 -0.59204361196)
(0.330394450864 -1.38107662692 -0.692757144359)
(1.36632067189 -1.36333680362 -1.19742919707)
(2.43477755966 -1.33907035126 -1.28228101422)
(3.20937866959 -1.32600510222 -1.1230931838)
(3.59688505738 -1.3627095646 -0.847059072325)
(3.46656296602 -1.4122690785 -0.580819630373)
(3.07522252796 -1.42617110116 -0.375628150685)
(2.38815937488 -1.47684812127 -0.201887520954)
(1.49529499735 -1.53402118557 -0.0956867375052)
(0.510652426169 -1.56968166852 -0.0517168948829)
(-0.500437433944 -1.56986752877 -0.0518856473523)
(-1.48543550527 -1.53461190807 -0.0959680917368)
(-2.3790053072 -1.47770332495 -0.202161936233)
(-3.06751898418 -1.42738111185 -0.37570328423)
(-3.46060915182 -1.41362620735 -0.580744913787)
(-3.59285267362 -1.36412181521 -0.846993160014)
(-3.20679341973 -1.32718126186 -1.12300815344)
(-2.43312435191 -1.34012331744 -1.28231787336)
(-1.36514789274 -1.36434721076 -1.19748820714)
(-0.329996157308 -1.38239661731 -0.692685901393)
(0.452635706109 -0.451074176755 -0.69879943545)
(1.38457180931 -0.329125776927 -0.692552364387)
(2.34218091532 -0.233397036828 -0.591821816276)
(3.03525327045 -0.160758710825 -0.399362259455)
(3.40881328735 -0.146180021448 -0.161042008885)
(3.25627913249 -0.155102566414 0.00649080727674)
(2.89944823511 -0.189139697456 0.113760985695)
(2.26113906432 -0.253333786294 0.188049137352)
(1.41801482785 -0.327271583279 0.214298518993)
(0.485082110428 -0.371952482154 0.215229350047)
(-0.475258327881 -0.372007929229 0.215193558279)
(-1.40857778766 -0.327438951222 0.214318310603)
(-2.2525682363 -0.253600837711 0.188266609664)
(-2.89234883136 -0.189556182999 0.114168317504)
(-3.25099632756 -0.155457962433 0.00690634190018)
(-3.4053169241 -0.146539708355 -0.160719670564)
(-3.03311651719 -0.161064574142 -0.399094180211)
(-2.34092834234 -0.233631178963 -0.591845523859)
(-1.38364047375 -0.329346710464 -0.692719689234)
(-0.452259002656 -0.451464260635 -0.698927197928)
(0.687618380329 0.686964124163 -2.89115973751)
(1.97675534229 0.891951991676 -2.90697037759)
(2.96207316018 1.01518992721 -2.58924317927)
(3.57522376263 1.09727058339 -2.07872765126)
(3.79170876372 1.15477424577 -1.48450257553)
(3.5820361958 1.16455343331 -0.997533502378)
(3.11572649958 1.16484857018 -0.644531616628)
(2.3968730131 1.17407560848 -0.388924234444)
(1.48973297809 1.19889581855 -0.260918982335)
(0.505598115091 1.21877788222 -0.223899096286)
(-0.498236802597 1.21883668663 -0.223600081343)
(-1.48288216932 1.1991399768 -0.260051676665)
(-2.3909708548 1.17448815898 -0.387822209402)
(-3.11116594818 1.16542369941 -0.643258173526)
(-3.5788124204 1.16528843945 -0.99655479956)
(-3.78966124336 1.15591215229 -1.48387734799)
(-3.57429486686 1.09861702866 -2.07861583036)
(-2.96192354417 1.01665745085 -2.58984879939)
(-1.97683642056 0.893313318011 -2.90812001148)
(-0.68776549523 0.688145299949 -2.89237542993)
(0.893073433677 1.97458378019 -2.90653256997)
(2.25717878886 2.25448295283 -3.24724352102)
(3.12582604089 2.42248165048 -2.98270714921)
(3.636298274 2.56800162788 -2.46693187592)
(3.7740862501 2.68927547114 -1.86493239329)
(3.56530316166 2.7655568512 -1.32114957644)
(3.09188800375 2.81541394276 -0.880857005582)
(2.37930566962 2.87647790284 -0.541362087743)
(1.49161606556 2.93818474 -0.326382187199)
(0.509707803575 2.97892984398 -0.229686973586)
(-0.503728174244 2.97916357353 -0.22941492468)
(-1.48607435345 2.93881459322 -0.325331127267)
(-2.37478731813 2.8778342253 -0.539681363929)
(-3.08860490478 2.81703659707 -0.878856089234)
(-3.56316265624 2.76777580967 -1.31920633843)
(-3.77296760596 2.6923607818 -1.86301067059)
(-3.63623574606 2.57181578888 -2.46528366743)
(-3.12646611877 2.42660235546 -2.98187512831)
(-2.25791931463 2.25836281131 -3.2473521768)
(-0.893478578289 1.97775865532 -2.90730044462)
(1.01614093127 2.95825698705 -2.58875581758)
(2.42487081455 3.12180562861 -2.9825504476)
(3.2827694338 3.27920982559 -2.63902108268)
(3.74653882211 3.4307237598 -2.05165473659)
(3.84252379356 3.56326043857 -1.40013008094)
(3.62161242221 3.6557828421 -0.805649974427)
(3.13889677725 3.72319605278 -0.316314103221)
(2.42193479981 3.80054728217 0.0665360783601)
(1.52767409036 3.85252392411 0.338367202179)
(0.52526723579 3.89255732622 0.473672813234)
(-0.519459626845 3.89289101309 0.474043637417)
(-1.52219667067 3.85396299087 0.339410059505)
(-2.41773876128 3.80400258788 0.0679590598213)
(-3.13625873637 3.72636913716 -0.314218849666)
(-3.61989745693 3.65974656081 -0.803080275666)
(-3.84170374446 3.56827653675 -1.39737443356)
(-3.74668217903 3.43662675775 -2.04916438038)
(-3.28350287195 3.28543083781 -2.63709030875)
(-2.42567760107 3.12765940357 -2.98155418033)
(-1.01653449483 2.96314644067 -2.5888896243)
(1.09803348748 3.57067190177 -2.07844560947)
(2.57010250094 3.63167932703 -2.46679602122)
(3.43384280333 3.74255194866 -2.05159950458)
(3.85775428147 3.85454088316 -1.41884460633)
(3.90908461874 3.93819592326 -0.753760535894)
(3.66428251697 3.98253570903 -0.172103475677)
(3.17693021476 4.00824199489 0.299788664654)
(2.44334807773 4.03514072235 0.665383400973)
(1.53333246529 4.06927634294 0.973098162312)
(0.531920712146 4.09356401359 1.12943963049)
(-0.525268519231 4.09416110295 1.1296787542)
(-1.52593405756 4.07097299955 0.973635744698)
(-2.43854540452 4.03802210011 0.665183083576)
(-3.17486789875 4.01233041026 0.301538643324)
(-3.66212950562 3.98794244177 -0.169726813187)
(-3.90775562029 3.94484636468 -0.750899077629)
(-3.85733702946 3.86207715774 -1.41574387048)
(-3.43414845478 3.75042803685 -2.04877283642)
(-2.57054837324 3.63900148852 -2.46478674957)
(-1.0982287431 3.57694531936 -2.07778050577)
(1.15564043595 3.78670606123 -1.48510364926)
(2.69159912797 3.7694358542 -1.86523297092)
(3.56652065064 3.8387908103 -1.39986588379)
(3.94126417703 3.90674630803 -0.753205531203)
(3.93498115805 3.93361271853 -0.129048448129)
(3.6580758656 3.93780560311 0.396287971764)
(3.15668329948 3.9242974131 0.815237342675)
(2.44653047816 3.9093662239 1.1534430807)
(1.55718006099 3.93362805264 1.43396772943)
(0.539239760547 3.9463240295 1.58876469429)
(-0.531197755169 3.94705085504 1.58918718979)
(-1.54952601153 3.93556097778 1.43537713002)
(-2.44038940821 3.91151269574 1.15534594322)
(-3.15221905937 3.92922559346 0.817868345838)
(-3.65466089069 3.94455562908 0.399336184251)
(-3.93268772064 3.94165691548 -0.125782593147)
(-3.94001746658 3.91551030372 -0.749723298417)
(-3.56613270005 3.84768045618 -1.39646634978)
(-2.69150619945 3.77762849883 -1.86245376635)
(-1.15560656395 3.79364110869 -1.48359697029)
(1.16582410618 3.5771653338 -0.99917433494)
(2.76877633402 3.56097768491 -1.32184987013)
(3.66012879509 3.61825378701 -0.804754983523)
(3.98664787584 3.66254243809 -0.169319512491)
(3.93952953336 3.65830062006 0.399642037223)
(3.64612410679 3.64672268465 0.848306747074)
(3.148503388 3.6226383429 1.21464945551)
(2.45207129834 3.60065315197 1.53119674088)
(1.56761375739 3.602823258 1.79355920635)
(0.542954629903 3.60714704845 1.93565088162)
(-0.532889946581 3.60807209292 1.93628602829)
(-1.5583390042 3.60533837837 1.7954999629)
(-2.44415727122 3.60441539911 1.53389118251)
(-3.14201569201 3.6284069386 1.21810919491)
(-3.6411486096 3.65422918819 0.852452126421)
(-3.93623805209 3.66718916941 0.403999460195)
(-3.984675604 3.67203352738 -0.165292499761)
(-3.65910896527 3.62758752408 -0.800799822836)
(-2.76815191715 3.5694505311 -1.31847214488)
(-1.16557833873 3.58431544041 -0.996936328027)
(1.16660831176 3.11113220799 -0.647068956888)
(2.81973226343 3.08763773376 -0.881765391463)
(3.72869917329 3.13490601875 -0.314411339481)
(4.01405069254 3.17206664508 0.306492299869)
(3.92749485578 3.15556531956 0.823449968613)
(3.62245353775 3.14759803146 1.21907414828)
(3.12194032905 3.11939579636 1.52245507496)
(2.43914899128 3.09697506431 1.78373254836)
(1.56804157082 3.10909994657 2.02528675649)
(0.544217003016 3.12581716894 2.15617564658)
(-0.531846472734 3.126748256 2.15710405866)
(-1.55685345683 3.11176341139 2.02785631729)
(-2.42937678964 3.10086629864 1.78672986473)
(-3.11357402274 3.12519956192 1.5262930154)
(-3.61606891934 3.15531399801 1.22378010304)
(-3.92312172839 3.16466608245 0.828711689606)
(-4.01158516185 3.18202580128 0.31127447951)
(-3.72749789662 3.14407398482 -0.309875095609)
(-2.81884239484 3.09560864621 -0.877634377132)
(-1.16625377206 3.11773684882 -0.643895085376)
(1.17619494836 2.39314165681 -0.392461451354)
(2.88103240272 2.37542680349 -0.542863690282)
(3.80431144589 2.41797045125 0.0691348348162)
(4.04195690852 2.44006775598 0.677560990417)
(3.91522752295 2.4436006115 1.16511509051)
(3.59919425177 2.44792725647 1.53647383338)
(3.09829185264 2.43146578016 1.77934055664)
(2.4338682964 2.42416781778 2.05777623911)
(1.58798745179 2.46452837654 2.33363834353)
(0.555880175062 2.49786228449 2.50336639309)
(-0.541571746144 2.49859664382 2.50451125386)
(-1.57519218952 2.46659548886 2.33650462116)
(-2.42237689691 2.42776977608 2.0605874507)
(-3.08812997203 2.43685057426 1.78354611461)
(-3.5912814229 2.45499657606 1.54229245562)
(-3.90964997215 2.45170344908 1.17177503261)
(-4.03939670645 2.4484313125 0.682798607104)
(-3.80372507776 2.42580971184 0.0742191209102)
(-2.8804666442 2.3821523297 -0.538324468429)
(-1.17589353529 2.39835047551 -0.388497100229)
(1.2010544337 1.48801780459 -0.264889651845)
(2.94287192798 1.48873021148 -0.328722564957)
(3.85896384328 1.52432541191 0.33968358752)
(4.07607210534 1.53228415286 0.981996795283)
(3.93635047761 1.55257739256 1.44579637696)
(3.5984306435 1.56126286854 1.79847743646)
(3.1067553628 1.55878994808 2.01570714016)
(2.47262414524 1.5763187244 2.32262292827)
(1.62921027449 1.61670019687 2.67051968605)
(0.571791316636 1.64242889221 2.88556000623)
(-0.556427956965 1.64303119942 2.88616271688)
(-1.61494737021 1.61856164398 2.67255553077)
(-2.45979568335 1.57975699431 2.32551565315)
(-3.09551139432 1.5632008187 2.02011003307)
(-3.58989785055 1.56685031299 1.80479933357)
(-3.93094129721 1.55859455951 1.45290269692)
(-4.07358871492 1.53808286388 0.988409009339)
(-3.85823532668 1.5300797697 0.345107099949)
(-2.94257966998 1.4934495949 -0.324027041812)
(-1.20094694675 1.49122693386 -0.260616838044)
(1.22047882692 0.506583979904 -0.227687693565)
(2.98277984171 0.508473828602 -0.232328489524)
(3.89836516309 0.522180868801 0.473784136217)
(4.09896276684 0.527728388899 1.13573248952)
(3.94665541149 0.532767918897 1.59771189623)
(3.60098589744 0.535193546984 1.93889865478)
(3.12155571549 0.534906279769 2.14414071168)
(2.50445068189 0.545275562937 2.48926354006)
(1.65420780073 0.559726709187 2.87999831248)
(0.579916088508 0.567374387048 3.11810730785)
(-0.563280526627 0.568021321258 3.11912785446)
(-1.638833439 0.561556887049 2.88284708465)
(-2.49097881413 0.548117317519 2.49326749807)
(-3.11001017911 0.538282297805 2.14845317693)
(-3.59203462776 0.53927848364 1.94456896748)
(-3.9412200579 0.536970802576 1.603987772)
(-4.09653282097 0.531765831673 1.14195444482)
(-3.89790647237 0.525754407919 0.479035264123)
(-2.98292412455 0.51098998133 -0.227966857727)
(-1.22059136821 0.507658532977 -0.223550994014)
(1.21998518311 -0.494084623267 -0.227026491072)
(2.98122992876 -0.502546413216 -0.231692706849)
(3.89665148979 -0.521142322466 0.473424955784)
(4.09681944734 -0.529712207874 1.13469927659)
(3.94504644257 -0.537204592482 1.59659720213)
(3.59949759339 -0.540382614049 1.93771959401)
(3.12029939226 -0.540219090477 2.14292413565)
(2.50311898163 -0.551117576805 2.48714808041)
(1.65345530051 -0.567007799644 2.87607540216)
(0.580016114982 -0.574977410391 3.11364188246)
(-0.562400468443 -0.574664323425 3.11499725564)
(-1.63716838907 -0.565959111827 2.87997677383)
(-2.489139299 -0.549377664505 2.49213729849)
(-3.10840788613 -0.537809938783 2.1474152066)
(-3.59048700078 -0.537639819275 1.94373871588)
(-3.94008878534 -0.534697754566 1.60293185594)
(-4.09497549949 -0.528309988438 1.14069908682)
(-3.89649390687 -0.519892070968 0.478245051999)
(-2.98181984296 -0.502176211734 -0.228167091797)
(-1.22031332023 -0.49494390753 -0.223625342149)
(1.19963423041 -1.47526686302 -0.262987202582)
(2.93904220394 -1.4821267865 -0.326920661445)
(3.85456898609 -1.52171554307 0.339374918811)
(4.07098079869 -1.52980144713 0.978870926525)
(3.93086819612 -1.55468338166 1.44350566723)
(3.59448689445 -1.56449016362 1.79672050605)
(3.10318499177 -1.5618239407 2.01370026035)
(2.46936949744 -1.57981466587 2.31895083059)
(1.62733070342 -1.62046658931 2.66361097548)