/*--------------------------------*- C++ -*----------------------------------*\
| =========                 |                                                 |
| \\      /  F ield         | OpenFOAM: The Open Source CFD Toolbox           |
|  \\    /   O peration     | Version:  3.0.1                                 |
|   \\  /    A nd           | Web:      www.OpenFOAM.org                      |
|    \\/     M anipulation  |                                                 |
\*---------------------------------------------------------------------------*/
FoamFile
{
    version     2.0;
    format      ascii;
    class       volScalarField;
    location    "4.1";
    object      epsilon;
}
// * * * * * * * * * * * * * * * * * * * * * * * * * * * * * * * * * * * * * //

dimensions      [0 2 -3 0 0 0 0];

internalField   nonuniform List<scalar> 
7968
(
0.00037855065659
0.000459013379826
0.000523397849148
0.000561691688763
0.000579559030567
0.00058380272214
0.000580524727423
0.000573308021344
0.000565694124772
0.000559878523246
0.000559875043808
0.000565687819154
0.000573305305447
0.000580531313082
0.000583822709658
0.000579593874464
0.000561734427185
0.000523441180731
0.000459053146894
0.000378570652863
0.000458995941885
0.000805844921257
0.00106223705464
0.00121369184606
0.00128508921178
0.00130291385036
0.00129151448669
0.00126772384208
0.00124582359791
0.00123317060638
0.00123313632342
0.00124573530878
0.00126760122725
0.0012913881474
0.00130282577563
0.00128507018315
0.00121373804261
0.00106231814207
0.000805927287263
0.00045903152488
0.000523355771957
0.00106218401354
0.00146400976075
0.00170577418905
0.00182456822206
0.00185908007745
0.00184576115758
0.00181304616187
0.00178290916399
0.00176601675364
0.00176594944213
0.00178272881067
0.00181277596189
0.00184545341888
0.00185881553267
0.0018244112279
0.00170573252713
0.00146404717558
0.00106225325233
0.000523394362474
0.000561615740009
0.00121358093983
0.00170573024993
0.00200211417415
0.0021451499124
0.00218178108018
0.00215939861854
0.00211498515702
0.00207689642142
0.00205676794291
0.0020566738613
0.00207663213764
0.00211455829206
0.00215889151027
0.00218130819921
0.00214480654585
0.00200192632404
0.00170566714615
0.00121359528338
0.000561649202851
0.000579452863951
0.00128497377743
0.00182458095789
0.00214525703816
0.00228898680117
0.00231291754794
0.00231220623589
0.00229604525177
0.00227247784861
0.00225669967887
0.0022566255094
0.00227227422539
0.00229573117581
0.00231181107807
0.00231231010458
0.00228846697656
0.00214490375256
0.00182438756213
0.00128490315499
0.000579468974027
0.000583688674757
0.00130289750838
0.00185932166034
0.0021822591639
0.0023133657722
0.00238645522486
0.00241266486808
0.00240224962405
0.00237844420563
0.00236100932732
0.00236093999175
0.00237825439182
0.00240195945558
0.00241230713258
0.00238602368605
0.00231276142023
0.00218177841997
0.00185901564013
0.00130274654341
0.000583680603963
0.000580415803761
0.001291653775
0.00184634947639
0.00216044156231
0.00231286741296
0.00241303977459
0.00244422706409
0.00242940919902
0.00239914181174
0.00237711409914
0.00237705167313
0.00239897179577
0.00242915066991
0.00244391341901
0.00241269376662
0.00231248047643
0.00215994679708
0.00184600401419
0.00129145483494
0.000580382780581
0.000573205449918
0.00126799427484
0.00181391183273
0.00211649568201
0.00229706659188
0.0024029981497
0.00242976717125
0.00240563560996
0.00236570415404
0.00233702630644
0.00233697512547
0.00236556963455
0.00240544220378
0.00242954892735
0.00240276960342
0.00229681742257
0.00211615286733
0.00181364548487
0.00126781183089
0.000573157681107
0.000565578839076
0.00124610992809
0.00178381567544
0.00207844352724
0.00227365045763
0.00237939675063
0.00239968965463
0.00236586461166
0.00231465705941
0.00227779125663
0.00227776211492
0.00231459276477
0.00236579293112
0.00239963462682
0.0023793596371
0.00227361701791
0.00207839647728
0.00178374068866
0.00124601399314
0.000565532272775
0.000559740325411
0.00123336446986
0.00176674996768
0.00205804586303
0.00225776965663
0.00236194158413
0.0023776796639
0.00233721018356
0.00227781232099
0.0022340710596
0.00223409010814
0.00227787025616
0.00233731697809
0.00237784304977
0.00236215064126
0.00225800714231
0.00205835334399
0.00176693697282
0.00123340836754
0.000559714768823
0.000559762934141
0.00123323231677
0.00176645417024
0.0020576277439
0.00225748204825
0.00236172606068
0.00237755217765
0.00233718344904
0.00227788135786
0.00223422863067
0.00223431087107
0.00227809112149
0.00233749729393
0.00237796008816
0.00236220141946
0.0022580023417
0.00205828290375
0.00176690545261
0.00123342773381
0.00055977381847
0.000565609293212
0.00124577778521
0.00178305597878
0.00207732240739
0.00227292343952
0.00237888437642
0.00239942789706
0.00236587665359
0.00231493225502
0.00227829148946
0.00227839516517
0.00231520493982
0.00236629585688
0.00239997886626
0.00237952495836
0.00227362648241
0.0020782190748
0.0017836676348
0.00124606476779
0.000565639160794
0.000573249428576
0.00126759554112
0.00181293136658
0.00211495279885
0.00229612870477
0.00240238948086
0.00242953289358
0.00240579740971
0.00236624014479
0.00233785987681
0.0023379613603
0.0023665139403
0.00240623238652
0.00243011756023
0.00240307285689
0.00229688096695
0.00211593302712
0.00181356891181
0.00126789404853
0.000573279207753
0.000580488550365
0.00129133498988
0.0018454378704
0.0021589422472
0.00231191776486
0.00241248499608
0.00244411533854
0.00242976654489
0.00239992183923
0.00237820659877
0.00237829754195
0.00240017190793
0.0024301686914
0.00244465031995
0.00241310571893
0.00231259108421
0.0021597571925
0.00184595492433
0.00129156591227
0.000580501508531
0.000583794415482
0.00130276201019
0.00185870131484
0.00218111983063
0.00231207453072
0.00238593514059
0.0024126729981
0.00240274702811
0.00237936990704
0.00236223725848
0.00236231667793
0.00237958796334
0.00240309123447
0.0024131195969
0.00238645712638
0.00231272998755
0.00218162212303
0.00185899993419
0.00130287752415
0.000583784833982
0.000579581294621
0.00128504772832
0.00182432042599
0.00214459599132
0.00228811279936
0.00231229854998
0.00231227511283
0.00229660348292
0.00227344112869
0.00225793894891
0.00225801129662
0.00227363526446
0.00229689434681
0.00231262923978
0.00231271403727
0.00228843187706
0.0021447879543
0.00182440612135
0.00128505207201
0.000579553780276
0.000561733572613
0.00121379791173
0.00170576567502
0.00200188189358
0.00214474064043
0.00218147340265
0.00215949451138
0.00211560048245
0.00207794229854
0.00205809154576
0.00205816633054
0.00207813668276
0.00211587146479
0.00215977771866
0.00218169595079
0.00214485280196
0.00200190435073
0.00170573305395
0.00121374177555
0.000561700554375
0.00052344471499
0.00106244405183
0.00146420355154
0.00170581636604
0.001824491631
0.00185903406007
0.00184592494634
0.00181351489318
0.00178366301756
0.00176698457259
0.0017670603388
0.00178384690666
0.00181374545386
0.0018461388022
0.00185917906348
0.00182454439574
0.00170579661356
0.00146414564607
0.00106238267408
0.000523416378827
0.000459052412676
0.000806047762372
0.0010624375783
0.00121382965579
0.0012851632549
0.00130298908779
0.00129167556806
0.00126803548932
0.00124628974966
0.00123376270685
0.00123382193045
0.00124643039287
0.0012682084299
0.00129183195234
0.00130309482032
0.00128520826705
0.00121381926931
0.00106239933464
0.000806008920121
0.000459033239981
0.000378568818118
0.000459076133917
0.00052347746912
0.000561771616491
0.000579631344383
0.000583869205895
0.000580596910434
0.000573402561388
0.000565816723694
0.000560032629043
0.000560060250856
0.000565873488562
0.000573465458146
0.000580648765319
0.000583900273309
0.000579642347003
0.000561764159439
0.000523463316332
0.000459064365393
0.00037855941344
0.000446301908159
0.000711717969543
0.000931535635341
0.00107840415729
0.00116334401045
0.00120285619473
0.0012129624028
0.00120696897805
0.00119645457778
0.0011889721891
0.00118895373216
0.00119641001177
0.0012069129186
0.00121291203204
0.00120283135419
0.00116335687688
0.00107844684578
0.000931591999748
0.000711771930594
0.000446326897244
0.000711674245397
0.000874638816911
0.00106656091213
0.00120412741902
0.00128917663718
0.00133377863796
0.00135112486839
0.001352782615
0.00134851044193
0.00134471297079
0.00134469234068
0.00134845667608
0.00135270748494
0.00135104536822
0.00133371704292
0.00128914999076
0.00120413653808
0.00106659498237
0.000874682693086
0.000711714990695
0.00093144738179
0.00106652381168
0.00127175330225
0.00142495967432
0.00152232314033
0.00157460976253
0.00159564075805
0.00159834865726
0.00159387880762
0.00158970559785
0.00158968058765
0.00159381107802
0.00159824754974
0.00159552519658
0.00157450645452
0.00152225367708
0.00142492924349
0.00127175421291
0.00106654369982
0.000931479081254
0.0010782661412
0.00120406439843
0.00142493806018
0.00159332647018
0.00170214848894
0.00176193527713
0.00178767450082
0.00179288706446
0.00179024467834
0.00178686021084
0.00178683635505
0.00179017675851
0.00179276919542
0.00178753067653
0.00176179207416
0.00170202947214
0.00159324391391
0.00142488999289
0.00120404312192
0.00107826717832
0.00116318857135
0.00128912037081
0.00152231693247
0.001702169345
0.00182037420181
0.00188997842838
0.00193078666647
0.00194831320455
0.00195148247116
0.0019499823013
0.00194996293002
0.00195142981589
0.00194823290656
0.00193068443707
0.00188983948976
0.00182021865809
0.00170203424162
0.00152221387143
0.001289048171
0.00116314070372
0.00120274219129
0.00133377619156
0.00157467132201
0.001762036681
0.00189004331824
0.00198095896165
0.00203706041684
0.00206344293789
0.00207056484255
0.00207020498532
0.00207018759368
0.00207051941688
0.00206337943834
0.00203698105047
0.00198085201947
0.00188989166783
0.00176186633145
0.00157452374525
0.00133365818581
0.00120264153537
0.00121293645724
0.00135120609242
0.00159580276143
0.00178789273618
0.00193090133753
0.00203711866125
0.00210355012981
0.00213517319586
0.00214384415705
0.00214338595186
0.0021433694341
0.00214380391325
0.00213512245625
0.00210348567474
0.00203703180071
0.00193077891064
0.00178771955843
0.00159564035187
0.00135106478995
0.00121279933079
0.00120703072072
0.00135293165996
0.00159858478262
0.00179318731691
0.00194848981383
0.00206357852154
0.00213527665923
0.0021686414742
0.00217690359343
0.00217511769741
0.00217510575469
0.00217687868028
0.00216861466374
0.0021352331833
0.00206351292981
0.00194839738169
0.00179305590646
0.00159845243998
0.00135280597916
0.00120689682478
0.00119654081574
0.00134866696959
0.001594115556
0.00179050330136
0.00195168580401
0.00207076394728
0.00214404480911
0.00217702721501
0.00218216860412
0.00217734497384
0.00217734660962
0.00218217788243
0.00217704043462
0.00214404452305
0.00207074266115
0.00195164695784
0.00179045129002
0.00159405585325
0.00134859803051
0.00119645840401
0.00118901267958
0.00134481855496
0.00158988559962
0.0017870665278
0.00195018026068
0.00207043327453
0.0021436382461
0.00217530245053
0.00217741675583
0.00216989519338
0.00216991339285
0.00217746698668
0.00217537289489
0.00214370981353
0.00207048392725
0.00195021657989
0.00178710818609
0.00158992675086
0.00134483695438
0.00118902324399
0.00118894130738
0.00134473391241
0.00158978359042
0.00178697755396
0.00195012465136
0.00207040270021
0.00214363019105
0.00217532437315
0.00217747698414
0.00216998805208
0.00217002621948
0.00217757387299
0.00217546054614
0.00214378363997
0.00207053865477
0.00195025060077
0.00178712168338
0.00158993070119
0.00134484569664
0.00118905657858
0.0011963702134
0.00134845521643
0.00159385412096
0.00179026699887
0.00195155177152
0.00207070205708
0.00214404604296
0.00217710395254
0.00218233591631
0.00217758928767
0.00217763543772
0.0021824535379
0.00217727064666
0.00214423854919
0.00207088942995
0.00195174178697
0.00179048901609
0.0015940703033
0.00134862412933
0.00119654595028
0.00120684494283
0.00135267231491
0.00159824405408
0.0017928205316
0.00194831536541
0.00206352239043
0.00213531878272
0.0021687950769
0.00217717466865
0.00217548614418
0.00217553136031
0.0021772932382
0.00216896510478
0.00213551693809
0.00206372656068
0.00194853610181
0.0017931016439
0.00159848169167
0.00135285142944
0.00120702602095
0.00121282074338
0.00135098677035
0.00159548613157
0.00178752730113
0.001930730755
0.00203709152162
0.00210364460146
0.00213540390348
0.00214421176068
0.00214386199508
0.00214390444714
0.00214432553131
0.00213556781626
0.00210383250275
0.00203728893077
0.00193094449981
0.00178778372809
0.00159569080703
0.00135113208603
0.00121295923375
0.00120275122366
0.00133366380851
0.00157446300234
0.00176176197751
0.00188985519123
0.00198094224042
0.00203718258599
0.00206370321668
0.00207095715305
0.00207070054585
0.00207074077926
0.00207106451072
0.00206385693338
0.00203735838578
0.00198112661602
0.0018900515178
0.00176194570158
0.00157459718097
0.00133374798939
0.00120282283
0.00116331851337
0.00128913505244
0.00152225054037
0.00170202635604
0.00182022467723
0.00188994679649
0.00193090650711
0.00194856969745
0.00195185979837
0.00195045189861
0.00195049155428
0.00195196396575
0.00194871700322
0.00193107129301
0.00189011194724
0.00182036685112
0.00170212907162
0.00152231170112
0.00128915930681
0.00116333021005
0.00107846562127
0.00120418407132
0.00142500327108
0.00159332148458
0.00170210505736
0.00176193212571
0.00178778450742
0.00179314033484
0.0017906110294
0.00178731764843
0.00178735778135
0.00179071560216
0.00179328727013
0.00178793917571
0.00176206391562
0.00170219538344
0.00159337082246
0.00142501834352
0.00120417266641
0.00107844759157
0.000931651835204
0.00106670630479
0.00127191338754
0.00142506553802
0.00152238355883
0.00157467397401
0.00159577015698
0.00159858158192
0.00159421809383
0.00159013638297
0.00159017792229
0.00159432259382
0.001598717739
0.00159590408318
0.00157477939135
0.00152244789235
0.00142509208925
0.00127191120529
0.00106668523686
0.00093163033933
0.000711821633629
0.000874840610362
0.00106677359212
0.00120430549812
0.00128931303161
0.00133390345645
0.00135128637942
0.00135301986806
0.00134883290631
0.00134511185657
0.00134515149332
0.00134892968184
0.00135314180867
0.0013514024008
0.0013339920909
0.00128936593039
0.00120432552146
0.00106677072099
0.000874824305257
0.000711804565409
0.000446328968046
0.000711920020416
0.000931788010606
0.00107863380285
0.00116353334528
0.00120303198749
0.00121317808331
0.00120727427442
0.00119686098492
0.00118946865319
0.00118952154055
0.00119698743705
0.00120743377462
0.00121333371606
0.00120315834165
0.00116361922342
0.00107867998209
0.000931807327938
0.000711922492399
0.000446315078214
0.000503509286185
0.000893268383959
0.00122952349382
0.00146399072274
0.00160745646681
0.0016818619639
0.00171030250838
0.00171370233756
0.00170883905503
0.00170481284922
0.00170478063078
0.0017087593466
0.0017135963883
0.00171019710737
0.00168179393061
0.00160745186026
0.00146404217353
0.00122960614018
0.000893349315946
0.000503539661358
0.000893211546006
0.00104783095262
0.00126906192515
0.00144006259127
0.00155537334977
0.00162424080073
0.00165950203548
0.00167388258411
0.0016779458178
0.00167843511882
0.00167841232644
0.00167788571595
0.00167379729075
0.00165940824489
0.00162416333381
0.00155533456241
0.00144006641884
0.00126909907313
0.00104788577235
0.000893277351784
0.00122940674059
0.00126902899032
0.00145764284442
0.00161504375612
0.00172581643399
0.0017945712679
0.00183137955997
0.00184735322045
0.00185189083272
0.00185216698148
0.00185214824559
0.00185183934763
0.00184727662424
0.00183128592921
0.00179448166038
0.0017257531396
0.0016150136657
0.0014576420109
0.00126904940262
0.00122945440514
0.00146381139917
0.00144001022726
0.00161502750011
0.00176916818392
0.00188134282028
0.00195379638758
0.00199472788144
0.00201576225418
0.00202290628916
0.00202396688867
0.00202395396378
0.00202286988261
0.00201571181366
0.00199464116846
0.0019536963175
0.00188125215596
0.00176909657352
0.00161497614587
0.00143997710316
0.00146380057018
0.00160727609504
0.0015553353701
0.00172580935902
0.00188134515977
0.00199900109615
0.00208163972747
0.00213261603844
0.00215901927342
0.00216883466716
0.00217079124475
0.00217078077601
0.00216880503538
0.00215897615966
0.0021325551268
0.00208155796234
0.00199889421642
0.00188123430615
0.00172570483859
0.00155524062337
0.00160718358573
0.00168177220627
0.00162426076447
0.00179460264225
0.00195381869843
0.00208163892134
0.00217535366399
0.00223611126226
0.0022686587524
0.00228123023446
0.00228407175795
0.00228406021334
0.00228119910994
0.00226861803884
0.0022360592882
0.00217528317542
0.00208154042758
0.0019536823691
0.00179445657876
0.00162411222798
0.00168159734822
0.0017103804557
0.00165960781811
0.00183146093009
0.00199476648828
0.00213261003371
0.00223611614092
0.00230500802604
0.00234235905175
0.00235661628637
0.00235965555667
0.00235964295003
0.00235658686129
0.00234232853271
0.00230496292564
0.00223605188716
0.00213251855081
0.00199463182568
0.0018313025892
0.00165943453456
0.0017101585893
0.00171393981098
0.00167405222
0.00184745285043
0.00201574595047
0.00215900126081
0.0022687044804
0.00234245905237
0.0023819813038
0.00239558083027
0.00239721359056
0.00239720678635
0.00239557152065
0.00238198107639
0.00234242911257
0.00226864625963
0.00215892450518
0.00201564760141
0.00184732148689
0.00167389993551
0.00171374149639
0.00170911665611
0.00167810988885
0.00185197453315
0.00202290004478
0.00216882682039
0.00228132716985
0.00235683181609
0.00239575675505
0.00240665932587
0.00240575277019
0.00240576261235
0.00240668777123
0.00239578788566
0.00235683234521
0.0022812965227
0.00216877826539
0.00202283945641
0.00185190331837
0.00167802564716
0.00170902054539
0.00170499250664
0.00167852437378
0.00185219354651
0.00202393660079
0.00217078882951
0.00228420773351
0.00235993508965
0.00239746730915
0.00240585730305
0.00240295973578
0.00240297655447
0.00240590544391
0.00239752966082
0.00235998845223
0.00228423093835
0.00217078897388
0.00202393495824
0.00185220753977
0.001678542166
0.00170505685521
0.00170482177815
0.00167840329983
0.00185209246623
0.00202386938991
0.0021707463518
0.00228418315838
0.00235993020485
0.00239749232215
0.00240592345722
0.00240304973217
0.00240307484364
0.00240598872188
0.00239758748051
0.00236003743456
0.00228426548349
0.00217080475955
0.00202393566793
0.00185219506552
0.00167852547909
0.00170505097099
0.00170869180581
0.00167779980372
0.00185171278544
0.00202272967093
0.0021687181581
0.00228126474557
0.00235682270287
0.00239581859673
0.00240680365472
0.00240594778939
0.00240597947804
0.0024068840892
0.00239593312219
0.00235694766906
0.00228137445783
0.0021688137963
0.00202284016707
0.00185186984834
0.00167798326739
0.0017090151426
0.00171341985282
0.00167365235999
0.00184710685568
0.00201553626585
0.00215885382969
0.0022686184741
0.00234245218024
0.00238208722964
0.00239578080119
0.00239747366201
0.00239750589758
0.00239586758767
0.00238220967559
0.00234257869333
0.00226873407254
0.00215896218733
0.00201565016174
0.00184727539355
0.00167384392014
0.00171375116908
0.0017099348462
0.00165922843012
0.00183110612597
0.00199447489246
0.00213243698548
0.0022360251832
0.00230500797369
0.00234248668781
0.00235686014977
0.00235997869833
0.00236000972083
0.00235694633988
0.0023426064738
0.00230512982648
0.00223613597368
0.00213254642299
0.00199461031239
0.00183125290465
0.00165938116545
0.00171019794848
0.00168152725662
0.00162399378034
0.00179432464521
0.0019535543978
0.00208146775244
0.00217526507009
0.00223610772539
0.00226876851051
0.00228145239237
0.00228437956911
0.00228441155414
0.00228153915864
0.00226888524698
0.00223622420418
0.0021753653901
0.00208155664635
0.00195365153348
0.00179441579728
0.00162407757162
0.00168167741668
0.0016072516535
0.00155521673617
0.00172565573053
0.00188116704743
0.00199883804848
0.0020815508318
0.00213260017407
0.00215908445456
0.00216898806358
0.00217101561588
0.00217104998897
0.00216907743451
0.00215919996221
0.00213271207919
0.00208163867859
0.00199890142917
0.0018812122473
0.00172568649108
0.00155523300452
0.00160729750035
0.00146394835747
0.00144002885382
0.00161500576883
0.00176910053826
0.001881247058
0.00195371489583
0.00199470378132
0.00201580315332
0.00202302569668
0.00202415547604
0.00202419288778
0.00202311988601
0.00201592101841
0.00199481922811
0.00195379716317
0.00188128864241
0.0017691148605
0.00161499975079
0.00144000649551
0.00146394040514
0.00122961164038
0.00126915037222
0.00145773626822
0.00161508480937
0.00172580684116
0.00179454227604
0.00183137690363
0.00184740830579
0.00185202167971
0.00185237501488
0.00185241706725
0.00185212560229
0.001847536137
0.00183149121864
0.00179461954035
0.00172584146345
0.0016150878363
0.00145771775137
0.00126911921708
0.00122959431112
0.000893379633908
0.00104801802053
0.0012692477011
0.00144019776071
0.00155544522777
0.00162427509239
0.00165955034151
0.00167399203498
0.00167813241677
0.00167869681742
0.0016787412235
0.00167823899769
0.00167412113068
0.00165966467139
0.00162435312878
0.0015554810696
0.00144020149219
0.00126923251571
0.00104799424328
0.000893363278607
0.000503512363241
0.000893518413707
0.0012298319343
0.0014642452955
0.00160763131129
0.00168200008572
0.00171049421434
0.00171402720399
0.00170930702614
0.00170540007612
0.00170547435801
0.00170948709647
0.00171425847985
0.00171072424614
0.00168219148838
0.00160776284187
0.00146432156923
0.00122986776097
0.000893524061052
0.000503491350871
0.000555227268482
0.00105658167864
0.00149748213435
0.00181013182236
0.00200651958309
0.00211426110953
0.00216486905277
0.00218721472659
0.00220004965687
0.00220787259639
0.00220781879832
0.00219991168528
0.00218702193138
0.00216466276645
0.00211410345125
0.00200646114263
0.00181016920062
0.00149758001059
0.00105668536926
0.000555260579012
0.00105653163342
0.00121781786394
0.00148284941504
0.00169630554226
0.00184653976789
0.001941454639
0.00199570927156
0.00202473827888
0.00204004066974
0.00204712443477
0.00204709613853
0.0020399644298
0.0020246280485
0.00199558526139
0.00194134734064
0.00184648133342
0.00169630306675
0.00148289131872
0.00121788565667
0.00105662538757
0.00149736938377
0.00148283112459
0.00168446995092
0.00186236063302
0.00199303783634
0.0020785218074
0.00212864044074
0.00215463710574
0.00216594414221
0.00216976989279
0.00216975225894
0.00216589260321
0.00215455792038
0.00212854235983
0.00207841881507
0.00199296332217
0.00186232512657
0.00168446889893
0.00148285583288
0.00149743490967
0.00180995400035
0.00169627568056
0.00186235500331
0.00202065436087
0.00214175808399
0.00222477900812
0.00227698805064
0.00230571911694
0.00231682338834
0.00231945722448
0.00231944854002
0.00231679563009
0.00230567730469
0.00227694227802
0.00222467885541
0.002141663287
0.00202057559265
0.00186229462957
0.00169623194967
0.00180992902682
0.00200637036514
0.00184653202398
0.00199304301886
0.00214175234928
0.00226251627783
0.00235460565777
0.00241387115557
0.00244502884617
0.0024558569628
0.00245752517123
0.00245751791571
0.00245583117634
0.00244499008609
0.0024138216305
0.00235453216114
0.00226241808131
0.0021416354599
0.0019929205358
0.0018464098729
0.00200622494078
0.00211426433551
0.00194151129893
0.00207855006159
0.00222474901195
0.00235455686861
0.00245492526309
0.00252076601324
0.00255371752067
0.00256360241101
0.00256432662834
0.00256431069137
0.00256355497088
0.00255365271994
0.00252069164986
0.00245484436968
0.0023544644682
0.0022246099712
0.00207838078257
0.00194132051419
0.0021139982148
0.00216512669538
0.00199585476228
0.0021286815322
0.00227686047025
0.00241374646235
0.00252073351293
0.00258976190343
0.00262225670071
0.00263006867886
0.00262921338562
0.00262919336103
0.00263001554418
0.00262219632532
0.00258967903943
0.00252064135122
0.00241365547297
0.00227675506303
0.00212850359617
0.00199563130771
0.0021647921719
0.00218769476297
0.00202494104815
0.00215466497842
0.00230555759234
0.00244485774096
0.00255372502828
0.00262239655528
0.00265267362284
0.00265704909933
0.00265338036839
0.00265336922417
0.00265702590747
0.00265265950812
0.00262232986494
0.00255362124028
0.00244475922734
0.00230545125602
0.00215451351701
0.00202473840578
0.00218739152572
0.00220054679595
0.00204020608213
0.00216592007082
0.002316629033
0.00245568346784
0.00256366360115
0.00263033991471
0.00265726233224
0.00265712523681
0.00265012802232
0.00265014278208
0.00265715944486
0.00265728278589
0.0026303117545
0.00256359351216
0.0024556000519
0.00231654743012
0.0021658293401
0.00204008062786
0.00220038331592
0.00220817651576
0.00204716372105
0.00216966227375
0.00231923877407
0.00245737439022
0.00256444486174
0.00262953528693
0.00265364169929
0.00265022633907
0.00264117241512
0.0026411864291
0.00265026995842
0.00265368760579
0.0026295731199
0.00256444641749
0.00245733805564
0.00231920448765
0.00216965711607
0.00204715628445
0.00220822742909
0.00220788080248
0.00204697742225
0.00216951857569
0.00231914753151
0.00245731094953
0.00256438693263
0.00262950026065
0.00265365092497
0.00265029982533
0.00264127113247
0.00264129154055
0.00265034815894
0.00265372352331
0.00262960147552
0.00256445860819
0.00245732408983
0.00231917014348
0.00216960221908
0.00204708704149
0.00220814122015
0.00219977180194
0.00203971373756
0.0021655373308
0.00231638590838
0.0024555010854
0.00256350566822
0.00263024425277
0.00265726016881
0.00265723340124
0.00265028546518
0.00265031637998
0.00265730349317
0.00265736082562
0.00263036215183
0.00256359489075
0.0024555344461
0.00231644105927
0.00216567173347
0.00203989086502
0.00220015742392
0.00218666531903
0.00202427543739
0.00215413636525
0.00230522111224
0.00244459184268
0.00255347850903
0.00262223805239
0.00265267523269
0.002657159995
0.0026535453231
0.00265357758108
0.00265724599063
0.00265279771064
0.00262235691957
0.00255355959519
0.0024446229201
0.00230527677944
0.00215427545607
0.00202445827075
0.00218706868672
0.00216411604552
0.00199517202514
0.0021281150242
0.0022765173067
0.00241344591412
0.00252044928403
0.00258956230242
0.00262223871963
0.0026302046034
0.00262943978589
0.00262947124396
0.00263029599122
0.00262236430737
0.00258967056822
0.00252050546533
0.0024134576387
0.00227653809635
0.0021282208745
0.00199530502825
0.00216443076528
0.00211350210393
0.00194094511045
0.00207803156529
0.00222430127737
0.00235422424676
0.0024546351499
0.0025205347399
0.0025536353722
0.00256367358648
0.0025645159079
0.0025645493462
0.00256376740723
0.00255375370793
0.00252062483761
0.00245466396386
0.00235421849332
0.00222432394055
0.00207807913256
0.00194099377717
0.00211365545718
0.00200592192595
0.00184614582302
0.00199265409016
0.00214136496097
0.00226216497187
0.00235430269981
0.0024135984763
0.00244481952822
0.00245574695745
0.00245750412823
0.00245754015302
0.00245584445096
0.00244493074012
0.00241367041311
0.00235431533791
0.00226213982059
0.00214133923574
0.00199263361472
0.00184611095277
0.00200592077368
0.00180976336865
0.00169606955436
0.00186212204475
0.00202037670516
0.00214144396199
0.00222445017538
0.00227669231898
0.00230543898494
0.00231659943216
0.00231930278618
0.00231934279307
0.002316699522
0.00230554980898
0.00227676177619
0.00222446846912
0.00214141015973
0.00202032633135
0.00186206018159
0.0016959882639
0.00180968622652
0.00149733254667
0.00148277069935
0.00168438211107
0.0018622054152
0.00199280302329
0.00207822376831
0.00212831796096
0.00215432215717
0.00216567616277
0.0021695757752
0.00216962112823
0.00216578475909
0.0021544413955
0.00212839669619
0.00207824420183
0.00199277038317
0.00186214418372
0.00168430450979
0.00148268281916
0.00149725239549
0.00105654389581
0.00121786248809
0.00148287438169
0.00169624859542
0.00184637011427
0.00194118240349
0.00199538418353
0.00202442194691
0.00203976260849
0.00204690063648
0.00204694389912
0.00203986028469
0.00202452525065
0.00199544994182
0.00194119447119
0.00184633094201
0.00169618006891
0.0014827967803
0.00121778835996
0.0010564829582
0.000555136093428
0.00105669315098
0.0014975980166
0.00181013119965
0.00200636115699
0.00211398284297
0.00216458481082
0.00218703322848
0.00219997889002
0.00220789349086
0.00220796675962
0.00220014795728
0.0021872355657
0.00216476488674
0.00211410835156
0.00200641264743
0.00181012998605
0.00149756883476
0.00105665164736
0.000555093006404
0.00062045226613
0.00127183842154
0.00184729744385
0.00226100060245
0.00253134918619
0.00269342991654
0.00279113404047
0.00286370896773
0.00292561603473
0.00296517268795
0.00296509365322
0.00292540659169
0.00286340538352
0.00279079376441
0.00269314624351
0.00253120337109
0.00226099447953
0.00184738345899
0.00127194268487
0.0006204863226
0.00127182308215
0.00143591856339
0.00176240069167
0.0020368720202
0.00223733384144
0.00236973766168
0.00245305727148
0.00250783280089
0.00254550626346
0.00256639118594
0.00256635650341
0.00254541045183
0.00250769059363
0.0024528951792
0.00236959650795
0.00223725717095
0.0020368670833
0.00176244713134
0.0014359932787
0.0012719395398
0.001847239914
0.00176241152195
0.00198821202251
0.00219769118757
0.00235363572918
0.00245662266694
0.00251967692137
0.00255557397818
0.0025741079609
0.00258201159108
0.00258199070005
0.0025740446365
0.00255547051419
0.00251954152739
0.00245648186702
0.00235354104447
0.00219765438712
0.00198821834813
0.00176244326043
0.00184732451773
0.00226088933338
0.00203688668591
0.00219770559255
0.00236369331507
0.00249330759222
0.00258439994336
0.00264498423487
0.00267713841695
0.00268797276131
0.00268948761525
0.00268947822436
0.00268794154271
0.0026770806259
0.00264489206411
0.00258424121114
0.00249317958317
0.00236359969262
0.00219764404254
0.00203684370643
0.00226086411603
0.0025312825376
0.00223737294885
0.00235367275121
0.00249331131429
0.00261585537936
0.0027160643449
0.00278083863622
0.00280991195647
0.0028134987276
0.00280962995366
0.00280962312443
0.00281346775801
0.00280985199699
0.00278074827538
0.00271594805681
0.00261576571307
0.0024931661529
0.00235353325318
0.00223724018405
0.0025311087212
0.00269353147778
0.00236983032956
0.00245668279627
0.00258436853592
0.00271600190832
0.00282308035602
0.00288766308702
0.00290860778153
0.00290331869994
0.00289454633877
0.00289452517135
0.00290324588367
0.00290848873036
0.00288750993636
0.00282292896924
0.00271586500461
0.00258418153173
0.00245648149773