/*--------------------------------*- C++ -*----------------------------------*\
| =========                 |                                                 |
| \\      /  F ield         | OpenFOAM: The Open Source CFD Toolbox           |
|  \\    /   O peration     | Version:  3.0.1                                 |
|   \\  /    A nd           | Web:      www.OpenFOAM.org                      |
|    \\/     M anipulation  |                                                 |
\*---------------------------------------------------------------------------*/
FoamFile
{
    version     2.0;
    format      ascii;
    class       surfaceScalarField;
    location    "2";
    object      meshPhiCN_0;
}
// * * * * * * * * * * * * * * * * * * * * * * * * * * * * * * * * * * * * * //

dimensions      [0 3 -1 0 0 0 0];

internalField   nonuniform List<scalar> 
22672
(
0
0
0
0
0
0
0
0
0
0
0
0
0
0
0
0
0
0
0
0
0
0
0
0
0
0
0
0
0
0
0
0
0
0
0
0
0
0
0
0
0
0
0
0
0
0
0
0
0
0
0
0
0
0
0
0
0
0
0
0
0
0
0
0
0
0
0
0
0
0
0
0
0
0
0
0
0
0
0
0
0
0
0
0
0
0
0
0
0
0
0
0
0
0
0
0
0
0
0
0
0
0
0
0
0
0
0
0
0
0
0
0
0
0
0
0
0
0
0
0
0
0
0
0
0
0
0
0
0
0
0
0
0
0
0
0
0
0
0
0
0
0
0
0
0
0
0
0
0
0
0
0
0
0
0
0
0
0
0
0
0
0
0
0
0
0
0
0
0
0
0
0
0
0
0
0
0
0
0
0
0
0
0
0
0
0
0
0
0
0
0
0
0
0
0
0
0
0
0
0
0
0
0
0
0
0
0
0
0
0
0
0
0
0
0
0
0
0
0
0
0
0
0
0
0
0
0
0
0
0
0
0
0
0
0
0
0
0
0
0
0
0
0
0
0
0
0
0
0
0
0
0
0
0
0
0
0
0
0
0
0
0
0
0
0
0
0
0
0
0
0
0
0
0
0
0
0
0
0
0
0
0
0
0
0
0
0
0
0
0
0
0
0
0
0
0
0
0
0
0
0
0
0
0
0
0
0
0
0
0
0
0
0
0
0
0
0
0
0
0
0
0
0
0
0
0
0
0
0
0
0
0
0
0
0
0
0
0
0
0
0
0
0
0
0
0
0
0
0
0
0
0
0
0
0
0
0
0
0
0
0
0
0
0
0
0
0
0
0
0
0
0
0
0
0
0
0
0
0
0
0
0
0
0
0
0
0
0
0
0
0
0
0
0
0
0
0
0
0
0
0
0
0
0
0
0
0
0
0
0
0
0
0
0
0
0
0
0
0
0
0
0
0
0
0
0
0
0
0
0
0
0
0
0
0
0
0
0
0
0
0
0
0
0
0
0
0
0
0
0
0
0
0
0
0
0
0
0
0
0
0
0
0
0
0
0
0
0
0
0
0
0
0
0
0
0
0
0
0
0
0
0
0
0
0
0
0
0
0
0
0
0
0
0
0
0
0
0
0
0
0
0
0
0
0
0
0
0
0
0
0
0
0
0
0
0
0
0
0
0
0
0
0
0
0
0
0
0
0
0
0
0
0
0
0
0
0
0
0
0
0
0
0
0
0
0
0
0
0
0
0
0
0
0
0
0
0
0
0
0
0
0
0
0
0
0
0
0
0
0
0
0
0
0
0
0
0
0
0
0
0
0
0
0
0
0
0
0
0
0
0
0
0
0
0
0
0
0
0
0
0
0
0
0
0
0
0
0
0
0
0
0
0
0
0
0
0
0
0
0
0
0
0
0
0
0
0
0
0
0
0
0
0
0
0
0
0
0
0
0
0
0
0
0
0
0
0
0
0
0
0
0
0
0
0
0
0
0
0
0
0
0
0
0
0
0
0
0
0
0
0
0
0
0
0
0
0
0
0
0
0
0
0
0
0
0
0
0
0
0
0
0
0
0
0
0
0
0
0
0
0
0
0
0
0
0
0
0
0
0
0
0
0
0
0
0
0
0
0
0
0
0
0
0
0
0
0
0
0
0
0
0
0
0
0
0
0
0
0
0
0
0
0
0
0
0
0
0
0
0
0
0
0
0
0
0
0
0
0
0
0
0
0
0
0
0
0
0
0
0
0
0
0
0
0
0
0
0
0
0
0
0
0
0
0
0
0
0
0
0
0
0
0
0
0
0
0
0
0
0
0
0
0
0
0
0
0
0
0
0
0
0
0
0
0
0
0
0
0
0
0
0
0
0
0
0
0
0
0
0
0
0
0
0
0
0
0
0
0
0
0
0
0
0
0
0
0
0
0
0
0
0
0
0
0
0
0
0
0
0
0
0
0
0
0
0
0
0
0
0
0
0
0
0
0
0
0
0
0
0
0
0
0
0
0
0
0
0
0
0
0
0
0
0
0
0
0
0
0
0
0
0
0
0
0
0
0
0
0
0
0
0
0
0
0
0
0
0
0
0
0
0
0
0
0
0
0
0
0
0
0
0
0
0
0
0
0
0
0
0
0
0
0
0
0
0
0
0
0
0
0
0
0
0
0
0
0
0
0
0
0
0
0
0
0
0
0
0
0
0
0
0
0
0
0
0
0
0
0
0
0
0
0
0
0
0
0
0
0
0
0
0
0
0
0
0
0
0
0
0
0
0
0
0
0
0
0
0
0
0
0
0
0
0
0
0
0
0
0
0
0
0
0
0
0
0
0
0
0
0
0
0
0
0
0
0
0
0
0
0
0
0
0
0
0
0
0
0
0
0
0
0
0
0
0
0
0
0
0
0
0
0
0
0
0
0
0
0
0
0
0
0
0
0
0
0
0
0
0
0
0
0
0
0
0
0
0
0
0
0
0
0
0
0
0
0
0
0
0
0
0
0
0
0
0
0
0
0
0
0
0
0
0
0
0
0
0
0
0
0
0
0
0
0
0
0
0
0
0
0
0
0
0
0
0
0
0
0
0
0
0
0
0
0
0
0
0
0
0
0
0
0
0
0
0
0
0
0
0
0
0
0
0
0
0
0
0
0
0
0
0
0
0
0
0
0
0
0
0
0
0
0
0
0
0
0
0
0
0
0
0
0
0
0
0
0
0
0
0
0
0
0
0
0
0
0
0
0
0
0
0
0
0
0
0
0
0
0
0
0
0
0
0
0
0
0
0
0
0
0
0
0
0
0
0
0
0
0
0
0
0
0
0
0
0
0
0
0
0
0
0
0
0
0
0
0
0
0
0
0
0
0
0
0
0
0
0
0
0
0
0
0
0
0
0
0
0
0
0
0
0
0
0
0
0
0
0
0
0
0
0
0
0
0
0
0
0
0
0
0
0
0
0
0
0
0
0
0
0
0
0
0
0
0
0
0
0
0
0
0
0
0
0
0
0
0
0
0
0
0
0
0
0
0
0
0
0
0
0
0
0
0
0
0
0
0
0
0
0
0
0
0
0
0
0
0
0
0
0
0
0
0
0
0
0
0
0
0
0
0
0
0
0
0
0
0
0
0
0
0
0
0
0
0
0
0
0
0
0
0
0
0
0
0
0
0
0
0
0
0
0
0
0
0
0
0
0
0
0
0
0
0
0
0
0
0
0
0
0
0
0
0
0
0
0
0
0
0
0
0
0
0
0
0
0
0
0
0
0
0
0
0
0
0
0
0
0
0
0
0
0
0
0
0
0
0
0
0
0
0
0
0
0
0
0
0
0
0
0
0
0
0
0
0
0
0
0
0
0
0
0
0
0
0
0
0
0
0
0
0
0
0
0
0
0
0
0
0
0
0
0
0
0
0
0
0
0
0
0
0
0
0
0
0
0
0
0
0
0
0
0
0
0
0
0
0
0
0
0
0
0
0
0
0
0
0
0
0
0
0
0
0
0
0
0
0
0
0
0
0
0
0
0
0
0
0
0
0
0
0
0
0
0
0
0
0
0
0
0
0
0
0
0
0
0
0
0
0
0
0
0
0
0
0
0
0
0
0
0
0
0
0
0
0
0
0
0
0
0
0
0
0
0
0
0
0
0
0
0
0
0
0
0
0
0
0
0
0
0
0
0
0
0
0
0
0
0
0
0
0
0
0
0
0
0
0
0
0
0
0
0
0
0
0
0
0
0
0
0
0
0
0
0
0
0
0
0
0
0
0
0
0
0
0
0
0
0
0
0
0
0
0
0
0
0
0
0
0
0
0
0
0
0
0
0
0
0
0
0
0
0
0
0
0
0
0
0
0
0
0
0
0
0
0
0
0
0
0
0
0
0
0
0
0
0
0
0
0
0
0
0
0
0
0
0
0
0
0
0
0
0
0
0
0
0
0
0
0
0
0
0
0
0
0
0
0
0
0
0
0
0
0
0
0
0
0
0
0
0
0
0
0
0
0
0
0
0
0
0
0
0
0
0
0
0
0
0
0
0
0
0
0
0
0
0
0
0
0
0
0
0
0
0
0
0
0
0
0
0
0
0
0
0
0
0
0
0
0
0
0
0
0
0
0
0
0
0
0
0
0
0
0
0
0
0
0
0
0
0
0
0
0
0
0
0
0
0
0
0
0
0
0
0
0
0
0
0
0
0
0
0
0
0
0
0
0
0
0
0
0
0
0
0
0
0
0
0
0
0
0
0
0
0
0
0
0
0
0
0
0
0
0
0
0
0
0
0
0
0
0
0
0
0
0
0
0
0
0
0
0
0
0
0
0
0
0
0
0
0
0
0
0
0
0
0
0
0
0
0
0
0
0
0
0
0
0
0
0
0
0
0
0
0
0
0
0
0
0
0
0
0
0
0
0
0
0
0
0
0
0
0
0
0
0
0
0
0
0
0
0
0
0
0
0
0
0
0
0
0
0
0
0
0
0
0
0
0
0
0
0
0
0
0
0
0
0
0
0
0
0
0
0
0
0
0
0
0
0
0
0
0
0
0
0
0
0
0
0
0
0
0
0
0
0
0
0
0
0
0
0
0
0
0
0
0
0
0
0
0
0
0
0
0
0
0
0
0
0
0
0
0
0
0
0
0
0
0
0
0
0
0
0
0
0
0
0
0
0
0
0
0
0
0
0
0
0
0
0
0
0
0
0
0
0
0
0
0
0
0
0
0
0
0
0
0
0
0
0
0
0
0
0
0
0
0
0
0
0
0
0
0
0
0
0
0
0
0
0
0
0
0
0
0
0
0
0
0
0
0
0
0
0
0
0
0
0
0
0
0
0
0
0
0
0
0
0
0
0
0
0
0
0
0
0
0
0
0
0
0
0
0
0
0
0
0
0
0
0
0
0
0
0
0
0
0
0
0
0
0
0
0
0
0
0
0
0
0
0
0
0
0
0
0
0
0
0
0
0
0
0
0
0
0
0
0
0
0
0
0
0
0
0
0
0
0
0
0
0
0
0
0
0
0
0
0
0
0
0
0
0
0
0
0
0
0
0
0
0
0
0
0
0
0
0
0
0
0
0
0
0
0
0
0
0
0
0
0
0
0
0
0
0
0
0
0
0
0
0
0
0
0
0
0
0
0
0
0
0
0
0
0
0
0
0
0
0
0
0
0
0
0
0
0
0
0
0
0
0
0
0
0
0
0
0
0
0
0
0
0
0
0
0
0
0
0
0
0
0
0
0
0
0
0
0
0
0
0
0
0
0
0
0
0
0
0
0
0
0
0
0
0
0
0
0
0
0
0
0
0
0
0
0
0
0
0
0
0
0
0
0
0
0
0
0
0
0
0
0
0
0
0
0
0
0
0
0
0
0
0
0
0
0
0
0
0
0
0
0
0
0
0
0
0
0
0
0
0
0
0
0
0
0
0
0
0
0
0
0
0
0
0
0
0
0
0
0
0
0
0
0
0
0
0
0
0
0
0
0
0
0
0
0
0
0
0
0
0
0
0
0
0
0
0
0
0
0
0
0
0
0
0
0
0
0
0
0
0
0
0
0
0
0
0
0
0
0
0
0
0
0
0
0
0
0
0
0
0
0
0
0
0
0
0
0
0
0
0
0
0
0
0
0
0
0
0
0
0
0
0
0
0
0
0
0
0
0
0
0
0
0
0
0
0
0
0
0
0
0
0
0
0
0
0
0
0
0
0
0
0
0
0
0
0
0
0
0
0
0
0
0
0
0
0
0
0
0
0
0
0
0
0
0
0
0
0
0
0
0
0
0
0
0
0
0
0
0
0
0
0
0
0
0
0
0
0
0
0
0
0
0
0
0
0
0
3.12383644029e-10
-1.48153230681e-09
-3.60873808295e-09
5.61816753961e-10
-4.15300855098e-09
-1.00277747244e-08
5.61816356595e-10
-5.3432839342e-09
-1.27874197539e-08
5.61815938616e-10
-5.34620083807e-09
-1.26870476532e-08
5.61815591116e-10
-5.34911756272e-09
-1.25866757477e-08
5.61815152109e-10
-5.35203406135e-09
-1.24863040871e-08
3.12382881166e-10
-4.16369026359e-09
-9.65645437944e-09
0
-1.48637423635e-09
-3.43976188966e-09
0
0
0
0
0
0
0
0
0
0
0
0
0
0
0
0
0
0
0
0
0
0
0
0
0
0
0
0
0
0
0
0
8.90740942032e-10
-4.21118102584e-09
-1.07562643273e-08
2.68724880406e-09
-1.54863148212e-08
-4.23536027599e-08
3.61399944907e-09
-2.58208029346e-08
-7.33599444603e-08
3.61398720175e-09
-2.90713306556e-08
-8.32364286671e-08
3.61397504309e-09
-2.90875160471e-08
-8.26021588705e-08
3.61396291304e-09
-2.91036956547e-08
-8.19678946757e-08
3.61395074e-09
-2.911986958e-08
-8.13336359892e-08
2.68720371224e-09
-2.58906721838e-08
-7.06088686939e-08
8.90732373531e-10
-1.55421435444e-08
-4.02257463905e-08
0
-4.22958824786e-09
-1.01122282664e-08
0
0
0
0
0
0
0
0
0
0
0
0
0
0
0
0
0
0
0
0
0
0
0
0
0
0
3.13999385784e-10
-1.47991713088e-09
-3.99310684299e-09
3.28080227124e-09
-1.2706762756e-08
-4.42766494171e-08
7.12896612918e-09
-3.36503404712e-08
-1.25082216013e-07
8.81385017639e-09
-4.9622261365e-08
-1.87771330237e-07
8.81381040932e-09
-5.4411695538e-08
-2.05190778012e-07
8.8137706162e-09
-5.44426141857e-08
-2.03681165731e-07
8.81373085412e-09
-5.44735136452e-08
-2.02171566905e-07
8.81369105594e-09
-5.45043939044e-08
-2.00661981491e-07
7.12879743624e-09
-4.97598275196e-08
-1.80817275404e-07
3.28073916524e-09
-3.37756561719e-08
-1.18707556508e-07
3.13997890269e-10
-1.27643013405e-08
-4.15832760521e-08
0
-1.4879866537e-09
-3.71233398382e-09
0
0
0
0
0
0
0
0
0
0
0
0
0
0
0
0
0
0
0
0
0
0
0
8.81363893816e-10
-2.66158591279e-09
-1.14615236964e-08
5.47998511041e-09
-1.70898147217e-08
-8.04972176331e-08
1.05332724913e-08
-4.160196453e-08
-1.97583178671e-07
1.26698700393e-08
-5.96827924444e-08
-2.80353483619e-07
1.26698167676e-08
-6.50511060815e-08
-3.02559814927e-07
1.26697634205e-08
-6.50884291402e-08
-3.00430052136e-07
1.26697102004e-08
-6.51257252465e-08
-2.9830029711e-07
1.2669656908e-08
-6.51629944639e-08
-2.96170549753e-07
1.05330418277e-08
-5.98498350505e-08
-2.70308689753e-07
5.47988909234e-09
-4.17584104504e-08
-1.87695479406e-07
8.81359058999e-10
-1.71681659808e-08
-7.56340645849e-08
0
-2.67611342327e-09
-1.06723755508e-08
0
0
0
0
0
0
0
0
0
0
0
0
0
0
0
0
0
0
0
0
0
0
0
1.13594537663e-09
-2.66158438226e-09
-1.52390085311e-08
6.18195461437e-09
-1.70897581824e-08
-9.58036422227e-08
1.15735178323e-08
-4.16015921476e-08
-2.26802010276e-07
1.38380783686e-08
-5.96819695863e-08
-3.17955275814e-07
1.38380199276e-08
-6.50501351647e-08
-3.42305971135e-07
1.38379614916e-08
-6.50875369047e-08
-3.39997777415e-07
1.38379031369e-08
-6.51249116604e-08
-3.37689583686e-07
1.38378446578e-08
-6.51622595196e-08
-3.35381389939e-07
1.15732676128e-08
-5.98492036236e-08
-3.07005839893e-07
6.1818544704e-09
-4.17580291743e-08
-2.15843961991e-07
1.13594094943e-09
-1.71680678662e-08
-9.01866715242e-08
0
-2.6761103182e-09
-1.42227760417e-08
0
0
0
0
0
0
0
0
0
0
0
0
0
0
0
0
0
0
0
0
0
0
0
1.13886650758e-09
-2.6615829056e-09
-1.58288103921e-08
6.19823913274e-09
-1.70897016968e-08
-9.95277240412e-08
1.16047007787e-08
-4.16012197315e-08
-2.35665150482e-07
1.38756791917e-08
-5.96811468184e-08
-3.30467076882e-07
1.3875607286e-08
-6.50491642739e-08
-3.55871982854e-07
1.38755353998e-08
-6.50866447083e-08
-3.53563789138e-07
1.38754636291e-08
-6.51240981225e-08
-3.51255595405e-07
1.38753916938e-08
-6.51615246573e-08
-3.48947401612e-07
1.16043929207e-08
-5.98485722431e-08
-3.1951511653e-07
6.19811593785e-09
-4.17576479385e-08
-2.24702707324e-07
1.13886101716e-09
-1.71679696596e-08
-9.3908942366e-08
0
-2.67610717117e-09
-1.48125113582e-08
0
0
0
0
0
0
0
0
0
0
0
0
0
0
0
0
0
0
0
0
0
0
0
1.14178881012e-09
-2.66158140392e-09
-1.64186134288e-08
6.21455723205e-09
-1.70896451597e-08
-1.03251838205e-07
1.16359958474e-08
-4.1600847349e-08
-2.44528369292e-07
1.39134373358e-08
-5.96803239734e-08
-3.42978923121e-07
1.39133520342e-08
-6.50481933025e-08
-3.69437994556e-07
1.39132666089e-08
-6.50857523428e-08
-3.67129800789e-07
1.39131812906e-08
-6.51232846125e-08
-3.64821607053e-07
1.39130959747e-08
-6.51607897702e-08
-3.62513413321e-07
1.16356304418e-08
-5.98479408673e-08
-3.32024348039e-07
6.21441107333e-09
-4.17572666702e-08
-2.33561374037e-07
1.14178233242e-09
-1.71678715487e-08
-9.76311808414e-08
0
-2.67610405243e-09
-1.54022455221e-08
0
0
0
0
0
0
0
0
0
0
0
0
0
0
0
0
0
0
0
0
0
0
0
1.14471231348e-09
-2.66157982335e-09
-1.70084176633e-08
6.23090889777e-09
-1.70895885833e-08
-1.0697598475e-07
1.16674032017e-08
-4.16004750159e-08
-2.53391666689e-07
1.39513528699e-08
-5.96795011194e-08
-3.55490814458e-07
1.3951254059e-08
-6.50472223149e-08
-3.83004006291e-07
1.39511552874e-08
-6.50848601091e-08
-3.80695812501e-07
1.39510564346e-08
-6.51224709197e-08
-3.78387618753e-07
1.39509576717e-08
-6.5160054871e-08
-3.7607942503e-07
1.16669801266e-08
-5.98473095386e-08
-3.44533534416e-07
6.23073983579e-09
-4.17568855026e-08
-2.42419962135e-07
1.14470485375e-09
-1.71677734493e-08
-1.01353386891e-07
0
-2.67610087817e-09
-1.59919784881e-08
0
0
0
0
0
0
0
0
0
0
0
0
0
0
0
0
0
0
0
0
0
0
0
8.9204669242e-10
-1.47991433781e-09
-1.3640207114e-08
5.55019960143e-09
-1.27065794369e-08
-9.65793588822e-08
1.06720888421e-08
-3.36488926074e-08
-2.38124178e-07
1.28385112273e-08
-4.96188146614e-08
-3.38853235758e-07
1.28384305347e-08
-5.4407548526e-08
-3.66317496944e-07
1.28383497914e-08
-5.44388037698e-08
-3.64190164691e-07
1.2838268956e-08
-5.44700399053e-08
-3.62062824737e-07
1.283818832e-08
-5.45012567887e-08
-3.59935477117e-07
1.06717526227e-08
-4.9757139714e-08
-3.28807573336e-07
5.55008075221e-09
-3.37740827457e-08
-2.28225494348e-07
8.92044189465e-10
-1.27639448747e-08
-9.17114587428e-08
0
-1.48798081222e-09
-1.28510066046e-08
0
0
0
0
0
0
0
0
0
0
0
0
0
0
0
0
0
0
0
0
0
0
0
3.18837890744e-10
0
-4.98466891765e-09
3.33664834352e-09
-4.21115471511e-09
-5.66887410027e-08
7.25472275266e-09
-1.54859334238e-08
-1.62067052273e-07
8.9710616858e-09
-2.58195440491e-08
-2.4499099911e-07
8.97103265179e-09
-2.9069682325e-08
-2.68558151087e-07
8.9710036046e-09
-2.90860020907e-08
-2.67052769388e-07
8.97097461857e-09
-2.91023160429e-08
-2.65547374239e-07
8.97094555934e-09
-2.91186242643e-08
-2.64041965673e-07
7.25461578146e-09
-2.58896178831e-08
-2.38045752993e-07
3.33662848713e-09
-1.55416057343e-08
-1.55691318364e-07
3.18838112858e-10
-4.22952199256e-09
-5.39945286925e-08
0
0
-4.70391904533e-09
0
0
0
0
0
0
0
0
0
0
0
0
0
0
0
0
0
0
0
0
0
0
0
0
0
0
9.09135729022e-10
0
-1.45282726034e-08
2.74478497305e-09
-1.48152881532e-09
-5.80455711959e-08
3.69243373236e-09
-4.15297230683e-09
-1.01599471749e-07
3.69243252145e-09
-5.3432111783e-09
-1.15822522171e-07
3.69243129179e-09
-5.34613415322e-09
-1.15189995129e-07
3.69243005231e-09
-5.34905669213e-09
-1.14557462552e-07
3.69242884046e-09
-5.35197919991e-09
-1.13924924431e-07
2.74478375887e-09
-4.16364629668e-09
-9.88523544041e-08
9.09136731528e-10
-1.48636328604e-09
-5.59179967647e-08
0
0
-1.38842012785e-08
0
0
0
0
0
0
0
0
0
0
0
0
0
0
0
0
0
0
0
0
0
0
0
0
0
0
0
0
0
0
0
0
3.20453152025e-10
0
-5.25726599263e-09
5.76346512274e-10
0
-1.46560669137e-08
5.76346484857e-10
0
-1.87446454446e-08
5.7634651185e-10
0
-1.86443373573e-08
5.76346509001e-10
0
-1.85440290458e-08
5.76346559249e-10
0
-1.84437205606e-08
3.20453102158e-10
0
-1.42847714026e-08
0
0
-5.08825798284e-09
0
0
0
0
0
0
0
0
0
0
0
0
0
0
0
0
0
0
0
0
0
0
0
0
0
0
0
0
0
0
0
0
0
0
0
0
0
0
0
0
0
0
0
0
0
0
0
0
0
0
0
0
0
0
0
0
0
0
0
0
0
0
0
0
0
0
0
0
0
0
0
0
0
0
0
0
0
0
0
0
0
0
0
0
0
0
0
0
0
0
0
0
0
0
0
0
0
0
0
0
0
0
0
0
0
0
0
0
0
0
0
0
0
0
0
0
0
0
0
0
0
0
0
0
0
0
0
0
0
0
0
0
0
0
0
0
0
0
0
0
0
0
0
0
0
0
0
0
0
0
0
0
0
0
0
0
0
0
0
0
0
0
0
0
0
0
0
0
0
0
0
0
0
0
0
0
0
0
0
0
0
0
0
0
0
0
0
0
0
0
0
0
0
0
0
0
0
0
0
0
0
0
0
0
0
0
0
0
0
0
0
0
0
0
0
0
0
0
0
0
0
0
0
0
0
0
0
0
0
0
0
0
0
0
0
0
0
0
0
0
0
0
0
0
0
0
0
0
0
0
0
0
0
0
0
0
0
0
0
0
0
0
0
0
0
0
0
0
0
0
0
0
0
0
0
0
0
0
0
0
0
0
0
0
0
0
0
0
0
0
0
0
0
0
0
0
0
0
0
0
0
0
0
0
0
0
0
0
0
0
0
0
0
0
0
0
0
0
0
0
0
0
0
0
0
0
0
0
0
0
0
0
0
0
0
0
0
0
0
0
0
0
0
0
0
0
0
0
0
0
0
0
0
0
0
0
0
0
0
0
0
0
0
0
0
0
0
0
0
0
0
0
0
0
0
0
0
0
0
0
0
0
0
0
0
0
0
0
0
0
0
0
0
0
0
0
0
0
0
0
0
0
0
0
0
0
0
0
0
0
0
0
0
0
0
0
0
0
0
0
0
0
0
0
0
5.10004169515e-10
-2.36705377599e-09
-6.23225215579e-09
1.62115771958e-09
-9.92354138345e-09
-2.56482364996e-08
2.14572683555e-09
-1.76152872011e-08
-4.47015083844e-08
2.14572106947e-09
-2.01007120827e-08
-5.03875858666e-08
2.14571539511e-09
-2.01132180762e-08
-4.99698311423e-08
2.14570966317e-09
-2.01257205507e-08
-4.95520798946e-08
2.14570397463e-09
-2.01382195168e-08
-4.91343321937e-08
1.62113798796e-09
-1.76684711211e-08
-4.28879442189e-08
5.10001521103e-10
-9.96326266444e-09
-2.42627419908e-08
0
-2.3786805133e-09
-5.82700217282e-09
0
0
0
0
0
0
0
0
0
0
0
0
0
0
0
0
0
0
0
0
0
0
0
0
0
0
1.17923058327e-09
-5.45401199356e-09
-1.50712930686e-08
4.77067454338e-09
-2.5261654031e-08
-7.35365593019e-08
9.21894815155e-09
-5.54434510733e-08
-1.63149533583e-07
1.1237064824e-08
-7.83036698388e-08
-2.27526243229e-07
1.12369743891e-08
-8.5396596032e-08
-2.44645939482e-07
1.12368840316e-08
-8.54516051498e-08
-2.42658062422e-07
1.1236793681e-08
-8.55065649775e-08
-2.40670231305e-07
1.12367032916e-08
-8.55614755727e-08
-2.38682446171e-07
9.2185487461e-09
-7.85507698875e-08
-2.18185451229e-07
4.77048515948e-09
-5.56808822736e-08
-1.5387275532e-07
1.17921137543e-09
-2.53952060396e-08
-6.84670743502e-08
0
-5.48763629242e-09
-1.38994765108e-08
0
0
0
0
0
0
0
0
0
0
0
0
0
0
0
0
0
0
0
0
5.12914847736e-10
-2.36414313037e-09
-6.92240828664e-09
5.4724549365e-09
-2.20672036555e-08
-7.72217670106e-08
1.51661183363e-08
-7.01086855754e-08
-2.42693827642e-07
2.50116804134e-08
-1.3120860061e-07
-4.29258319083e-07
2.91566402402e-08
-1.74064633363e-07
-5.43745804166e-07
2.9156297396e-08
-1.86543830844e-07
-5.71567260749e-07
2.91559545115e-08
-1.86666812456e-07
-5.67085426343e-07
2.91556116338e-08
-1.86789629686e-07
-5.62603712542e-07
2.9155268847e-08
-1.86912282628e-07
-5.58122119394e-07
2.50100441176e-08
-1.74627660564e-07
-5.21633590542e-07
1.51651055407e-08
-1.31786250554e-07
-4.04355739702e-07
5.47220012178e-09
-7.04929874523e-08
-2.25332307462e-07
5.12910083775e-10
-2.22083593512e-08
-7.1066290894e-08
0
-2.38158183609e-09
-6.31639138406e-09
0
0
0
0
0
0
0
0
0
0
0
0
0
0
0
0
0
2.15414805093e-09
-7.51471130755e-09
-2.96585410832e-08
1.20287137225e-08
-4.26821375869e-08
-1.81144165892e-07
2.8406849696e-08
-1.15758097357e-07
-4.54873495184e-07
4.36716338799e-08
-2.01937269429e-07
-7.23529971268e-07
4.97905898208e-08
-2.59109437237e-07
-8.80181745749e-07
4.97899577656e-08
-2.75430508802e-07
-9.1671704786e-07
4.97893257101e-08
-2.75615435431e-07
-9.09869179832e-07
4.97886935733e-08
-2.75800069502e-07
-9.03021453482e-07
4.97880615189e-08
-2.75984410998e-07
-8.96173868824e-07
4.3668501948e-08
-2.59962457174e-07
-8.45457910106e-07
2.8404641122e-08
-2.02841753975e-07
-6.81997341383e-07
1.2027987128e-08
-1.16403835602e-07
-4.22215212034e-07
2.15409635215e-09
-4.29616366096e-08
-1.66502793187e-07
0
-7.57046119648e-09
-2.71025017514e-08
0
0
0
0
0
0
0
0
0
0
0
0
0
0
0
0
0
3.83100445021e-09
-9.94615429447e-09
-5.40607087591e-08
1.70145578507e-08
-5.20470491547e-08
-2.67355853685e-07
3.77420602376e-08
-1.34994841108e-07
-6.11908652558e-07
5.61322347624e-08
-2.30298112544e-07
-9.36377670643e-07
6.33833481276e-08
-2.92644748585e-07
-1.12257082868e-06
6.33826245707e-08
-3.10350712583e-07
-1.16550943709e-06
6.3381901022e-08
-3.10561136627e-07
-1.15726567946e-06
6.33811774471e-08
-3.10771212489e-07
-1.14902198524e-06
6.33804538965e-08
-3.10980940076e-07
-1.14077835444e-06
5.61285995413e-08
-2.93616254384e-07
-1.08021586298e-06
3.77393722162e-08
-2.31336588368e-07
-8.84394628716e-07
1.70135793585e-08
-1.3575235969e-07
-5.69053913502e-07
3.83091752506e-09
-5.23899120134e-08
-2.46073221142e-07
0
-1.00201250586e-08
-4.9501443003e-08
0
0
0
0
0
0
0
0
0
0
0
0
0
0
0
0
0
4.38075516955e-09
-9.946121152e-09
-6.38601166294e-08
1.85932447209e-08
-5.20463960327e-08
-3.02500070651e-07
4.05348457642e-08
-1.34991647499e-07
-6.78219520523e-07
5.98016412934e-08
-2.3029063822e-07
-1.02956354513e-06
6.73707418085e-08
-2.92633566921e-07
-1.23088442663e-06
6.73699602357e-08
-3.10338724934e-07
-1.2774977193e-06
6.73691787468e-08
-3.10550166261e-07
-1.26888262071e-06
6.73683973049e-08
-3.10761259383e-07
-1.26026752211e-06
6.73676156936e-08
-3.10972004222e-07
-1.25165242348e-06
5.97977055612e-08
-2.9360818761e-07
-1.18645762386e-06
4.05319125614e-08
-2.31330399143e-07
-9.74676557321e-07
1.859216265e-08
-1.35749281602e-07
-6.32459438134e-07
4.38066297641e-09
-5.23891448958e-08
-2.79217242151e-07
0
-1.00200777531e-08
-5.86510631891e-08
0
0
0
0
0
0
0
0
0
0
0
0
0
0
0
0
0
4.39334604542e-09
-9.94608801789e-09
-6.63131390826e-08
1.86492805412e-08
-5.20457428889e-08
-3.14152553406e-07
4.06607453587e-08
-1.3498845392e-07
-7.04476789929e-07
5.99907930238e-08
-2.3028316392e-07
-1.0697080719e-06
6.75850109758e-08
-2.92622385346e-07
-1.27928557544e-06
6.75840553078e-08
-3.10326737214e-07
-1.32812662696e-06
6.75830997066e-08
-3.10539195749e-07
-1.31951152836e-06
6.75821440459e-08
-3.10751306218e-07
-1.31089642975e-06
6.75811882737e-08
-3.10963068314e-07
-1.30228133111e-06
5.99859796486e-08
-2.93600120754e-07
-1.23483801602e-06
4.06571548119e-08
-2.31324209825e-07
-1.0147746962e-06
1.86479521657e-08
-1.35746203342e-07
-6.58677194509e-07
4.39323278885e-09
-5.23883777687e-08
-2.90854665081e-07
0
-1.00200304103e-08
-6.11029311395e-08
0
0
0
0
0
0
0
0
0
0
0
0
0
0
0
0
0
4.40595750303e-09
-9.94605485291e-09
-6.87661821167e-08
1.87056042124e-08
-5.20450897717e-08
-3.2580530461e-07
4.07876051205e-08
-1.34985260274e-07
-7.30734764053e-07
6.01816540031e-08
-2.30275689488e-07
-1.10985342634e-06
6.7801314543e-08
-2.92611203443e-07
-1.32768709469e-06
6.78001848745e-08
-3.10314749316e-07
-1.37875553458e-06
6.77990549554e-08
-3.10528225241e-07
-1.37014043595e-06
6.77979252586e-08
-3.10741352918e-07
-1.36152533734e-06
6.77967955564e-08
-3.10954132322e-07
-1.35291023874e-06
6.01759629155e-08
-2.93592053689e-07
-1.2832180377e-06
4.07833572427e-08
-2.31318020523e-07
-1.05487200738e-06
1.87040296333e-08
-1.35743125197e-07
-6.84894246214e-07
4.40582303873e-09
-5.23876106246e-08
-3.02491819535e-07
0
-1.00199831327e-08
-6.35547784984e-08
0
0
0
0
0
0
0
0
0
0
0
0
0
0
0
0
0
4.41858950444e-09
-9.9460216979e-09
-7.12192457351e-08
1.87622157265e-08
-5.20444365927e-08
-3.37458324235e-07
4.09154249722e-08
-1.34982066568e-07
-7.56993442844e-07
6.03742241648e-08
-2.30268215005e-07
-1.14999960852e-06
6.80196526847e-08
-2.92600021641e-07
-1.37608898441e-06
6.80183487981e-08
-3.10302761503e-07
-1.4293844422e-06
6.80170449462e-08
-3.1051725465e-07
-1.42076934359e-06
6.80157410914e-08
-3.10731399612e-07
-1.41215424499e-06
6.80144371588e-08
-3.10945196303e-07
-1.40353914641e-06
6.03676554443e-08
-2.93583986776e-07
-1.33159768894e-06
4.0910519717e-08
-2.31311831153e-07
-1.09496849086e-06
1.87603948374e-08
-1.3574004708e-07
-7.11110593161e-07
4.41843401609e-09
-5.23868435207e-08
-3.14128705588e-07
0
-1.00199358089e-08
-6.60066053363e-08
0
0
0
0
0
0
0
0
0
0
0
0
0
0
0
0
0
3.88442586279e-09
-7.51459701525e-09
-6.46760050822e-08
1.7266115923e-08
-4.26793387193e-08
-3.21677450446e-07
3.83196075974e-08
-1.1574298429e-07
-7.39861830592e-07
5.70088606993e-08
-2.01900340895e-07
-1.13673520249e-06
6.43795710066e-08
-2.59053240478e-07
-1.36680386392e-06
6.43783790441e-08
-2.75370001982e-07
-1.4216968726e-06
6.43771871597e-08
-2.7556005635e-07
-1.41347315867e-06
6.4375995113e-08
-2.75749818101e-07
-1.40524938132e-06
6.43748033332e-08
-2.75939287399e-07
-1.39702554055e-06
5.70028867366e-08
-2.59921839421e-07
-1.32444156762e-06
3.83152295928e-08
-2.02811023578e-07
-1.08462645652e-06
1.72645707524e-08
-1.16389110737e-07
-6.96884100031e-07
3.88432030957e-09
-4.29582477787e-08
-3.003479485e-07
0
-7.57029811443e-09
-6.01141352588e-08
0
0
0
0
0
0
0
0
0
0
0
0
0
0
0
0
0
2.19384752874e-09
-2.36412785473e-09
-3.77548034008e-08
1.226818175e-08
-2.20660751177e-08
-2.34788182011e-07
2.89936569705e-08
-7.00997241067e-08
-5.97572461489e-07
4.45933486158e-08
-1.31182844117e-07
-9.60109478753e-07
5.08488277828e-08
-1.74022909105e-07
-1.17553900784e-06
5.08481139342e-08
-1.86498197024e-07
-1.2283358016e-06
5.08474001168e-08
-1.86625019186e-07
-1.22153270251e-06
5.08466861074e-08
-1.8675167709e-07
-1.21472946173e-06
5.08459722831e-08
-1.86878170599e-07
-1.20792607927e-06
4.45898442848e-08
-1.74597266021e-07
-1.14091687186e-06
2.89912784056e-08
-1.31764385193e-07
-9.18560283361e-07
1.22674992987e-08
-7.04838472613e-08
-5.64865750283e-07
2.19383296311e-09
-2.22067816056e-08
-2.20129146267e-07
0
-2.38156000538e-09
-3.51989797458e-08
0
0
0
0
0
0
0
0
0
0
0
0
0
0
0
0
0
5.24534407804e-10
0
-9.29910954326e-09
5.60620394222e-09
-5.45392167159e-09
-1.06645736331e-07
1.55533591813e-08
-2.5259905116e-08
-3.42371070389e-07
2.56648017369e-08
-5.5435463542e-08
-6.1538619417e-07
2.99236970599e-08
-7.82883518443e-08
-7.87145602106e-07
2.99234403339e-08
-8.5379126838e-08
-8.3118372541e-07
2.99231836102e-08
-8.54355751806e-08
-8.26739988634e-07
2.99229268372e-08
-8.54919742597e-08
-8.22296131284e-07
2.99226701485e-08
-8.55483239213e-08
-8.17852153293e-07
2.56636065826e-08
-7.85393393421e-08
-7.65137491326e-07
1.55526959499e-08
-5.56736454034e-08
-5.9050878868e-07
5.60610996111e-09
-2.53930079343e-08
-3.2500284349e-07
5.24534648524e-10
-5.48748196929e-09
-1.00488263323e-07
0
0
-8.69316361696e-09
0
0
0
0
0
0
0
0
0
0
0
0
0
0
0
0
0
0
0
0
1.21284651553e-09
0
-2.19304726101e-08
4.91201972118e-09
-2.36703557879e-09
-1.09243732343e-07
9.49964774901e-09
-9.923235027e-09
-2.47399926199e-07
1.15818883197e-08
-1.76141620872e-08
-3.4951179746e-07
1.15818512772e-08
-2.009919908e-08
-3.779356728e-07
1.15818143007e-08
-2.01118285132e-08
-3.75962301568e-07
1.15817771988e-08
-2.01244544299e-08
-3.73988884429e-07
1.15817401841e-08
-2.01370768056e-08
-3.72015421352e-07
9.49949949087e-09
-1.76675266936e-08
-3.4021105362e-07
4.91197912756e-09
-9.96282672303e-09
-2.38133821449e-07
1.21284559201e-09
-2.37864299356e-09
-1.04173694115e-07
0
0
-2.07585629353e-08
0
0
0
0
0
0
0
0
0
0
0
0
0
0
0
0
0
0
0
0
0
0
0
0
0
0
5.27445931602e-10
0
-9.7885796425e-09
1.67694897196e-09
0
-4.05947722498e-08
2.21978814992e-09
0
-7.12864239248e-08
2.21978727937e-09
0
-8.0731508996e-08
2.2197863908e-09
0
-8.03148653649e-08
2.21978548756e-09
0
-7.98982182531e-08
2.21978466438e-09
0
-7.9481567583e-08
1.67694594788e-09
0
-6.9474964786e-08
5.27445552427e-10
0
-3.92087136286e-08
0
0
-9.38322327594e-09
0
0
0
0
0
0
0
0
0
0
0
0
0
0
0
0
0
0
0
0
0
0
0
0
0
0
0
0
0
0
0
0
0
0
0
0
0
0
0
0
0
0
0
0
0
0
0
0
0
0
0
0
0
0
0
0
0
0
0
0
0
0
0
0
0
0
0
0
0
0
0
0
0
0
0
0
0
0
0
0
0
0
0
0
0
0
0
0
0
0
0
0
0
0
0
0
0
0
0
0
0
0
0
0
0
0
0
0
0
0
0
0
0
0
0
0
0
0
0
0
0
0
0
0
0
0
0
0
0
0
0
0
0
0
0
0
0
0
0
0
0
0
0
0
0
0
0
0
0
0
0
0
0
0
0
0
0
0
0
0
0
0
0
0
0
0
0
0
0
0
0
0
0
0
0
0
0
0
0
0
0
0
0
0
0
0
0
0
0
0
0
0
0
0
0
0
0
0
0
0
0
0
0
0
0
0
0
0
0
0
0
0
0
0
0
0
0
0
0
0
0
0
0
0
0
0
0
0
0
0
0
0
0
0
0
0
0
0
0
0
0
0
0
0
0
0
0
0
0
0
0
0
0
0
0
0
0
0
0
0
0
0
0
0
0
0
0
0
0
0
0
0
0
0
0
0
0
0
0
0
0
0
0
0
0
0
0
0
0
0
0
0
0
0
0
0
0
0
0
0
0
0
0
0
4.58191348509e-10
-2.07106392447e-09
-5.93827596916e-09
1.45643065851e-09
-8.68318724954e-09
-2.44372839902e-08
1.92768075056e-09
-1.54145919239e-08
-4.25885464255e-08
1.92767623174e-09
-1.75909478632e-08
-4.79924799078e-08
1.92767169501e-09
-1.76034457787e-08
-4.75747332285e-08
1.92766714055e-09
-1.76159401711e-08
-4.7156990123e-08
1.92766260746e-09
-1.76284310455e-08
-4.67392505339e-08
1.45641502602e-09
-1.54677609952e-08
-4.07779008978e-08
4.58189252764e-10
-8.72291334792e-09
-2.3055319279e-08
0
-2.0826915262e-09
-5.53342028913e-09
0
0
0
0
0
0
0
0
0
0
0
0
0
0
0
0
0
0
0
0
0
0
0
2.77806703549e-11
-1.24999971434e-10
-3.84480771622e-10
1.93387852836e-09
-8.83402512885e-09
-2.6432223668e-08
6.48000616332e-09
-3.61894226235e-08
-1.02562193598e-07
1.1888769891e-08
-7.55204329778e-08
-2.02455645721e-07
1.42092842604e-08
-1.04643040396e-07
-2.70696783555e-07
1.42091326033e-08
-1.13284929606e-07
-2.88238642352e-07
1.4208981011e-08
-1.13367238324e-07
-2.85766057656e-07
1.42088293839e-08
-1.13449466129e-07
-2.83293553967e-07
1.4208677645e-08
-1.13531612928e-07
-2.80821131217e-07
1.18880854739e-08
-1.05016600133e-07
-2.58943655896e-07
6.47966057327e-09
-7.58882265603e-08
-1.90234993774e-07
1.93382719656e-09
-3.64095535233e-08
-9.50056908549e-08
2.77806771496e-11
-8.89678613435e-09
-2.42484898746e-08
0
-1.26051227909e-10
-3.47951806528e-10
0
0
0
0
0
0
0
0
0
0
0
0
0
0
0
0
0
1.96828956745e-09
-8.70087976915e-09
-2.78698968366e-08
1.07917402897e-08
-4.8611958959e-08
-1.54917198096e-07
2.53287897518e-08
-1.27636965382e-07
-3.8081374872e-07
3.87232051009e-08
-2.16311026527e-07
-6.05299398761e-07
4.40673659268e-08
-2.73429934197e-07
-7.36118289113e-07
4.40665934987e-08
-2.89566287978e-07
-7.66144638312e-07
4.40658211357e-08
-2.8978237738e-07
-7.59751546738e-07
4.40650487199e-08
-2.89998141117e-07
-7.53358745903e-07
4.40642763282e-08
-2.9021357913e-07
-7.46966235751e-07
3.87193731989e-08
-2.74434440689e-07
-7.04064252837e-07
2.53260739235e-08
-2.17398273095e-07
-5.67426176117e-07
1.07908344123e-08
-1.28440202321e-07
-3.5122419219e-07
1.96822095779e-09
-4.89733679779e-08
-1.41381256327e-07
0
-8.77489639526e-09
-2.52673439461e-08
0
0
0
0
0
0
0
0
0
0
0
0
0
0
4.62556237283e-10
-2.06669708586e-09
-6.97350991332e-09
8.06423950214e-09
-2.9228492464e-08
-1.13623945693e-07
2.83280058742e-08
-1.14381177974e-07
-4.03536247298e-07
5.50425479698e-08
-2.48467394387e-07
-7.93581439739e-07
7.69816498911e-08
-3.81676364281e-07
-1.13592954086e-06
8.53764277121e-08
-4.63453939403e-07
-1.32431104329e-06
8.53746992901e-08
-4.86127166809e-07
-1.364757382e-06
8.53729707615e-08
-4.86499197885e-07
-1.3538722407e-06
8.53712423049e-08
-4.86870542945e-07
-1.34298758036e-06
8.53695137783e-08
-4.87241201927e-07
-1.33210340106e-06
7.69726970749e-08
-4.65198837479e-07
-1.26785594963e-06
5.50351750061e-08
-3.83641937244e-07
-1.06457643541e-06
2.83245255399e-08
-2.50069694421e-07
-7.30678177724e-07
8.06363397794e-09
-1.15252996917e-07
-3.67080783794e-07
4.62551167651e-10
-2.94817214903e-08
-1.02798461907e-07
0
-2.08704400545e-09
-6.26750459446e-09
0
0
0
0
0
0
0
0
0
0
0
1.94312505287e-09
-6.56915063502e-09
-2.98742804521e-08
1.68340174606e-08
-5.37268650022e-08
-2.38112265374e-07
4.80556530108e-08
-1.75089831253e-07
-6.83774480513e-07
8.46912663428e-08
-3.4775538485e-07
-1.21287991392e-06
1.13385539967e-07
-5.11220744401e-07
-1.65529254578e-06
1.2414522566e-07
-6.093274125e-07
-1.89231308694e-06
1.24142798298e-07
-6.36269106634e-07
-1.94144053766e-06
1.24140371053e-07
-6.36765024454e-07
-1.92680397432e-06
1.24137943785e-07
-6.37259940357e-07
-1.91216786856e-06
1.24135516479e-07
-6.37753854271e-07
-1.89753222036e-06
1.13372694915e-07
-6.11660157961e-07
-1.81478883113e-06
8.46799001448e-08
-5.13893824851e-07
-1.5535883423e-06
4.80493701514e-08
-3.50031185764e-07
-1.11769221544e-06
1.68324361407e-08
-1.76444112773e-07
-6.2193910602e-07
1.94306891716e-09
-5.41983418317e-08
-2.1523022419e-07
0
-6.63421954085e-09
-2.69065757879e-08
0
0
0
0
0
0
0
0
0
0
0
3.45660663102e-09
-8.69458374365e-09
-5.44282057321e-08
2.3354268809e-08
-6.42442484555e-08
-3.37648894681e-07
6.08614824299e-08
-1.99323156291e-07
-8.86129058906e-07
1.03065113351e-07
-3.85748543294e-07
-1.5115237457e-06
1.35462396895e-07
-5.59788331548e-07
-2.02577411812e-06
1.47495120042e-07
-6.63488970703e-07
-2.29881717149e-06
1.47492675386e-07
-6.91875925079e-07
-2.35506435475e-06
1.47490230642e-07
-6.9242073916e-07
-2.33835870803e-06
1.47487786078e-07
-6.92964427493e-07
-2.32165324841e-06
1.47485341376e-07
-6.93506990133e-07
-2.30494797596e-06
1.35449340503e-07
-6.66050245389e-07
-2.20940018979e-06
1.03053211884e-07
-5.62733337705e-07
-1.90639203468e-06
6.08544881361e-08
-3.88285783501e-07
-1.39682146607e-06
2.33522553696e-08
-2.00872047901e-07
-8.08034551971e-07