/*--------------------------------*- C++ -*----------------------------------*\
| =========                 |                                                 |
| \\      /  F ield         | OpenFOAM: The Open Source CFD Toolbox           |
|  \\    /   O peration     | Version:  3.0.1                                 |
|   \\  /    A nd           | Web:      www.OpenFOAM.org                      |
|    \\/     M anipulation  |                                                 |
\*---------------------------------------------------------------------------*/
FoamFile
{
    version     2.0;
    format      ascii;
    class       volScalarField;
    location    "2";
    object      nut;
}
// * * * * * * * * * * * * * * * * * * * * * * * * * * * * * * * * * * * * * //

dimensions      [0 2 -1 0 0 0 0];

internalField   nonuniform List<scalar> 
7968
(
0.000285748809705
0.000296250387418
0.000303418910537
0.000307056151367
0.000308557549887
0.000308910777655
0.000308723737739
0.000308328346137
0.000307922943612
0.000307624925644
0.000307624380133
0.000307921895293
0.000308327643833
0.0003087239494
0.000308912111811
0.000308559858348
0.000307058941122
0.000303421784182
0.00029625379778
0.000285750694567
0.000296249380859
0.000340353090451
0.000365253795908
0.000377724933994
0.0003832883095
0.000385055585722
0.000384967272795
0.000384221888282
0.000383517965398
0.000383127659395
0.000383126413105
0.000383514795679
0.000384217757966
0.000384963317516
0.000385053139668
0.000383288498388
0.000377727323106
0.000365257417344
0.000340358360914
0.000296252854562
0.000303415868203
0.000365250254089
0.000399518763077
0.000417041692142
0.000425299593802
0.000428312788015
0.00042862968498
0.000427926092317
0.000427190926612
0.000426791241261
0.000426789263423
0.000427185628134
0.000427918646401
0.000428621448959
0.000428306030493
0.000425296034553
0.000417041437352
0.000399520913449
0.000365254526098
0.000303419699688
0.000307049052707
0.000377714511064
0.000417036092567
0.000437335049454
0.000446961090258
0.000450409899869
0.000450687016063
0.000449785877859
0.000448902802118
0.000448443314867
0.00044844066595
0.000448895559781
0.000449775106408
0.000450674529967
0.000450398134235
0.000446952754001
0.000437330646889
0.000417035026358
0.000377716457666
0.000307052764563
0.000308545099544
0.000383271157604
0.000425290360954
0.000446959778634
0.000456952809687
0.000460211937659
0.000461244256156
0.000461294633622
0.000460859019964
0.000460529151795
0.000460527208772
0.000460853539678
0.000461286427748
0.000461234288053
0.000460196879328
0.000456939673352
0.000446950360164
0.000425284802327
0.000383269291744
0.000308547700689
0.000308893469988
0.000385035103939
0.000428305899287
0.000450417265732
0.000460224655728
0.000465212203012
0.000467131679712
0.000467163232155
0.000466598786462
0.00046617629306
0.000466174570301
0.000466593608844
0.000467154966458
0.000467121545909
0.000465200497376
0.000460208307657
0.000450403011619
0.000428295605889
0.000385028899607
0.000308894170815
0.0003087023001
0.000384946877476
0.000428630998486
0.000450711422193
0.000461255469544
0.000467137618515
0.000468949016238
0.000468635438687
0.000467759004749
0.000467159477996
0.000467157761373
0.000467754085089
0.00046862767776
0.00046893905826
0.000467126471778
0.000461242835597
0.000450695064659
0.000428617537006
0.000384937113938
0.000308700973851
0.000308303177046
0.000384202349932
0.000427935585771
0.00044982649778
0.000461312946359
0.000467172910917
0.000468633715689
0.00046787769968
0.000466619449501
0.00046579916211
0.000465797074948
0.000466614462054
0.000467870683261
0.000468625035414
0.00046716307483
0.000461301742062
0.000449812038155
0.000427921754906
0.00038419068525
0.000308300123925
0.000307894551892
0.000383497722105
0.000427202804289
0.000448949900168
0.000460883563638
0.000466614420034
0.00046776002586
0.000466618436943
0.000465012850165
0.00046397281241
0.000463970349099
0.000465008071415
0.000466613479518
0.000467754466669
0.000466607627828
0.00046087535042
0.000448940907406
0.000427191526437
0.000383486268049
0.000307890254824
0.000307595522976
0.000383106037538
0.000426800364603
0.000448487008044
0.000460557530044
0.000466199808785
0.000467170283521
0.000465805289617
0.000463976113108
0.000462761817582
0.000462761236329
0.000463974840058
0.000465804454135
0.000467169171388
0.000466197440117
0.000460553581738
0.000448484833406
0.000426793635579
0.000383096727862
0.000307590937982
0.000307600933656
0.000383107452101
0.000426798171757
0.000448482704591
0.000460557316582
0.000466200749093
0.000467172909236
0.00046580944389
0.000463980874668
0.000462767974342
0.000462769096273
0.000463984007472
0.000465813557564
0.000467176582423
0.000466203040932
0.000460558104117
0.000448487844826
0.000426796583303
0.000383101043297
0.000307596878291
0.000307905352101
0.000383501690987
0.000427197034487
0.00044893740407
0.000460883904304
0.000466618714892
0.000467769551233
0.000466633032642
0.000465031026497
0.000463995017809
0.000463996223624
0.000465035236285
0.000466638989425
0.000467775671002
0.00046662409765
0.000460888531263
0.000448949846235
0.000427199985079
0.000383497976638
0.000307902121823
0.000308316257829
0.000384210049703
0.000427930209363
0.000449812208137
0.000461316461923
0.00046718271236
0.000468651196002
0.000467902081107
0.000466650514559
0.000465836888376
0.000465838164524
0.000466654436102
0.00046790784213
0.000468657774142
0.000467189517579
0.000461323006446
0.00044982764295
0.00042793519231
0.000384207772681
0.000308313706861
0.000308716540186
0.00038495959621
0.00042863042504
0.000450701867245
0.000461263632966
0.000467153583795
0.000468973352394
0.000468667282806
0.000467798219797
0.000467205972352
0.000467207090101
0.000467801182196
0.000468671861621
0.000468979291784
0.000467160185705
0.000461270275421
0.000450715114854
0.000428633918348
0.00038495662907
0.000308713974875
0.000308907889331
0.000385053372023
0.000428313152194
0.000450416476187
0.000460228286345
0.000465233213945
0.000467161733545
0.000467201909976
0.000466645741031
0.000466230039303
0.000466230987378
0.000466648075996
0.000467205327409
0.00046716633465
0.000465239015482
0.000460241883225
0.000450422996115
0.000428311994586
0.000385048462451
0.000308905320138
0.000308558735282
0.000383293870945
0.000425304619221
0.000446966435617
0.000456961384252
0.000460236012233
0.000461277400797
0.000461337576266
0.000460910534353
0.000460586511192
0.000460587195151
0.000460912312317
0.000461340185276
0.000461280898094
0.000460244147352
0.000456965925399
0.000446965132564
0.000425298964204
0.000383287265601
0.000308556288708
0.000307059509933
0.000377737659251
0.000417053787998
0.000437346356059
0.000446971520023
0.000450429439848
0.00045072316834
0.000449839124426
0.000448967507584
0.000448513963246
0.000448514859269
0.000448969875164
0.000449842471257
0.00045072713402
0.000450432270128
0.000446970285476
0.00043734099394
0.000417046160994
0.000377730752152
0.00030705764925
0.000303422482721
0.000365270154768
0.000399536339252
0.000417054881566
0.000425310428061
0.000428326179625
0.000428651556562
0.000427958178708
0.000427230626402
0.000426835286907
0.000426836755681
0.000427234095127
0.000427962464741
0.00042865524414
0.000428327675759
0.000425308063925
0.000417049130139
0.000399529043298
0.000365264268745
0.000303421034212
0.000296253064844
0.000340367434523
0.000365267939455
0.000377737009056
0.000383297869788
0.00038506451377
0.000384979275178
0.00038423885141
0.000383539516199
0.000383152732502
0.000383154649463
0.000383544395322
0.000384244967996
0.000384984624786
0.000385067344821
0.000383296987602
0.000377732753991
0.000365262120757
0.000340362829044
0.000296251845754
0.000285749443027
0.000296253503834
0.00030342228274
0.000307058888758
0.00030855932739
0.000308911179778
0.000308723630477
0.000308328737471
0.000307924356893
0.000307627973601
0.000307629232335
0.000307927399762
0.000308332494792
0.000308726954715
0.000308913180027
0.000308559772639
0.00030705796761
0.000303420686027
0.000296252433303
0.000285748852719
0.000295157321531
0.000335039130184
0.00035905234042
0.000371752867132
0.000377957075956
0.000380481646332
0.00038106618558
0.000380802564155
0.000380351512725
0.000380048078498
0.000380047262276
0.000380349428725
0.000380799957187
0.000381063835126
0.000380480093416
0.000377956600703
0.000371753183058
0.00035905310648
0.000335040963929
0.000295159145348
0.000335034332376
0.00104391717149
0.00133239603399
0.00147256574183
0.00154112119428
0.0015699375698
0.00157718874007
0.00157465655972
0.00156990923535
0.00156680069839
0.0015667916329
0.00156988533068
0.00157462397244
0.00157715538909
0.00156991286867
0.00154111104411
0.00147256652902
0.00133239809739
0.00104391673206
0.000335034638327
0.000359044878379
0.00133237436163
0.00176549920938
0.00198724076685
0.00210337435424
0.00215892028496
0.00217971222651
0.00218305542344
0.00218041405692
0.00217787896875
0.00217786494337
0.00218037561521
0.00218300037579
0.00217965108453
0.00215886702679
0.00210333922787
0.00198722322184
0.00176549258983
0.001332374673
0.00035904452341
0.000371740907258
0.00147248982085
0.00198718953256
0.0022581818722
0.0024039916201
0.00247608933685
0.00250453082433
0.00251033341294
0.00250837131791
0.00250601755608
0.00250600031889
0.00250831870863
0.00251025443538
0.00250443778385
0.00247600371979
0.00240392393976
0.00225813469773
0.00198715968412
0.00147247374126
0.000371739742241
0.000377939803844
0.00154100378099
0.00210329100015
0.00240397152009
0.00256659418658
0.00264517687603
0.00267199382247
0.00267121205539
0.00266452754843
0.00266004116432
0.00266001593844
0.00266445273123
0.00267109524546
0.00267185841721
0.00264506254489
0.00256649527761
0.00240389039275
0.00210322930534
0.00154096081766
0.000377936794659
0.000380460471269
0.00156981688714
0.00215885585855
0.00247612072602
0.0026452569725
0.00271598444675
0.0027290186859
0.00271951606448
0.00270739867135
0.00270034294858
0.00270032416448
0.00270733295214
0.00271939520513
0.0027288668889
0.00271583395744
0.00264513135182
0.00247600964109
0.00215876351779
0.00156974701486
0.000380454956952
0.000381043281277
0.00157709571358
0.00217971384782
0.00250468446771
0.00267230711795
0.00272920812879
0.00273069858738
0.00271236752017
0.00269468587837
0.00268504140051
0.00268502379856
0.00269463255649
0.00271227124217
0.00273056155186
0.00272905983141
0.00267216285522
0.00250456042986
0.00217960522442
0.00157700888992
0.000381035458902
0.000380778863641
0.00157459574864
0.00218312181274
0.00251059316377
0.00267169747088
0.00271978726588
0.00271229047065
0.00268680292348
0.00266470706125
0.00265313001286
0.00265310217559
0.00266464647604
0.00268672005669
0.00271219043352
0.00271967936478
0.00267158898582
0.00251048879543
0.00218302031208
0.00157450792101
0.000380769683293
0.000380327066872
0.00156986602452
0.00218050948448
0.0025086763831
0.00266512425523
0.00270777677361
0.00269462578853
0.00266463280971
0.00264023340026
0.00262783067823
0.00262778765882
0.00264016092387
0.00266459068015
0.00269459910582
0.00270774575444
0.00266508498234
0.00250861556562
0.00218043569081
0.00156979217991
0.000380317686911
0.00038002371123
0.00156676539844
0.00217797014723
0.0025062816772
0.00266068204916
0.00270085613841
0.00268514518145
0.00265315234997
0.00262782743732
0.00261503776316
0.002615036438
0.00262783231197
0.00265319464829
0.00268520877368
0.00270092185264
0.00266072812406
0.00250626778895
0.00217793510549
0.00156671536311
0.000380015418876
0.000380026374048
0.00156677918725
0.0021779664625
0.00250627135399
0.0026606493995
0.00270083663143
0.00268515801834
0.00265317620497
0.00262782438302
0.0026150442403
0.00261506977209
0.00262791674918
0.00265331589671
0.00268531394293
0.00270099553718
0.00266078196834
0.00250630903428
0.00217797443551
0.00156675721299
0.000380019843811
0.00038033435237
0.00156991331485
0.00218050607291
0.00250863423113
0.00266505185313
0.00270776518209
0.00269472391776
0.0026648045366
0.00264041080884
0.0026280531011
0.00262807733109
0.0026405179791
0.00266497457811
0.00269492629539
0.00270798548705
0.00266525334885
0.00250873760538
0.00218055296997
0.0015699164016
0.000380329497923
0.000380790496735
0.00157469241918
0.00218314740489
0.0025105627202
0.0026716512602
0.00271985996394
0.00271253178648
0.00268714994654
0.00266515000491
0.0026536812232
0.00265371012162
0.00266524994589
0.00268730848657
0.00271273525956
0.00272010373472
0.00267188426098
0.00251069433895
0.00218321289703
0.00157470905024
0.000380786666575
0.000381059163972
0.00157725836528
0.00217980099925
0.00250470900653
0.00267233856355
0.00272939881975
0.0027310821886
0.00271287515181
0.00269529938017
0.002685781109
0.00268580832442
0.00269537502067
0.0027130000313
0.00273126295194
0.00272962596553
0.00267255245626
0.00250483193211
0.00217985942457
0.00157727324286
0.000381055222795
0.000380480210749
0.00157005579293
0.00215902834263
0.00247623152554
0.00264540096712
0.00271627785129
0.00272953545832
0.00272019901145
0.00270821913206
0.00270127882137
0.00270130164023
0.00270827746507
0.00272028956691
0.00272967246652
0.00271644400543
0.00264552417475
0.00247630921521
0.0021590577968
0.00157005551412
0.000380475680811
0.000377962033887
0.00154131239489
0.00210354463524
0.00240416083566
0.0025667947341
0.002645496194
0.0026725432697
0.00267195159162
0.00266540497072
0.00266100232582
0.00266101489425
0.00266544120153
0.00267201235358
0.00267263317533
0.00264558608235
0.0025668641055
0.00240419454102
0.00210354462545
0.00154129625374
0.000377957088915
0.000371762705124
0.00147283851609
0.00198750095476
0.00225843741313
0.00240423913071
0.00247640320425
0.0025049725287
0.00251089517352
0.00250901435243
0.00250668107868
0.00250669224534
0.00250904636638
0.00251094571814
0.002505037336
0.0024764662443
0.00240428017468
0.00225844820218
0.00198748722093
0.00147281691423
0.000371758075302
0.000359063965152
0.0013327196752
0.0017658328762
0.00198754078213
0.00210366239922
0.00215923713595
0.00218009863773
0.00218351830469
0.00218093503457
0.0021784348775
0.00217845032118
0.00218097675938
0.00218357868365
0.00218016735805
0.00215929903567
0.00210370149861
0.00198755143961
0.00176582089402
0.00133270166483
0.000359059664777
0.000335048157611
0.00104418923681
0.00133268443334
0.00147284818232
0.00154139761376
0.00157022385901
0.00157750850188
0.00157501847128
0.00157030768161
0.00156722790148
0.00156724537568
0.00157035485061
0.00157508577408
0.00157758341124
0.00157029157884
0.00154144404092
0.00147286649658
0.00133267696835
0.00104417126137
0.000335044283903
0.000295158505524
0.000335055214852
0.000359070113397
0.000371768574268
0.000377970377175
0.000380493485809
0.000381078879768
0.000380817811239
0.000380369695538
0.000380069137019
0.000380070882031
0.000380374126376
0.000380823494418
0.000381084285151
0.000380497367515
0.00037797212373
0.000371768269247
0.000359068631761
0.000335053848558
0.000295157690756
0.000301582998711
0.000356305255615
0.000389105692274
0.000406960790056
0.00041621515108
0.000420453994715
0.000421902322915
0.00042202088748
0.000421725680843
0.000421485913329
0.000421485011463
0.000421723419392
0.000422018041918
0.000421899648863
0.000420452149577
0.000416214539534
0.000406961063335
0.000389106401371
0.000356307107051
0.000301585167951
0.00035629814839
0.00129196491077
0.00170700881361
0.00191697009481
0.00202455690453
0.00207398334388
0.00209056241023
0.00209107577447
0.00208659830429
0.00208311795723
0.00208310870432
0.00208657556041
0.00209104768417
0.00209053862412
0.00207397597212
0.00202457391007
0.0019170032423
0.00170704001454
0.0012919833326
0.000356298045408
0.000389095034636
0.00170695683338
0.00237291836638
0.00273414528112
0.00293322363117
0.00303549469774
0.00307978722803
0.00309297108589
0.00309339189475
0.0030912970913
0.00309127949232
0.003093346125
0.0030929069366
0.00307971696666
0.00303543806071
0.00293319421566
0.0027341403904
0.00237292734823
0.00170697341917
0.000389093537069
0.000406944850364
0.00191682721192
0.00273405189967
0.00319440767201
0.00345668479809
0.0035966650387
0.003660689183
0.00368287156744
0.00368773573696
0.00368709224243
0.00368707025537
0.00368767803547
0.00368278006533
0.0036605748259
0.0035965599874
0.00345660272209
0.00319435295007
0.00273402154288
0.00191681844321
0.00040694193533
0.000416193576414
0.00202434406192
0.0029330648227
0.00345663117452
0.00375916050292
0.00392152740295
0.00399329668796
0.00401607284554
0.00401825462718
0.00401569197096
0.00401566213496
0.00401817040916
0.00401594427787
0.00399314787091
0.003921402203
0.00375903481343
0.00345652366499
0.00293298427693
0.00202429428776
0.000416188256156
0.000420428651302
0.0020737654143
0.0030353500649
0.00359665515394
0.00392156998872
0.00408903445818
0.00416102040153
0.00418170901304
0.00417978882455
0.00417420420414
0.00417417763511
0.00417970442111
0.00418156719653
0.00416084915711
0.00408886540585
0.00392142294436
0.00359650316648
0.00303522214964
0.00207367465538
0.000420420339387
0.000421876494817
0.00209039477886
0.00307973121762
0.00366081778776
0.00399355782564
0.00416118503274
0.00423210264729
0.00424882903028
0.00424129174036
0.00423191265387
0.00423188602871
0.00424121401964
0.00424869899358
0.00423193631838
0.00416101255033
0.00399338577658
0.00366064626748
0.00307957944929
0.00209028065784
0.000421865711812
0.000421995749482
0.00209096089356
0.0030929977717
0.00368310095872
0.00401649651917
0.00418195894565
0.00424878953267
0.00425929324925
0.0042458182306
0.00423309461627
0.00423306095871
0.00424573405588
0.00425917497039
0.00424865764128
0.00418182672343
0.0040163626225
0.00368295614504
0.00309285915948
0.00209085048876
0.000421983928489
0.000421700480828
0.00208650378995
0.00309345034813
0.00368795904388
0.0040187838327
0.00418013894732
0.0042412627633
0.00424575290593
0.00422811690419
0.00421335944488
0.00421331835746
0.00422803529274
0.00424568249098
0.00424120634089
0.00418008832182
0.00401872647702
0.00368787099671
0.00309335527638
0.00208642030965
0.0004216891833
0.000421460560867
0.00208302254038
0.00309136097422
0.00368736983729
0.00401628410015
0.00417468028708
0.00423201607513
0.0042331332367
0.00421339110042
0.00419755784229
0.00419755212562
0.00421338771875
0.00423315621154
0.00423205715532
0.00417473297747
0.00401632408391
0.00368735490089
0.00309132813346
0.00208298006428
0.000421451081223
0.000421462408411
0.00208303592785
0.00309135531775
0.003687360314
0.00401625591433
0.00417466710492
0.00423204071724
0.00423317311767
0.00421341394463
0.00419759572272
0.0041976192394
0.00421349772351
0.00423329723348
0.00423218058517
0.00417482077369
0.00401639295343
0.0036874173909
0.00309138834114
0.00208303940236
0.000421455346459
0.000421706111287
0.00208655444488
0.00309345096524
0.00368795551858
0.00401873307801
0.00418014575412
0.00424139374952
0.00424596519552
0.00422835328255
0.004213656061
0.00421368300984
0.00422845712947
0.00424612596316
0.00424158811264
0.00418036865225
0.00401894143012
0.00368806190633
0.00309353698434
0.00208659773702
0.000421701292228
0.000422006109025
0.00209107734034
0.00309304288952
0.00368309675301
0.00401648605832
0.00418205965445
0.00424906511786
0.0042597030281
0.00424633875495
0.00423373570244
0.00423376654036
0.00424643879279
0.00425986046285
0.00424927070402
0.00418231151416
0.00401673287429
0.00368326484047
0.00309315882576
0.00209114109554
0.000422002532851
0.000421892717199
0.00209061014432
0.00307987223782
0.00366088795532
0.00399365360585
0.0041614178459
0.00423252745846
0.00424940276071
0.00424200401913
0.0042327595012
0.0042327891747
0.00424208623979
0.00424953766757
0.00423272000895
0.00416165843316
0.00399388610898
0.00366106023889
0.00307998151639
0.0020906685339
0.000421888957782
0.000420451399481
0.00207410648936
0.00303563193879
0.00359686565285
0.00392184597877
0.00408941556961
0.0041616030257
0.00418246566716
0.00418069606947
0.00417524033544
0.00417526595962
0.0041807665046
0.004182576891
0.00416176355522
0.00408960220196
0.00392198311496
0.00359698456449
0.00303569993654
0.00207413692602
0.000420446680917
0.000416221815734
0.00202480565201
0.00293348600638
0.00345697238237
0.00375951449058
0.003922012213
0.00399398654063
0.00401695224543
0.00401928206888
0.00401682713443
0.00401684571134
0.00401933743158
0.0040170444556
0.00399411330886
0.00392213366621
0.0037596240879
0.00345704147405
0.00293351309201
0.00202480789866
0.000416216506188
0.000406975644706
0.00191736763997
0.00273457795025
0.00319486372196
0.00345712943901
0.00359719521205
0.00366137788259
0.00368370407281
0.00368865020437
0.00368810123196
0.00368812263797
0.0036887120408
0.0036838012079
0.00366150018267
0.00359731637976
0.00345722121887
0.00319491244063
0.00273458940103
0.00191736022823
0.000406970714902
0.000389125061591
0.0017075112906
0.00237349252115
0.00273468062161
0.00293374505682
0.00303606102827
0.00308045952806
0.0030937567913
0.0030942653692
0.00309223808325
0.00309226894016
0.00309434970064
0.00309388098895
0.00308060486434
0.00303620113579
0.00293385194391
0.00273474175629
0.00237351268233
0.00170750979354
0.000389120793259
0.000356321915055
0.00129241599709
0.00170750992646
0.00191746984749
0.00202505243074
0.00207450074968
0.00209114179319
0.00209172786198
0.00208730989492
0.00208387556206
0.00208390980522
0.0020874033118
0.002091864613
0.0020913009293
0.00207465624459
0.00202517803869
0.00191755020588
0.00170754335652
0.00129241861357
0.000356318401255
0.000301584706999
0.000356332286187
0.000389136094608
0.000406988494921
0.000416239544859
0.000420476762799
0.000421926927536
0.000422049407406
0.000421758208967
0.000421521895191
0.000421524153297
0.000421764057452
0.000422057339152
0.000421935151521
0.000420483721696
0.00041624413
0.000406990531315
0.000389136412268
0.000356332109517
0.000301584126145
0.000305179664346
0.000367219677526
0.000404786685145
0.000425747143045
0.00043704422355
0.000442576894657
0.000444788767883
0.000445329213021
0.000445253809323
0.000445110863867
0.000445109896015
0.00044525146151
0.000445326306215
0.000444786036031
0.000442575156461
0.000437044136546
0.000425748306251
0.00040478850958
0.000367223227739
0.000305182314415
0.000367210450821
0.00141136227193
0.00189473667426
0.00214610645488
0.00227908269389
0.00234369839571
0.00236873146975
0.00237350349248
0.00237088094253
0.00236806149868
0.0023680498305
0.00237085322327
0.00237346996328
0.00236870389605
0.00234369448863
0.00227911780032
0.00214616808761
0.00189479892701
0.00141140597774
0.000367211451495
0.000404773237594
0.00189466196776
0.00269402952879
0.00314388057588
0.00340075878879
0.00353913317406
0.00360432954117
0.00362834860025
0.00363322500458
0.00363254658363
0.00363252626073
0.00363317358107
0.00362827979407
0.00360425574309
0.00353907724772
0.00340074049185
0.00314389441425
0.00269405984733
0.00189469850424
0.00040477207059
0.000425727859883
0.00214592364654
0.00314376272154
0.00372958669906
0.00407618388893
0.00427056211909
0.00436825808432
0.00440949440853
0.00442072375495
0.00442155996817
0.00442153282209
0.00442065136192
0.00440939621993
0.00436813664761
0.00427045128416
0.00407610277523
0.00372953778737
0.00314374054678
0.00214592313828
0.000425724614917
0.000437020052086
0.00227882018284
0.00340056235859
0.00407611461333
0.00448384960128
0.00471836990367
0.00483843183788
0.00488841657392
0.00490093899479
0.00490081234303
0.00490077847984
0.00490084524772
0.0048882787133
0.00483827426126
0.00471822114698
0.00448371509053
0.00407600054802
0.00340047616424
0.00227876490496
0.000437013833027
0.000442549721919
0.00234345233852
0.0035389650686
0.00427054427497
0.00471843196264
0.00497737033522
0.00511195488807
0.0051660319385
0.0051757994025
0.00517240103425
0.00517236680262
0.00517569929929
0.00516587501425
0.00511177225661
0.00497719070294
0.00471825955228
0.00427037483241
0.00353881976191
0.00234334381289
0.000442540064458
0.00044476286523
0.00236858721995
0.00360428798782
0.00436838993488
0.00483865218042
0.0051120867225
0.00525320466929
0.00530501466965
0.00530805176697
0.00529959218825
0.005299557498
0.00530795605024
0.00530485674861
0.00525301619567
0.00511190499002
0.00483847328754
0.00436820344684
0.00360411931141
0.00236845528657
0.000444750714153
0.000445305527098
0.00237345213963
0.00362842046853
0.00440969790989
0.00488877397445
0.00516623931843
0.00530491625608
0.00534879967672
0.00534343960473
0.00533028258951
0.00533024753314
0.0053433426089
0.00534864582822
0.0053047497111
0.00516609452956
0.00488864034519
0.00440956001712
0.00362828063384
0.00237333946761
0.000445292854109
0.000445230123641
0.0023708500426
0.00363333995449
0.00442104763918
0.00490139571764
0.00517609000998
0.00530794154453
0.00534337110424
0.00533179473746
0.00531536667153
0.0053153178804
0.00533168965097
0.00534326745678
0.00530784122863
0.00517601602709
0.00490133948615
0.0044209835897
0.00363326735057
0.0023707892188
0.000445218815781
0.000445085797516
0.00236799398995
0.00363262836254
0.004421884727
0.00490130105767
0.00517278531669
0.00529963659139
0.00533033722655
0.00531542679627
0.00529713309324
0.00529712276963
0.0053153944616
0.00533031003688
0.00529961677213
0.00517279997548
0.00490134007923
0.00442191660889
0.00363264430891
0.00236800082379
0.000445077096563
0.0004450862867
0.00236797780775
0.00363259014814
0.0044218387553
0.00490126293696
0.00517277424074
0.00529966779772
0.00533038683287
0.00531544844573
0.00529718187018
0.00529719046081
0.00531549703086
0.00533044708971
0.00529972935672
0.00517287747147
0.00490139763437
0.00442196654296
0.00363269591142
0.00236805394098
0.000445080652135
0.000445231997461
0.00237081887595
0.0036332500568
0.00442094142758
0.00490131344996
0.00517609431082
0.00530807723645
0.00534359905569
0.00533203170058
0.00531566743065
0.00531567694547
0.00533209147963
0.00534369179182
0.00530819209559
0.00517626253983
0.00490152053021
0.00442114119767
0.0036334267459
0.0023709509983
0.00044522907547
0.000445310529052
0.00237345561708
0.00362835078035
0.00440963190319
0.0048887162999
0.00516631572988
0.0053051796618
0.00534918221261
0.00534394014428
0.00533089684101
0.00533091665543
0.00534400454115
0.00534928061165
0.00530532143248
0.00516651982649
0.00488896062326
0.00440984345502
0.00362855336893
0.0023736083646
0.000445308844803
0.000444773574147
0.0023686888494
0.00360431410557
0.0043683573046
0.00483866983521
0.00511225513314
0.00525356868781
0.0053055052231
0.00530866260618
0.00530033623558
0.00530035966542
0.00530872607683
0.00530560769435
0.00525372473339
0.00511247228925
0.00483891992992
0.00436858974567
0.00360449937087
0.00236882192655
0.000444771310445
0.000442568648158
0.002343716199
0.00353916723445
0.00427067251514
0.00471859048009
0.00497765690382
0.00511242570565
0.00516666035074
0.00517656400794
0.00517328148506
0.00517330373108
0.00517662797296
0.00516676645597
0.00511258498353
0.00497786126861
0.00471880092992
0.00427084863518
0.00353929073209
0.00234379501364
0.000442564651221
0.000437047217693
0.00227925909289
0.00340095932897
0.00407642670426
0.00448416999972
0.00471879861617
0.00483903568272
0.00488918633128
0.00490185390711
0.00490182951121
0.00490185162511
0.00490192211312
0.00488930084918
0.00483919440583
0.00471897937192
0.00448432972822
0.0040765366234
0.00340102108964
0.00227928592305
0.000437042106015
0.000425760740233
0.00214649044502
0.00314431802363
0.0037300639498
0.00407664660511
0.00427111622483
0.00436898345611
0.00441036134354
0.0044217440127
0.00442267364932
0.00442270308177
0.00442182939841
0.00441049480085
0.00436915177165
0.00427129083837
0.00407678474132
0.00373014874151
0.00314435565919
0.00214649698308
0.000425755812709
0.000404807965684
0.0018952856256
0.00269468118689
0.00314448378764
0.00340134293548
0.00353977306585
0.00360511125659
0.00362928227808
0.00363427904567
0.00363368060333
0.00363372442734
0.00363439720255
0.00362945659637
0.00360531738619
0.00353997720413
0.0034015059117
0.00314458825298
0.00269472991182
0.00189529777715
0.000404803957442
0.000367240520121
0.00141190152244
0.00189533708797
0.00214669649946
0.00227966180491
0.00234431059204
0.00236944831951
0.00237433880128
0.00237180704462
0.00236904935397
0.00236909799861
0.00237193711584
0.00237452841814
0.00236967067106
0.00234453318158
0.00227984816807
0.00214682543136
0.00189540409628
0.001411923011
0.00036723746226
0.000305179994802
0.000367252770937
0.000404822737853
0.000425779496206
0.000437072348869
0.000442603165172
0.000444818121672
0.000445364167219
0.000445293929567
0.000445154893001
0.000445157560081
0.00044530083075
0.000445373698113
0.000444828360036
0.000442612448596
0.000437079156631
0.00042578345514
0.000404824701639
0.00036725377937
0.000305179648066
0.000307404683513
0.000373422006691
0.000413921430346
0.000436968270683
0.000449738448694
0.000456284760504
0.000459174056061
0.000460163040533
0.00046037583233
0.000460379903099
0.000460378969148
0.000460373684497
0.000460160537576
0.00045917181444
0.000456283645743
0.000449739378462
0.000436970865908
0.000413925384053
0.00037342772781
0.000307407744546
0.000373412996948
0.00148069234052
0.00200770041632
0.00228668549359
0.00243732727424
0.00251336926712
0.00254566348948
0.00255486971346
0.00255478931837
0.00255314108061
0.00255312555399
0.00255475379286
0.00255482699741
0.00254562447704
0.00251335635788
0.00243736713813
0.00228676312655
0.00200778298572
0.00148075732291
0.000373416039501
0.000413906672706
0.00200760468224
0.00289649661872
0.00340875933405
0.00370793177788
0.00387430952304
0.00395770042614
0.00399219742922
0.00400164639274
0.00400240874578
0.00400238354978
0.00400158373323
0.00399211502071
0.0039576151466
0.00387424564562
0.00370791826923
0.00340878677587
0.00289654298634
0.00200765146783
0.00041390703204
0.000436946525564
0.00228648393682
0.00340863576668
0.00408449677452
0.00449519944106
0.00473480424354
0.00486167726074
0.00491735332518
0.00493347962076
0.00493523575456
0.00493520036302
0.00493338361848
0.00491721747701
0.00486152892694
0.00473467526967
0.00449511720952
0.0040844534487
0.00340861930109
0.00228648466498
0.000436943858034
0.00044971429387
0.00243706471238
0.0037077440798
0.00449513452527
0.0049857583849
0.00527910683384
0.00543618496913
0.00550309639552