/*--------------------------------*- C++ -*----------------------------------*\
| =========                 |                                                 |
| \\      /  F ield         | OpenFOAM: The Open Source CFD Toolbox           |
|  \\    /   O peration     | Version:  3.0.1                                 |
|   \\  /    A nd           | Web:      www.OpenFOAM.org                      |
|    \\/     M anipulation  |                                                 |
\*---------------------------------------------------------------------------*/
FoamFile
{
    version     2.0;
    format      ascii;
    class       surfaceScalarField;
    location    "5";
    object      phi;
}
// * * * * * * * * * * * * * * * * * * * * * * * * * * * * * * * * * * * * * //

dimensions      [0 3 -1 0 0 0 0];

internalField   nonuniform List<scalar> 
22672
(
3.68030226466e-06
3.60475055251e-06
-7.28512421097e-06
9.17461327273e-06
2.48695524746e-06
-7.98133049734e-06
1.4718856637e-05
2.3978082185e-06
-7.94211362216e-06
1.8865757885e-05
3.22263554272e-06
-7.36959084127e-06
2.07606052194e-05
4.82510323756e-06
-6.71999750907e-06
2.01011205512e-05
6.81625963469e-06
-6.15681769973e-06
1.72794296521e-05
8.59046050959e-06
-5.76881150038e-06
1.26239397502e-05
1.01666730326e-05
-5.51122724235e-06
6.78142984188e-06
1.12742186418e-05
-5.43175718638e-06
3.83302938191e-07
1.18346343465e-05
-5.43656116275e-06
-6.02846709244e-06
1.1842917275e-05
-5.43120604368e-06
-1.1910449735e-05
1.12961936435e-05
-5.41427374604e-06
-1.66247632166e-05
1.01950860161e-05
-5.48083746924e-06
-1.9517533405e-05
8.61869752428e-06
-5.72599283959e-06
-2.02537056648e-05
6.84297202756e-06
-6.10686521997e-06
-1.84451846087e-05
4.85848709877e-06
-6.66707463654e-06
-1.43899932389e-05
3.26481361085e-06
-7.32007612789e-06
-8.94528399728e-06
2.45327694817e-06
-7.89806912595e-06
-3.559092865e-06
2.55454304795e-06
-7.94083980247e-06
3.68539509999e-06
-7.24456883169e-06
2.55303340356e-06
9.04431528996e-06
-7.99266171436e-06
8.91138255495e-06
8.79558844873e-06
-1.26670411024e-05
1.55333144196e-05
9.86272402907e-06
-1.40869028679e-05
2.03040308195e-05
1.23765966509e-05
-1.39247249225e-05
2.23978580012e-05
1.59926941558e-05
-1.32614590108e-05
2.16982057319e-05
2.00126679759e-05
-1.24967933108e-05
1.84927168385e-05
2.36621847361e-05
-1.18662720385e-05
1.34260830567e-05
2.66857341351e-05
-1.14524662856e-05
7.18146754011e-06
2.87968540403e-05
-1.12780630303e-05
3.89294797235e-07
2.98705781536e-05
-1.12438191713e-05
-6.41945998965e-06
2.98896532991e-05
-1.12380338848e-05
-1.27113437541e-05
2.88478486243e-05
-1.12598269333e-05
-1.78458906774e-05
2.67529979047e-05
-1.14234217179e-05
-2.11277474375e-05
2.37306802822e-05
-1.18301821659e-05
-2.19093330279e-05
2.00834133067e-05
-1.24589113084e-05
-1.98990929754e-05
1.60759755899e-05
-1.32277863293e-05
-1.52169049636e-05
1.24788278729e-05
-1.3896267668e-05
-8.68518526947e-06
9.98802183612e-06
-1.40665456568e-05
-2.42549633714e-06
8.93762153867e-06
-1.26428723948e-05
9.19154717743e-06
-7.93172811889e-06
2.46406386553e-06
1.45626673688e-05
-7.98247574604e-06
9.9732219948e-06
1.53882772298e-05
-1.41019005292e-05
1.77576327386e-05
1.76206489569e-05
-1.55423848076e-05
2.32232054676e-05
2.16290223975e-05
-1.47180402155e-05
2.54889360874e-05
2.68712755095e-05
-1.31443478705e-05
2.45056219846e-05
3.24786362959e-05
-1.14826870273e-05
2.07230779764e-05
3.75649518998e-05
-1.01202558429e-05
1.49284822533e-05
4.17046863452e-05
-9.22439163338e-06
7.93425712477e-06
4.45796635302e-05
-8.78862372341e-06
4.06593293891e-07
4.60430186224e-05
-8.64482081242e-06
-7.14350159316e-06
4.60725943123e-05
-8.63289439023e-06
-1.41994177838e-05
4.46584936903e-05
-8.75477933558e-06
-2.00751223133e-05
4.18060489542e-05
-9.17739683102e-06
-2.39391823685e-05
3.76643181647e-05
-1.00696265474e-05
-2.50010863637e-05
3.25773782534e-05
-1.14321090944e-05
-2.28139077322e-05
2.69846372671e-05
-1.30958923002e-05
-1.74335906428e-05
2.17699688832e-05
-1.46715212476e-05
-9.73945023943e-06
1.77923025477e-05
-1.54985046216e-05
-2.33018554549e-06
1.55802424958e-05
-1.40519969314e-05
1.47529135976e-05
-7.89163706172e-06
3.28578163011e-06
1.86926130386e-05
-7.41577622487e-06
1.24829055553e-05
2.0144907734e-05
-1.3953797372e-05
2.17605375705e-05
2.30736309965e-05
-1.47306528999e-05
2.80985348408e-05
2.79592923924e-05
-1.26683000619e-05
3.05005457842e-05
3.41299504096e-05
-9.6607141775e-06
2.90086639804e-05
4.06136041282e-05
-6.64311232987e-06
2.42982323926e-05
4.64518594311e-05
-4.17650272475e-06
1.73476469104e-05
5.1184545864e-05
-2.52930347455e-06
9.14906709815e-06
5.44715980221e-05
-1.69338822503e-06
4.33524991486e-07
5.61469179863e-05
-1.38839516156e-06
-8.31322322568e-06
5.61849742379e-05
-1.36567272952e-06
-1.65961307411e-05
5.45719883727e-05
-1.63062879239e-06
-2.36492329512e-05
5.13071504608e-05
-2.44803881646e-06
-2.84447100431e-05
4.6561197226e-05
-4.10143832152e-06
-3.00056769696e-05
4.07126614827e-05
-6.57435180543e-06
-2.76713382534e-05
3.42389775854e-05
-9.58872006808e-06
-2.14145746874e-05
2.81007606538e-05
-1.25876110622e-05
-1.22299268034e-05
2.32523479436e-05
-1.46447738781e-05
-3.13930196898e-06
2.03473777161e-05
-1.38578720771e-05
1.88921601392e-05
-7.27863466661e-06
4.89032830799e-06
2.05784099995e-05
-6.77616248374e-06
1.61003239006e-05
2.22286529109e-05
-1.32937728196e-05
2.70038670484e-05
2.533430044e-05
-1.31642416571e-05
3.42646083383e-05
3.03635063497e-05
-9.66498036425e-06
3.67622829647e-05
3.66391425951e-05
-5.00688962117e-06
3.46434566857e-05
4.31444719806e-05
-4.12064152798e-07
2.88069627186e-05
4.89671160793e-05
3.32121300899e-06
2.0453774765e-05
5.36950952387e-05
5.84261088778e-06
1.07386776987e-05
5.69828010523e-05
7.20386200404e-06
4.69674019766e-07
5.86642723092e-05
7.75161333974e-06
-9.84487051292e-06
5.87077988173e-05
7.79168202274e-06
-1.96794972971e-05
5.70983839346e-05
7.3081947688e-06
-2.81663664864e-05
5.38308904657e-05
5.96309738737e-06
-3.40925858618e-05
4.90721444898e-05
3.41524560127e-06
-3.62643058344e-05
4.32278100869e-05
-3.43453595586e-07
-3.3814182616e-05
3.672216665e-05
-4.93334399457e-06
-2.66276728466e-05
3.04769738655e-05
-9.56277228922e-06
-1.58231625794e-05
2.54872190493e-05
-1.30394591303e-05
-4.7312589215e-06
2.24060794041e-05
-1.31507170547e-05
2.07558268282e-05
-6.5950114816e-06
6.88729397343e-06
1.99123464329e-05
-6.22125656798e-06
2.01316215107e-05
2.15231769519e-05
-1.25388736208e-05
3.2625756716e-05
2.43441047508e-05
-1.1503960208e-05
4.07591910339e-05
2.88652399729e-05
-6.6351873942e-06
4.32696181766e-05
3.45159884068e-05
-3.87292967363e-07
4.04355450367e-05
4.03125009771e-05
5.66602184792e-06
3.34060327374e-05
4.54745992749e-05
1.05220031264e-05
2.36013061257e-05
4.97077004957e-05
1.37920906457e-05
1.2337950266e-05
5.26814906117e-05
1.55646305602e-05
5.05614264254e-07
5.4216943982e-05
1.62796247689e-05
-1.13889394765e-05
5.42618609916e-05
1.63404513087e-05
-2.28150119642e-05
5.28029335077e-05
1.57214863933e-05
-3.27899812545e-05
4.98492220377e-05
1.39566086393e-05
-3.99077080347e-05
4.55746882752e-05
1.06151616039e-05
-4.27729971044e-05
4.03830183548e-05
5.71006208223e-06
-4.02829155283e-05
3.45783778298e-05
-3.46318606672e-07
-3.22127462568e-05
2.89488922986e-05
-6.54213276546e-06
-1.98252081821e-05
2.44613269206e-05
-1.13617214544e-05
-6.71248527659e-06
2.16629183054e-05
-1.2369672289e-05
2.00551413905e-05
-6.01188424441e-06
8.66607406987e-06
1.70840948028e-05
-5.83783821851e-06
2.37937793145e-05
1.83071007906e-05
-1.19116418911e-05
3.77299329737e-05
2.05440406993e-05
-1.01361029496e-05
4.66122688802e-05
2.41278235564e-05
-4.14493454926e-06
4.90995904545e-05
2.86444710666e-05
3.38417696123e-06
4.55979056127e-05
3.32465419122e-05
1.0567619917e-05
3.74825439859e-05
3.73237026258e-05
1.62662281865e-05
2.63651419824e-05
4.06985390496e-05
2.01265268112e-05
1.3729937694e-05
4.30877845002e-05
2.22288676936e-05
5.39661374753e-07
4.43194885819e-05
2.30876851437e-05
-1.27289576133e-05
4.43574545752e-05
2.31729791719e-05
-2.55734627435e-05
4.31982488648e-05
2.24491493054e-05
-3.69002942925e-05
4.08319461993e-05
2.03440768544e-05
-4.51003920612e-05
3.7421213201e-05
1.63535522307e-05
-4.86102550042e-05
3.33135880236e-05
1.05792767633e-05
-4.61181166879e-05
2.86991326725e-05
3.38708366796e-06
-3.72850948948e-05
2.41946891374e-05
-4.07886127333e-06
-2.34614411421e-05
2.06319727302e-05
-9.99437298164e-06
-8.48092153452e-06
1.841109543e-05
-1.17288047265e-05
1.71931871298e-05
-5.6190489755e-06
1.02439972868e-05
1.2422013163e-05
-5.58192167614e-06
2.68226791031e-05
1.32278729097e-05
-1.14994578862e-05
4.1879272948e-05
1.47251384174e-05
-9.2376977909e-06
5.13557516488e-05
1.71341064613e-05
-2.48277228829e-06
5.38387179749e-05
2.02302325623e-05
5.93125476666e-06
4.98396847543e-05
2.33622999466e-05
1.38832497371e-05
4.08629290329e-05
2.61091124931e-05
2.01913118503e-05
2.86441245496e-05
2.83752249063e-05
2.45420761795e-05
1.48532748218e-05
2.999994006e-05
2.68786445048e-05
5.64713101965e-07
3.08882992199e-05
2.77196972555e-05
-1.38161204011e-05
3.09190353803e-05
2.78191998953e-05
-2.78369477851e-05
3.0085103071e-05
2.71339276217e-05
-4.03051165843e-05
2.84774668423e-05
2.48226143482e-05
-4.93684569317e-05
2.61980122534e-05
2.02865190506e-05
-5.33601959017e-05
2.34267704591e-05
1.38785397359e-05
-5.08541599623e-05
2.02834982747e-05
5.90957602888e-06
-4.14181848903e-05
1.71943836956e-05
-2.43571070407e-06
-2.64782749578e-05
1.47936354639e-05
-9.10164361954e-06
-1.00548117822e-05
1.33042538903e-05
-1.13167258208e-05
1.25032485609e-05
-5.36495141455e-06
1.13475936532e-05
6.57693805255e-06
-5.50251530156e-06
2.89268210162e-05
6.97622335594e-06
-1.13275730372e-05
4.47452666794e-05
7.71488331531e-06
-8.80818935319e-06
5.46333747313e-05
8.90568440856e-06
-1.65969138486e-06
5.71130467624e-05
1.04695017068e-05
7.2810442919e-06
5.27966775678e-05
1.2037051658e-05
1.56415926194e-05
4.32396934704e-05
1.33980608729e-05
2.2268000206e-05
3.02653123538e-05
1.45020645523e-05
2.68474959404e-05
1.57348089212e-05
1.53770394397e-05
2.91533502956e-05
5.84596303178e-07
1.58434061855e-05
3.01950473462e-05
-1.46627939604e-05
1.58606193555e-05
3.03057492323e-05
-2.94501544908e-05
1.54249979968e-05
2.94474163735e-05
-4.26868702813e-05
1.45686911464e-05
2.71454548855e-05
-5.23393155528e-05
1.3455645719e-05
2.2394787675e-05
-5.66413766684e-05
1.20851616452e-05
1.5643652203e-05
-5.41297706925e-05
1.05123528568e-05
7.25951720344e-06
-4.42806624838e-05
8.95453315829e-06
-1.60929728641e-06
-2.85803796148e-05
7.76615146229e-06
-8.67286682448e-06
-1.11589297745e-05
7.03155822412e-06
-1.11488536916e-05
6.63590770963e-06
-5.29166330591e-06
1.19001210928e-05
1.83634684695e-07
-5.50680579476e-06
2.99849707519e-05
1.87524259494e-07
-1.12961373574e-05
4.61857548145e-05
1.89460024939e-07
-8.67535187647e-06
5.62814004113e-05
1.92680023472e-07
-1.38264023232e-06
5.87620722492e-05
1.98831151218e-07
7.78998902716e-06
5.43000568498e-05
2.04903279961e-07
1.62941422155e-05
4.44497946595e-05
2.09939908862e-07
2.3038349626e-05
3.11439741247e-05
2.1416578619e-07
2.75936746535e-05
1.62032533854e-05
2.17597393694e-07
3.01001091342e-05
5.98762712884e-07
2.20840684049e-07
3.12269975939e-05
-1.51033681835e-05
2.23399433143e-07
3.13392932503e-05
-3.03070969281e-05
2.24156938739e-07
3.04045198554e-05
-4.38809025388e-05
2.23622712123e-07
2.79188365575e-05
-5.38409744497e-05
2.22788058205e-07
2.31929046647e-05
-5.82918510514e-05
2.21416449188e-07
1.63146037104e-05
-5.57772950539e-05
2.19750916297e-07
7.77802413181e-06
-4.57217963771e-05
2.19253109272e-07
-1.32025661502e-06
-2.96394423403e-05
2.20933969039e-07
-8.53720137124e-06
-1.17129471693e-05
2.2340800081e-07
-1.11184397254e-05
2.22210573164e-07
-5.29932078099e-06
1.19014193716e-05
-6.21505732078e-06
-5.50270789197e-06
2.99891333933e-05
-6.60649587524e-06
-1.12936731302e-05
4.61930131399e-05
-7.34025854312e-06
-8.67414489092e-06
5.62906495863e-05
-8.52263584529e-06
-1.38231265102e-06
5.87717726067e-05
-1.00725272968e-05
7.79023211421e-06
5.43096906416e-05
-1.1625419372e-05
1.62923888233e-05
4.44587103599e-05
-1.29739191621e-05
2.30348110086e-05
3.11523116223e-05
-1.40689033007e-05
2.75894278613e-05
1.62093075181e-05
-1.49377805662e-05
3.00983326334e-05
6.00854229435e-07
-1.5397899009e-05
3.12271381153e-05
-1.51056625311e-05
-1.54106255209e-05
3.13404871987e-05
-3.03123011382e-05
-1.49740183238e-05
3.04047661459e-05
-4.38866623898e-05
-1.41178970507e-05
2.79158449075e-05
-5.38476068679e-05
-1.30069681876e-05
2.31906765979e-05
-5.82984148526e-05
-1.16417067057e-05
1.6313913679e-05
-5.57831397678e-05
-1.00747487558e-05
7.77920369777e-06
-4.57260222871e-05
-8.52033831007e-06
-1.31756234161e-06
-2.96415956493e-05
-7.33102896162e-06
-8.5325256576e-06
-1.17135666117e-05
-6.59282697994e-06
-1.11118846478e-05
-6.19909483906e-06
-5.29232884593e-06
1.13521296823e-05
-1.20780281567e-05
-5.48913350865e-06
2.89404720899e-05
-1.28759834538e-05
-1.13188279795e-05
4.47686508629e-05
-1.43655363534e-05
-8.80287821273e-06
5.46628707666e-05
-1.67609113784e-05
-1.65592960147e-06
5.71437318145e-05
-1.98382500299e-05
7.28486557557e-06
5.28261768896e-05
-2.29493171098e-05
1.56414443594e-05
4.32669531181e-05
-2.56766924189e-05
2.22619763931e-05
3.02885808848e-05
-2.79264612387e-05
2.6835897993e-05
1.57522569386e-05
-2.95480868498e-05
2.91465884639e-05
5.91370022476e-07
-3.04295132662e-05
3.01924533821e-05
-1.46687648652e-05
-3.04569877735e-05
3.03064487382e-05
-2.94646099627e-05
-2.96237342893e-05
2.9445518201e-05
-4.27053179154e-05
-2.80132339533e-05
2.71360122801e-05
-5.23600013783e-05
-2.57437126457e-05
2.23914061949e-05
-5.6662661145e-05
-2.29845863492e-05
1.56455236826e-05
-5.41495374552e-05
-1.98539605101e-05
7.26606869996e-06
-4.42955777011e-05
-1.6774878563e-05
-1.59945392903e-06
-2.85885762826e-05
-1.43793014934e-05
-8.65878822989e-06
-1.11616762279e-05
-1.28897305291e-05
-1.11300834761e-05
-1.2089650841e-05
-5.27118519486e-06
1.02536118416e-05
-1.67723099787e-05
-5.5593007411e-06
2.68490369571e-05
-1.7987413953e-05
-1.14839634206e-05
4.19230423357e-05
-2.02138060051e-05
-9.22570779197e-06
5.14105050551e-05
-2.37793027545e-05
-2.46905030234e-06
5.38959299737e-05
-2.82719552713e-05
5.94829168781e-06
4.9893039239e-05
-3.28470620258e-05
1.39006359727e-05
4.09097646032e-05
-3.68979838593e-05
2.0204555046e-05
2.86799544906e-05
-4.02527891921e-05
2.45561161798e-05
1.48799767493e-05
-4.2630717546e-05
2.68825771238e-05
5.73995968729e-07
-4.38518581013e-05
2.77282878659e-05
-1.38260516892e-05
-4.38869733232e-05
2.78299937542e-05
-2.78578931595e-05
-4.27316231655e-05
2.71396948739e-05
-4.03365935508e-05
-4.03698050804e-05
2.48352445588e-05
-4.94062322241e-05
-3.69731960601e-05
2.02991043795e-05
-5.34015072754e-05
-3.28854994249e-05
1.38961753219e-05
-5.0893705213e-05
-2.82912709455e-05
5.92949129833e-06
-4.14488957685e-05
-2.38038195871e-05
-2.41590060349e-06
-2.64966099023e-05
-2.02531909701e-05
-9.07845298425e-06
-1.0061987029e-05
-1.80361706183e-05
-1.12882662235e-05
-1.68188152062e-05
-5.33288496358e-06
8.6820607102e-06
-1.96455287671e-05
-5.80881064742e-06
2.38349756095e-05
-2.12482967715e-05
-1.18919982584e-05
3.77972881441e-05
-2.405868221e-05
-1.01174045291e-05
4.66968661032e-05
-2.85596993406e-05
-4.11915479623e-06
4.91892077768e-05
-3.41857941681e-05
3.42151599833e-06
4.56814292242e-05
-3.99547975103e-05
1.06155236234e-05
3.75529608761e-05
-4.50894496686e-05
1.63199340606e-05
2.64179302025e-05
-4.93018378165e-05
2.01840695471e-05
1.37617822453e-05
-5.22629910058e-05
2.22884028082e-05
5.52171067438e-07
-5.37896858249e-05
2.31474135906e-05
-1.27373756657e-05
-5.38317108669e-05
2.32342561304e-05
-2.56047241853e-05
-5.23744072607e-05
2.25101066316e-05
-3.69495820164e-05
-4.94257174559e-05
2.04007506116e-05
-4.51629125032e-05
-4.5165891751e-05
1.64060139011e-05
-4.8679056326e-05
-3.9996687299e-05
1.06273227012e-05
-4.61833294565e-05
-3.42149171952e-05
3.42790519619e-06
-3.7336869382e-05
-2.86056716393e-05
-4.04463751033e-06
-2.34931959507e-05
-2.4133698621e-05
-9.96321924458e-06
-8.49448913136e-06
-2.13405248753e-05
-1.16944320825e-05
-1.97339186096e-05
-5.57944524214e-06
6.90853371437e-06
-2.03618286616e-05
-6.19220220816e-06
2.01906942322e-05
-2.20100695979e-05
-1.25203527836e-05
3.27199072535e-05
-2.51055562483e-05
-1.14823046323e-05
4.08760217023e-05
-3.01160602011e-05
-6.59972239959e-06
4.33922070643e-05
-3.63698243689e-05
-3.32129397948e-07
4.05487077746e-05
-4.28519527539e-05
5.7406734647e-06
3.3499953134e-05
-4.86502683565e-05
1.06095847015e-05
2.36708582515e-05
-5.33601408749e-05
1.38874013159e-05
1.23806810051e-05
-5.66355136712e-05
1.56626952691e-05
5.22061920452e-07
-5.8308975098e-05
1.63778968682e-05
-1.14000469911e-05
-5.8349488706e-05
1.64398712548e-05
-2.28551986675e-05
-5.67410821762e-05
1.58218112686e-05
-3.28564930576e-05
-5.34785244507e-05
1.40540899685e-05
-3.99952575949e-05
-4.87317199171e-05
1.07045860912e-05
-4.28712962782e-05
-4.29073659699e-05
5.78671202575e-06
-4.03782923471e-05
-3.64222622229e-05
-2.8567048681e-07
-3.22905355615e-05
-3.01967535407e-05
-6.49670191782e-06
-1.98750372888e-05
-2.52235034246e-05
-1.13257438199e-05
-6.73168023315e-06
-2.21496155957e-05
-1.23343419214e-05
-2.04932171432e-05
-5.9724388067e-06
4.92272714196e-06
-1.85332853753e-05
-6.75123981543e-06
1.61780139504e-05
-1.99837261064e-05
-1.32815958327e-05
2.71226039773e-05
-2.2904376717e-05
-1.31457342254e-05
3.44095581236e-05
-2.77756328596e-05
-9.62734714107e-06
3.69144721853e-05
-3.39306009374e-05
-4.94410600629e-06
3.47858306304e-05
-4.0398077007e-05
-3.25206938115e-07
2.8927245999e-05
-4.62186393898e-05
3.42697768521e-06
2.05449759676e-05
-5.09387270137e-05
5.96087198247e-06
1.07959896762e-05
-5.42166342335e-05
7.33011566967e-06
4.90667557909e-07
-5.58860364193e-05
7.88238534526e-06
-9.86119637015e-06
-5.59209367343e-05
7.92330864506e-06
-1.97322352027e-05
-5.43073962682e-05
7.43734748645e-06
-2.82515977109e-05
-5.10455704507e-05
6.08640399264e-06
-3.42040287635e-05
-4.63064336298e-05
3.52714208754e-06
-3.63895588439e-05
-4.04722313312e-05
-2.49608234598e-07
-3.39373157995e-05
-3.40133252582e-05
-4.86119101128e-06
-2.67313471346e-05
-2.78903041526e-05
-9.51244436062e-06
-1.58941017031e-05
-2.30560380936e-05
-1.30047594398e-05
-4.76378101614e-06
-2.01573159915e-05
-1.31226933142e-05
-1.86973562306e-05
-6.55969797631e-06
3.32172587924e-06
-1.44546558212e-05
-7.40032740894e-06
1.25704293906e-05
-1.52794471735e-05
-1.39529502645e-05
2.18934777682e-05
-1.75057461605e-05
-1.47216447726e-05
2.8259135738e-05
-2.15041511697e-05
-1.2637104552e-05
3.06677058368e-05
-2.67361803549e-05
-9.60295607431e-06
2.91638281689e-05
-3.23333295256e-05
-6.56083697274e-06
2.44286348166e-05
-3.74081389085e-05
-4.07527731917e-06
1.74458736224e-05
-4.15391012087e-05
-2.41683930424e-06
9.21094466336e-06
-4.44071462104e-05
-1.57453984416e-06
4.59990727543e-07
-4.58646386487e-05
-1.27043163371e-06
-8.32344163454e-06
-4.5891338837e-05
-1.24615991701e-06
-1.66465102618e-05
-4.447752047e-05
-1.50680619441e-06
-2.37361609802e-05
-4.16266931954e-05
-2.32922786614e-06
-2.85633180769e-05
-3.7490449227e-05
-3.98883002554e-06
-3.01427953844e-05
-3.2413096561e-05
-6.47966347385e-06
-2.78095271986e-05
-2.68304771151e-05
-9.51613060663e-06
-2.15337644751e-05
-2.16269213605e-05
-1.25391746447e-05
-1.2312535884e-05
-1.76599184632e-05
-1.46173985177e-05
-3.17662087417e-06
-1.54527384707e-05
-1.38405664639e-05
-1.46205340678e-05
-7.25350078349e-06
2.50243639746e-06
-8.98224438969e-06
-7.97482376191e-06
1.0065887465e-05
-8.72944005864e-06
-1.41134301582e-05
1.78979113333e-05
-9.79228083644e-06
-1.55454585365e-05
2.3392054402e-05
-1.23005810463e-05
-1.46976801838e-05
2.56641270557e-05
-1.59112217097e-05
-1.30969969551e-05
2.46688289993e-05
-1.99258495118e-05
-1.14121474688e-05
2.08616680279e-05
-2.35681679849e-05
-1.00327767685e-05
1.50354607287e-05
-2.65868638937e-05
-9.1260000832e-06
8.0046812261e-06
-2.86938171974e-05
-8.68252510239e-06
4.38089592752e-07
-2.97642186028e-05
-8.53381139399e-06
-7.15240656654e-06
-2.97814432588e-05
-8.51939044363e-06
-1.42491772956e-05
-2.87394419354e-05
-8.64130603072e-06
-2.01631836883e-05
-2.66457260475e-05
-9.06696445596e-06
-2.40600691185e-05
-2.36264697748e-05
-9.9671021299e-06
-2.5142686025e-05
-1.99856478273e-05
-1.13448453193e-05
-2.29594517409e-05
-1.59847859477e-05
-1.30289479592e-05
-1.75608700201e-05
-1.23944307683e-05
-1.46311092459e-05
-9.82830655688e-06
-9.90943604261e-06
-1.54831030845e-05
-2.37109651029e-06
-8.86282147072e-06
-1.40472076757e-05
-9.11546242412e-06
-7.87623319008e-06
2.59223777024e-06
-3.57644745608e-06
-7.99801483957e-06
9.00307225114e-06
-2.4544968682e-06
-1.26857545305e-05
1.56722994964e-05
-2.36306126392e-06
-1.40984209845e-05
2.04727246692e-05
-3.18633371228e-06
-1.3914643553e-05
2.2572899189e-05
-4.78776055612e-06
-1.3223604294e-05
2.18615493921e-05
-6.77750626218e-06
-1.24369608166e-05
1.86327898934e-05
-8.54841029723e-06
-1.17909659578e-05
1.35356468027e-05
-1.01232009456e-05
-1.13664904202e-05
7.25566160489e-06
-1.12294577037e-05
-1.11843504914e-05
4.25166998134e-07
-1.17886460532e-05
-1.11450623441e-05
-6.42354847512e-06
-1.17962346967e-05
-1.11364870945e-05
-1.27555335731e-05
-1.12492709377e-05
-1.11581892658e-05
-1.79283409221e-05
-1.01484063438e-05
-1.13245236664e-05
-2.12425197647e-05
-8.57314657639e-06
-1.17391623112e-05
-2.20462434083e-05
-6.80042017858e-06
-1.23815289848e-05
-2.00420645478e-05
-4.81917069246e-06
-1.31698289985e-05
-1.53409575056e-05
-3.22681449245e-06
-1.386877302e-05
-8.77271314739e-06
-2.41691812183e-06
-1.40608324712e-05
-2.46748556891e-06
-2.51956936613e-06
-1.26485762118e-05
-3.64943657879e-06
-7.93358402037e-06
3.71440797202e-06
-7.29084466686e-06
9.25608353049e-06
-7.99615978031e-06
1.48426933337e-05
-7.94965708466e-06
1.90176447553e-05
-7.36126914585e-06
2.0920685296e-05
-6.69078346127e-06
2.02516971871e-05
-6.10849964263e-06
1.74116817514e-05
-5.70837668698e-06
1.27297705841e-05
-5.44127377208e-06
6.85540956954e-06
-5.35508496377e-06
4.2248742097e-07
-5.35571818825e-06
-6.02560288643e-06
-5.34814549285e-06
-1.19436355516e-05
-5.3312458507e-06
-1.66916103661e-05
-5.4004445064e-06
-1.9611774963e-05
-5.65299962641e-06
-2.03671214145e-05
-6.04509663802e-06
-1.85628035234e-05
-6.62351899213e-06
-1.44911215432e-05
-7.29853778966e-06
-9.01501695993e-06
-7.89307993446e-06
-3.59022267062e-06
-7.9444343813e-06
-7.23969521931e-06
6.0159523713e-06
5.94061888868e-06
-1.92417704223e-05
1.23296664181e-05
7.0559696778e-06
-2.13510873723e-05
1.78404440063e-05
8.51298012303e-06
-2.19659424312e-05
2.16429628651e-05
1.06031248549e-05
-2.17752977063e-05
2.31200542615e-05
1.3082164154e-05
-2.12793090667e-05
2.20701498665e-05
1.56022686547e-05
-2.07092337866e-05
1.87613523173e-05
1.77794073383e-05
-2.02394724559e-05
1.36255572003e-05
1.9584731063e-05
-1.996021693e-05
7.29316673005e-06
2.08378803193e-05
-1.99373055117e-05
3.97173301744e-07
2.14758734462e-05
-2.00165051749e-05
-6.5137868913e-06
2.14895334185e-05
-2.00098482116e-05
-1.28893597264e-05
2.08752552114e-05
-1.99140282764e-05
-1.808934283e-05
1.96363847172e-05
-1.99173121224e-05
-2.14746429054e-05
1.78362787757e-05
-2.01770436134e-05
-2.26095867742e-05
1.56638810415e-05
-2.06358733631e-05
-2.12284383718e-05
1.31586475923e-05
-2.12069430723e-05
-1.75270517437e-05
1.0694065134e-05
-2.17156072387e-05
-1.21214483524e-05
8.61862507794e-06
-2.19223919118e-05
-5.91340298625e-06
7.16814467237e-06
-2.13171479282e-05
6.04841037104e-06
-1.92064724988e-05
7.11673051704e-06
1.22024343333e-05
-2.13712800253e-05
1.35147599452e-05
1.34040963856e-05
-2.54132682025e-05
1.86216722817e-05
1.55221597603e-05
-2.62030621666e-05
2.19677165267e-05
1.87348524597e-05
-2.54025559478e-05
2.31032605967e-05
2.26216710285e-05
-2.39365622118e-05
2.18973280245e-05
2.66321463578e-05
-2.23207867703e-05
1.84973238468e-05
3.02463119603e-05
-2.09332203027e-05
1.33987655846e-05
3.31936581687e-05
-1.996288549e-05
7.17740037733e-06
3.52468384698e-05
-1.94657109215e-05
4.07932609349e-07
3.63013467865e-05
-1.92998848943e-05
-6.37919946068e-06
3.63278634419e-05
-1.92892962671e-05
-1.26500294709e-05
3.53188341323e-05
-1.94326423712e-05
-1.78194266214e-05
3.32915043882e-05
-1.99092102277e-05
-2.13007690231e-05
3.03509292601e-05
-2.0863554073e-05
-2.25958110562e-05
2.67430120514e-05
-2.22430628404e-05
-2.15560839929e-05
2.27498499004e-05
-2.38587814761e-05
-1.83129969247e-05
1.88873044033e-05
-2.53326704792e-05
-1.33117434394e-05
1.56980090775e-05
-2.61472791207e-05
-7.01700047139e-06
1.35936158339e-05
-2.53632082703e-05
1.23891680074e-05
-2.12895783901e-05
8.56704114895e-06
1.76745945074e-05
-2.20217455448e-05
1.56239767092e-05
1.84741004097e-05
-2.62289055383e-05
2.094236979e-05
2.0804657805e-05
-2.61433366192e-05
2.42419529862e-05
2.45498499763e-05
-2.38326734929e-05
2.51502956326e-05
2.91295580608e-05
-2.05606233889e-05
2.35723510245e-05
3.38759779726e-05
-1.71486160662e-05
1.97469218024e-05
3.81919646358e-05
-1.42405208056e-05
1.4209587151e-05
4.16979722038e-05
-1.21914149493e-05
7.58227024308e-06
4.41221419057e-05
-1.10366585675e-05
4.25147847549e-07
4.53747715154e-05
-1.0561176292e-05
-6.7549467983e-06
4.54118660636e-05
-1.05368590187e-05
-1.34444160873e-05
4.42221721763e-05
-1.09687055309e-05
-1.90653954486e-05
4.18321293543e-05
-1.20970977153e-05
-2.29755677811e-05
3.8326446812e-05
-1.41350236008e-05
-2.4638492606e-05
3.40091658865e-05
-1.70353886949e-05
-2.38210329269e-05
2.92753077745e-05
-2.04388657411e-05
-2.0623459384e-05
2.47233993097e-05
-2.37052604166e-05
-1.5412424033e-05
2.1008935884e-05
-2.60205622213e-05
-8.46202198958e-06
1.86989527616e-05
-2.61078614144e-05
1.79018125443e-05
-2.18663991792e-05
1.06561020297e-05
2.14599262516e-05
-2.18572673989e-05
1.883274558e-05
2.17971074005e-05
-2.54535020593e-05
2.4681523132e-05
2.40818500278e-05
-2.38566722531e-05
2.80803271539e-05
2.7929668553e-05
-1.94469650574e-05
2.87236249441e-05
3.26593034264e-05
-1.3833793954e-05
2.65978990284e-05
3.75577198086e-05
-8.19916171016e-06
2.20658242431e-05
4.20091588806e-05
-3.46165540299e-06
1.57335434245e-05
4.55961629667e-05
-9.52490307863e-08
8.34993068864e-06
4.81064720445e-05
1.70585465485e-06
4.48727727663e-07
4.94023614559e-05
2.48517401427e-06
-7.48431621474e-06
4.94485191683e-05
2.53067211569e-06
-1.49490339722e-05
4.82302408548e-05
1.82597562411e-06
-2.13889896545e-05
4.57517368545e-05
7.2269344131e-08
-2.60073287764e-05
4.21580563011e-05
-3.31474319847e-06
-2.82087139027e-05
3.76937338629e-05
-8.05756748262e-06
-2.76437681368e-05
3.27958305409e-05
-1.3674228651e-05
-2.43408423323e-05
2.80914469683e-05
-1.92586433821e-05
-1.86015588272e-05
2.42772516549e-05
-2.36524615903e-05
-1.05381154897e-05
2.20166067192e-05
-2.52390917035e-05
2.16853041493e-05
-2.16003354318e-05
1.31342015084e-05
2.29336050784e-05
-2.13840883141e-05
2.27203225248e-05
2.2923461574e-05
-2.40062908504e-05
2.9260872926e-05
2.49786180398e-05
-2.06015993751e-05
3.28051220089e-05
2.85644981023e-05
-1.38440930476e-05
3.31342616441e-05
3.29845236839e-05
-5.66127979153e-06
3.03554278283e-05
3.75971477652e-05
2.32731293564e-06
2.49758900196e-05
4.1850303835e-05
8.85957620568e-06
1.77279750577e-05
4.53002900136e-05
1.33863661033e-05
9.36456133233e-06
4.77092583589e-05
1.59644525228e-05
4.75739223775e-07
4.89637309781e-05
1.70790255517e-05
-8.45735271719e-06
4.90173607273e-05
1.71558915156e-05
-1.69361442247e-05
4.7853429383e-05
1.61637608624e-05
-2.43160606668e-05
4.54795975287e-05
1.36151241898e-05
-2.97884208103e-05
4.20049816976e-05
9.04065959481e-06
-3.26276534253e-05
3.7727181636e-05
2.46231314044e-06
-3.23538936854e-05
3.31023034594e-05
-5.51360325846e-06
-2.88927171607e-05
2.86974806742e-05
-1.36300308249e-05
-2.24625045625e-05
2.51432080256e-05
-2.03357095801e-05
-1.29995366414e-05
2.31115474885e-05
-2.37087435917e-05
2.31234577541e-05
-2.1032791945e-05
1.56597281247e-05
2.18818293342e-05
-2.08292433934e-05
2.67382167175e-05
2.17097918066e-05
-2.24037253394e-05
3.40162334706e-05
2.33891115705e-05
-1.71925016567e-05
3.7707155192e-05
2.64249278795e-05
-8.18656766208e-06
3.77435566813e-05
3.01895621916e-05
2.37123902102e-06
3.43719761357e-05
3.42136687612e-05
1.24210522933e-05
2.81414211004e-05
3.79604252193e-05
2.06424047922e-05
1.99109193496e-05
4.10202835917e-05
2.6302562306e-05
1.04908265443e-05
4.31702035609e-05
2.95237367903e-05
5.05854126307e-07
4.4297125157e-05
3.09311585665e-05
-9.53963187299e-06
4.43532030139e-05
3.10500517143e-05
-1.91166989234e-05
4.33212782937e-05
2.98306680153e-05
-2.75171213053e-05
4.1208435949e-05
2.66281674234e-05
-3.3844576509e-05
3.81149471799e-05
2.08326374104e-05
-3.72584846264e-05
3.43367819734e-05
1.25143602502e-05
-3.72487041947e-05
3.02937186915e-05
2.45246764875e-06
-3.36190481947e-05
2.65299811496e-05
-8.00433039751e-06
-2.64496628248e-05
2.3516287751e-05
-1.69042626192e-05
-1.55043271601e-05
2.18524985091e-05
-2.20560720181e-05
2.2025379927e-05
-2.04182196317e-05
1.78407587471e-05
1.85677039322e-05
-2.03644959904e-05
3.03609081674e-05
1.82983606378e-05
-2.10203843706e-05
3.8342810845e-05
1.95449486412e-05
-1.42738674767e-05
4.21616534134e-05
2.18664796429e-05
-3.4053546263e-06
4.1995516707e-05
2.47749171002e-05
8.96493022239e-06
3.81138367971e-05
2.79452768001e-05
2.07176590693e-05
3.11258328436e-05
3.09321673691e-05
3.02824517733e-05
2.19911593125e-05
3.3386547819e-05
3.6894891555e-05
1.15772810219e-05
3.51478678684e-05
4.06650314179e-05
5.4144294524e-07
3.60998630629e-05
4.23207323032e-05
-1.05736428631e-05
3.61518331391e-05
4.2489384406e-05
-2.11917812031e-05
3.52868646834e-05
4.11016599104e-05
-3.05375607993e-05
3.3559637612e-05
3.73386275322e-05
-3.76287406822e-05
3.10744369236e-05
3.04852290727e-05
-4.15353721442e-05
2.80578268364e-05
2.07648564168e-05
-4.1705857822e-05
2.48674440506e-05
8.98382968297e-06
-3.79251783281e-05
2.19529594483e-05
-3.28255631595e-06
-3.00488022863e-05
1.96417405228e-05
-1.3996273694e-05
-1.76712692811e-05
1.84020925908e-05
-2.06560396928e-05
1.86694183034e-05
-1.99344381103e-05
1.96455112425e-05
1.34247329299e-05
-2.00844771395e-05
3.33101454299e-05
1.31874751546e-05
-2.00532228869e-05
4.18535922952e-05
1.39845924153e-05
-1.22208074767e-05
4.57469228291e-05