/*--------------------------------*- C++ -*----------------------------------*\
| =========                 |                                                 |
| \\      /  F ield         | OpenFOAM: The Open Source CFD Toolbox           |
|  \\    /   O peration     | Version:  3.0.1                                 |
|   \\  /    A nd           | Web:      www.OpenFOAM.org                      |
|    \\/     M anipulation  |                                                 |
\*---------------------------------------------------------------------------*/
FoamFile
{
    version     2.0;
    format      ascii;
    class       volVectorField;
    location    "3.7";
    object      ddt0(rho,U);
}
// * * * * * * * * * * * * * * * * * * * * * * * * * * * * * * * * * * * * * //

dimensions      [1 -2 -2 0 0 0 0];

internalField   nonuniform List<vector> 
15984
(
(0.405133280269 -0.00725789868591 -0.165793626833)
(1.12864898225 -0.0622269194148 -0.0781068590134)
(1.47408933442 0.0159330519379 -0.00435417251195)
(1.22030779657 0.0981707926528 0.0674973956252)
(0.573169815459 0.169554167043 0.0888197976946)
(-0.245207213959 0.178200633832 0.0967151347624)
(-1.02308694325 0.117736188596 0.0936024625346)
(-1.48560863958 0.0263668745644 0.077119738167)
(-1.65640739849 -0.0427322337089 0.0512756856832)
(-1.39238107385 -0.138310060264 0.0350366783385)
(-0.942384574512 -0.144961582196 0.0172149291488)
(-0.454409478804 -0.124673467844 0.00299283402391)
(-0.0339118704185 -0.0926078624216 -0.00521262723149)
(0.279793042944 -0.0620342802019 -0.00938033902604)
(0.497741481847 -0.0388263633138 -0.0111131357777)
(0.646475893202 -0.0230344241491 -0.012103705683)
(0.752142597471 -0.0131331105891 -0.0130755654583)
(0.833793050794 -0.00719270052361 -0.0138098496138)
(0.900175089373 -0.00397906938581 -0.0126809038395)
(0.948165298871 -0.00230566768792 -0.00815404865507)
(0.967475839945 -0.00143991181651 0.000385631763512)
(0.944897734671 -0.00100864386896 0.0127300526288)
(0.869901471846 -0.0005719141579 0.028124278403)
(0.739344338201 -0.000763149045336 0.043101732543)
(0.559528790829 -0.00157818778456 0.0530328891906)
(0.352220847633 -3.17335813814e-05 0.0620784548025)
(0.139777238555 -0.00225143245596 0.0570177279695)
(-0.0625019032245 -0.0031487288497 0.0494757061561)
(-0.217891236915 -0.00275067120962 0.0365163043909)
(-0.307401707783 -0.00321154966186 0.0199910648396)
(-0.338763867648 -0.00319967947823 0.0038879687368)
(-0.31751819379 -0.00240000142381 -0.00860174098509)
(-0.262484550168 -0.000974198122759 -0.0157018873846)
(-0.191892712328 0.00089255932492 -0.018950615857)
(-0.119479299591 0.00230398078037 -0.0188641963387)
(-0.05747471455 0.00354584323197 -0.0160545809485)
(-0.0135866533421 0.00438610777151 -0.0113360380355)
(0.00836869544059 0.00491365736758 -0.00602425864473)
(0.0101360995034 0.00429434524566 -0.00136803479203)
(0.00380081546721 0.00222176418584 0.00117621346823)
(0.332137734671 0.260761782939 -0.388254771765)
(1.15899477637 0.351710735797 -0.541492566123)
(1.49785831314 0.636364660762 -0.512975549264)
(1.23351923159 0.81831111871 -0.41671423761)
(0.575685380231 0.955960854769 -0.379335265597)
(-0.239529806109 0.97074930241 -0.367039066603)
(-1.00691053836 0.858655951637 -0.375274114683)
(-1.50228385307 0.680128872705 -0.403814697037)
(-1.6632231528 0.37988665923 -0.388131553106)
(-1.39293097807 0.0744133994878 -0.324084938894)
(-0.927866149894 -0.101355065056 -0.235341942808)
(-0.433948735111 -0.161815568591 -0.147986769653)
(-0.0158709911829 -0.152452424036 -0.0879582459368)
(0.291522395313 -0.115692016298 -0.0525924446435)
(0.503355107996 -0.0766835863378 -0.0348826367023)
(0.647957635099 -0.045546091375 -0.0272510574923)
(0.751307955833 -0.0242479740094 -0.0241479588259)
(0.831956891369 -0.0112773320457 -0.0226287160259)
(0.898126876156 -0.00456555151252 -0.0195316449313)
(0.946279809023 -0.00163373897716 -0.0130831977423)
(0.965815800871 -0.000480144112464 -0.0027772723471)
(0.943537797244 -0.00021418175031 0.0110836088495)
(0.868496522767 4.03721954439e-05 0.0274083758794)
(0.737313699303 -0.000431087838111 0.0436335035532)
(0.558218931339 -0.00178257098253 0.0547908105059)
(0.350305509319 -0.000888385306354 0.0594478613409)
(0.137217474352 -0.00470673241746 0.0560247802774)
(-0.0630577382014 -0.00659921981748 0.0482485857285)
(-0.217649669578 -0.00632235338489 0.0353010888807)
(-0.306698232951 -0.00717547357789 0.0184903735537)
(-0.33657761054 -0.00721260872309 0.00222386718381)
(-0.313582768582 -0.00553886184745 -0.00968990487759)
(-0.257338029252 -0.00257434602581 -0.0154899305106)
(-0.186614726719 0.00105464217616 -0.0174607761861)
(-0.114680954605 0.00382374537167 -0.0158877858546)
(-0.0534032730042 0.00623476121976 -0.012289075835)
(-0.010299288684 0.00792667717335 -0.00699452872723)
(0.0104649971003 0.0088177813717 -0.00126269675204)
(0.0104231673563 0.00749172819518 0.00319976230261)
(0.00228820687759 0.00317001833527 0.00308037646493)
(0.331842778528 0.681642325286 -0.415714991776)
(1.25134520529 0.955547137014 -0.614273744198)
(1.55710253398 1.36298202179 -0.523428817864)
(1.24810479333 1.59822653905 -0.409234474252)
(0.584974296019 1.76673680947 -0.369122245787)
(-0.229129809366 1.78469917846 -0.35589775931)
(-0.991068198179 1.63722241359 -0.357320862885)
(-1.516477078 1.39079996293 -0.38662398914)
(-1.69563109127 0.962947680498 -0.411592078625)
(-1.44064401983 0.469379979703 -0.391997408191)
(-0.946651418665 0.104589072302 -0.312596938829)
(-0.420573334253 -0.0880577825831 -0.208516347732)
(0.0130447249349 -0.1434916414 -0.125326396083)
(0.322331226929 -0.129874018341 -0.0736977229341)
(0.528777785358 -0.0921636571883 -0.0458394794178)
(0.665973329869 -0.0545169838673 -0.0329606808702)
(0.762633350846 -0.0261809755846 -0.0275487429894)
(0.838121215823 -0.00837571020148 -0.0248563649747)
(0.900748593729 0.00036687369524 -0.0211093956633)
(0.946876512464 0.00338575986742 -0.0142116474207)
(0.965390280792 0.00387507920729 -0.00350935657122)
(0.942677001489 0.00325590833265 0.0107185797937)
(0.867434166763 0.00247246297673 0.0271519408658)
(0.735861753664 0.00155649299007 0.0432470415867)
(0.556311506913 0.000207376259517 0.0542848210328)
(0.34773417278 -0.00162168927702 0.0584396701429)
(0.134644932146 -0.00496523926126 0.055386255321)
(-0.064684750164 -0.00728983935581 0.0473161917852)
(-0.218942783609 -0.00781721477835 0.0348295521292)
(-0.307826145772 -0.00883681322623 0.017555493413)
(-0.336759472482 -0.0088611370585 0.00104070781944)
(-0.312501397689 -0.0068954878107 -0.010650077168)
(-0.255499669645 -0.00357937600391 -0.0161919734575)
(-0.184788383482 0.000689955835694 -0.0174266259602)
(-0.113152307446 0.00380063505843 -0.0151793544337)
(-0.0521881470347 0.00643429851264 -0.0111040669286)
(-0.0094549383023 0.00846381736856 -0.00553965207704)
(0.0105374860788 0.00919942514718 0.000528331615122)
(0.00930196314506 0.00771686923908 0.0046966574588)
(0.00113885088826 0.00315229913421 0.00266315431824)
(0.400828469887 0.997497236073 -0.378953630187)
(1.42958237193 1.38515628066 -0.502534304384)
(1.67427676521 1.85927572132 -0.321868424343)
(1.30663155595 2.10230324467 -0.181250700147)
(0.613868578915 2.28403411822 -0.135617396825)
(-0.228051760761 2.30893526926 -0.126434332583)
(-1.01176954428 2.13851891546 -0.126138897244)
(-1.57853943152 1.85702211409 -0.169924485284)
(-1.80887429377 1.35819562475 -0.256796684104)
(-1.56934409694 0.760028318684 -0.326559900794)
(-1.03389578204 0.280993933831 -0.310741143106)
(-0.450183110697 -0.00252787021647 -0.228361795052)
(0.0238550235241 -0.112525174213 -0.146902575859)
(0.348741149842 -0.122950889899 -0.0883471748626)
(0.556497098667 -0.092059038687 -0.0539616548792)
(0.688311014897 -0.0535137320279 -0.0363940586275)
(0.777903932204 -0.0223467359105 -0.0284062882858)
(0.846998092827 -0.00258031567763 -0.0245066912031)
(0.904925080515 0.00647171922772 -0.0205135909114)
(0.948402993877 0.00859734300851 -0.0136461008228)
(0.965693873465 0.00782382494286 -0.00295542298165)
(0.942470452555 0.00598649211439 0.0112815764307)
(0.867038387269 0.00398537767377 0.0276545958882)
(0.735260481698 0.00207916661517 0.0435641323443)
(0.555336714212 0.000152185389461 0.0545404213882)
(0.34625684641 -0.00225978432118 0.0585487730281)
(0.133131590176 -0.00554770052215 0.0554282693389)
(-0.0655273518527 -0.00823187963641 0.0470274296146)
(-0.219475291695 -0.00909152746899 0.0346203290116)
(-0.308186828976 -0.0102244893861 0.0170067239657)
(-0.336251764316 -0.0100985103288 0.000344386297527)
(-0.311027524203 -0.0079540668659 -0.0111920622807)
(-0.253255353206 -0.00470922324859 -0.0164296870114)
(-0.182571930634 -0.000317732920372 -0.0177677563441)
(-0.111483830397 0.00312185158583 -0.0149931421931)
(-0.0508432883875 0.00597901785756 -0.0106443212728)
(-0.00857390178425 0.00808402924327 -0.00493628967116)
(0.0105645180984 0.00878859944234 0.00134225536981)
(0.00815965281927 0.00737583203194 0.0052317320874)
(0.000153183689079 0.00319098097324 0.0020809271099)
(0.516112929285 1.18821358461 -0.338361818903)
(1.65007091809 1.59513332365 -0.350843668802)
(1.83244558313 2.07614587173 -0.0737793040987)
(1.41226953304 2.29958863157 0.106840402693)
(0.673470576074 2.4850292946 0.187377770999)
(-0.250120068944 2.51669025631 0.202149989081)
(-1.07636034227 2.32598175853 0.156822069361)
(-1.66880245865 2.04011329519 0.0757679561506)
(-1.95786531382 1.5367502634 -0.0749558475844)
(-1.74329088031 0.921646276877 -0.230971155651)
(-1.16820713753 0.403593302616 -0.288045841434)
(-0.516637989032 0.0747876191215 -0.239159082052)
(0.0120867730847 -0.0724931389813 -0.163231972601)
(0.365455339415 -0.102821663607 -0.100290494218)
(0.581082250743 -0.0811264067485 -0.0603081158497)
(0.710361399998 -0.0459648985918 -0.0383591362531)
(0.793604600978 -0.0156200425927 -0.0278022787387)
(0.856054522215 0.00369821848797 -0.0228360734822)
(0.908842611187 0.0119468172231 -0.018820455727)
(0.949436227758 0.0128275860364 -0.0123726501459)
(0.965521117789 0.0108110386062 -0.00197255275128)
(0.941867281032 0.00791901785304 0.012051486282)
(0.86633316614 0.00501054405044 0.0282799085496)
(0.734522486348 0.00236929216368 0.0440072668412)
(0.554419454171 1.3829909356e-05 0.0549285200437)
(0.344989298642 -0.0026015776566 0.0588101547643)
(0.131824164501 -0.00583738084484 0.0555106336377)
(-0.0662454119315 -0.00856402921312 0.0468617551634)
(-0.21984406263 -0.00971436363981 0.0342254408621)
(-0.308305091916 -0.0107810143901 0.0164206058878)
(-0.335511351048 -0.0104621708072 -0.000328937791361)
(-0.309458661085 -0.00825183259169 -0.0117084697833)
(-0.251193533407 -0.00508205389129 -0.0166959063971)
(-0.18044078301 -0.0012290132755 -0.01761324971)
(-0.109675109445 0.00173878738864 -0.0148383959722)
(-0.0494726245883 0.00509921986386 -0.0105472854156)
(-0.00773805255423 0.00710938803156 -0.00472910471)
(0.0106065844036 0.00774050643829 0.00172450226731)
(0.00718542032552 0.00656782970094 0.00541532605113)
(-0.000619215594613 0.00309117209413 0.00155691594456)
(0.647553879849 1.21703401175 -0.303984708648)
(1.86239053568 1.57708311544 -0.211648566965)
(1.98883778593 2.01066474519 0.133123217018)
(1.52344278876 2.17761853144 0.319631238605)
(0.733517056915 2.34102429115 0.415277442838)
(-0.265360011933 2.3787581503 0.428981898802)
(-1.13315515287 2.20594258434 0.355274541044)
(-1.73725809416 1.9481032385 0.275018697802)
(-2.10567974709 1.51121061447 0.0839031374868)
(-1.92317787921 0.945617245287 -0.139564779409)
(-1.32145365982 0.453200282299 -0.261355785581)
(-0.603458316232 0.122553868434 -0.244353669854)
(-0.0141490781309 -0.0352264632961 -0.175663071717)
(0.373550514596 -0.0779792413492 -0.10982226293)
(0.601017055099 -0.064843859273 -0.0645986454332)
(0.730026498437 -0.035326593079 -0.0389780929416)
(0.808022862587 -0.00845992352673 -0.0261055423578)
(0.864215715894 0.0086930293655 -0.0203370502301)
(0.911963697049 0.0154829628723 -0.0165788992457)
(0.949748575523 0.0151922838428 -0.0107952256692)
(0.964765332853 0.01228579212 -0.000874143717007)
(0.940811868135 0.00876480165214 0.0128133101306)
(0.865284463255 0.00539862132301 0.0288433782809)
(0.733566178461 0.00242493479557 0.0443737502971)
(0.55343265972 -9.79571697512e-05 0.0552114486212)
(0.343778630741 -0.00268086272071 0.0589573145679)
(0.130620868548 -0.00569922548719 0.0554513391728)
(-0.0669901486158 -0.00815025054483 0.0465747613708)
(-0.220226706617 -0.00962909578458 0.0336796747116)
(-0.308298193791 -0.0104695707745 0.0157256151634)
(-0.334710384088 -0.00999138878929 -0.00105558244946)
(-0.307951928149 -0.00786262677758 -0.0122686289416)
(-0.249305048153 -0.00491443843191 -0.0170490965358)
(-0.178799997379 -0.00138540405733 -0.0176573373567)
(-0.108062524738 0.0020643785606 -0.0136491815191)
(-0.0479628552045 0.00421780742179 -0.0105028173674)
(-0.00698065810395 0.0059039605422 -0.00469725782654)
(0.0106981016426 0.00643627513587 0.00189756912854)
(0.006502176721 0.00559585843433 0.0054594381985)
(-0.00116602727538 0.00296219385398 0.00128037363235)
(0.75345249777 1.10334119756 -0.27726375404)
(2.02740425088 1.37488377251 -0.102897971817)
(2.10715518111 1.7601091252 0.276062749098)
(1.6447272808 1.9049640954 0.459543126051)
(0.795938846839 2.04642660625 0.594159484857)
(-0.272047165486 2.09149549019 0.606028038788)
(-1.18352103348 1.94917563871 0.487079622346)
(-1.77765559225 1.69233659343 0.408724281859)
(-2.22782011964 1.32639002133 0.203925186937)
(-2.08022944665 0.850886807985 -0.0627533936809)
(-1.46743979696 0.431397398248 -0.235711966162)
(-0.692616345336 0.138501994994 -0.24631339646)
(-0.0469883137622 -0.00812697536922 -0.185632641106)
(0.374758507455 -0.0536873928905 -0.116824042224)
(0.615977496002 -0.0473119853677 -0.0672650176991)
(0.746194201057 -0.024379955775 -0.0384528686958)
(0.820128747861 -0.00267249799666 -0.0238093228337)
(0.87094059045 0.0112427553703 -0.0175131068321)
(0.914180009989 0.0163379810714 -0.0141238113289)
(0.949459075111 0.0152856260249 -0.0091520278288)
(0.963615831933 0.0120477839213 0.000187816284042)
(0.939501726916 0.00846564291563 0.0135020583399)
(0.864061980295 0.00515366381216 0.0293008609805)
(0.732506032082 0.00227002534202 0.0446439738239)
(0.552434967232 -0.00011806974345 0.0553843130322)
(0.34265678727 -0.00244318288023 0.058994183334)
(0.129566463971 -0.00504294472145 0.0552813525061)
(-0.0677408291302 -0.00703089733448 0.046173345704)
(-0.220634686883 -0.00865300673636 0.0330958653883)
(-0.308205093099 -0.00921614729437 0.0150173453202)
(-0.333939448698 -0.00865895664466 -0.00176989380666)
(-0.306602558545 -0.00676830909013 -0.012822592261)
(-0.247622529734 -0.00421767243955 -0.0174375254188)
(-0.176690278246 -0.0011854524082 -0.0179384957805)
(-0.106696008601 0.0024973660268 -0.0151958612453)
(-0.0474057411183 0.00340615387621 -0.0107187582422)
(-0.00639807437837 0.00471963731256 -0.00472669703576)
(0.0108368358041 0.00517949473852 0.00201101405037)
(0.0061034130806 0.00461189852767 0.0054632237942)
(-0.00152028340234 0.00278441307814 0.00118074122374)
(0.849133069145 0.869258698668 -0.260988529414)
(2.14784258598 1.0410461174 -0.0315139728453)
(2.20074340494 1.37308984521 0.382053103516)
(1.78255761339 1.47074984755 0.565603615515)
(0.875788452902 1.57536418971 0.723304559341)
(-0.276146807238 1.62399141738 0.731826969254)
(-1.23403438097 1.52743427193 0.609260503177)
(-1.81064351839 1.30880742876 0.509816494354)
(-2.3187893794 1.02681091075 0.308899536305)
(-2.19920163868 0.665873060421 -0.00355987748799)
(-1.58840216142 0.349482577073 -0.213718824222)
(-0.770743258867 0.123210796866 -0.245952788288)
(-0.0786863936938 0.00547277102494 -0.191797541109)
(0.37270117777 -0.0332879044515 -0.121487131684)
(0.626341615498 -0.0311238418764 -0.0685864842757)
(0.758382788109 -0.0149996056292 -0.0372196539443)
(0.829386999067 0.00074517279874 -0.0214929160564)
(0.875991661401 0.0108600987879 -0.0148397041854)
(0.915597224799 0.0143181168583 -0.0118803636867)
(0.948854095454 0.0130651743622 -0.00765324479707)
(0.962369509399 0.0101563663072 0.00112253503948)
(0.938204132879 0.00710556004923 0.0140752997198)
(0.862889007755 0.00433684657812 0.0296693817186)
(0.731509521403 0.00194689104347 0.0448422444388)
(0.551538822358 -1.38641384572e-05 0.0554853620417)
(0.341706623526 -0.0018621370878 0.0589730114211)
(0.128720516644 -0.00385448176684 0.055069401248)
(-0.0684114374875 -0.0052849574263 0.0457474248038)
(-0.221012909974 -0.00674143047544 0.0325908505791)
(-0.308065522667 -0.00704792439948 0.0143998044142)
(-0.333270350513 -0.0065112097838 -0.00238031769557)
(-0.305494430892 -0.00500541715227 -0.0132985609906)
(-0.246278223813 -0.00302321090249 -0.0177762688961)
(-0.175263511137 -0.000751712869021 -0.0181850747988)
(-0.105648181833 0.00141339825378 -0.015530192849)
(-0.046743356441 0.00263608464016 -0.0108053347915)
(-0.00590506515147 0.00365845012505 -0.00475230033852)
(0.010985373643 0.0040601945274 0.00206513625623)
(0.00589575491792 0.00367957052073 0.00550358443314)
(-0.00172252037953 0.00253072255402 0.00118765444086)
(0.921937611707 0.542531617121 -0.25719066808)
(2.22630331634 0.630825119414 0.000615304016462)
(2.25920942798 0.868252389541 0.466154110968)
(1.9120059414 0.907138224782 0.632523367173)
(0.964961547978 0.998932279301 0.703196258)
(-0.285911767127 1.03457797305 0.718682950214)
(-1.26887324876 0.957875333801 0.706640882112)
(-1.83129052919 0.817195180279 0.577364399679)
(-2.38303135286 0.648895067319 0.385108240203)
(-2.27752047193 0.417587099098 0.0351301891755)
(-1.67330636989 0.223095491069 -0.197502976311)
(-0.827364056385 0.0824400084167 -0.244572715197)
(-0.103020022282 0.00769227284122 -0.195217305087)
(0.369777015628 -0.0178519303055 -0.124067110824)
(0.632760737758 -0.0174203301245 -0.0690285857341)
(0.766457521857 -0.00788782495885 -0.0360034035187)
(0.83559260539 0.0016410827437 -0.0195127664)
(0.879330848539 0.00774556096696 -0.012752333353)
(0.916411108541 0.00977359469289 -0.0101453339889)
(0.948251775787 0.00885079287377 -0.00650188498731)
(0.961346198333 0.00689630565415 0.00181578105138)
(0.937180846115 0.00488808717942 0.0145002181331)
(0.861975810484 0.00306524497317 0.0299222759139)
(0.730739628794 0.00149321094621 0.0449974458445)
(0.550861619941 0.000206481838084 0.0555614725382)
(0.341018959217 -0.000978067760386 0.0589412551121)
(0.128138442821 -0.00221907635564 0.0548949310294)
(-0.0689090245173 -0.00305493601201 0.0454041742451)
(-0.221294693203 -0.00402745720813 0.0322321678934)
(-0.307918858793 -0.00412793333769 0.0139568412516)
(-0.332764252878 -0.00370663821937 -0.00281388712421)
(-0.304696623712 -0.00270347813418 -0.0136351679066)
(-0.245339907493 -0.00142181364762 -0.0180109308318)
(-0.174356150172 -3.10744273235e-05 -0.0183458227117)
(-0.104926081026 0.000767553194829 -0.0157274793431)
(-0.0462071917303 0.00206872022979 -0.0108568582603)
(-0.00554479483002 0.00275745696944 -0.00474016291938)
(0.0111149863825 0.00303479201976 0.00210003424972)
(0.00580905966986 0.00282280187916 0.00554001235072)
(-0.00182478618451 0.00218649605064 0.00122748216833)
(0.960507130891 0.169520195659 -0.259647907138)
(2.26109728223 0.196926671796 0.00678480594058)
(2.31132428814 0.282789272796 0.502484489167)
(1.96400156052 0.295340408381 0.69043696921)
(1.00376090651 0.331495205292 0.729628385222)
(-0.284499271999 0.344175369897 0.748695372655)
(-1.28355512144 0.316255560676 0.759741499686)
(-1.84161620279 0.265681057681 0.605160158634)
(-2.41597761208 0.212710523524 0.432891430823)
(-2.31517800304 0.132174845967 0.0535759099157)
(-1.71585942742 0.0698201514448 -0.189028309371)
(-0.856144523198 0.0250762491367 -0.24345919822)
(-0.115652943901 0.00139325049414 -0.196563980636)
(0.36808174086 -0.00643649781527 -0.125133018973)
(0.635898985241 -0.00597888906936 -0.0690556054077)
(0.770507924025 -0.00264933345729 -0.0352571631988)
(0.838715511157 0.000609035260875 -0.0183571798312)
(0.881007761318 0.00270625450784 -0.0116086087717)
(0.916813842304 0.00348668857167 -0.00919835088244)
(0.947928492655 0.00328817648009 -0.00587754194915)
(0.960805964615 0.00272725396715 0.00219545042016)
(0.936635426317 0.00210457693928 0.0147359787479)
(0.861481959132 0.0014933440102 0.0300628373263)
(0.730321460981 0.000945252999343 0.0450948427985)
(0.550499832295 0.000500336118323 0.055614250946)
(0.340662348708 0.000105302006302 0.0589294241798)
(0.127850734533 -0.000297796060735 0.0548027389429)
(-0.0691521162683 -0.000542416509049 0.0452237808935)
(-0.22141740382 -0.000775984628756 0.0320566106241)
(-0.307802816727 -0.000726092284701 0.0137350471533)
(-0.332466837523 -0.000489598931046 -0.00302531759771)
(-0.304257888233 -6.67978518105e-05 -0.0137928928332)
(-0.244853067299 0.000435161848359 -0.018112334174)
(-0.174103724539 0.000916637923479 -0.0183805879196)
(-0.10455569268 0.000756553537949 -0.0152796697694)
(-0.0457040312799 0.00165883370766 -0.0108188765361)
(-0.00533633380461 0.00194938578258 -0.0047333737802)
(0.0111877911071 0.00205363826336 0.00213121719126)
(0.00578312692305 0.0019796441111 0.00558990369229)
(-0.00186461373347 0.00171708602427 0.00125333054808)
(0.960568231222 -0.216636399044 -0.26020340911)
(2.26275857296 -0.240758168698 0.00674902030553)
(2.31271526252 -0.320211184465 0.503723893525)
(1.96549527717 -0.325315733416 0.690664752048)
(1.00398560298 -0.355518334257 0.731976470303)
(-0.284695760879 -0.367402545902 0.750743281471)
(-1.28306458463 -0.344434619451 0.765809788964)
(-1.84279279293 -0.299850464644 0.606173728354)
(-2.41579407045 -0.250287016334 0.431665878575)
(-2.31349482801 -0.165087018772 0.0526275367842)
(-1.71341170685 -0.0921288332765 -0.189435379212)
(-0.854160752841 -0.0378028529511 -0.243455397286)
(-0.11441761597 -0.00780589682634 -0.196438721968)
(0.368719329724 0.00347100751934 -0.12502624127)
(0.636172812295 0.00459186216868 -0.0689933874811)
(0.770612744143 0.00188344684296 -0.035231090903)
(0.838771275316 -0.00114827371031 -0.0183607537722)
(0.881083490859 -0.00302272437098 -0.011622008157)
(0.916921158491 -0.00342243615748 -0.00920344504699)
(0.948041567877 -0.00275466909816 -0.00586963212591)
(0.960892873559 -0.00177129647393 0.00221544891693)
(0.936679015281 -0.000890628653712 0.0147625688349)
(0.861492454095 -0.000199072431164 0.0300851376756)
(0.730323005751 0.000345062229665 0.04511550376)
(0.550506651826 0.000800427717526 0.0556335178469)
(0.340675469734 0.00124018928316 0.0589477016772)
(0.127869966524 0.00170927359928 0.054816039404)
(-0.0690946583936 0.00205291900091 0.0452441934262)
(-0.221343525483 0.00263706205467 0.0320702218826)
(-0.307742387565 0.00281562787433 0.0137571545902)
(-0.332404851186 0.00284127291643 -0.00299563949181)
(-0.304203492046 0.00265456319156 -0.0137599168853)
(-0.244819088662 0.00235066344931 -0.018073557755)
(-0.174174439492 0.00195585374259 -0.0183256263896)
(-0.104541968987 0.00162728041007 -0.0150067795343)
(-0.0455991362607 0.00134330371306 -0.0107532313849)
(-0.00532288745023 0.00112205091114 -0.00469878449945)
(0.0111893802765 0.00104853110059 0.00216344690111)
(0.0057792084699 0.00109890269221 0.00562776069193)
(-0.0018696464967 0.00115826565343 0.00129051119793)
(0.922037250415 -0.588505883629 -0.258800570157)
(2.23043426582 -0.67556246886 0.000517613149298)
(2.26291617249 -0.90988344212 0.469201739697)
(1.91373749608 -0.944753459719 0.637580266505)
(0.965408125731 -1.03101969324 0.710241692871)
(-0.286283858602 -1.06593547956 0.72564723586)
(-1.27124193163 -0.992956521977 0.710580487325)
(-1.83401355383 -0.85433826908 0.578705554797)
(-2.38196774647 -0.685534679109 0.38217382998)
(-2.27226999271 -0.449020737408 0.0323448787518)
(-1.66601946334 -0.244118127883 -0.198647332675)
(-0.821508046283 -0.0943700746003 -0.244598233554)
(-0.0993991334228 -0.0136989372565 -0.194888037578)
(0.37163818357 0.0150416678219 -0.123772218163)
(0.63357593758 0.016100628655 -0.0688417073819)
(0.766769884642 0.00715249716808 -0.0359197540662)
(0.835758365044 -0.00216067962122 -0.0195085092362)
(0.879556023881 -0.00804640898607 -0.0127874857343)
(0.916729721033 -0.00970761290158 -0.0101559759745)
(0.948586798489 -0.0083284760604 -0.00647594827002)
(0.961602478508 -0.00596935320858 0.00187673652996)
(0.937309352413 -0.00372155763212 0.0145795130671)
(0.862005716089 -0.00182158394434 0.0299918051111)
(0.730742424352 -0.000263099133453 0.0450562070776)
(0.550882409644 0.0010358274731 0.0556141354627)
(0.341060422493 0.00226794774598 0.0589902074159)
(0.128200259341 0.00358330724523 0.0549335779328)
(-0.068743816723 0.00453592811968 0.0454604907516)
(-0.221081544553 0.00579638651224 0.0322761216745)
(-0.307736291229 0.00613432638133 0.0140196909102)
(-0.33257867239 0.00597406076204 -0.00272846292863)
(-0.304534386968 0.00520065185097 -0.0135384119737)
(-0.245230946378 0.00411286311884 -0.0178992104172)
(-0.174486389851 0.00285571293329 -0.0182046110124)
(-0.10487743556 0.00214671989369 -0.0152668978146)
(-0.0459776089877 0.000900541928672 -0.0107196038202)
(-0.00552198350715 0.000187817066583 -0.00462508983871)
(0.0111219729289 -4.99883101779e-05 0.00219734522232)
(0.00580168374671 0.000137561207848 0.00564941613358)
(-0.00183641649921 0.000565973964963 0.00132898314608)
(0.849044390961 -0.912562364519 -0.263468926854)
(2.15215877198 -1.08639702444 -0.032532149627)
(2.2053757965 -1.4193354558 0.383723499042)
(1.78378853155 -1.51822547322 0.569318973745)
(0.875464667139 -1.61805945821 0.734286529766)
(-0.275543572364 -1.66576170535 0.741828519035)
(-1.23560876118 -1.57031486249 0.611396466821)
(-1.8127897593 -1.34891771856 0.509233490127)
(-2.31544726553 -1.06187321895 0.304538281208)
(-2.18984892676 -0.694296922635 -0.00792360238872)
(-1.57645932223 -0.368016285107 -0.215334072945)
(-0.761331599452 -0.133629825105 -0.24589036434)
(-0.0729060974046 -0.0107940735091 -0.191233096582)
(0.375675362172 0.0307692964659 -0.120973469449)
(0.627647831542 0.0299104282512 -0.0682759093013)
(0.758883873288 0.0143022152769 -0.0370677671979)
(0.829657885514 -0.00123254838867 -0.0214751958729)
(0.876359531453 -0.0111368131405 -0.0148801689122)
(0.916116935248 -0.0142547964825 -0.0118920188181)
(0.949399965468 -0.0125755610336 -0.0075982615469)
(0.962781837046 -0.00929787696592 0.00123665978348)
(0.93840948986 -0.00603235529204 0.0142043368309)
(0.862933906913 -0.00319372275484 0.0297813757304)
(0.731511697729 -0.000828446149502 0.0449253637743)
(0.551575589233 0.00114822233193 0.0555605994062)
(0.341779909088 0.00304498241857 0.0590470615619)
(0.128833711659 0.00512135836597 0.0551281359554)
(-0.0681540488803 0.00669843681992 0.045822996977)
(-0.220679149543 0.00834337283987 0.0326708949471)
(-0.307758446783 0.00890092499704 0.0145029966015)
(-0.332964705535 0.00861709997206 -0.00224258445664)
(-0.305228656286 0.0073264192278 -0.0131436589888)
(-0.246079669536 0.00552812162588 -0.0176036061641)
(-0.175222080011 0.0034327362002 -0.0180021639709)
(-0.105564126751 0.00168691235298 -0.0154489018434)
(-0.0466310748296 0.00016927742409 -0.0106546539224)
(-0.00589631275624 -0.000927629653665 -0.00452695503729)
(0.0110015872836 -0.00130074817537 0.00222017852192)
(0.00588235357611 -0.000961118843285 0.005652022947)
(-0.00174352737927 -8.62375972671e-06 0.00136101932084)
(0.753128392371 -1.14203989317 -0.2802317482)
(2.02969644697 -1.41855861284 -0.105539241674)
(2.10956442016 -1.80740332425 0.274475770136)
(1.64508849859 -1.95502960955 0.457677511282)
(0.797412761673 -2.09804964357 0.593248481022)
(-0.270862808246 -2.14139457064 0.604617563076)
(-1.18257540516 -1.99343932084 0.484721268638)
(-1.77664658118 -1.73240328444 0.405304256722)
(-2.22071902902 -1.35923782184 0.197293583393)
(-2.06635750492 -0.874869567298 -0.0681630051725)
(-1.45126129358 -0.446464928919 -0.237343123916)
(-0.680196532704 -0.146935203936 -0.245971468906)
(-0.0394145159272 0.00376834629389 -0.184765266894)
(0.378683202828 0.0515143227945 -0.116112654919)
(0.617709955683 0.046215550032 -0.0668248295935)
(0.746871821071 0.023711887097 -0.0382301990381)
(0.820504923293 0.00221986145241 -0.0237885190494)
(0.871440858584 -0.0115013534508 -0.0175559345544)
(0.914882437598 -0.0162891761362 -0.0141310123204)
(0.95019421543 -0.0148573212642 -0.0090710912675)
(0.964168021431 -0.0113027227037 0.000343871218813)
(0.939776972062 -0.00752739721632 0.013674561942)
(0.864117970152 -0.00415360843142 0.0294485926593)
(0.732506176152 -0.00129898058273 0.0447405704646)
(0.552488056766 0.00110312894207 0.0554735882624)
(0.342763631352 0.0034728696026 0.0590830082481)
(0.129741669634 0.00616447218832 0.0553484003454)
(-0.0674111205113 0.00833552271158 0.0462471972057)
(-0.220205293014 0.0100252121532 0.0332204895175)
(-0.3077738328 0.0108541530164 0.0151605457927)
(-0.333522019284 0.0105333355146 -0.00158992428013)
(-0.306241278519 0.00883448501125 -0.012621003181)
(-0.247332297239 0.00644826910207 -0.0172174430909)
(-0.176521255243 0.00362012622943 -0.0177358019708)
(-0.106586321913 0.000925615424088 -0.0151523920088)
(-0.0473678107483 -0.000866463593059 -0.0105376937583)
(-0.00640864940468 -0.00227134323282 -0.00444837646622)
(0.0108486279847 -0.00274882906098 0.00219960310567)
(0.00609212845123 -0.00221264956466 0.0056684582554)
(-0.0015315402518 -0.000560073631372 0.00140586255425)
(0.64614762732 -1.25046464564 -0.306962770289)
(1.86070954852 -1.61630403463 -0.215536526145)
(1.98804851005 -2.05535593225 0.129016923029)
(1.52258635989 -2.22619709422 0.316113703736)
(0.734467623915 -2.39129862237 0.411974507821)
(-0.261815767271 -2.42695087949 0.425315259942)
(-1.12912171053 -2.24891082702 0.352512490042)
(-1.73265675424 -1.98589144698 0.269532666525)
(-2.09329569321 -1.53961150671 0.0767011745688)
(-1.90433725499 -0.964074556363 -0.144933806561)
(-1.30171990056 -0.464376082219 -0.262402275949)
(-0.588687540854 -0.128936425307 -0.243553933289)
(-0.00520424958178 0.0317110324191 -0.17453620762)
(0.378191959151 0.0761193158204 -0.108893103515)
(0.603100386392 0.0638350019211 -0.064013832417)
(0.730861072144 0.0346801078139 -0.0387352628524)
(0.808501922246 0.00803176332531 -0.0260607346558)
(0.864834739494 -0.00894854387403 -0.0203758274505)
(0.912827521802 -0.0154696255932 -0.0165735385736)