/*--------------------------------*- C++ -*----------------------------------*\
| =========                 |                                                 |
| \\      /  F ield         | OpenFOAM: The Open Source CFD Toolbox           |
|  \\    /   O peration     | Version:  3.0.1                                 |
|   \\  /    A nd           | Web:      www.OpenFOAM.org                      |
|    \\/     M anipulation  |                                                 |
\*---------------------------------------------------------------------------*/
FoamFile
{
    version     2.0;
    format      ascii;
    class       volScalarField;
    location    "3.7";
    object      rAU;
}
// * * * * * * * * * * * * * * * * * * * * * * * * * * * * * * * * * * * * * //

dimensions      [-1 3 1 0 0 0 0];

internalField   nonuniform List<scalar> 
15984
(
1.0521858103e-05
1.05186603752e-05
1.05143427334e-05
1.05121912487e-05
1.05149805208e-05
1.05149515984e-05
1.05118207253e-05
1.05074598354e-05
1.05113374283e-05
1.05165410159e-05
1.05156640027e-05
1.05154059415e-05
1.05155921561e-05
1.05159378986e-05
1.05161917845e-05
1.05163576416e-05
1.05164640639e-05
1.05165302646e-05
1.05165691959e-05
1.05165934299e-05
1.05166091561e-05
1.0516619534e-05
1.05166297601e-05
1.05166506056e-05
1.0516665802e-05
1.05166667214e-05
1.05166599727e-05
1.05166562473e-05
1.05166547263e-05
1.05166539744e-05
1.05166560588e-05
1.05166681856e-05
1.0516706224e-05
1.05167271595e-05
1.05166125417e-05
1.05166064175e-05
1.05168277528e-05
1.05172398053e-05
1.05182689155e-05
1.05220676569e-05
1.0504285858e-05
1.04891889128e-05
1.04817585587e-05
1.04792975986e-05
1.04810233324e-05
1.04808203171e-05
1.0478676121e-05
1.04778062479e-05
1.04786609271e-05
1.047897373e-05
1.04790615339e-05
1.04792754321e-05
1.04796582745e-05
1.04801544868e-05
1.04805876938e-05
1.0480848241e-05
1.0481003931e-05
1.04810974249e-05
1.04811535461e-05
1.04811876958e-05
1.04812085289e-05
1.04812209996e-05
1.04812325443e-05
1.04812506681e-05
1.04812656552e-05
1.04812655432e-05
1.04812610174e-05
1.04812584565e-05
1.04812571215e-05
1.04812551049e-05
1.04812565242e-05
1.04812712924e-05
1.04813147247e-05
1.0481351781e-05
1.04813420677e-05
1.04816315931e-05
1.0482596119e-05
1.04848449371e-05
1.04902254113e-05
1.0505635677e-05
1.05022834912e-05
1.04781781924e-05
1.04696944638e-05
1.04678858413e-05
1.04684039648e-05
1.04678325106e-05
1.04658692602e-05
1.04635684426e-05
1.04621001481e-05
1.04615999175e-05
1.04620339177e-05
1.04628283328e-05
1.04635134564e-05
1.04639782774e-05
1.04644376082e-05
1.0464743271e-05
1.04649208231e-05
1.04650243243e-05
1.04650854783e-05
1.04651222369e-05
1.04651444457e-05
1.04651571226e-05
1.04651676208e-05
1.0465183572e-05
1.04651964345e-05
1.04651949934e-05
1.04651883634e-05
1.0465184014e-05
1.04651809443e-05
1.04651780067e-05
1.04651798943e-05
1.04651986817e-05
1.04652524001e-05
1.04652995357e-05
1.04653809322e-05
1.04659143482e-05
1.04674241464e-05
1.04709058645e-05
1.04791209567e-05
1.05030179092e-05
1.05023302169e-05
1.04737443422e-05
1.04647886701e-05
1.04649758387e-05
1.04673046314e-05
1.0466772696e-05
1.04625469997e-05
1.04574579432e-05
1.04537566369e-05
1.0451923928e-05
1.04518697261e-05
1.04527593683e-05
1.04537389246e-05
1.04543604672e-05
1.04548079657e-05
1.0455130737e-05
1.04553199006e-05
1.04554283779e-05
1.04554905997e-05
1.04555279255e-05
1.04555503219e-05
1.04555634057e-05
1.04555744395e-05
1.04555911972e-05
1.04556053298e-05
1.0455604415e-05
1.0455597415e-05
1.04555925626e-05
1.04555880722e-05
1.04555841364e-05
1.04555857717e-05
1.045560715e-05
1.0455668579e-05
1.04557377509e-05
1.04558934773e-05
1.04566166093e-05
1.0458539845e-05
1.04628782931e-05
1.04729273962e-05
1.05017915455e-05
1.05014773933e-05
1.04709637429e-05
1.04605746081e-05
1.04570251303e-05
1.04569217658e-05
1.04560780167e-05
1.04534485781e-05
1.04510736086e-05
1.04477610402e-05
1.04456515389e-05
1.04452591144e-05
1.04460820299e-05
1.04471495048e-05
1.04479651073e-05
1.044846959e-05
1.04488029741e-05
1.04490014776e-05
1.04491142697e-05
1.04491766072e-05
1.04492134298e-05
1.04492349583e-05
1.04492478878e-05
1.04492595845e-05
1.04492782131e-05
1.04492944142e-05
1.0449295571e-05
1.04492901177e-05
1.04492870242e-05
1.04492841502e-05
1.0449280727e-05
1.04492825391e-05
1.04493052852e-05
1.04493736237e-05
1.04494655441e-05
1.04496850413e-05
1.04505674187e-05
1.04528226431e-05
1.04578029534e-05
1.04691266482e-05
1.05011368921e-05
1.04988169857e-05
1.04690893896e-05
1.0454254485e-05
1.0444719697e-05
1.04423448208e-05
1.04412479805e-05
1.04408983618e-05
1.04424686376e-05
1.04434141159e-05
1.04415619904e-05
1.0440841915e-05
1.04415200413e-05
1.04425992742e-05
1.04434885801e-05
1.04440862959e-05
1.04444462767e-05
1.0444660613e-05
1.04447800218e-05
1.04448438638e-05
1.04448785102e-05
1.0444898752e-05
1.044491069e-05
1.04449218046e-05
1.04449399754e-05
1.04449559027e-05
1.04449567365e-05
1.04449510637e-05
1.04449483858e-05
1.04449463314e-05
1.04449438037e-05
1.04449468158e-05
1.0444972267e-05
1.04450491146e-05
1.04451629617e-05
1.04454386764e-05
1.04464542606e-05
1.04489781649e-05
1.04544497362e-05
1.04666843169e-05
1.0500757662e-05
1.04970182269e-05
1.04684828184e-05
1.04492543417e-05
1.04385862396e-05
1.04385187124e-05
1.04372569631e-05
1.04350891715e-05
1.04367401529e-05
1.044059271e-05
1.04389330538e-05
1.04378431253e-05
1.04383793496e-05
1.04394495043e-05
1.04403840719e-05
1.04410500746e-05
1.04414375598e-05
1.04416700116e-05
1.04417965446e-05
1.04418626717e-05
1.04418968026e-05
1.04419156903e-05
1.04419280394e-05
1.04419393051e-05
1.04419574655e-05
1.04419733892e-05
1.04419737057e-05
1.0441967148e-05
1.04419637056e-05
1.04419608372e-05
1.04419579239e-05
1.04419615648e-05
1.04419899657e-05
1.04420743699e-05
1.04422087011e-05
1.04425318985e-05
1.04436550687e-05
1.04463904364e-05
1.04522334578e-05
1.04651173713e-05
1.05005410664e-05
1.04978243032e-05
1.04694776509e-05
1.04473873205e-05
1.04380467337e-05
1.04474626042e-05
1.04464756998e-05
1.04354037818e-05
1.04344022478e-05
1.04387900916e-05
1.04374322992e-05
1.04358508311e-05
1.04362621222e-05
1.0437334863e-05
1.04383061069e-05
1.04390160538e-05
1.04394355343e-05
1.04396699612e-05
1.0439807104e-05
1.04398754575e-05
1.04399092118e-05
1.04399279718e-05
1.04399403004e-05
1.04399518602e-05
1.0439970011e-05
1.04399860139e-05
1.04399860161e-05
1.04399787007e-05
1.04399746634e-05
1.04399711989e-05
1.0439967924e-05
1.04399720827e-05
1.04400028336e-05
1.04400932963e-05
1.04402445401e-05
1.04406041776e-05
1.04418082258e-05
1.04447006416e-05
1.04508107674e-05
1.04641412194e-05
1.05004201843e-05
1.04987992413e-05
1.04708677209e-05
1.04468541743e-05
1.04377983928e-05
1.04575030842e-05
1.04564987934e-05
1.04357317484e-05
1.04327485423e-05
1.04376307614e-05
1.04367004744e-05
1.04346195318e-05
1.04349305509e-05
1.0436028216e-05
1.04370371155e-05
1.04377717497e-05
1.0438207523e-05
1.04384501469e-05
1.04385908303e-05
1.04386606697e-05
1.04386941903e-05
1.0438712827e-05
1.04387249939e-05
1.04387368674e-05
1.04387549257e-05
1.04387710034e-05
1.04387708107e-05
1.04387629823e-05
1.04387584862e-05
1.04387546276e-05
1.04387511185e-05
1.04387556766e-05
1.04387881106e-05
1.04388828015e-05
1.04390459299e-05
1.04394301497e-05
1.0440688568e-05
1.04436849854e-05
1.04499681166e-05
1.04635785779e-05
1.05003568607e-05
1.04992472982e-05
1.04716989764e-05
1.04475952721e-05
1.0438203222e-05
1.04602757963e-05
1.04592676332e-05
1.04355574841e-05
1.0431223978e-05
1.04365876206e-05
1.04364334005e-05
1.04340352464e-05
1.04342749066e-05
1.0435394254e-05
1.04364456775e-05
1.04371822124e-05
1.04376248555e-05
1.04378735332e-05
1.04380148202e-05
1.04380851246e-05
1.04381183963e-05
1.0438136873e-05
1.0438149132e-05
1.04381611136e-05
1.04381791021e-05
1.04381951735e-05
1.04381949033e-05
1.04381868114e-05
1.04381821191e-05
1.04381779763e-05
1.04381743971e-05
1.04381792052e-05
1.04382125158e-05
1.04383093965e-05
1.04384782898e-05
1.04388750186e-05
1.04401612175e-05
1.0443209229e-05
1.04495774275e-05
1.04633227356e-05
1.05003299533e-05
1.04992335536e-05
1.04716791126e-05
1.04475759392e-05
1.04381942946e-05
1.04602406123e-05
1.04592332004e-05
1.04354612235e-05
1.04312578252e-05
1.04366144541e-05
1.04364251459e-05
1.04340358182e-05
1.04342788137e-05
1.04353980828e-05
1.04364478946e-05
1.04371827236e-05
1.04376253007e-05
1.04378733296e-05
1.04380147558e-05
1.04380852356e-05
1.04381184974e-05
1.04381369493e-05
1.0438149352e-05
1.0438161347e-05
1.04381793213e-05
1.04381954357e-05
1.04381951826e-05
1.0438187089e-05
1.04381823993e-05
1.04381782398e-05
1.04381747098e-05
1.0438179562e-05
1.04382129166e-05
1.04383098223e-05
1.04384777444e-05
1.04388747176e-05
1.04401619503e-05
1.044320951e-05
1.04495776764e-05
1.04633228658e-05
1.05003298696e-05
1.04987565676e-05
1.04708126543e-05
1.04467963186e-05
1.04377501832e-05
1.04573614125e-05
1.04563626631e-05
1.04357129839e-05
1.043279491e-05
1.04376640392e-05
1.04366823083e-05
1.04346217609e-05
1.0434938845e-05
1.0436036007e-05
1.0437042822e-05
1.0437773329e-05
1.04382088974e-05
1.04384511998e-05
1.04385910103e-05
1.043866102e-05
1.0438694509e-05
1.0438713154e-05
1.04387256255e-05
1.04387375716e-05
1.04387556127e-05
1.04387717342e-05
1.04387716062e-05
1.04387637751e-05
1.04387592866e-05
1.04387553944e-05
1.04387520158e-05
1.04387567077e-05
1.04387892557e-05
1.04388840194e-05
1.04390442658e-05
1.04394292698e-05
1.04406907394e-05
1.04436857735e-05
1.04499688054e-05
1.04635789458e-05
1.05003565319e-05
1.04977596638e-05
1.04694134534e-05
1.04473768995e-05
1.0438009121e-05
1.04469498987e-05
1.04459919696e-05
1.04353510176e-05
1.04344355069e-05
1.04388138386e-05
1.04374158293e-05
1.04358547374e-05
1.04362717107e-05
1.0437342856e-05
1.04383134213e-05
1.04390188369e-05
1.04394378484e-05
1.04396716454e-05
1.04398080181e-05
1.04398761246e-05
1.04399097785e-05
1.04399286102e-05
1.04399413271e-05
1.04399529951e-05
1.04399710321e-05
1.04399871052e-05
1.04399871987e-05
1.04399799097e-05
1.04399758278e-05
1.04399724304e-05
1.0439969307e-05
1.04399736555e-05
1.04400046183e-05
1.04400951641e-05
1.0440241993e-05
1.0440602881e-05
1.04418115238e-05
1.04447018229e-05
1.04508118368e-05
1.04641418581e-05
1.05004195346e-05
1.04970172356e-05
1.04684589685e-05
1.04492918784e-05
1.04385701954e-05
1.04383545889e-05
1.04371054645e-05
1.04350740038e-05
1.04368151411e-05
1.04406310875e-05
1.04389239602e-05
1.04378478694e-05
1.04383889399e-05
1.0439458575e-05
1.044039232e-05
1.04410542756e-05
1.044144227e-05
1.04416712421e-05
1.04417977747e-05
1.04418637254e-05
1.0441897632e-05
1.0441916802e-05
1.04419293391e-05
1.04419406594e-05
1.04419586941e-05
1.04419745965e-05
1.04419750861e-05
1.04419685808e-05
1.04419651451e-05
1.04419623698e-05
1.04419596354e-05
1.04419634842e-05
1.04419921444e-05
1.0442076678e-05
1.04422052833e-05
1.04425302287e-05
1.04436592188e-05
1.04463919095e-05
1.04522349526e-05
1.04651182836e-05
1.05005401561e-05
1.04989152862e-05
1.046910105e-05
1.04543673665e-05
1.04448991459e-05
1.04425151466e-05
1.04414278343e-05
1.04410755632e-05
1.04426066898e-05
1.04434253725e-05
1.04415567229e-05
1.04408477858e-05
1.04415320062e-05
1.04426100282e-05
1.04434979896e-05
1.0444094226e-05
1.04444488197e-05
1.04446623453e-05
1.04447813391e-05
1.0444845038e-05
1.04448795753e-05
1.0444899729e-05
1.04449119048e-05
1.04449231116e-05
1.04449411989e-05
1.04449569967e-05
1.0444958017e-05
1.0444952465e-05
1.04449498152e-05
1.04449479623e-05
1.04449456229e-05
1.04449489071e-05
1.04449745469e-05
1.04450514253e-05
1.04451582927e-05
1.04454362257e-05
1.04464588498e-05
1.04489796803e-05
1.04544517464e-05
1.04666853828e-05
1.05007565578e-05
1.05015403292e-05
1.04709540717e-05
1.04606020688e-05
1.04572218351e-05
1.04571791298e-05
1.04563397952e-05
1.04536347626e-05
1.04511696851e-05
1.04477591517e-05
1.04456450315e-05
1.04452673742e-05
1.04460943019e-05
1.04471617302e-05
1.04479770794e-05
1.04484785136e-05
1.04488055796e-05
1.04490028405e-05
1.04491153819e-05
1.04491777879e-05
1.04492142431e-05
1.04492359135e-05
1.04492490635e-05
1.04492609263e-05
1.0449279484e-05
1.04492954529e-05
1.0449296806e-05
1.04492915537e-05
1.04492884663e-05
1.04492857818e-05
1.04492822607e-05
1.04492841727e-05
1.04493068679e-05
1.04493752592e-05
1.04494590299e-05
1.04496811357e-05
1.04505714462e-05
1.04528236903e-05
1.04578052842e-05
1.0469127728e-05
1.05011356508e-05
1.05023235553e-05
1.04737072971e-05
1.04647842056e-05
1.04649552059e-05
1.04672521411e-05
1.04667353732e-05
1.04625320232e-05
1.04574499727e-05
1.04537397135e-05
1.04519189956e-05
1.04518794498e-05
1.04527724362e-05
1.04537532695e-05
1.04543769783e-05
1.04548127864e-05
1.04551330753e-05
1.0455320943e-05
1.04554290859e-05
1.04554912188e-05
1.04555284429e-05
1.04555512365e-05
1.04555647164e-05
1.0455576286e-05
1.04555931326e-05
1.04556067332e-05
1.04556057913e-05
1.04555986247e-05
1.04555935501e-05
1.0455588816e-05
1.04555846743e-05
1.04555861951e-05
1.04556077585e-05
1.04556695048e-05
1.04557295632e-05
1.04558878131e-05
1.04566203259e-05
1.04585404565e-05
1.04628800394e-05
1.04729276946e-05
1.05017875622e-05
1.05022745657e-05
1.04781386359e-05
1.04696772181e-05
1.0467877535e-05
1.04683828678e-05
1.04678175526e-05
1.04658595034e-05
1.04635625407e-05
1.04620870773e-05
1.04615949272e-05
1.0462042114e-05
1.0462842507e-05
1.04635323175e-05
1.04639878219e-05
1.04644418539e-05
1.04647448422e-05
1.04649211723e-05
1.04650241777e-05
1.04650848169e-05
1.04651216723e-05
1.04651440478e-05
1.04651570455e-05
1.04651678104e-05
1.0465183538e-05
1.04651959759e-05
1.04651945136e-05
1.04651877395e-05
1.04651832695e-05
1.04651801169e-05
1.04651773607e-05
1.0465179371e-05
1.04651984899e-05
1.04652526503e-05
1.04652905472e-05
1.0465374053e-05
1.04659167198e-05
1.04674237512e-05
1.0470905864e-05
1.04791196216e-05
1.05030115101e-05
1.05042785882e-05
1.04891448752e-05
1.04817840121e-05
1.04793389354e-05
1.04809840429e-05
1.04807858769e-05
1.04786776101e-05
1.04778208255e-05
1.04786484818e-05
1.04789629575e-05
1.04790681236e-05
1.04792903751e-05
1.04796713753e-05
1.04801601653e-05
1.04805893247e-05
1.04808480942e-05
1.04810030778e-05
1.04810960858e-05
1.04811518156e-05
1.04811859696e-05
1.04812070859e-05
1.04812197156e-05
1.0481231279e-05
1.04812485203e-05
1.04812627544e-05
1.04812632022e-05
1.04812586933e-05
1.04812561919e-05
1.04812550514e-05
1.04812531817e-05
1.04812546411e-05
1.04812695697e-05
1.04813130622e-05
1.04813437684e-05
1.04813354405e-05
1.04816311967e-05
1.04825939701e-05
1.0484842917e-05
1.04902224325e-05
1.05056305535e-05
1.05218513848e-05
1.05186258819e-05
1.05143378021e-05
1.05122110472e-05
1.05149779578e-05
1.05149557665e-05
1.05118522011e-05
1.05075332235e-05
1.05113722885e-05
1.05165297231e-05
1.05156700257e-05
1.05154170443e-05
1.05156008861e-05
1.051594256e-05
1.05161948905e-05
1.05163608311e-05
1.05164665747e-05
1.05165311954e-05
1.05165701046e-05
1.05165944897e-05
1.05166102343e-05
1.05166207369e-05
1.05166316537e-05
1.05166522268e-05
1.0516666852e-05
1.05166676806e-05
1.05166617379e-05
1.05166560852e-05
1.05166553823e-05
1.05166542234e-05
1.05166555837e-05
1.0516667234e-05
1.05167072313e-05
1.05167246011e-05
1.05166098377e-05
1.05166064579e-05
1.05168264818e-05
1.05172383806e-05
1.05182670152e-05
1.0522067371e-05
1.0506744366e-05
1.04935808564e-05
1.04859881799e-05
1.0483999078e-05
1.04875835409e-05
1.04873020417e-05
1.04833183993e-05
1.04807726055e-05
1.04815442329e-05
1.04810871718e-05
1.0479844796e-05
1.04797057391e-05
1.04800625144e-05
1.04804081585e-05
1.04806976642e-05
1.04809031093e-05
1.04810387089e-05
1.04811229651e-05
1.04811736489e-05
1.04812049642e-05
1.04812247054e-05
1.04812361846e-05
1.04812449265e-05
1.04812609833e-05
1.04812791898e-05
1.04812806194e-05
1.04812782246e-05
1.04812747789e-05
1.04812724188e-05
1.04812699338e-05
1.04812705652e-05
1.04812822347e-05
1.04813219663e-05
1.04813539666e-05
1.04813736872e-05
1.04816675656e-05
1.04826017333e-05
1.04848468267e-05
1.04902235932e-05
1.0505639744e-05
1.04519883066e-05
1.03811865337e-05
1.03571326207e-05
1.03515760306e-05
1.03522815279e-05
1.03505754231e-05
1.03442741062e-05
1.03361569652e-05
1.03287725896e-05
1.03232628723e-05
1.03206084321e-05
1.03203016015e-05
1.0321062257e-05
1.03219473068e-05
1.0322638303e-05
1.03231033464e-05
1.03233980244e-05
1.03235784716e-05
1.03236862765e-05
1.03237517939e-05
1.03237907924e-05
1.0323812647e-05
1.03238274527e-05
1.03238483679e-05
1.03238666944e-05
1.03238633945e-05
1.03238535649e-05
1.03238468203e-05
1.03238405233e-05
1.03238350943e-05
1.03238360318e-05
1.03238610141e-05
1.03239498854e-05
1.03241599966e-05
1.03247529264e-05
1.03266488016e-05
1.03316886825e-05
1.0343649444e-05
1.03720669111e-05
1.04505804689e-05
1.04353195815e-05
1.03164390979e-05
1.02751443001e-05
1.02642085258e-05
1.02626253147e-05
1.0259895076e-05
1.02521877893e-05
1.0241344054e-05
1.02314524879e-05
1.02251103975e-05
1.02228677186e-05
1.02232623444e-05
1.02246277524e-05
1.02259746016e-05
1.02269848134e-05
1.02276451396e-05
1.02280512227e-05
1.02282938767e-05
1.02284372299e-05
1.02285218404e-05
1.02285711457e-05
1.02285978702e-05
1.02286147714e-05
1.02286361815e-05
1.02286517874e-05
1.02286465302e-05
1.02286341729e-05
1.02286268306e-05
1.02286202424e-05
1.02286136174e-05
1.02286169387e-05
1.02286580051e-05
1.02288041516e-05
1.02291969441e-05
1.02303389269e-05
1.02336659462e-05
1.02420836899e-05
1.0261548673e-05
1.03074581265e-05
1.04349248072e-05
1.04310116362e-05
1.02849472835e-05
1.02340569738e-05
1.02205838445e-05
1.02177632046e-05
1.02135857681e-05
1.02035784071e-05
1.01895507298e-05
1.01769043613e-05
1.01690191612e-05
1.01665260626e-05
1.01673320422e-05
1.01692158104e-05
1.01709243608e-05
1.01721447236e-05
1.01729470874e-05
1.01734298011e-05
1.01737114806e-05
1.01738730353e-05
1.01739657437e-05
1.01740185963e-05
1.01740471503e-05
1.0174064259e-05
1.01740847801e-05
1.01740994743e-05
1.017409255e-05
1.01740792765e-05
1.01740719601e-05
1.01740651455e-05
1.01740588271e-05
1.01740660976e-05
1.01741242584e-05
1.01743271902e-05
1.01748880479e-05
1.01765010257e-05
1.01809698847e-05
1.01918694477e-05
1.02164486276e-05
1.02734679554e-05
1.04298667007e-05
1.04283376906e-05
1.02691228794e-05
1.02127925067e-05
1.01983010352e-05
1.01953403953e-05
1.01902213454e-05
1.01777266624e-05
1.01597182293e-05
1.01435107168e-05
1.01337104114e-05
1.01302433216e-05
1.01309046342e-05
1.01330163591e-05
1.01350046663e-05
1.01364116474e-05
1.01373272798e-05
1.01378718624e-05
1.01381827355e-05
1.01383573911e-05
1.01384546611e-05
1.01385091362e-05
1.01385385291e-05
1.01385558697e-05
1.01385760411e-05
1.01385904417e-05
1.01385824673e-05
1.01385685396e-05
1.01385610138e-05
1.01385539655e-05
1.0138548084e-05
1.0138559626e-05
1.01386352176e-05
1.01388934873e-05
1.01396138657e-05
1.01416382762e-05
1.01470547414e-05
1.01598919753e-05
1.0188210849e-05
1.02527698785e-05
1.04270187774e-05
1.04247401019e-05
1.02617189925e-05
1.02030099943e-05
1.01894522365e-05
1.01872933224e-05
1.01814467742e-05
1.01661792519e-05
1.0143423096e-05
1.01223590163e-05
1.01102666604e-05
1.01056710697e-05
1.01059248517e-05
1.01080759956e-05
1.01102527111e-05
1.01118409671e-05
1.01128494109e-05
1.01134491291e-05
1.0113786309e-05
1.01139703783e-05
1.01140720727e-05
1.01141278457e-05
1.0114158199e-05
1.01141760767e-05
1.01141964736e-05
1.01142107762e-05
1.011420217e-05
1.0114187639e-05
1.01141799264e-05
1.01141727756e-05
1.01141675908e-05
1.01141836178e-05
1.01142759827e-05
1.01145857714e-05
1.01154504004e-05
1.01178326943e-05
1.0124034081e-05
1.01384082652e-05
1.01695427581e-05
1.02394138119e-05
1.04253139058e-05
1.0422187691e-05
1.02592328977e-05
1.01998047527e-05
1.01876421706e-05
1.0186209233e-05
1.01797323057e-05
1.01620028678e-05
1.01352611655e-05
1.01092781418e-05
1.0094533937e-05
1.0088830651e-05
1.00886189811e-05
1.00907441677e-05
1.00930506713e-05
1.00947809292e-05
1.00958799238e-05
1.00965219914e-05
1.00968817685e-05
1.00970761291e-05
1.00971793902e-05
1.0097236916e-05
1.00972680099e-05
1.00972860768e-05
1.00973062692e-05
1.0097320156e-05
1.00973105438e-05
1.0097295263e-05
1.00972872953e-05
1.00972800112e-05
1.00972758478e-05
1.00972962681e-05
1.00974039488e-05
1.00977589681e-05
1.00987470895e-05
1.01014278001e-05
1.01082601839e-05
1.01238310069e-05
1.01570716077e-05
1.02307007868e-05
1.04242771442e-05
1.04222873461e-05
1.02589528971e-05
1.02000005381e-05
1.01888682213e-05
1.01934535065e-05
1.0186780495e-05
1.01613326728e-05
1.01313892082e-05
1.01015462334e-05
1.00843622233e-05
1.00775956029e-05
1.00769499568e-05
1.00790353134e-05
1.00814338216e-05
1.00832732942e-05
1.00844392416e-05
1.00851180667e-05
1.00854946556e-05
1.00856963282e-05
1.008580214e-05
1.00858605225e-05
1.00858925369e-05
1.00859106547e-05
1.00859305241e-05
1.00859439982e-05
1.00859333043e-05
1.00859169338e-05
1.00859083593e-05
1.00859009303e-05
1.00858973572e-05
1.00859216663e-05
1.00860421055e-05
1.00864337137e-05
1.00875193407e-05
1.00904311532e-05
1.00977418525e-05
1.01141971453e-05
1.01489489541e-05
1.02251578373e-05
1.04236626004e-05
1.04229636329e-05
1.02595597326e-05
1.02012199569e-05
1.01909401239e-05
1.02039348234e-05
1.01969290026e-05
1.0162070226e-05
1.01297398352e-05
1.00974406741e-05
1.00783332367e-05
1.00707133873e-05
1.00697201562e-05
1.00717777064e-05
1.00742420625e-05
1.00761587409e-05
1.00773693617e-05
1.00780713518e-05
1.00784605827e-05
1.00786672325e-05
1.00787750111e-05
1.00788334931e-05
1.00788665691e-05
1.0078884775e-05
1.00789044475e-05
1.00789177283e-05
1.00789061648e-05
1.00788888173e-05
1.00788796637e-05
1.00788718358e-05
1.00788687968e-05
1.00788959263e-05
1.00790255551e-05
1.00794429448e-05
1.00805958762e-05
1.00836653886e-05
1.00912983292e-05
1.01083389829e-05
1.01440707329e-05
1.02218984674e-05
1.0423323049e-05
1.04233211476e-05
1.0260117116e-05
1.0202125784e-05
1.01922374452e-05
1.0207564797e-05
1.0200416641e-05
1.01627883921e-05
1.01291471268e-05
1.00956480486e-05
1.00755518501e-05
1.00674553102e-05
1.00662601617e-05
1.00682974916e-05
1.00708149677e-05
1.00727610586e-05
1.00739923384e-05
1.00747071961e-05
1.00751023131e-05
1.00753113829e-05
1.00754200047e-05
1.0075478913e-05
1.00755125832e-05
1.00755310381e-05
1.00755506295e-05
1.00755638495e-05
1.00755518443e-05
1.00755339073e-05
1.00755243488e-05
1.00755163428e-05
1.00755134986e-05
1.0075542266e-05
1.00756768111e-05
1.00761075615e-05
1.00772948909e-05
1.00804442498e-05
1.00882395203e-05
1.01055716978e-05
1.01417859871e-05
1.02203947379e-05
1.04231730821e-05
1.04233033386e-05
1.02600734739e-05
1.02020793125e-05
1.01921925725e-05
1.02074972431e-05
1.0200351337e-05
1.01626593545e-05
1.01291151584e-05
1.00956206752e-05
1.00755396959e-05
1.00674547112e-05
1.00662651399e-05
1.00683031693e-05
1.00708231777e-05
1.00727628272e-05
1.00739936069e-05
1.00747082756e-05
1.00751030973e-05
1.00753120938e-05
1.00754207728e-05
1.00754798058e-05
1.0075513771e-05
1.00755324906e-05
1.00755523051e-05
1.00755656873e-05
1.00755537318e-05
1.0075535746e-05
1.00755261102e-05
1.0075518075e-05
1.00755153319e-05
1.00755443016e-05
1.0075679075e-05
1.00761099843e-05
1.00772972247e-05
1.00804465441e-05
1.00882417474e-05
1.01055733466e-05
1.01417872004e-05
1.022039548e-05
1.04231730929e-05
1.04229115424e-05
1.02594377677e-05
1.02010831539e-05
1.01908036384e-05
1.02036986908e-05
1.01967025523e-05
1.01619547475e-05
1.0129647821e-05
1.00973660656e-05
1.00783022328e-05
1.00707132297e-05
1.00697332355e-05
1.00717912498e-05
1.00742577456e-05
1.0076164177e-05
1.0077373441e-05
1.00780739216e-05
1.00784628547e-05
1.00786693205e-05
1.00787772955e-05
1.0078836111e-05
1.00788700047e-05
1.00788890348e-05
1.00789092434e-05
1.0078922939e-05
1.00789115578e-05
1.00788940737e-05
1.0078884693e-05
1.00788768184e-05
1.00788740196e-05
1.00789017493e-05
1.00790320443e-05
1.00794498929e-05
1.00806025866e-05
1.00836718778e-05
1.00913046516e-05
1.01083437118e-05
1.01440742395e-05
1.02219006001e-05
1.04233230208e-05
1.04222132628e-05
1.02587795107e-05
1.01997883075e-05
1.01886352467e-05
1.01928290276e-05
1.01861929731e-05
1.01611393862e-05
1.01312452118e-05
1.01014422575e-05
1.00843235384e-05
1.00775984593e-05
1.00769690303e-05
1.00790541667e-05
1.00814502424e-05
1.00832819407e-05
1.00844459875e-05
1.00851224844e-05
1.00854982603e-05
1.00856996816e-05
1.00858056848e-05
1.00858649481e-05
1.00858978437e-05
1.00859170675e-05
1.00859377015e-05
1.00859518244e-05
1.0085941417e-05
1.00859248444e-05
1.00859159593e-05
1.00859083982e-05
1.0085905314e-05
1.00859304966e-05
1.00860519439e-05
1.008644421e-05
1.00875293467e-05
1.00904408943e-05
1.00977514678e-05
1.01142043902e-05
1.01489543351e-05
1.02251611459e-05
1.04236624965e-05
1.04221796109e-05
1.02590428108e-05
1.01995459562e-05
1.01873561451e-05
1.01858954134e-05
1.01794389971e-05
1.01617656363e-05
1.01350848002e-05
1.01091715353e-05
1.00944965231e-05
1.0088838315e-05
1.0088643874e-05
1.00907675404e-05
1.00930698319e-05
1.00947931106e-05
1.00958876747e-05
1.00965280714e-05
1.00968864575e-05
1.00970804339e-05
1.00971837844e-05
1.00972423321e-05
1.0097274557e-05
1.00972938539e-05
1.00973148513e-05
1.00973294879e-05
1.00973202747e-05
1.00973047936e-05
1.00972964456e-05
1.00972891172e-05
1.00972854336e-05
1.00973067832e-05
1.00974157296e-05
1.00977715929e-05
1.00987589752e-05
1.01014393969e-05
1.01082718114e-05
1.01238397969e-05
1.01570783325e-05
1.02307049571e-05
1.04242769797e-05
1.0424826384e-05
1.02615558432e-05
1.0202744837e-05
1.01891362288e-05
1.0186945162e-05
1.01811293899e-05
1.01659168535e-05
1.01432474433e-05
1.01222557986e-05
1.01102362696e-05
1.01056856267e-05
1.01059546313e-05
1.0108103761e-05
1.01102745761e-05
1.01118550901e-05
1.01128592517e-05
1.01134558361e-05
1.01137916946e-05
1.01139755208e-05
1.01140772206e-05
1.0114133781e-05
1.01141652119e-05
1.01141843135e-05
1.01142054996e-05
1.01142204857e-05
1.01142123683e-05
1.01141977017e-05
1.01141896234e-05
1.0114182373e-05
1.01141775997e-05
1.01141945947e-05
1.01142881014e-05
1.01145987074e-05
1.01154625115e-05
1.01178447315e-05
1.01240461614e-05
1.01384174344e-05
1.01695502768e-05
1.02394184307e-05
1.04253137042e-05
1.04283839892e-05
1.02689745489e-05
1.02125401797e-05
1.01980139856e-05
1.01950352357e-05
1.01899417717e-05
1.01775000094e-05
1.01595798501e-05
1.01434339959e-05
1.01336908863e-05
1.01302662338e-05
1.01309393558e-05
1.01330471291e-05
1.01350281982e-05
1.01364295421e-05
1.0137336807e-05
1.01378788724e-05
1.01381886101e-05
1.01383621213e-05
1.01384597428e-05
1.01385148801e-05
1.01385452333e-05
1.01385637353e-05
1.01385846526e-05
1.0138599386e-05
1.01385917287e-05
1.01385777039e-05
1.01385698146e-05
1.0138562685e-05
1.01385571875e-05
1.01385696344e-05
1.01386462081e-05
1.0138905246e-05
1.01396245119e-05
1.01416492762e-05
1.01470659291e-05
1.0159900523e-05
1.01882183517e-05
1.02527743729e-05
1.04270175201e-05
1.04309869991e-05
1.02847965068e-05
1.02338660865e-05
1.02203490785e-05
1.02175038993e-05
1.02133523121e-05
1.02034049284e-05
1.01894423727e-05
1.01768465485e-05
1.01690114218e-05
1.01665527768e-05
1.01673684122e-05
1.01692472433e-05
1.01709501244e-05
1.01721600538e-05
1.01729561855e-05
1.01734361053e-05
1.01737161905e-05
1.01738771626e-05
1.01739700172e-05
1.01740233739e-05
1.01740526062e-05
1.01740706251e-05
1.01740914387e-05
1.01741063095e-05
1.01740996176e-05
1.01740861917e-05
1.01740786286e-05
1.01740717403e-05
1.01740658324e-05
1.01740738145e-05
1.01741328408e-05
1.01743364678e-05
1.01748959534e-05
1.01765090217e-05
1.01809785639e-05
1.01918760454e-05
1.02164545072e-05
1.02734710294e-05
1.04298636328e-05
1.043528656e-05
1.03162904561e-05
1.02750074487e-05
1.02640688447e-05
1.02624812711e-05
1.02597519001e-05
1.02520618674e-05
1.02412585116e-05
1.02313996601e-05
1.02250985255e-05
1.02228893753e-05
1.02232948781e-05
1.02246567197e-05
1.02259970349e-05
1.02269969529e-05
1.02276524166e-05
1.02280556594e-05
1.02282966764e-05
1.02284395626e-05
1.02285242663e-05
1.0228573986e-05
1.02286011292e-05
1.02286186919e-05
1.02286395874e-05
1.02286554343e-05
1.02286503611e-05
1.02286379879e-05
1.02286304601e-05
1.02286238593e-05
1.02286176278e-05
1.02286214289e-05
1.02286630686e-05
1.02288096982e-05
1.02292007025e-05
1.02303425307e-05
1.02336707685e-05
1.02420870559e-05
1.02615514225e-05
1.03074583909e-05
1.04349198493e-05
1.04519547748e-05
1.03810641688e-05
1.0357039846e-05
1.0351480329e-05
1.03521237398e-05
1.03504284977e-05
1.03441778939e-05
1.03360939231e-05
1.03287141015e-05
1.03232350046e-05
1.032061617e-05
1.03203227583e-05
1.03210841998e-05
1.03219604017e-05
1.03226465727e-05
1.03231091041e-05
1.03234013977e-05
1.03235803791e-05
1.03236882581e-05
1.03237539477e-05
1.03237932383e-05
1.03238153514e-05
1.03238303883e-05
1.03238508664e-05
1.03238681287e-05
1.03238650865e-05
1.03238549709e-05
1.0323847883e-05
1.03238414838e-05
1.03238359432e-05
1.03238367908e-05
1.03238617874e-05
1.03239507686e-05
1.0324158867e-05
1.03247515632e-05
1.03266495656e-05
1.03316886788e-05
1.03436496512e-05
1.03720664102e-05
1.04505747489e-05
1.05067313428e-05
1.04935290605e-05
1.04859611199e-05
1.04839972789e-05
1.0487547435e-05
1.04872733886e-05
1.04833404645e-05
1.04808308855e-05
1.04815538242e-05
1.04810656619e-05
1.04798460681e-05
1.04797166639e-05
1.04800743975e-05
1.04804188142e-05
1.04807037621e-05
1.04809069341e-05
1.04810402232e-05
1.0481123733e-05
1.04811741757e-05
1.04812056222e-05
1.04812254992e-05
1.04812371149e-05
1.0481246517e-05
1.04812620095e-05
1.04812788452e-05
1.04812810821e-05
1.04812790218e-05
1.04812739406e-05
1.04812730076e-05
1.0481271253e-05
1.04812719283e-05
1.04812834812e-05
1.04813249008e-05
1.04813538562e-05
1.04813728993e-05
1.0481668459e-05
1.04826017475e-05
1.04848468503e-05
1.04902240991e-05
1.05056414939e-05
1.05031645768e-05
1.04834183121e-05
1.04726069073e-05
1.0468486539e-05
1.04700477742e-05
1.04698055631e-05
1.04676176879e-05
1.04665588298e-05
1.04668415606e-05
1.04654222596e-05
1.04639993727e-05
1.04636608495e-05
1.04638942649e-05
1.04642797653e-05
1.04645994343e-05
1.04648279711e-05
1.04649774446e-05
1.04650704674e-05
1.04651247178e-05
1.04651578322e-05
1.04651783779e-05
1.04651884262e-05
1.04651915253e-05
1.04652005034e-05
1.04652232364e-05
1.04652241634e-05
1.04652248204e-05
1.04652224726e-05
1.04652199724e-05
1.04652172124e-05