/*--------------------------------*- C++ -*----------------------------------*\
| =========                 |                                                 |
| \\      /  F ield         | OpenFOAM: The Open Source CFD Toolbox           |
|  \\    /   O peration     | Version:  3.0.1                                 |
|   \\  /    A nd           | Web:      www.OpenFOAM.org                      |
|    \\/     M anipulation  |                                                 |
\*---------------------------------------------------------------------------*/
FoamFile
{
    version     2.0;
    format      ascii;
    class       volScalarField;
    location    "3.9";
    object      alpha.water;
}
// * * * * * * * * * * * * * * * * * * * * * * * * * * * * * * * * * * * * * //

dimensions      [0 0 0 0 0 0 0];

internalField   nonuniform List<scalar> 
7968
(
1.00000222306
1.00000027667
1.00000015868
1.00000000768
1.00000002676
1.00000002585
1.00000001806
1.00000002024
1.00000003577
1.00000006051
1.00000009414
1.00000012786
1.000000153
1.00000019089
1.00000029821
1.0000003318
1.00000035291
1.00000041977
1.00000085705
1.00000274284
1.0000003021
1.00000073938
1.00000000016
1.00000000075
1.00000120751
1.00000017179
1.00000000032
1.00000000019
1.00000000093
1.00000000043
1.00000000107
1.00000000182
1.00000009766
1.00000014184
1.0000003728
1.00000191832
1.00000039009
1.00000059498
1.00000137702
1.00000064317
1.00000173448
1.0000001226
1.00000000147
1.00000000055
0.999999999842
1.00000000012
1.00000000011
1.00000000016
1.00000000077
1.00000000015
1.00000000105
0.99999999986
1.00000000045
1.00000000083
1.00000004651
1.00000064941
1.00000074588
1.00000046494
1.00000077641
1.00000219667
1.00000014052
1.00000029758
1.00000000074
1.00000000262
1.0000000008
1.00000000253
1.00000000022
1.00000000103
0.999999999498
0.999999999839
0.9999999965
0.999999998202
1.00000000077
1.00000000033
1.00000000001
1.00000018099
1.00000040826
1.00000074476
1.00000144644
1.00000076771
1.00000000285
1.0000000008
1.00000000168
1.00000000104
1.00000000214
1.00000000104
1.00000000457
1.0000000008
1.00000000191
0.999999998162
0.999999997631
0.999999995707
0.999999998584
1.00000000156
1
1.00000000003
1.00000000025
1.00000045641
1.0000007862
1.0000005147
1.00000000086
1.00000000213
1.00000000083
1.00000000138
1.00000000065
1.00000000146
1.00000000122
1.00000000432
1.00000000075
1.00000000182
0.999999996953
0.999999995061
0.999999996269
0.999999998744
1.00000000105
1.00000000007
1.00000000003
1.00000015875
1.00000133768
1.00000026847
1.00000000235
1.00000000132
1.00000000159
1.00000000037
1.00000000047
1.00000000025
1.00000000055
1.00000000064
1.00000000224
0.999999999819
0.999999999149
0.999999993797
0.999999993414
0.999999996452
0.99999999962
1.00000000056
1.00000000008
1.0000000113
1.00000028723
1.00000017477
1.00000000178
1.00000000228
1.00000000062
1.00000000048
1.00000000005
1.00000000018
1.00000000007
0.999999999244
0.999999998697
1.00000000024
0.999999996635
0.999999995374
0.9999999948
0.999999994215
0.999999996996
0.999999999871
1.00000000004
1.00000000261
1.00000011875
1.0000000934
1.00000000227
1.00000000083
1.00000000073
1.00000000005
1.00000000008
1.00000000001
0.999999999618
0.999999998893
0.99999999727
0.999999994581
0.999999993936
0.999999993307
0.999999994962
0.999999996348
0.999999995316
0.999999997615
0.999999998223
1.00000000099
1.00000008779
1.00000003762
1.00000000071
1.00000000086
1.00000000007
1.0000000001
1.00000000001
0.999999999981
0.999999999016
0.999999997792
0.999999993481
0.999999990202
0.999999990215
0.999999991699
0.999999993572
0.999999995753
0.999999993252
0.999999996557
0.999999997555
1.00000000065
1.00000007997
1.00000001698
1.00000000056
1.00000000016
1.00000000012
1.00000000007
1.00000000003
0.99999999979
0.999999998658
0.999999997283
0.999999992564
0.999999989658
0.999999989987
0.999999992693
0.999999993654
0.999999997444
0.999999991791
0.999999997151
0.999999998672
1.00000000002
1.00000005483
1.00000002084
1.00000000035
1.00000000027
1.00000000013
1.00000000017
1.00000000009
0.999999999517
0.999999998527
0.999999997041
0.999999998233
0.999999991552
0.999999991606
0.999999994178
0.999999997929
0.999999995278
0.999999991184
0.999999998232
1.00000000026
1.00000000007
1.00000004579
1.00000004168
1.00000000067
1.00000000045
1.00000000024
1.00000000015
1.00000000014
0.999999999812
0.999999998606
0.999999997437
0.99999999688
0.999999999405
0.999999995606
0.999999997899
0.999999998635
0.999999990726
0.999999991088
1.00000000004
1
1.00000000002
1.00000006258
1.0000000675
1.00000000075
1.00000000069
1.0000000005
1.00000000022
1.00000000013
1.00000000009
0.999999999329
0.999999997634
0.99999999819
0.99999999887
1.00000000058
0.99999999928
0.999999996732
0.999999990057
0.999999996555
1.00000000003
1.00000000001
1.00000000001
1.00000013491
1.00000009722
1.00000000073
1.00000000062
1.00000000062
1.00000000045
1.00000000017
1.00000000018
1.00000000007
0.999999999628
0.999999999843
1.00000000053
1.00000000019
1.00000000037
0.999999995106
0.999999996486
0.999999999803
1.00000000042
1
1.00000001195
1.00000081293
1.00000017783
1.0000000009
1.0000000006
1.00000000047
1.00000000049
1.0000000005
1.00000000031
1.00000000065
1.00000000105
1.000000001
1.00000000073
1.00000000101
0.999999999669
0.999999998694
0.999999998941
1.00000000009
1.00000000048
1
1.00000000107
1.00000043567
1.00000039713
1.00000002189
1.00000022374
1.00000000042
1.00000000048
1.00000000057
1.00000000043
1.00000000063
1.00000000065
1.00000000035
1.00000000047
1.00000000062
1.0000000003
0.99999999965
0.999999999368
1.00000000016
1.00000000052
1.00000000001
1.00000026302
1.00000101824
1.0000004519
1.00000109309
1.00000000057
1.00000000033
1.00000000039
1.00000000046
0.999999999842
1.00000000018
0.999999999805
1.00000000015
1.0000000001
1.00000000009
1.00000000001
1.00000000011
1.00000000006
1.00000000023
1.00000000007
1.00000000196
1.00000018997
1.00000042574
1.00000153112
1.0000002693
1.00000051321
1.00000000006
1.00000000025
1.00000088979
1.00000000031
1.00000000026
1.00000000082
1.00000000028
1.00000000014
1.00000000016
1.00000000002
1.00000000009
1.00000000014
1.00000000006
1.00000062998
1.00000012579
1.00000026215
1.00000102644
1.00000050126
1.00000210527
1.00000023257
1.00000000012
1.00000000012
1.00000000015
1.00000000021
1.00000000044
0.999999999963
1.00000000016
1.00000000005
1
1.00000000043
1.00000000001
1.00000000452
1.00000000007
1.0000000001
1.00000000459
1.00000013002
1.00000038555
1.0000022477
1.00000040304
1.0000004352
1.00000009199
1.00000000916
1.00000000282
1.00000000219
1.00000000234
1.00000000775
1.0000000164
1.00000001777
1.00000002494
1.00000003405
1.00000006453
1.00000009587
1.0000001591
1.00000023573
1.00000026449
1.00000049468
1.00000067221
1.00000082042
1.00000041678
1.00000003468
1.00000000062
1.00000000094
1.00000000099
1.00000000085
1.00000000152
1.00000000088
1.00000000157
1.00000000563
1.00000001762
1.00000003053
1.00000005132
1.00000010338
1.00000016672
1.00000020645
1.00000026791
1.00000046795
1.00000066038
1.00000062442
1.00000000196
1.00000000072
1.00000000289
1.00000000211
1.0000000007
1.0000000007
1.00000000067
1.00000000092
1.0000000011
1.00000000148
1.00000000084
1.00000000189
1.0000000587
1.00000009956
1.00000012234
1.00000013373
1.00000024576
1.00000036552
1.00000051184
1.00000036126
1.00000000089
1.00000000087
1.00000000203
1.00000000145
1.00000000142
1.00000000048
1.00000000134
1.00000000083
1.00000000235
1.0000000017
1.00000000357
1.00000000035
1.00000000212
1.0000000584
1.00000008827
1.000000122
1.00000013791
1.00000025014
1.00000027858
1.00000000014
1.00000000058
1.00000000188
1.00000000079
1.00000000144
1.00000000046
1.00000000136
1.00000000047
1.00000000168
1.00000000114
1.0000000023
0.99999999961
0.999999998838
1.00000000008
1.00000000014
1.0000000067
1.0000000497
1.00000004957
1.0000000273
1.00000002688
1.0000000001
1.00000000182
1.00000000334
1.00000000101
1.00000000065
1.00000000182
1.00000000083
1.00000000242
1.00000000075
1.00000000152
0.999999999712
1.00000000032
0.999999998375
1.00000000236
1.00000000139
1.00000000039
1.00000000599
1.00000002756
1.00000001418
1.00000000737
1.00000000037
1.00000000319
1.00000000242
1.00000000273
1.00000000061
1.0000000005
1.00000000168
1.00000000122
1.00000000199
1.00000000071
1.00000000348
1.00000000008
0.999999999621
0.999999997556
1.00000000122
1.00000000387
1.00000000076
1.00000000277
1.00000000333
1.00000000046
1.00000000014
1.00000000201
1.00000000347
1.00000000205
1.00000000203
1.00000000033
1.0000000004
1.00000000129
1.00000000071
1.00000000195
1.0000000007
1.00000000277
0.999999999831
0.99999999391
0.999999995486
1.00000000142
1.00000000375
1.00000000116
1.00000000231
1.00000000048
1.00000000028
1.00000000301
1.00000000284
1.00000000266
1.00000000123
1.00000000005
1.00000000034
1.00000000022
1.0000000011
1.0000000005
1.00000000142
1.00000000049
1.00000000211
0.999999999989
0.999999994098
0.999999999531
1.0000000015
1.00000000123
1.00000000233
1.00000000028
1.00000000025
1.00000000277
1.00000000253
1.00000000194
1.00000000008
1.00000000004
1.00000000002
1.00000000019
1.00000000012
1.00000000063
0.999999999911
1.00000000114
1.00000000063
1.00000000057
0.999999994578
0.999999998
1.00000000146
1.00000000025
1.00000000254
1.00000000029
1.00000000006
1.00000000453
1.00000000192
1.00000000158
1.0000000003
1.00000000023
1.00000000007
1.00000000005
1.00000000012
1.00000000001
1.00000000037
1.00000000085
1.00000000091
1.00000000053
0.99999999236
0.999999998792
1.00000000052
1.00000000388
1.00000000033
1.00000000018
1.00000000008
1.00000000295
1.00000000192
1.00000000006
1.00000000005
1.00000000055
1.00000000044
0.999999999858
1
1.00000000002
1.00000000012
1.00000000053
1.00000000111
0.999999999533
0.999999991227
0.999999999895
1.00000000127
1.00000000229
1.00000000088
1.00000000012
1.00000000002
1.00000000135
1.00000000109
1.00000000013
1.00000000015
1.00000000015
1.00000000068
0.999999998365
0.999999999951
1.00000000013
1.00000000034
1.00000000066
1.00000000073
0.999999993648
0.999999991148
1.0000000007
1.00000000314
1.00000000413
1.00000000048
1.00000000039
1.00000000009
1.00000000103
1.00000000073
1.00000000049
1.00000000034
1.00000000023
1.00000000031
1.00000000073
0.999999998858
0.999999999598
1.00000000107
1.00000000068
1.00000000076
0.999999995928
0.999999996896
1.00000000142
1.00000000785
1.00000000026
1.00000000014
1.00000000023
1.00000000012
1.00000000044
1.00000000059
1.00000000115
1.00000000042
1.00000000044
1.00000000028
1.00000000068
0.999999999759
0.999999996811
0.999999999312
1.00000000018
0.999999999565
0.999999999678
1.00000000035
1.00000000781
1.00000000154
1.0000000011
1.00000000373
1.00000000453
1.00000000002
1.00000000044
1.00000000067
1.00000000094
1.00000000063
1.00000000025
1.0000000004
1.00000000029
1.0000000014
1.00000000041
1.00000000044
1.00000000032
1.00000000082
1.00000000003
1.00000000145
1.00000000226
1.00000000111
1.00000000688
1.00000000383
1.00000001451
1
1.00000000111
1.00000000079
1.0000000013
1.00000000072
1.0000000004
1.00000000022
1.00000000041
1.00000000018
1.00000000243
1.00000000038
1.00000000273
1.00000000105
1.00000000245
1.00000000094
1.00000000109
1.00000000001
1.00000000621
1.00000001976
1.00000002921
1.00000004447
1.00000000036
1.00000000039
1.00000000087
1.00000000166
1.00000000049
1.00000000031
1.00000000016
1.00000000052
1.00000000011
1.00000000256
1.00000000092
1.00000000269
1.00000000163
1.00000000349
1.00000000196
1.00000000106
1.00000001678
1.00000002612
1.00000010334
1.0000002421
1.0000001683
1.00000000041
1.00000000028
1.00000000046
1.00000000089
1.00000000012
1.00000000035
1.00000000013
1.0000000008
1.00000000018
1.00000000158
1.00000000221
1.0000000025
1.00000000119
1.00000000169
1.00000000539
1.00000002163
1.00000003579
1.000000296
1.00000059409
1.00000032084
1.00000022445
1.00000000004
1.00000000032
1.00000000021
1.0000000006
1.00000000085
1.00000000021
1.00000000193
1.00000000068
1.00000000128
1.00000000096
1.00000000633
1.0000000003
1.00000000155
1.00000000181
1.00000001035
1.00000003143
1.00000045631
1.00000049755
1.00000150316
1.00000007195
1.00000002142
1.00000001273
1.00000000339
1.00000000005
1.0000000001
1.00000000043
1.00000000114
1.00000000119
1.00000000064
1.0000000074
1.0000000157
1.00000001616
1.00000001378
1.00000003238
1.00000003574
1.00000008337
1.00000050063
1.00000196108
1.00000002387
1.00000000498
1.00000000021
1.00000000215
1.00000000304
1.00000000129
1.00000000166
1.00000000221
1.00000000165
1.00000000108
1.00000000159
1.00000000063
1.00000000013
1.00000000143
1.00000003927
1.00000002045
1.00000001885
1.00000003384
1.00000020354
1.00000001429
1.00000000006
1.00000000043
1.0000000035
1.00000000648
1.00000000178
0.999999999901
1.00000000077
1.0000000013
1.00000000141
1.00000000203
1.00000000343
1.00000000114
1.00000000179
1.00000000735
1.00000000067
1.00000000011
1.00000001806
1.00000001109
1.00000000457
1.00000000015
1.00000000431
1.00000000122
1.00000000461
1.00000000161
0.999999999494
0.999999999635
1.00000000048
1.00000000105
1.00000000159
1.00000000363
1.00000000189
1.00000000533
1.00000000868
1.00000001544
1.00000000872
1.00000000091
1.00000000111
1.0000000008
1.00000000072
0.99999999979
1.00000000372
1.00000000144
1.00000000125
1.00000000161
1.00000000111
1.00000000031
1.00000000102
1.00000000071
1.00000000163
1.00000000103
1.0000000035
1.00000000221
1.00000000247
1.0000000023
1.00000000278
1.00000000453
1.00000000129
1.00000000186
1.00000000052
0.999999998518
1.00000000527
1.00000000058
1.00000000143
1.00000000164
1.00000000063
1.00000000161
1.00000000053
1.00000000085
1.00000000066
1.00000000353
1.00000000184
1.00000000268
1.0000000016
1.00000000342
1.00000000687
1.00000000601
1.0000000059
1.00000000107
1.00000000082
1.00000000003
1.00000000425
1.00000000117
1.00000000196
1.0000000009
1.00000000155
1.00000000051
1.00000000054
1.00000000063
1.00000000362
1.00000000116
1.00000000582
1.00000000207
1.00000000378
1.00000000374
1.00000000271
1.00000000503
1.00000000301
1.00000000253
1.00000000024
1.00000000011
1.00000000504
1.00000000135
1.00000000091
1.00000000112
1.00000000044
1.00000000057
1.00000000041
1.00000000206
1.00000000108
1.00000000639
1.00000000114
1.00000000341
1.00000000105
1.00000000155
1.00000001109
1.00000000377
1.00000000281
1.00000000103
1.00000000043
1.00000000001
1.0000000047
1.0000000003
1.00000000062
1.00000000034
1.00000000095
1.00000000014
1.00000000092
1.00000000078
1.00000000377
1.00000000083
1.000000004
1.00000000081
1.00000000091
1.00000000197
1.00000000169
1.00000000642
1.0000000016
1.00000000077
1.00000000022
1.00000000003
1.00000000432
1.00000000013
1.00000000015
1.00000000049
1.00000000016
1.00000000016
1.00000000018
1.00000000118
1.00000000068
1.00000000166
1.00000000086
1.00000000243
1.00000000069
1.00000000078
1.00000000166
1.00000000244
1.00000000123
1.00000000059
1.00000000029
1.00000000024
1.00000000145
1.0000000001
1.00000000011
1.00000000021
1.0000000003
1.00000000006
1.0000000002
1.00000000071
1.00000000098
1.00000000118
1.00000000104
1.00000000155
1.00000000113
1.00000000132
1.00000000175
1.00000000297
1.00000000069
1.00000000049
1.00000000024
1.0000000003
1.00000000266
1.00000000027
1.00000000014
1.0000000002
1.00000000012
1.0000000001
1.00000000035
1.00000000027
1.00000000196
1.00000000088
1.00000000118
1.00000000182
1.00000000045
1.00000000193
1.00000000209
1.000000002
1.00000000097
1.00000000051
1.0000000001
1.0000000004
1.00000000178
1.0000000011
1.00000000055
1.00000000015
1.00000000009
1.00000000004
1.0000000002
1.00000000058
1.00000000041
1.0000000018
1.00000000088
1.00000000201
1.00000000192
1.00000000048
1.00000000088
1.00000000147
1.00000000211
1.00000000057
1.00000000016
1.00000000038
1.00000000001
1.00000000088
1.00000000182
1.00000000038
1.00000000024
1.00000000005
1.00000000008
1.0000000004
1.00000000158
1.00000000063
1.00000000178
1.00000000109
1.00000000139
1.00000000098
1.00000000109
1.00000000299
1.00000000189
1.00000000046
1.0000000002
0.999999999876
1.00000000006
1.00000000064
1.00000000133
1.00000000121
1.00000000012
1.00000000025
1.00000000017
1.00000000051
1.00000000056
1.00000000186
1.00000000101
1.00000000215
1.00000000152
1.00000000189
1.00000000124
1.00000000463
1
1.00000000017
1.00000000024
0.999999999292
1.00000000031
1.00000000123
1.00000000116
1.00000000051
1.00000000028
1.00000000009
1.0000000005
1.00000000022
1.00000000159
1.00000000069
1.00000000187
1.00000000347
1.00000000324
1.00000000308
1.00000000446
0.999999996949
1.0000000002
1.00000000063
1.00000000029
1
1.00000000053
1.00000000096
1.00000000135
0.999999999853
0.99999999988
1.00000000008
1.00000000006
1.0000000009
1.00000000025
1.00000000244
1.00000000137
1.00000000347
1.00000000568
1.00000000324
1.00000000268
1.00000000083
1.00000000084
1.00000000059
1.00000000044
1
1.00000000015
1.00000000117
1.00000000146
1.00000000131
1.00000000008
0.999999999424
1.00000000027
1.0000000001
1.00000000075
1.00000000044
1.00000000142
1.00000000155
1.00000000172
1.00000000211
1.00000000203
1.00000000112
1.00000000069
1.00000000067
1.00000000017
1.00000000001
1.00000001296
1.00000000539
1.00000000107
1.0000000011
1.00000000078
1.000000001
1.00000000021
1.00000000022
1.0000000002
1.00000000028
1.00000000047
1.00000000044
1.00000000033
1.0000000004
1.00000000067
1.00000000077
1.00000000042
1.00000000029
1.00000002006
1.00000002152
1.00000095512
1.00000001893
1.0000000003
1.00000000011
1.00000000038
1.00000000013
1.00000000054
1.00000000011
1.00000000016
1.00000000007
1.00000000009
1.00000000184
1.00000000237
1.00000000272
1.00000000001
1.00000000033
1.00000000018
1
1.00000002103
1.00000141802
1.00000187328
1
1.00000000001
1.00000000002
1.00000000004
1.00000000027
1.00000000018
1.00000000019
1.00000000058
1.00000000089
0.999999999902
0.999999999942
1.00000000012
1.00000000029
1.00000000011
1.00000000034
1.00000000018
1
1.00000000001
1.00000204181
1
1.00000000001
1.00000000015
1.00000000045
1.0000000021
1.00000000138
1.00000000044
1.00000000065
1.00000000069
0.99999999951
0.999999998836
1.00000000026
1.00000000015
1.00000000031
1.00000000056
1.00000000103
1.00000000154
1.00000000041
1.00000000001
1
1.00000000001
1.00000000018
1.00000000069
1.00000000296
1.00000000245
1.00000000049
1.00000000073
1.00000000098
1.00000000049
1.00000000087
1.00000000036
1.00000000119
1.00000000043
1.00000000073
1.00000000213
1.00000000122
1.00000000167
1.0000000026
1.00000000028
0.999999999692
1.0000000007
1.00000000031
1.00000000242
1.00000000273
1.0000000005
1.00000000036
0.999993434766
0.999982271288
0.999983870259
0.999987093637
0.999986505039
0.999984146688
0.999981697848
0.999993057742
1.00000000215
1.00000000351
1.00000000155
1.00000000148
1.00000000131
0.999999995022
1.00000000214
1.00000000074
1.00000000208
1.00000000042
0.999997609123
0.999975446216
0.999961980973
0.999922191855
0.999925553241
0.999936952836
0.999936877127
0.999925782145
0.999926820231
0.999966489715
0.999975797098
0.999997932177
1.0000000031
1.00000000092
1.00000000038
0.9999999983
1.00000000009
1.00000000095
1.00000000055
1.00000000082
0.999976445503
0.999949380122
0.999893030741
1.00000000017
1.00000000186
1.00000000099
1.00000000222
1.00000000136
0.999999945938
0.999897395615
0.999959098549
0.999974969527
1.00000000109
1.000000001
1.00000000027
1
1.00000000008
1.00000000055
1.00000000126
0.999991663262
0.999960551451
0.999911279479
1.00000000009
1.00000000144
1.0000000006
1.00000000454
1.00000000166
1.00000000325
1.00000000189
1.00000000183
0.999884874086
0.999965351374
0.99999220184
1.00000000026
1.00000000031
1.00000000015
0.999999999956
1.00000000062
1.00000000087
0.999979901944
0.999925936746
1.00000000004
1.00000000061
1.00000005065
1.00000000495
1.00000000081
1.00000000374
1.00000000107
1.00000000013
1.00000000263
0.999959152916
0.999926308669
0.999981666211
1.00000000054
1.00000000002
1.00000000024
1.00000000016
1.00000000007
1.00000000016
0.999982770844
0.999928960924
1.00000000016
1.00000001654
1.00000004356
1.00000000104
1.00000000293
1.00000000108
1.00000000136
1.0000000007
1.00000000151
1.00000000105
0.9999261477
0.99998348134
1.00000000033
1.00000000012
1.00000000037
1.00000000014
1
1.00000000021
0.999986036109
0.999941111931
1.00000000003
1.00000002682
1.00000002787
1.00000000141
1.00000000053
1.00000000401
1.00000000078
1.00000000041
1.00000000097
1.00000000192
0.99993693556
0.999987028735
1.00000000047
1.00000000015
1.00000000029
1.00000000001
1.00000000002
1.00000000007
0.999985925704
0.999941226944
1.00000000002
1.00000002889
1.00000002566
1.00000000113
1.00000000054
1.00000000186
1.00000000261
1.00000000086
1.00000000179
1.00000000249
0.99993749288
0.99998700395
1.00000000053
1.00000000027
1.00000000013
1.00000000003
1.00000000009
1.00000000003
0.999983150913
0.999929529717
1.00000000001
1.00000000559
1.00000002964
1.00000000098
1.00000000057
1.00000000177
1.00000000139
1.00000000104
1.00000000191
1.00000000159
0.999927217378
0.999983703967
1.00000000048
1.00000000024
1.00000000009
1.00000000013
1.00000000019
1.00000000034
0.999980327977
0.999926283564
1.00000000002
1.00000000014
1.00000003661
1.00000000202
1.00000000035
1.0000000015
1.00000000187
1.00000000063
1.00000000185
0.999958156894
0.999927187349
0.999981999039
1.00000000021
1.00000000026
1.00000000007
1.00000000016
1.00000000037
1.0000000004
0.999991736385
0.999961508171
0.999915352842
1.00000000005
1.00000000038
1.00000000033
1.00000000094
1.0000000009
1.00000000196
1.00000000202
1.0000000005
0.999884779514
0.999966073862
0.999992072597
1.00000000005
1.00000000003
0.999999999998
1.00000000012
1.00000000024
1.00000000024
1.00000000019
0.999977848744
0.999950662338
0.999899343161
1.00000000014
1.00000000107
1.00000000048
1.00000000156
1.00000000106
1.00000000111
0.999900290824
0.99996008472
0.999975900626
1.0000000001
1.00000000006
1.00000000001
0.999999998588
1.00000000002
1.00000000025
1.00000000041
1.00000000018
0.999997643412
0.999977335416
0.999964124919
0.999925239938
0.999928313925
0.999939647379
0.999939585654
0.99992878414
0.99992872493
0.999967694655
0.999977147991
0.999997739278
1.00000000003
0.999999999978
0.999999999907
0.999999997528
1.00000000002
1.00000000072
1.00000000081
1.00000000037
1.00000000013
1.00000000002
0.99999356669
0.9999830543
0.999984560978
0.999987815106
0.999987377306
0.999984841966
0.999982453966
0.999992839913
1.00000000037
1.00000000004
1.00000000001
1.00000000007
0.999999999639
0.999999995652
1
1.00000000046
1.0000000024
1.00000000084
1.00000000028
0.999999999347
1.00000000003
1.00000000019
1.00000000009
1.00000000036
1.00000000033
1.00000000063
1.00000000117
1.00000000047
1.0000000003
1.00000000001
1.00000000007
0.99999999997
0.999999999638
0.999999998956
1.00000000565
1
1.00000000064
1.00000000121
1.00000000035
1.00000000009
1.00000000008
0.999999999449
0.99999999973
1.00000000003
1.00000000002
1.00000000008
1.00000000003
1.00000000007
1.00000000002
1
1
0.999999999118
1
1
1.00000091209
1.00000000002
1
1.00000000009
1.00000000012
1.00000000007
1.00000000001
0.999999999967
1.00000000002
0.999999999106
0.999999998854
0.999999999951
0.999999998989
1
1.00000000005
0.999999999348
0.999999997679
0.999999999745
1
1.00000105344
1
1
1
1.00000000001
1.00000000001
1.00000000002
1.00000000005
1.00000000002
1.00000000001
1.00000000003
1.00000000002
1.00000000027
1.00000000016
1.00000000024
1.00000000016
1.00000000007
1
1
0.999999999992
1
1
1.00000000001
1.00000000004
1.00000000016
1.00000000008
1.0000000002
1.00000000024
1.00000000046
0.999999997869
1.00000000001
1.00000000001
1.00000000033
1.00000000036
1.00000000028
1.00000000058
1.00000000098
1.00000000047
1.00000000001
1.00000000001
0.999999999997
1
1.00000000004
1.00000000015
1.00000000021
0.999999277106
0.999999819963
0.999991444466
0.999968492604
0.99995862393
0.999959519724
0.999959401728
0.999958045975
0.999968046419
0.999991739261
0.999999974257
0.99999966075
1.00000000203
1.00000000032
1.00000000008
0.999999996652
1.00000000003
1.00000000007
1.00000000029
0.999997256466
0.99997076616
0.999879648239
0.999718242004
0.999658007514
0.999665246581
0.999683264412
0.9996808474
0.999661875988
0.999659848045
0.999730484998
0.99988761795
0.999974311684
0.999998081564
1.00000000155
1.00000000012
0.999999989414
1.00000000009
1.00000000014
0.999998793702
0.999968500996
0.999783864847
0.999510063169
0.999373953186
0.999563418137
0.999672931582
0.999712958903
0.999717413141
0.999684958518
0.999542463592
0.999346743571
0.999547489554
0.999807225665
0.999974385447
0.99999949523
1.00000000037
1
1.00000000014
1.00000000045
0.999999552526
0.999867985913
0.999495178643
0.999339662313
0.999627055851
0.99931626456
0.999427739457
0.999538482416
0.999524655998
0.999365840048
0.999345057832
0.999602497879
0.999242634426
0.999560464257
0.999890938445
0.999999994604
1.00000000007
1
1.00000000021
1.00000000043
0.999987199334
0.999697011023
0.999390076423
0.999555834574
0.998405820197
0.997893720947
0.9980227005
0.998182572781
0.998137405137
0.997821454689
0.997766189797
0.99896003341
0.999650347724
0.999334554378
0.999746004086
0.999992648047
1.00000000012
1.00000000001
1.00000000007
1.00000000042
0.999960448546
0.999642373167
0.99955657437
0.99904765258
0.997589934614
0.997562787479
0.997735161913
0.997860552663
0.997845561908
0.997590201094
0.997242684415
0.998080414835
0.999567619819
0.999529467046
0.999673120877
0.999971431897
1.00000000021
1.0000000001
1.00000000005
1.00000000014
0.999950358667
0.999656462525
0.999687417079
0.999081847253
0.997835107997
0.997870038944
0.998136400392
0.998279536875
0.998238709932
0.998011538867
0.997542562893
0.998221908699
0.999621943915
0.999655195698
0.999673854601
0.999962446729
1.00000000011
1.00000000006
1.00000000001
1.00000000004
0.999952245884
0.999677584306
0.999740100109
0.999289793522
0.99807226474
0.998053645741
0.998284633893
0.998410433649
0.998408207978
0.998145282816
0.997759046605
0.998459883457
0.999726022665
0.999688131133
0.999691857522
0.999963655554
1.00000000016
1.00000000001
1
1.00000000002
0.999952649722
0.999677703409
0.999741967401
0.999312239909
0.998076744031
0.998054511568
0.99828047918
0.998406635716
0.998421184702
0.998140192547
0.997764783732
0.998474553849
0.999731396855
0.99968664851
0.9996934911
0.999963634116
1.00000000012
1
1
1.00000000006
0.999951589561
0.999658928475
0.999693854958
0.999122293122
0.997889212105
0.99792190855
0.998199931751
0.998347467755
0.99826985387
0.998045726831
0.997576869532
0.998266221377
0.999636021008
0.999655407739
0.999677823088
0.999962819947
1.00000000016
1.00000000001
1.00000000001
1.00000000021
0.999961804369
0.999647412233
0.999568669688
0.999073496442
0.997651689516
0.997630330771
0.99782851421
0.997959682674
0.997931296645
0.997674968062
0.99732369668
0.99814491235
0.999591327997
0.999537910135
0.999677251045
0.999972300633
1.00000000003
1
1.00000000003
1.00000000004
0.99998806455
0.999701490023
0.999408853042
0.999571186542
0.998377425124
0.997889133732
0.99801950211
0.998189647373
0.998135986737
0.997821822364
0.997752535164
0.998949656775
0.999676593693
0.999348576601
0.999749499125
0.999993531242
1.00000000001
1
1.00000000007
1.00000000009
0.999999697665
0.9998702828
0.999502152128
0.99937398578
0.999635426833
0.999287342838
0.999400685156
0.999518946405
0.999499611622
0.999318601364
0.999312818642
0.999621926426
0.999275899804
0.999564198906
0.999892356312
1.00000000005
1.00000000002
0.999999997548
1.00000000005
1.00000000027
0.999998903135
0.999969659898
0.999785058925
0.999514934325
0.99939677293
0.999577581293
0.999689144917
0.999728044864
0.999730579472
0.999695399922
0.999556579787
0.999369686555
0.99955060527
0.999808372499
0.999975069259
0.999999669476
1
0.999999993607
1
1.00000000016
1.00000000072
0.999997414353
0.999971181746
0.999878564557
0.999720092976
0.999664892959
0.999672297059
0.999691058398
0.999690473852
0.999671789923
0.999667469271
0.999731639731
0.999886930893
0.999974521714
0.999998085123
0.999999996108
0.999999998392
0.999999985319
1
1
1.00000000029
1.00000000037
0.999999186402
0.999999899797
0.999991864481
0.999969112338
0.999958879692
0.999959428177
0.999959612638
0.999958045935
0.999968226965
0.999991554787
0.99999997244
0.999999565411
0.999999998593
0.999999996111
0.999999998496
0.999999996126
1
1
1.00000000001
0.999999999548
1
1
0.999999999971
1
1.00000000002
1.00000000002
1.00000000002
1.00000000004
1.00000000007
1
1.00000000006
1
0.999999998041
0.999999998132
0.999999995102
0.999999996708
1
0.999999999984
0.999999999988
0.999999994517
0.999999999848
0.999999994867
1
1
1
1.00000000001
0.999999999135
1.00000000001
0.999999999754
0.999999998877
1.00000000003
1
0.99999998908
0.999999988385
0.999999995412
1
1
1
1
1
1
0.999999999184
0.999999999997
1.00000000001
1.00000000001
1
1.00000000002
1.00000000006
1.00000000005
1.00000000004
1.00000000006
1
1
0.999999999989
1
0.999999997575
0.999999999998
1
1.00000000001
1.00000000003
1.00000000008
1.00000000002
1.00000000017
0.999970280059
0.999962107396
0.999978484852
0.999982897428
0.999968913872
0.999977925615
1.0000000004
1.00000000029
1.00000000035
1.00000000029
1.00000000001
0.999999999999
1
1
1.00000000001
1.00000000002
1.00000000028
0.999955479591
0.999775055493
0.999622797109
0.999537346585
0.999527983893
0.999544734265
0.999547471128
0.99953349472
0.999547086838
0.999633078177
0.99978525198
0.999964359478
1.00000000063
1.00000000002
1.00000000001
0.999999991488
1
1.00000000009
1.00000000032
0.999888273944
0.999573517429
0.999189095119
0.998928781299
0.998827747817
0.998820464592
0.998834047773
0.99883449695
0.998821008511
0.998824967596
0.998955214561
0.999222454511
0.99959452683
0.999898533077
1.00000000014
1.00000000001
0.999999983677
1.00000000001
1.00000000022
0.99995230693
0.999567379009
0.998955785622
0.998382187145
0.997962209769
0.99734204835
0.997256472496
0.997303354351
0.997274162503
0.997171691016
0.99741393056
0.998035924548
0.998532247916
0.999055328478
0.999599822525
0.99996331192
1.00000000002
1.00000000002
1.00000000005
1.00000000009
0.99977099432
0.999150934404
0.99824387099
0.997091208196
0.995484793622
0.995272977685
0.995306844435
0.995354486142
0.995350601969
0.995281758075