/*--------------------------------*- C++ -*----------------------------------*\
| =========                 |                                                 |
| \\      /  F ield         | OpenFOAM: The Open Source CFD Toolbox           |
|  \\    /   O peration     | Version:  3.0.1                                 |
|   \\  /    A nd           | Web:      www.OpenFOAM.org                      |
|    \\/     M anipulation  |                                                 |
\*---------------------------------------------------------------------------*/
FoamFile
{
    version     2.0;
    format      ascii;
    class       surfaceVectorField;
    location    "3.9";
    object      Uf_0;
}
// * * * * * * * * * * * * * * * * * * * * * * * * * * * * * * * * * * * * * //

dimensions      [0 1 -1 0 0 0 0];

internalField   nonuniform List<vector> 
22672
(
(0.00130773470739 0.00039399748917 -0.00116061118716)
(0.000399554600852 0.00129767833808 -0.00116238239536)
(0.000839085862125 0.000831905186365 -0.00260541591217)
(0.00320061267681 0.000118852427395 -0.00114270281313)
(0.00193956738905 0.000917753007677 -0.00187780500524)
(0.00258649284259 0.000790002837134 -0.00281063354278)
(0.00509882006373 7.74636082861e-05 -0.00101375561824)
(0.00426825530119 0.000904421156825 -0.00210030458933)
(0.00471538897658 0.000898775004727 -0.00280262956686)
(0.00652266584841 0.000241439724853 -0.000843932755685)
(0.00613988166279 0.00122340915705 -0.00206225350346)
(0.00642196244393 0.00119765120771 -0.00264725378624)
(0.00718109476496 0.00056595055678 -0.000694285057846)
(0.00731939283992 0.00181888847063 -0.00196857065946)
(0.00747691235437 0.00164667074753 -0.00247731389996)
(0.00696460657486 0.00093156250177 -0.000585506931574)
(0.00755056906707 0.00255323395596 -0.00187289461934)
(0.00762278264346 0.00217022492341 -0.00233674016015)
(0.00597457953048 0.00127203781762 -0.000515550343336)
(0.0069054624761 0.00323155041028 -0.00180816699943)
(0.00694810726194 0.00262167459416 -0.00224151620778)
(0.00434161389775 0.00155947623793 -0.000476856765724)
(0.00547971712182 0.00382028680856 -0.0017716415085)
(0.00550969009859 0.00302713432551 -0.00218731340039)
(0.00229122565627 0.00173831993312 -0.000463765685104)
(0.00350545731197 0.00422946216661 -0.00176763884853)
(0.00352542196305 0.00330872094738 -0.00217906679754)
(4.27357287394e-05 0.00179889327077 -0.000461028820729)
(0.00122950697932 0.00443577568606 -0.00177495520014)
(0.00123726928186 0.00345059016412 -0.00218728071507)
(-0.00220961297578 0.00174023830888 -0.000462126572055)
(-0.00114483898886 0.0044384838976 -0.00177444838614)
(-0.00115065855697 0.00345245894833 -0.00218613357541)
(-0.00427086513118 0.00156238015547 -0.000473687513458)
(-0.0034300109784 0.00423668940784 -0.00176593162574)
(-0.00344763078514 0.00331379767577 -0.00217543997818)
(-0.0059185770323 0.00127463852853 -0.000511455299855)
(-0.00541952849724 0.0038296001732 -0.00176928753116)
(-0.00544669125 0.00303379996833 -0.00218189556458)
(-0.00692336427396 0.000933438357343 -0.000581419157565)
(-0.00686242851026 0.00324054415702 -0.00180627960256)
(-0.00690218399728 0.00262841417278 -0.00223576823539)
(-0.00715242460251 0.000567271766906 -0.000691682106693)
(-0.00752221767298 0.00256183171453 -0.00187287769107)
(-0.00759199928735 0.00217727286205 -0.00233278563591)
(-0.00650180138041 0.000243220767899 -0.000844130231181)
(-0.00730171307845 0.00182744781014 -0.00197276102651)
(-0.00745865890138 0.00165427952506 -0.00247808695945)
(-0.00508164406645 8.13922955e-05 -0.00101703738836)
(-0.00612641356277 0.00123417515031 -0.00207051921312)
(-0.00641013362593 0.00120701099948 -0.00265434914653)
(-0.00318499393318 0.000126239900612 -0.00114853385088)
(-0.00425500751447 0.000919288721611 -0.00211246423393)
(-0.00470587370688 0.000910816452764 -0.00281595626431)
(-0.00129570327892 0.000406995143926 -0.00116747220952)
(-0.00192280900683 0.000938046683181 -0.00188981009565)
(-0.00257608493351 0.000805363491863 -0.0028273567857)
(-0.000389167725061 0.00132603032269 -0.00116636991017)
(-0.000833203445273 0.000852255259654 -0.00262174832735)
(0.000923740261826 0.00192900835097 -0.00187957621344)
(0.000123721217528 0.00318948916852 -0.00115041217852)
(0.000792155628554 0.0025738691455 -0.0028155541932)
(0.00309807672431 0.00183133174709 -0.00283540678143)
(0.00183846073368 0.00309372213369 -0.00283689293854)
(0.00262124055052 0.00261691399677 -0.00435030803423)
(0.00537086160408 0.00220636751951 -0.00314880247454)
(0.00466175400172 0.00350544622063 -0.00343899022537)
(0.00495232839465 0.00302035557602 -0.00487381050273)
(0.00703368494277 0.00300193236253 -0.00318689140724)
(0.00687911685724 0.00446806066111 -0.00348623200452)
(0.00677139321699 0.00383981692917 -0.00490747292289)
(0.00778850493692 0.00406079762774 -0.00314718022095)
(0.00822477799199 0.00584716929748 -0.00336989909313)
(0.0078443666875 0.00495960406271 -0.00478309632837)
(0.00756564431693 0.00515767278026 -0.00309555468719)
(0.00848639537925 0.00738983311493 -0.00321627696956)
(0.00799484736559 0.00618201443228 -0.0046137317633)
(0.0064507123635 0.00612610680087 -0.00306425816459)
(0.00770673215485 0.00881792636142 -0.00309340062258)
(0.00724112104105 0.00730376785099 -0.00447143560706)
(0.00466459164373 0.00687001365957 -0.00306242359131)
(0.00607496136743 0.00999428647737 -0.00302939408146)
(0.00571806192566 0.00822632373535 -0.00438787000671)
(0.00245247427732 0.00732747036161 -0.00307882836357)
(0.00386405481729 0.0108088155772 -0.00302288580663)
(0.00364949262748 0.00886490950245 -0.00436722796989)
(4.22586717399e-05 0.00748302634524 -0.00308837476554)
(0.00134985172923 0.0112205418339 -0.00303706296135)
(0.00127902839864 0.00918843825155 -0.00437454494657)
(-0.00237278878099 0.00733585381158 -0.00307825343983)
(-0.00125973670368 0.0112271411479 -0.00303612998864)
(-0.00118981742433 0.0091942098533 -0.00437360817718)
(-0.00459837324958 0.00688429122226 -0.00306153164344)
(-0.00378597541763 0.010826639324 -0.00302010110977)
(-0.0035708461816 0.00888073088396 -0.00436436880076)
(-0.00640251105777 0.00614258786824 -0.00306411183386)
(-0.00601660272315 0.0100181343469 -0.00302621668171)
(-0.00565733681543 0.00824814057986 -0.00438440488326)
(-0.00753488387968 0.00517421018384 -0.00309773813606)
(-0.00766922909852 0.00884256809529 -0.00309205158052)
(-0.00720061135481 0.00732741446427 -0.00446966411937)
(-0.00777092353436 0.00407752210276 -0.00315395661089)
(-0.00846519112503 0.00741437001538 -0.00321885591186)
(-0.00797197587708 0.00620671796071 -0.0046165148569)
(-0.00702280845505 0.00302051954858 -0.00319915000845)
(-0.00821343228841 0.00587319635744 -0.0033786234696)
(-0.00783452165221 0.00498638088203 -0.0047938816964)
(-0.0053608852053 0.00222937948492 -0.00316594605869)
(-0.00687065677228 0.00449851374619 -0.0035008188986)
(-0.0067684221238 0.00387058327894 -0.00492628087712)
(-0.00308428902274 0.00186068299208 -0.00285374047871)
(-0.00465082050005 0.0035428155498 -0.00345808565137)
(-0.00495058329927 0.00305666407085 -0.00490014303003)
(-0.000908720836635 0.00196605938344 -0.00188870779629)
(-0.0018193056422 0.00313844885268 -0.00285283503911)
(-0.00261453975288 0.00265922449053 -0.00437599240212)
(-0.000109767837161 0.00324075834996 -0.00114834848349)
(-0.000787326760216 0.00262253276468 -0.00282346527348)
(0.000910348177713 0.00426386004195 -0.00210772890362)
(8.25162429014e-05 0.00509633553887 -0.00102468200953)
(0.000899681284815 0.00470824388808 -0.00281719765222)
(0.00350730576586 0.0046625712464 -0.00344047638247)
(0.00221244527061 0.00537463265489 -0.00315287975451)
(0.00302171417327 0.00495374056795 -0.00487787046825)
(0.00622840441631 0.00564549293257 -0.00377641975534)
(0.00564213195274 0.00623620411329 -0.00377657091524)
(0.00571318238253 0.00571908776474 -0.0054518568811)
(0.00817921144508 0.00716568022197 -0.00366923969042)
(0.00829892912448 0.00779495533012 -0.00361151344495)
(0.0077606151777 0.00704993320344 -0.00527769941343)
(0.00902375564349 0.00899061327981 -0.00343899584174)
(0.00985170288327 0.00984113063544 -0.00319889393396)
(0.00891501463815 0.00876205968355 -0.004838500512)
(0.00870782023065 0.0108209867843 -0.00321412290495)
(0.0100849488931 0.012049157581 -0.00275068854856)
(0.00901681905493 0.0105926978031 -0.00434338151734)
(0.00737167096724 0.0124141786934 -0.00305853653945)
(0.00907590574508 0.0140779994946 -0.00238488401547)
(0.00809840991 0.0122748846259 -0.00392391440789)
(0.00529219956218 0.0136233448892 -0.00298985629678)
(0.0070903099775 0.0157241202907 -0.0021615372058)
(0.0063458150166 0.0136429476782 -0.00365035202971)
(0.00276841886963 0.0143671980204 -0.00298112040442)
(0.0044758695906 0.0168577500529 -0.00207486645766)
(0.00402696439199 0.0145897362114 -0.00352514394769)
(4.83186842568e-05 0.0146212435232 -0.00298481818444)
(0.00155732293433 0.017430051143 -0.00206157261557)
(0.00140836706484 0.0150705566276 -0.00348940161882)
(-0.00267850028815 0.0143827368846 -0.00297797765858)
(-0.00145104253578 0.0174399743837 -0.00205845906767)
(-0.00130531656193 0.0150801007004 -0.00348601087415)
(-0.00522065646761 0.0136499284388 -0.00298478614804)
(-0.00438650866913 0.0168846297664 -0.00206631936912)
(-0.00393818170437 0.0146157117044 -0.00351583629311)
(-0.00732335621262 0.0124452491798 -0.00305415642837)
(-0.0070280629775 0.015759646008 -0.00215107459757)
(-0.00628059712716 0.0136785477271 -0.0036388197595)
(-0.00867961618498 0.0108526353028 -0.00321316935632)
(-0.00903966962729 0.0141137285344 -0.0023773309238)
(-0.00805778449415 0.0123128652242 -0.00391491347674)
(-0.00900858644069 0.00902335013435 -0.00344352277057)
(-0.0100656416657 0.0120837411921 -0.00274862233492)
(-0.00899532191291 0.0106314627661 -0.00434041772066)
(-0.00816967422216 0.00720236771245 -0.00368029235975)
(-0.00984027371762 0.00987805585385 -0.00320306840464)
(-0.00890602966733 0.00880391592673 -0.00484379083983)
(-0.0062181559877 0.00568898135386 -0.00379295849128)
(-0.00828870352494 0.00783891287756 -0.00362196325265)
(-0.00775830088605 0.00709806984151 -0.00529193787743)
(-0.00349181021314 0.0047138510936 -0.00345718021177)
(-0.00562835122654 0.00628921991233 -0.00379142632723)
(-0.00571204243713 0.0057749391369 -0.00547277207843)
(-0.000892727398557 0.00432147587712 -0.00211247572631)
(-0.00218930191921 0.00543588397707 -0.00316344749218)
(-0.00301467764093 0.00501663639275 -0.00489654232478)
(-6.53944453371e-05 0.0051619931948 -0.00101474016796)
(-0.000894204185725 0.0047758481529 -0.00281398034958)
(0.00122856848821 0.00614566493097 -0.00206983286042)
(0.000246933764383 0.00652901536791 -0.000854208209727)
(0.00119829439487 0.00642347001713 -0.00266125152354)
(0.00446873273217 0.00689065516189 -0.00348897428728)
(0.00300829702713 0.0070484550881 -0.0031898254423)
(0.00383991853323 0.00678123507581 -0.00491398916072)
(0.00778503198664 0.008314033404 -0.00361166460485)
(0.00716219980013 0.00819864110238 -0.00366876625293)
(0.00704218995576 0.00777518719487 -0.00527873664502)
(0.0101060155977 0.0103654274635 -0.00314116768849)
(0.0103490537337 0.0101296641583 -0.00313970140629)
(0.00942786509888 0.00944539607674 -0.00465569009476)
(0.011036678419 0.0127474103815 -0.00251058664078)
(0.012141176298 0.0125796348938 -0.0022728849456)
(0.0107033868727 0.0115503128494 -0.00366916174074)
(0.0105422608322 0.015102163379 -0.00192144965909)
(0.0123057921051 0.0151764192451 -0.00137038569961)
(0.0107103344042 0.0137754879437 -0.00263283574173)
(0.00884163266347 0.017136826075 -0.00148788468182)
(0.0109739858959 0.0175382342942 -0.000625580544187)
(0.00952220122828 0.0158101134901 -0.00175959559776)
(0.00629423313958 0.0186700847249 -0.00124654736667)
(0.00850216038312 0.0194423504023 -0.00013524877794)
(0.00739253361659 0.0174527918137 -0.00117081764078)
(0.00327252438754 0.0196085735506 -0.00115531866881)
(0.00533067824618 0.020749506352 0.000100417536294)
(0.00465605066609 0.018582627751 -0.000870034126947)
(5.85649632784e-05 0.019928819155 -0.0011352134988)
(0.00184861635573 0.0214096934981 0.000175424792745)
(0.00162286792503 0.0191557745606 -0.000765671106919)
(-0.00316499109484 0.0196294993956 -0.00114680077821)
(-0.0017193288201 0.0214217844872 0.000182034793804)
(-0.00149896232995 0.0191680658856 -0.000758246150192)
(-0.00621275409389 0.0187052494482 -0.00123260781864)
(-0.00522573183293 0.0207820824797 0.000118409812052)
(-0.00455209187764 0.0186161178466 -0.00084968769527)
(-0.00879142199161 0.017176175159 -0.001474249093)
(-0.00843553986489 0.0194835542742 -0.00011394413622)
(-0.0073209558678 0.0174970164404 -0.00114524513424)
(-0.0105150943657 0.0151399214921 -0.00191278390241)
(-0.0109402705182 0.0175761145604 -0.000610178591513)
(-0.00948137131014 0.0158543884772 -0.00173872478506)
(-0.0110209561888 0.0127851089254 -0.00250816796899)
(-0.0122882523911 0.0152100226697 -0.00136353601793)
(-0.0106889891308 0.0138177929304 -0.00262043573286)
(-0.0100930916622 0.0104082313384 -0.00314473929754)
(-0.0121268252844 0.0126146972654 -0.00227205520683)
(-0.0106919054647 0.0115950957198 -0.00366452532059)
(-0.00776996527056 0.00836590191074 -0.0036204310886)
(-0.0103326799675 0.0101736652194 -0.00314319904773)
(-0.00942131717053 0.00949831407174 -0.00465790032006)
(-0.00444805152779 0.00695188313853 -0.00349769360764)
(-0.00714189335921 0.00825401006926 -0.00367546601915)
(-0.00703692392121 0.00783802740186 -0.00528672763428)
(-0.00120668900777 0.0062128904642 -0.00206571193383)
(-0.00297953805705 0.00711297213025 -0.0031913428216)
(-0.00382912615868 0.00685232654911 -0.00491847741939)
(-0.000226679125717 0.00659719840664 -0.00083537904781)
(-0.00119049183346 0.00649844854444 -0.00264191397333)
(0.00182561464386 0.00733453295883 -0.00197420079161)
(0.000573130130006 0.00719581051641 -0.000704823869675)
(0.00164778572338 0.00748843323024 -0.00249241332285)
(0.00584907465279 0.00824704896444 -0.00336961740796)
(0.00407004938465 0.00781129724675 -0.00314867959045)
(0.00496075575522 0.00786345274318 -0.00478630503179)
(0.00983216495443 0.00987968496203 -0.00319680305438)
(0.00899062180279 0.00905351371716 -0.00343666489901)
(0.00875522281454 0.00893944505272 -0.00483796363849)
(0.0125546064745 0.0121735614391 -0.00227141866341)
(0.0127343203608 0.0110733512684 -0.00250513879085)
(0.0115329432481 0.0107327459572 -0.00366612639789)
(0.01355750046 0.0148031134876 -0.00113268400443)
(0.014770707097 0.0135994192464 -0.00112820137608)
(0.0129418728352 0.0129740766031 -0.00202267260241)
(0.0128315414964 0.0173811593722 -7.45165847121e-05)
(0.0148243359149 0.0162390727531 0.000280716781694)
(0.0128211677722 0.0153299242977 -0.000336684827147)
(0.0106795098287 0.0195951539199 0.000727055359696)
(0.0131174853803 0.018615311105 0.00144042588435)
(0.0113000781182 0.0174770270059 0.00107496880943)
(0.00755619288419 0.0212614806436 0.00121171612503)
(0.0100949977668 0.02052837838 0.00221980401467)
(0.00870783208013 0.0192062113886 0.00203730678882)
(0.00391479306365 0.0222835549333 0.00143116099785)
(0.00629362127761 0.0218411934983 0.00261155948972)
(0.00545422438014 0.02039592732 0.00254973296184)
(7.14416954755e-05 0.0226331721024 0.00149267308535)
(0.00217607170122 0.0225028227154 0.00274843442847)
(0.0018972122001 0.0210011773499 0.00275024234342)
(-0.00378578837395 0.0223070479523 0.00144724538406)
(-0.00202160381696 0.0225155339275 0.00275897649822)
(-0.00174867463585 0.0210150315918 0.00276349743736)
(-0.00746447857543 0.0212998267741 0.00123707349448)
(-0.00617279566283 0.0218754627286 0.00264046710974)
(-0.00533413994528 0.0204335913422 0.00258532028807)
(-0.0106300492132 0.0196346993627 0.000750126365267)
(-0.010027281529 0.0205704042375 0.00225190342755)
(-0.00863304268416 0.0192535729807 0.00207872268508)
(-0.012808069689 0.0174147183894 -6.09307070363e-05)
(-0.0130905143149 0.0186488993893 0.00145937969512)
(-0.0112635822333 0.0175192093167 0.00110522927498)
(-0.0135413813208 0.0148338403145 -0.00112742325576)
(-0.0148103948124 0.0162642986693 0.000286035883868)
(-0.0128026142461 0.0153660313913 -0.000320977686948)
(-0.0125355884634 0.0122092950824 -0.00227051495701)
(-0.0147521593206 0.0136238735891 -0.00112893198456)
(-0.0129269656041 0.0130103350311 -0.00201498752116)
(-0.00980876947364 0.0099262752811 -0.00319823397827)
(-0.0127085688038 0.0111071529761 -0.00250590002638)
(-0.01151879764 0.010777828549 -0.00366032866567)
(-0.00582120342894 0.008304470521 -0.00336911523311)
(-0.00896115989373 0.00909989277056 -0.00343691435289)
(-0.00874244182979 0.0089960865989 -0.00483347388428)
(-0.0017993866272 0.00739866331781 -0.00196100993558)
(-0.00403472606668 0.00786724215711 -0.00314327834511)
(-0.00494435935877 0.00792920761691 -0.00477611568427)
(-0.000549760645432 0.00725621497911 -0.000679097411151)
(-0.00163743568734 0.00755838600902 -0.00245842431976)
(0.00256293077767 0.0075731548211 -0.00187930266851)
(0.000939949446819 0.00698475356889 -0.000596038627442)
(0.00217365064401 0.00764285871606 -0.00235187782691)
(0.00739695671235 0.00851698143373 -0.0032157270815)
(0.00517110756209 0.00759475132879 -0.00309733737671)
(0.006186699676 0.00802163260826 -0.00461748339252)
(0.0120461840839 0.0101231065375 -0.00274500063548)
(0.0108272581722 0.00874368288008 -0.00320884949862)
(0.010590834186 0.00904927129091 -0.0043393976525)
(0.015156080242 0.0123513534412 -0.00136192150353)
(0.015096285645 0.0105855617747 -0.00190945671988)
(0.0137634095941 0.010749353434 -0.00262210443218)
(0.016198226424 0.0148737608285 0.000285199410041)
(0.0173532270405 0.0128816908782 -5.88279834281e-05)
(0.0153002903512 0.0128661183821 -0.000324411149093)
(0.0152002567703 0.017306460311 0.00179565925076)
(0.017257717372 0.0152520302491 0.00180376965681)
(0.0150298633892 0.0150762938834 0.00198502451531)
(0.0125639691157 0.0193785389669 0.00293317453933)
(0.0151756718703 0.0173666618923 0.00331106974568)
(0.0131593615775 0.0170786407625 0.00388495602875)
(0.00884009335076 0.0209350987824 0.00361964737936)
(0.0116120155239 0.0190810738504 0.00432455665259)
(0.0100818134229 0.0186913748382 0.00517120649891)
(0.00456208219775 0.0218854997026 0.00392883292033)
(0.00719953337109 0.0202648041439 0.00483271202346)
(0.00628416556726 0.0197995828139 0.00585443234462)
(8.37609687756e-05 0.0222095674232 0.00401473784134)
(0.0024808529023 0.0208607212564 0.00500784470834)
(0.00218012436595 0.0203614816959 0.00612045678824)
(-0.00441310725979 0.0219089529709 0.0039521982239)
(-0.00230322077157 0.0208727021289 0.00502192534073)
(-0.00200828816412 0.0203754529928 0.0061397316102)
(-0.00874125131654 0.0209730370723 0.00365529704282)
(-0.00706490335446 0.0202969036595 0.00487141530231)
(-0.00615041139509 0.0198375952573 0.00590672736193)
(-0.0125202254184 0.0194146768323 0.00296115675741)
(-0.0115473722809 0.0191204742619 0.00436539261446)
(-0.010009583812 0.0187383244007 0.00522891769052)
(-0.0151837585791 0.0173319298911 0.00180634628603)
(-0.0151598675795 0.0173948203924 0.00332722744582)
(-0.013133234242 0.0171142671412 0.00391761438)
(-0.016182229868 0.0148930535646 0.000284527155072)
(-0.0172495081828 0.0152695524213 0.00180073798251)
(-0.0150170720066 0.015102277518 0.00199320980932)
(-0.0151292639661 0.0123741767198 -0.00136431705393)
(-0.0173308552886 0.0128960520041 -6.7914103893e-05)
(-0.0152821711733 0.0128899645704 -0.000325159632852)
(-0.0120119074598 0.0101567789531 -0.002744580401)
(-0.0150600409482 0.0106077725314 -0.00191324119304)
(-0.0137395267001 0.0107808682275 -0.00261799695186)
(-0.00736021308875 0.0085618127092 -0.00321107746489)
(-0.0107876073355 0.00877743765468 -0.00320700650022)
(-0.010568148484 0.00909213702372 -0.004329264835)
(-0.00253146566613 0.0076250714356 -0.00186136582068)
(-0.00512888775135 0.00763818246279 -0.00308782251836)
(-0.00616317554382 0.00807336354416 -0.00459971788032)
(-0.000914149299587 0.00703301565232 -0.000566582768021)
(-0.00215959230225 0.00769850525816 -0.00230828821274)
(0.00324357980131 0.00693190847178 -0.00181407333564)
(0.0012813091545 0.0059971344249 -0.000525838879952)
(0.00262578318278 0.0069725752707 -0.00225596511012)
(0.0088306360537 0.00774049783456 -0.00309045979384)
(0.00614284948828 0.00648074208505 -0.00306466549457)
(0.00731215980866 0.0072713025556 -0.00447305084336)
(0.0140825331109 0.00911612919461 -0.00237330558303)
(0.0124258308307 0.00740610522217 -0.00304994055064)
(0.0122791610423 0.00813277904433 -0.00391432076229)
(0.017524901667 0.0110208787124 -0.000606363199783)
(0.0171378101936 0.00888039410546 -0.00146892090963)
(0.0158054348529 0.00956177221956 -0.00173719825345)
(0.0185782944283 0.0131688907061 0.00145974226334)
(0.0195725375591 0.0107223693481 0.000754356440535)
(0.0174529104685 0.01134510697 0.00110593725974)
(0.0173154981943 0.0152285675993 0.00331918015173)
(0.0193323865499 0.0126076632708 0.00295663875258)
(0.0170342156056 0.0132082370881 0.00390717990163)
(0.0142307049883 0.0169905446696 0.00470245185894)
(0.0169376664455 0.0142735570788 0.00471137964472)
(0.0148469364138 0.0148965221666 0.00617792513591)
(0.00996480952721 0.0183273471017 0.0055376212967)
(0.0129038635518 0.0156336705375 0.00590911987809)
(0.0113248438728 0.0162691007272 0.00771333727922)
(0.00512378874279 0.0191432654329 0.00591172381147)
(0.00797360981791 0.016577798166 0.00644387511337)
(0.0070306230599 0.0172194902528 0.00852807512414)
(9.44985557582e-05 0.0194198177093 0.00601503220773)
(0.00274210414985 0.0170453167847 0.00658407866599)
(0.00243333997589 0.0177005465736 0.00884474832925)
(-0.00495762021536 0.0191636192122 0.00594114241914)
(-0.00254539790181 0.017054987649 0.00659916483797)
(-0.00224096068082 0.0177127363044 0.00886988540566)
(-0.00986149132603 0.018361061954 0.00558151087394)
(-0.00782725982726 0.0166037553062 0.0064842199396)
(-0.0068853688678 0.0172525348878 0.00859706298239)
(-0.0141967116179 0.0170228647274 0.00473146330287)
(-0.0128416894663 0.0156676049026 0.00595705851561)
(-0.0112591859123 0.0163116124663 0.00778811946533)
(-0.0173087979489 0.015249502788 0.0033216191423)
(-0.0169335806687 0.0142995602179 0.00472368437)
(-0.0148351012849 0.0149274331144 0.00620736100289)
(-0.0185645517891 0.0131818750027 0.00144829672354)
(-0.0193310700454 0.0126222529626 0.0029440973248)
(-0.0170285018344 0.0132271704921 0.00390305398016)
(-0.0174914633207 0.0110351287283 -0.00061683824301)
(-0.0195482241106 0.0107327535353 0.000735833532762)
(-0.0174326723114 0.011360984332 0.00109019982162)
(-0.0140378987637 0.00913883463574 -0.00237566729226)
(-0.0170934174834 0.00889582480623 -0.0014781101015)
(-0.0157727554947 0.00958268435076 -0.00174163510465)
(-0.00878517789968 0.0077729059171 -0.00308375155369)
(-0.0123781322094 0.00742965084891 -0.00304904317543)
(-0.0122469846034 0.008162500917 -0.00390495879393)
(-0.00320813629571 0.00697153638364 -0.0017930394657)
(-0.00609550111109 0.00651185754152 -0.00305319773089)
(-0.00728213101722 0.00730859461232 -0.00445074698218)
(-0.00125424519625 0.00603346525806 -0.000495224550652)
(-0.00260955507063 0.00701430547911 -0.00220860776646)
(0.00383414879373 0.00550595713465 -0.00177643103888)
(0.00156962529417 0.00436332647376 -0.000486623754254)
(0.00303215552627 0.00553487412052 -0.00220034562315)
(0.0100103152408 0.00610568102578 -0.00302414625137)
(0.00688771572011 0.00469152575453 -0.00306134478506)
(0.00823658967207 0.00574661097379 -0.00438695422407)
(0.0157333536056 0.00712308299568 -0.00214555587723)
(0.0136366703888 0.00531951486084 -0.00297939659897)
(0.0136509475846 0.00637493158717 -0.00363644933142)
(0.0194341115203 0.00853654575558 -0.000108201269311)
(0.0186733605794 0.00631990327832 -0.00122445227198)
(0.0174530104834 0.0074217914851 -0.00114026356005)
(0.0204955070043 0.0101295301888 0.00225125292977)
(0.0212404224601 0.00757989283982 0.00124405252407)
(0.0191871781424 0.00873781330898 0.0020810922219)
(0.019031324047 0.0116445855805 0.00434883824557)
(0.0208884800347 0.00885898272916 0.00364978086833)
(0.0186503002165 0.0101123237523 0.00521288596658)
(0.0155917569067 0.0129342359269 0.00591804766387)
(0.0182725320876 0.00997804584076 0.00555355032659)
(0.0162201519836 0.0113525640082 0.00773511558234)
(0.0108801834525 0.0139299632322 0.00681537369476)
(0.013900216075 0.0108905778007 0.00681329334492)
(0.0123390576982 0.0123644640971 0.00945471980947)
(0.00558516520163 0.0145608718473 0.00711622996789)
(0.00858211390296 0.0115382772052 0.00726511066986)
(0.00765020969842 0.0130800448061 0.0103346074342)
(0.000102504673394 0.0147804278524 0.00716821129623)
(0.00294572675543 0.0118684899754 0.00737968913269)
(0.00264634770062 0.013445646696 0.0106595640944)
(-0.00540575578391 0.0145772296714 0.00714224235844)
(-0.00273493009954 0.0118755850384 0.00739489361617)
(-0.0024364788648 0.0134548042654 0.0106877391257)
(-0.0107699767064 0.013956449938 0.00685976758127)
(-0.00842523845305 0.0115564924878 0.00730410210107)
(-0.00749267833312 0.0131041911437 0.0104115494354)
(-0.0155634436679 0.0129612420412 0.00594927958274)
(-0.013837259086 0.0109153459173 0.00686066682283)
(-0.0122736298856 0.0123971242338 0.00954577433201)
(-0.0190338146184 0.0116639643203 0.0043461625525)
(-0.0182754234627 0.0100008430272 0.00556681598809)
(-0.0162193754437 0.0113796791604 0.00776911684037)
(-0.0204845393881 0.0101414699776 0.00223163413402)
(-0.0208924680934 0.00887322237176 0.00363270532561)
(-0.018651569412 0.0101276851451 0.0051997660476)
(-0.0193972597704 0.0085482329806 -0.000125438325726)
(-0.0212154943194 0.00759045503337 0.00122011200686)
(-0.0191657512469 0.0087507863864 0.00205501520066)
(-0.0156826497312 0.00713971011443 -0.00215148598467)
(-0.0186247119687 0.00633325349354 -0.00123736468486)
(-0.0174148683586 0.0074375132894 -0.00115205316616)
(-0.00995986064289 0.00612842525964 -0.00301848935263)
(-0.0135848153711 0.00533703601575 -0.00298010811545)
(-0.0136129782564 0.00639564011783 -0.00363019702246)
(-0.00379639263907 0.00553426617517 -0.00175538281584)
(-0.00683786491314 0.00471377348239 -0.00305062378874)
(-0.00820313329562 0.00577211864803 -0.00436541329061)
(-0.00154179078275 0.00438994466062 -0.000456182215519)
(-0.00301474312703 0.00556398159822 -0.00215289321887)
(0.00424330158827 0.00352856788818 -0.00177153750043)
(0.00174844976617 0.00231072802395 -0.000473055963607)
(0.00331347651312 0.00354823438355 -0.00219070806789)
(0.0108243590976 0.00388848964728 -0.00301659513266)
(0.00734362432583 0.00247516320381 -0.0030767132931)
(0.008874069667 0.00367351234062 -0.00436469913145)
(0.0168659865856 0.00449728586223 -0.00205829299372)
(0.0143779999378 0.00278825694682 -0.00297060388132)
(0.0145964994459 0.00404778506444 -0.00351037063754)
(0.0207400265763 0.00534728803406 0.000127801521405)
(0.0196084582734 0.00328608782607 -0.00113438048724)
(0.0185813725387 0.00467148117303 -0.000840219843489)
(0.0218057224605 0.00630375236863 0.00264258046263)
(0.0222581884524 0.0039215299289 0.00145999515279)
(0.0203750547478 0.00546381273705 0.00259268126215)
(0.0202104147314 0.00720203384804 0.00485449294935)
(0.021833483289 0.00456020147843 0.00395209047861)
(0.0197541848597 0.00628731320559 0.00589411757876)
(0.016533186818 0.00797089858205 0.00644879600764)
(0.0190841283676 0.00511455071109 0.00591804432183)
(0.0171656631269 0.0070260924557 0.00854077060184)
(0.0115276170335 0.00857781120535 0.00726303032002)
(0.0145311808418 0.00557273183737 0.00710646779491)
(0.0130544413538 0.00764151550617 0.0103234845099)
(0.00592430806452 0.00895781130811 0.00752856983465)
(0.00896359591483 0.00591119471921 0.00752504676773)
(0.00808671869554 0.00807646282669 0.0112304791018)
(0.000108351045621 0.00908436885685 0.00760637145263)
(0.00307078596403 0.00608085984041 0.00767357243964)
(0.00279243956495 0.00829032592114 0.0116036859633)
(-0.00573426131923 0.00896683688095 0.0075567533588)
(-0.00285067618513 0.00608440924329 0.00768874151112)
(-0.0025688832152 0.00829549749975 0.0116338866045)
(-0.0114114727206 0.00859460003627 0.00730500134263)
(-0.00879773651297 0.00592139905552 0.00756552339968)
(-0.00791722950112 0.00809040610167 0.0113123909924)
(-0.0165050072138 0.00799110459462 0.00647820322817)
(-0.0144645275236 0.00558792848057 0.0071521615104)
(-0.0129841417701 0.00766258170661 0.0104210173151)
(-0.0202177326692 0.00721901252626 0.00485335876119)
(-0.0190884133692 0.00512983206809 0.00593609536139)
(-0.0171685621086 0.00704645748083 0.00858377815232)
(-0.0217960156615 0.00631618632753 0.00262118319844)
(-0.0218396893991 0.00457236768761 0.00393652747274)
(-0.0197586723328 0.00630105188156 0.00587915775458)
(-0.0207017402501 0.00535903026215 0.000108185647721)
(-0.0222330958363 0.00393178508564 0.00143538974379)
(-0.020352397822 0.00547591488798 0.00256439725034)
(-0.0168129726352 0.00451121862723 -0.00206598681565)
(-0.0195583517821 0.0032982347472 -0.00114865233793)
(-0.0185408585489 0.00468473985315 -0.000853759188478)
(-0.0107719154968 0.00390541687515 -0.00301224255156)
(-0.0143247277994 0.00280203403341 -0.002972118235)
(-0.0145561877684 0.00406318420089 -0.00350607539463)
(-0.00420464278024 0.00354914228436 -0.00175142318842)
(-0.00729295945953 0.00249159739447 -0.00306692143944)
(-0.00883950199365 0.00369155352046 -0.00434512429542)
(-0.00172037347434 0.00233005019246 -0.000443154520139)
(-0.00329581946142 0.00356890250291 -0.00214476836899)
(0.00444810489106 0.00124918580828 -0.00177823175627)
(0.00180858293471 6.04235115341e-05 -0.000470097830362)
(0.00345418741559 0.00125700959755 -0.00219780530424)
(0.011232607369 0.00136889273248 -0.00303072204176)
(0.00749653796648 6.19954537204e-05 -0.00308576371443)
(0.00919432918068 0.00129869543927 -0.00437133883581)
(0.0174328949748 0.00157084982003 -0.00204669137485)
(0.0146276400372 6.42362954124e-05 -0.0029753204561)
(0.015072717514 0.00142288151872 -0.00347626772721)
(0.021393953578 0.00185426896879 0.000197813144144)
(0.0199227645796 6.7903830611e-05 -0.00111764905075)
(0.0191480550015 0.00162959487802 -0.00074286893848)
(0.0224605580025 0.00217283630996 0.00276950516877)
(0.0226010696563 7.29851435849e-05 0.00151403198248)
(0.0209725550606 0.00189493748064 0.00278195702273)
(0.0208006738094 0.00246932999712 0.00501564185109)