/*--------------------------------*- C++ -*----------------------------------*\
| =========                 |                                                 |
| \\      /  F ield         | OpenFOAM: The Open Source CFD Toolbox           |
|  \\    /   O peration     | Version:  3.0.1                                 |
|   \\  /    A nd           | Web:      www.OpenFOAM.org                      |
|    \\/     M anipulation  |                                                 |
\*---------------------------------------------------------------------------*/
FoamFile
{
    version     2.0;
    format      ascii;
    class       volScalarField;
    location    "3.1";
    object      epsilon_0;
}
// * * * * * * * * * * * * * * * * * * * * * * * * * * * * * * * * * * * * * //

dimensions      [0 2 -3 0 0 0 0];

internalField   nonuniform List<scalar> 
7968
(
0.000765068996547
0.00087037747508
0.000952982205307
0.00100208019295
0.0010278931447
0.00103930566241
0.00104251301236
0.00104163960212
0.00103970683402
0.00103842068495
0.00103865594367
0.0010401869595
0.00104215927977
0.00104259966067
0.00103879946818
0.00102686603639
0.00100078385674
0.00095173130961
0.000869491086987
0.000764752196394
0.000870326533531
0.00138723707595
0.00177434172112
0.00201897547514
0.00216297902741
0.00223930287861
0.00227302285954
0.00228293069584
0.00228274483913
0.00228134943522
0.00228312283876
0.00228732183661
0.00228864883386
0.00227800912837
0.00224223821102
0.00216340703691
0.00201732380612
0.00177160797419
0.0013847368621
0.000869421421076
0.0009529479797
0.00177443426214
0.00240780371358
0.00282208653504
0.00307680552839
0.0032202330332
0.00329069441912
0.00331848649076
0.00332617714106
0.00332832864931
0.00333170595505
0.00333525952527
0.00333060664328
0.00330263748106
0.00322918569296
0.00308140378222
0.00282251854331
0.00240540870732
0.0017713204918
0.000951534662757
0.00100226703096
0.00201980609392
0.00282291806391
0.00335947990914
0.00369702999165
0.00389286151512
0.00399462645417
0.00404135272606
0.00406680955886
0.00407726838791
0.00408125789824
0.00407794674726
0.00406028179392
0.00401596245995
0.00391106286696
0.00370890231442
0.0033644416707
0.00282244173807
0.00201688306694
0.00100046489698
0.00102846052831
0.00216485616799
0.00307863320505
0.00369780081386
0.00409263381352
0.00432721565642
0.0044675578123
0.00454172044523
0.00457489444481
0.00458847000613
0.00459358406479
0.0045891905189
0.00456269842818
0.00449206989138
0.00435636763182
0.00411438017699
0.00370951977485
0.00308162050015
0.00216298287568
0.00102643962536
0.00104030064537
0.00224207937397
0.00322259453229
0.00389353636825
0.00432652208891
0.00460639115145
0.00477088254258
0.00485379861262
0.00488986341539
0.00490456185924
0.00491083749737
0.00490748761435
0.00487978290956
0.00480123902286
0.0046375324182
0.00435876161349
0.00391347809113
0.00323030409779
0.00224208706387
0.00103829183679
0.00104385103701
0.00227616065027
0.0032926448714
0.00399365834205
0.00446274657431
0.00476756802624
0.00494070307584
0.00502577822529
0.00506137938542
0.00507568813901
0.00508309891586
0.00508222415332
0.00505666385013
0.00497702582097
0.00480466594205
0.00449686905661
0.00402175149902
0.00330567029687
0.00227862634019
0.00104208682158
0.00104311181846
0.00228564620208
0.00331871136849
0.00403598692361
0.00453291514211
0.00484616593613
0.00502119114175
0.00510472368233
0.00513793701451
0.00515105590568
0.00515958144978
0.00516184789257
0.00514012529693
0.00506287487192
0.00488891029009
0.00457238183189
0.00407106213479
0.00333686805363
0.00229079649384
0.00104181560419
0.00104076282523
0.00228404401783
0.00332342370714
0.00405551424683
0.00456165966376
0.0048771939049
0.00505126235118
0.00513215178022
0.00516280493646
0.00517482307669
0.00518447018111
0.00518961201826
0.00517156591037
0.00509747294337
0.00492456533596
0.00460544723453
0.00409199764376
0.00334608090474
0.00229185688881
0.00104067507179
0.00103889607978
0.00228034233948
0.00332155374113
0.00406215435129
0.00457069991031
0.00488660449419
0.00505972513726
0.00513906276696
0.00516841112768
0.00518005730362
0.00519071916438
0.00519763869009
0.00518164085834
0.00510935364609
0.00493733059888
0.00461759803035
0.00410139603962
0.00334777465002
0.00229039399327
0.00103958949245
0.00103831397817
0.0022794017642
0.00332079575035
0.00406273160181
0.00457173157158
0.00488813210713
0.00506192025108
0.00514211362649
0.00517243789906
0.00518495817983
0.00519603566619
0.00520289719266
0.00518646271021
0.00511346457971
0.00494061403773
0.00462009460818
0.00410325758715
0.00334907842292
0.00229088985631
0.00103932459198
0.00103953174773
0.00228147240315
0.00332115447119
0.00405704260625
0.00456456667735
0.00488152245399
0.00505749553347
0.00514079767501
0.00517412135899
0.00518845352054
0.00519931794463
0.00520437755407
0.00518510227566
0.00510894978894
0.00493363144704
0.0046122327417
0.00409697994398
0.00334914628381
0.00229299727481
0.00104035898734
0.00104143031568
0.00228177152165
0.00331492047805
0.00403571356403
0.00453711906412
0.00485267181557
0.00503061255368
0.00511778095128
0.00515489757667
0.00517131714187
0.00518164811409
0.005183821629
0.00516018172745
0.00507966647198
0.00490187568499
0.00458180138332
0.00407784513212
0.00333962768541
0.0022913459892
0.00104119613798
0.00104192322837
0.00227126748101
0.00328732607599
0.00399083295447
0.00446722062459
0.00477525303044
0.00495198495468
0.00504145600638
0.00508167065228
0.005099824605
0.00510935024514
0.00510832275105
0.00508030986837
0.00499647792912
0.00481921247009
0.00450683925233
0.00402653932739
0.00330579043224
0.00227720305302
0.00104084817621
0.00103831110408
0.00223661925574
0.00321621801383
0.00388914237338
0.00432709832897
0.00461390511621
0.00478255331794
0.0048701661815
0.00491109284463
0.0049298127346
0.00493828333472
0.00493468571878
0.00490419664356
0.00482094376552
0.0046518539432
0.0043674927456
0.00391412706943
0.00322648654542
0.00223800588461
0.00103636681182
0.00102663444231
0.00215949761499
0.00307194359435
0.00369235832991
0.00409099972849
0.00433171039655
0.0044781826156
0.00455708536553
0.00459497204465
0.00461243431791
0.00461964913816
0.00461495464945
0.00458589308225
0.00451064074621
0.00437056705939
0.004118318155
0.00370554760617
0.00307411546487
0.0021565766475
0.00102398368402
0.00100079173869
0.00201521544352
0.00281680329317
0.00335383269762
0.00369392608078
0.00389439257099
0.00400228598303
0.0040548967708
0.00408417517292
0.00409816905985
0.00410409816295
0.00410092881397
0.00408530855018
0.0040340615979
0.00391971045953
0.00370819004071
0.00335720437676
0.00281286390281
0.00200934909388
0.00099782545528
0.000951892005263
0.00177095452189
0.00240285457815
0.00281700237158
0.00307308426832
0.00321949247964
0.00329433433951
0.00332728606283
0.00334009820245
0.00334634231197
0.00335209267872
0.00335548490035
0.00334768428186
0.00331367054791
0.00323268166952
0.00307785424242
0.00281431105296
0.00239595532503
0.00176417231616
0.00094913074972
0.000869687040565
0.00138493808517
0.00177085611269
0.00201508967395
0.00215960893382
0.00223746134263
0.00227360093073
0.0022865154841
0.00228940565011
0.00229054303714
0.00229377073066
0.00229785572972
0.00229713735169
0.00228278978475
0.00224249283342
0.00215947984809
0.00201074134912
0.00176454582715
0.00137948985999
0.000867695572829
0.000764847382208
0.000869661284377
0.000951806165231
0.00100061092693
0.00102634572432
0.00103793609684
0.0010415542445
0.00104126541662
0.00104021188263
0.00103939949384
0.00103985505398
0.00104129558969
0.00104266963435
0.00104226316717
0.00103748571213
0.00102471105269
0.000998185177024
0.000949238429958
0.000867701579097
0.000764081565906
0.000866498876857
0.00136347480163
0.00174114001715
0.0019842100922
0.00213167707755
0.00221452896879
0.00225578262936
0.00227259180606
0.00227705872278
0.002277266363
0.00227890106793
0.00228122399837
0.00227788700098
0.00226102781512
0.00221876674238
0.0021344714821
0.00198560332391
0.00174148315124
0.00136321818806
0.000865959180605
0.00136347030853
0.00165375521429
0.00199358795977
0.00223156569185
0.00238249482507
0.00247062270212
0.00251704275618
0.00253832499967
0.00254651909681
0.00254944289496
0.00255088372016
0.00255044069136
0.00254378168672
0.00252294195414
0.00247602090963
0.00238680375152
0.00223454017433
0.00199521179045
0.00165415118563
0.0013630908383
0.00174097511483
0.00199353357549
0.00237693424845
0.0026601453318
0.00284725078583
0.00296100291693
0.00302402903871
0.00305531294212
0.00306908249709
0.00307468019269
0.00307659765352
0.0030744470391
0.00306312410853
0.00303301748055
0.00296981350658
0.00285486930567
0.00266594527091
0.00238060107085
0.0019950123309
0.0017410647712
0.00198396972509
0.00223138865478
0.00265987306054
0.00298574176071
0.00320673621378
0.0033449587025
0.00342455263474
0.00346667045614
0.00348741257596
0.00349622846979
0.00349841145664
0.00349365632408
0.00347640658463
0.00343667562975
0.00335750273299
0.00321808478755
0.00299476996425
0.00266592447234
0.00223425653246
0.00198497093904
0.00213138939077
0.00238203407631
0.00284635729656
0.00320590664521
0.00345412836978
0.00361308553507
0.00370901489048
0.00376119608037
0.00378637440593
0.00379695321267
0.00379942614517
0.00379347466127
0.00377214138317
0.00372279278025
0.00362897180316
0.00346931614265
0.00321843647107
0.00285509763035
0.00238660702302
0.00213379637089
0.00221408339055
0.00246966017205
0.0029591088474
0.00334270277995
0.00361137739472
0.00378854313699
0.00389534942723
0.0039527019561
0.0039797426205
0.00399086509538
0.00399361757441
0.00398766299219
0.00396493946777
0.00391080381748
0.00380609035537
0.00362993524081
0.0033587483217
0.00297071002728
0.00247619263077
0.00221833744282
0.00225495234518
0.00251533532864
0.00302077811419
0.00342031132251
0.00370478838732
0.00389281844052
0.00400486435356
0.00406376428359
0.00409055369863
0.00410124216486
0.00410428754073
0.00409931270019
0.00407729687379
0.00402198359131
0.00391226186017
0.00372512479464
0.00343946329133
0.00303516505911
0.00252392079769
0.00226131515808
0.0022710693623
0.00253561598354
0.00305038153262
0.00345989430232
0.00375435397606
0.00394742889801
0.00406092801589
0.0041190399511
0.00414428667482
0.00415399595858
0.00415735955692
0.00415392842198
0.00413387185604
0.00407964081993
0.0039686856848
0.00377668602871
0.0034813869998
0.00306720917283
0.00254614246817
0.00227953598482
0.00227465240546
0.00254257757646
0.00306233960376
0.00347826698954
0.00377711616619
0.003971871248
0.00408495337381
0.0041414355972
0.00416490344505
0.00417363239466
0.00417732161042
0.0041754215433
0.00415750309854
0.00410509952363
0.00399467099945
0.00380106269022
0.00350127074217
0.00308115784091
0.00255474831526
0.00228434172611
0.00227338878578
0.00254408170082
0.00306613198963
0.00348523368103
0.00378570126669
0.00398081132428
0.00409327989987
0.00414865689581
0.00417108805029
0.00417932827575
0.00418330866431
0.00418237419464
0.00416577649996
0.00411458760143
0.00400477571165
0.00381080035503
0.00350941721051
0.00308637891035
0.00255751154946
0.00228448907161
0.0022728708462
0.00254414786205
0.00306653904421
0.00348608631273
0.00378678563272
0.0039820569068
0.0040946997984
0.0041503107081
0.00417303070043
0.00418155202691
0.00418571539935
0.00418482624131
0.00416813718501
0.00411674797379
0.00400667374375
0.00381242054673
0.00351076643695
0.00308744944236
0.00255825342107
0.00228490893106
0.00227376924396
0.00254277475353
0.00306345104558
0.00348063789657
0.00378018384866
0.00397541945884
0.0040890125331
0.00414616725947
0.00417044967366
0.00417996523065
0.00418417977533
0.00418241389589
0.00416422626277
0.00411122907066
0.00400002178067
0.00380558951422
0.00350499074675
0.00308398499774
0.00255664080725
0.00228553955888
0.00227005988378
0.00253583844927
0.00305190818438
0.00346310997611
0.00375890063544
0.00395280041565
0.0040671287322
0.00412629442702
0.00415278246497
0.00416367358254
0.00416783091947
0.00416459279373
0.0041440872586
0.00408888165622
0.00397665255314
0.00378330810389
0.00348668105588
0.00307085609221
0.00254835475092
0.00228083961967
0.00225373048595
0.00251542718603
0.00302232081815
0.00342353296965
0.00371005285314
0.00389931202059
0.00401249943222
0.00407277853464
0.00410113948255
0.00411329444842
0.00411731001728
0.00411253626336
0.00408988259206
0.00403323836976
0.00392178986224
0.00373278077739
0.00344499714644
0.00303852154649
0.00252555519233
0.00226182398179
0.00221268710039
0.00246954996422
0.00296042687917
0.00334563162242
0.00361630035606
0.00379531152526
0.00390361765109
0.00396263122351
0.00399148894328
0.00400426305056
0.0040080794936
0.00400229344777
0.00397876420233
0.0039230070921
0.00381620787319
0.00363760924614
0.00336345990555
0.00297298846304
0.00247672125936
0.00221755000731
0.00213000639392
0.00238176686425
0.00284731556706
0.00320823500933
0.00345815744143
0.00361918502946
0.00371707544763
0.00377118456447
0.00379834888713
0.00381068043037
0.00381425131688
0.00380843901979
0.00378625930434
0.00373509008612
0.00363894439859
0.00347580516514
0.00322172925222
0.00285608494619
0.00238607979216
0.00213192793215
0.00198280977874
0.00223105846648
0.00266043514601
0.00298732028583
0.00320965591604
0.0033496963808
0.00343149478912
0.00347586074731
0.00349867397621
0.00350928885489
0.00351258593661
0.00350802378113
0.00349036477468
0.00344834311848
0.00336580688951
0.00322281071512
0.00299660308257
0.0026659060544
0.00223316585134
0.00198273056266
0.00174011840686
0.00199316391304
0.00237705402439
0.00266086902883
0.00284889517062
0.00296406744593
0.0030290378431
0.00306260493335
0.00307868845231
0.00308622302764
0.0030893209242
0.00308722370792
0.00307466821401
0.00304209441144
0.002975714107
0.00285770824426
0.00266654397129
0.00238000683493
0.00199391750762
0.0017392256579
0.00136286701571
0.00165325140729
0.00199313145529
0.00223129082899
0.00238271752282
0.00247182691522
0.00251975393261
0.00254292855859
0.00255308120043
0.00255768301141
0.00256012780329
0.00255967013594
0.00255183641457
0.00252884720462
0.00247931764678
0.00238775369551
0.00223399586331
0.00199417988682
0.00165325144415
0.00136196152212
0.00086609615894
0.00136276405483
0.00173996118488
0.00198280961883
0.00213053054976
0.00221427437466
0.00225708160872
0.00227592903001
0.00228222409852
0.002284477706
0.00228725124386
0.00228935031144
0.00228471142979
0.00226541766111
0.00222034489848
0.00213368192568
0.00198355689919
0.00173947616711
0.00136200234349
0.000864894698615
0.000945862772823
0.00173030346282
0.00234902118765
0.00276470483717
0.00302969456696
0.00318766672165
0.00327300437317
0.00331310196423
0.00332881735764
0.00333443450501
0.0033375218427
0.00333714801858
0.00332476386795
0.00328583365063
0.003199876637
0.00304011954087
0.00277267372012
0.00235414349648
0.00173238499298
0.000945305460402
0.00173042640931
0.00198806942086
0.00237688848537
0.00266667245625
0.00286032548643
0.00297954995934
0.00304637620588
0.00307972642459
0.00309431099424
0.00310008336
0.00310189953429
0.00309937771931
0.00308713315012
0.00305502101076
0.00298846169719
0.00286875016652
0.0026739566077
0.00238236649739
0.00199123138926
0.00173221148166
0.0023483901054
0.00237662019268
0.00272873318497
0.00301513741211
0.00321583636608
0.00334422899611
0.00341921143339
0.00345873160725
0.00347729026914
0.00348504821368
0.00348696984474
0.00348281816872
0.00346716501542
0.00342961253558
0.00335559514418
0.00322719680019
0.00302550506897
0.00273708335292
0.00238216229679
0.00235352180168
0.00276277478393
0.00266549779603
0.00301407029535
0.00331302271961
0.00352904411355
0.0036710167644
0.00375631900512
0.00380310483607
0.00382575042281
0.00383524429981
0.00383724792744
0.00383158045174
0.00381230492634
0.00376833323438
0.00368476939613
0.00354339053814
0.00332659713643
0.00302545735264
0.00267363714509
0.00277177587795
0.0030259828471
0.0028576322565
0.00321291338246
0.00352700515251
0.00375832179833
0.00391327347394
0.00400787619487
0.00405957995
0.00408436380476
0.0040945348593
0.0040966026402
0.00409040306066
0.0040691527872
0.0040205727642
0.00392847526689
0.003775190538
0.00354357765996
0.00322727579361
0.00286843653373
0.00303930897498
0.00318174529104
0.00297492359673
0.00333893211961
0.00366629352318
0.00391045409394
0.00407534184772
0.00417568751151
0.00422933022746
0.00425402131225
0.00426373080355
0.00426584282895
0.00426014990798
0.00423889366912
0.00418843281932
0.00409142233096
0.00392899962364
0.00368548045727
0.00335610134683
0.00298840128535
0.00319971543883
0.00326458836629
0.00303964930097
0.0034113651782
0.00374870219825
0.00400205320065
0.00417274815207
0.00427493768326
0.00432750220877
0.00435018140803
0.00435857325089
0.00436083170118
0.00435662384352
0.00433717462628
0.00428748636494
0.00418902529173
0.00402197799333
0.00377005730358
0.00343104546704
0.00305568358114
0.00328718008191
0.00330204434123
0.00307093277512
0.00344846816848
0.00379282659747
0.00405109371873
0.0042238560116
0.00432497900746
0.00437463378878
0.00439435916675
0.00440110434753
0.0044036673425
0.00440154323003
0.00438501484849
0.00433784910258
0.00424038334595
0.00407194810239
0.00381564077093
0.00347020395924
0.00308920829384
0.0033287731739
0.00331500299164
0.00308359891515
0.00346495567677
0.0038133589174
0.00407382409799
0.00424653145537
0.00434553555149
0.0043920789217
0.00440905104255
0.00441436009788
0.00441728255845
0.00441715920887
0.00440353827272
0.00435923148013
0.00426366037818
0.0040954445011
0.00383727708573
0.00348819948956
0.00310360405517
0.0033449615778
0.00331780295513
0.00308773417248
0.0034711724436
0.00382149042869
0.00408273334483
0.00425498499309
0.00435248409592
0.004397091032
0.00441244850832
0.00441697900126
0.00442019079153
0.00442130962985
0.00440946752375
0.00436694420029
0.00427266289401
0.00410485170106
0.00384599700635
0.00349524792785
0.00310879583181
0.00334981536032
0.00331829077313
0.00308841156915
0.0034722740593
0.00382295794596
0.00408445097561
0.00425685831846
0.00435443376942
0.00439911742105
0.00441462179688
0.00441934454678
0.00442272009545
0.0044239092159
0.00441199905282
0.0043692802705
0.00427473476232
0.00410662316911
0.00384743223536
0.0034963783715
0.00310968356897
0.00335097501969
0.00331655481779
0.00308547266208
0.00346801800396
0.00381748551904
0.00407868992309
0.00425186185354
0.00435109612676
0.00439787516116
0.00441528724074
0.00442115888411
0.00442455336073
0.00442462209715
0.00441078232602
0.00436588173044
0.0042695123524
0.0041003848523
0.00384119473424
0.00349117464809
0.00310581969618
0.00334801098853
0.00330444139736
0.00307360184461
0.00345291779809
0.00379889239285
0.00405830640002
0.00423177967972
0.00433326499476
0.00438333542699
0.00440381329777
0.00441147955028
0.00441478495366
0.00441293319523
0.00439601704902
0.00434787337078
0.00424909060834
0.00407911672329
0.00382105926523
0.00347397434046
0.0030916679229
0.00333231531641
0.00326727318816
0.0030425894545
0.00341644087331
0.00375572760235
0.00401055470846
0.00418216260465
0.00428488778555
0.0043381142126
0.00436188407999
0.00437153861144
0.00437475600825
0.00437084574538
0.00435081923902
0.00429978206294
0.00419946951496
0.00403018137717
0.00377575703054
0.0034343815073
0.00305722276376
0.00328961434263
0.00318419853145
0.00297767616518
0.0033438848683
0.00367323646548
0.00391911840549
0.00408526968161
0.00418656203917
0.00424125793806
0.00426739697276
0.00427863603936
0.00428182873785
0.00427636873825
0.00425428376929
0.00420203521865
0.00410251383456
0.00393705345524
0.00369025831571
0.00335808232297
0.00298835332501
0.00320017304893
0.00302798934058
0.00285994678643
0.00321721112821
0.00353309451046
0.00376605365283
0.00392258106419
0.00401872412883
0.00407204980274
0.00409863601232
0.0041105138214
0.00411369508144
0.00410759775107
0.00408521575938
0.00403435309872
0.00393908552324
0.00378197419254
0.00354675347983
0.00322765104623
0.00286695014943
0.00303808435601
0.00276427185817
0.00266727655227
0.00301740748699
0.00331776200656
0.00353514173179
0.00367863207082
0.00376573007518
0.00381449894458
0.00383923304313
0.00385057268777
0.00385373047119
0.00384809384061
0.00382743275885
0.00378096516344
0.00369367172331
0.00354828746447
0.0033280755434
0.00302461708347
0.00267152683492
0.00277000256192
0.00234925103705
0.0023777946632
0.0027309568264
0.00301827320149
0.0032199167298
0.00334955612341
0.00342625543156
0.0034678987003
0.00348871580305
0.00349842384029
0.00350155933181
0.00349742375138
0.00348025791715
0.00343983445487
0.00336208799117
0.00323002181728
0.00302557217469
0.00273570509237
0.0023804065345
0.00235240722977
0.00173048918053
0.0019885556499
0.00237790254904
0.00266809829126
0.00286226609284
0.00298242624759
0.0030508047606
0.00308624854264
0.00310311699104
0.00311088110239
0.00311390038789
0.00311132518036
0.00309749541123
0.00306249415761
0.00299243091881
0.00286959224441
0.00267288938386
0.00238088552439
0.00199034461819
0.00173192271005
0.0009453790969
0.00173031974518
0.00234921611346
0.00276511497143
0.00303077123134
0.00319024608945
0.0032781023552
0.00332153151488
0.00334080641799
0.00334950750637
0.00335436882125
0.00335378760228
0.00333895385411
0.00329580182954
0.00320492725059
0.00304102602132
0.00277137937264
0.00235286671748
0.00173207343961
0.000943907201906
0.000995380498339
0.00197674473321
0.00277783242403
0.00333419030481
0.00369985964419
0.0039238207837
0.00404782779061
0.00410764910018
0.00413210306907
0.00414133396098
0.00414570304366
0.00414401695631
0.00412474595397
0.00406741254604
0.00394379146609
0.00371883516823
0.00335093091197
0.00279057324645
0.00198328377106
0.000995160764386
0.00197726368627
0.00223700876872
0.00268463725852
0.00303162522802
0.00327165033259
0.0034239417332
0.00351147258681
0.00355598725151
0.00357565726346
0.0035832807047
0.00358526901652
0.00358128119587
0.00356450467217
0.00352205203423
0.00343601616331
0.00328475273091
0.00304490411603
0.00269647845625
0.00224550295512
0.00198313953513
0.00277655187685
0.00268397858272
0.00304704432023
0.00336053712366
0.00358849675465
0.00373843477908
0.00382769304147
0.003874950121
0.0038968567014
0.00390561939642
0.00390705497588
0.00390129240455
0.00388215956246
0.00383737795537
0.00375050483107
0.00360259530362
0.00337580369475
0.00306181028176
0.00269627256657
0.00278985979914
0.00332957634217
0.00302880852017
0.0033583600794
0.00366575011718
0.00389693924985
0.00405299168669
0.0041483454796
0.00419946204749
0.00422284090556
0.00423152805048
0.00423240653075
0.0042255372199
0.00420407253928
0.00415538929181
0.00406398773372
0.0039114146372
0.00368254903452
0.00337566672995
0.00304449271098
0.00334992685387
0.00369074501335
0.00326552581829
0.00358301519051
0.00389369028338
0.00413252681149
0.00429672061182
0.00439633153627
0.00444803428292
0.00447006905544
0.00447724005594
0.00447739024588
0.00447052238708
0.0044487920586
0.004398617998
0.00430339707212
0.00414556288673
0.00391124867987
0.00360227126704
0.00328408982272
0.00371802670345
0.00390941819049
0.00341396452852
0.00372924322181
0.00404633078103
0.00429381659123
0.00446283176499
0.00456238137279
0.00461053978989
0.00462831945112
0.00463262879625
0.00463229346679
0.00462698501729
0.00460752450404
0.00455879388778
0.00446314898913
0.00430257150811
0.00406355612175
0.00375001000773
0.00343515405608
0.0039438195032
0.00402792779883
0.00349772952095
0.00381509949963
0.00413906627653
0.00439208872499
0.00456169029044
0.00465683861181
0.00469801217199
0.00470942005876
0.00471025522129
0.004710066331
0.00470796522069
0.0046931536917
0.00464876453931
0.00455589005587
0.0043957732307
0.00415447009109
0.0038369982829
0.00352136900289
0.00406929875845
0.00408256347325
0.00353904277181
0.0038598006416
0.00418901708624
0.0044440604399
0.00461094973051
0.0046991631805
0.00473184139349
0.00473650786759
0.00473408077504
0.00473465156331
0.00473672008351
0.00472780432806
0.00468937447366
0.00460126975117
0.00444380879416
0.00420273128682
0.00388251387101
0.00356476942974
0.00412994861009
0.00410238518235
0.00355631631245
0.00388022546399
0.00421235385059
0.00446741156929
0.00463062432784
0.004712130997
0.0047374053212
0.00473660170273
0.00473165007216
0.00473307572553
0.00473894684971
0.00473536654613
0.00470254164261
0.0046192245374
0.00446489204448
0.00422477722268
0.00390319318695
0.00358342886281
0.00415403055613
0.00410783429205
0.00356252757604
0.0038887182881
0.00422213458238
0.00447688967481
0.00463768115545
0.00471508329645
0.00473593003076
0.00473185817893
0.00472541000819
0.00472734295615
0.00473546170818
0.00473507563101
0.00470560148026
0.00462516508442
0.00447276790537
0.00423334651232
0.00391118628322
0.003590072262
0.00416156415078
0.00410963556084
0.00356417646532
0.00389105688237
0.00422508400267
0.00448030816948
0.00464124621088
0.0047185300651
0.00473917735014
0.00473500906327
0.00472858206535
0.00473058136213
0.00473870576963
0.00473815227953
0.00470833405873
0.00462749942309
0.00447472094591
0.00423493229081
0.00391239113349
0.00359103079848
0.00416324962869
0.00410740783767
0.0035608759102
0.00388671720298
0.0042206800436
0.00447709874343
0.00464071417007
0.0047218757566
0.00474662816831
0.00474563888249
0.00474080186755
0.00474242397278
0.0047482810326
0.00474416312846
0.00471029697208
0.00462578205308
0.00447028354112
0.00422903339336
0.0039063018623
0.00358563334609
0.00415810012999
0.0040898669009
0.00354560813553
0.00386929319547
0.00420123223566
0.00445822367417
0.00462564502874
0.0047133421485
0.00474537959872
0.00475000413024
0.00474793017422
0.00474885212433
0.00475084334419
0.00474101171264
0.00470091276137
0.00461087317353
0.00445144355644
0.00420837348913
0.00388606571165
0.00356659996501
0.00413403482496
0.00403612386393
0.00350513990564
0.00382606689273
0.00415327567179
0.00440839590731
0.00457853817699
0.00467311707127
0.0047137934568
0.00472550316726
0.00472710181775
0.0047275020277
0.00472529633626
0.00470927950748
0.00466273978465
0.00456724681897
0.00440428243261
0.00415995183212
0.00383920242582
0.0035210537178
0.00407086643683
0.00391722311949
0.00342116433263
0.00374009958207
0.00406056993603
0.00431032027656
0.00448011427823
0.00457943683849
0.00462756300475
0.00464618641785
0.00465173097675
0.0046522197668
0.00464676370812
0.00462580880379
0.00457439457339
0.00447529012556
0.00431072104103
0.00406732307709
0.00374951192533
0.00343169211505
0.00394157198272
0.00369749685724
0.00327188020169
0.00359260957622
0.00390636894946
0.00414765213064
0.00431321491508
0.0044133935879
0.00446585914084
0.0044893969521
0.00449822582421
0.00449935697289
0.00449222059488
0.00446859847483
0.0044150491685
0.00431523815928
0.00415214261396
0.00391226502665
0.00359874391047
0.00327782408657
0.0037126212858
0.00333497143972
0.00303403035074
0.00336605901361
0.00367573911725
0.00390899228191
0.0040669274295
0.00416395259433
0.00421680736995
0.00424229414754
0.00425293867532
0.00425489896881
0.00424764931459
0.00422390007696
0.00417117969353
0.00407414630456
0.00391524888115
0.00368067688649
0.00336990036813
0.00303699164982
0.00334352857088
0.00278013768547
0.00268788926952
0.00305265182214
0.00336748393224
0.0035966233463
0.00374795890277
0.00383912414351
0.00388880485456
0.00391333914384
0.00392426309061
0.0039270292273
0.00392107197491
0.00389950821019
0.00385015503898
0.00375730285443
0.00360331457813
0.00337175968996
0.00305529843986
0.0026896178956
0.00278497415493
0.00197849996213
0.00223948237851
0.00268824643587
0.00303575815657
0.0032761164839
0.0034291700426
0.00351833064171
0.00356533993972
0.00358790426927
0.00359812580648
0.00360165918208
0.00359747225585
0.0035782084866
0.00353115441729
0.00343940499239
0.00328286495395
0.00303967224313
0.00269061840574
0.00224127696845
0.00198088721994
0.000994965227167
0.0019782437017
0.00278042883746
0.00333729414971
0.00370370552658
0.00392946496955
0.00405679214073
0.00412121752508
0.00415067629757
0.00416426052459
0.00417115840057
0.00416921805588
0.00414614868908
0.00408192589975
0.00395004172254
0.00371792287408
0.00334610296681
0.00278594701517
0.00198130523884
0.000993058875885
0.0010280110194
0.00216511680397
0.0031244276539
0.00380892349974
0.0042670426293
0.00454898733085
0.00470275211788
0.0047734375546
0.00479925486503
0.00480717787001
0.00481114293546
0.00480975311784
0.00478816917628
0.00471952308499
0.00456707069379
0.00428719840466
0.0038312222421
0.00314584225384
0.00217907641363
0.00102892860348
0.00216657089562
0.00243840106242
0.00295090209794
0.00336090956565
0.00365134007484
0.00383790507287
0.00394458662239
0.00399700295205
0.00401814934296
0.00402466885113
0.00402530953238
0.00401988895141
0.00399986338697
0.00394901737854
0.00384525383183
0.0036632500455
0.00337773697957
0.00297024781464
0.00245552195846
0.00217919336915
0.00312293948872
0.00294989467751
0.00334701219776
0.00370407498167
0.00396953173762
0.00414569334843
0.00424952978108
0.00430173838671
0.00432319844519
0.00432904284917
0.00432749719802
0.00431888986356
0.00429619345753
0.00424449360604
0.0041444424582
0.00397458437185
0.00371652811206
0.00336544906533
0.00297011974236
0.00314542938992
0.00380222241522
0.00335663989397
0.00370136272605
0.00404110657622
0.0043030770333
0.00448115680044
0.00458756565295
0.00463924158758
0.00465737155731
0.00465944852273
0.00465498727241
0.00464450620306
0.00461964597147
0.00456541155298
0.00446403156037
0.004296036327
0.00404600726987
0.00371616087398
0.00337719895596
0.00383056080427
0.00425366122166
0.00364262559746
0.00396380490903
0.0043012658456
0.00456806852372
0.00475103590575
0.00485492899076
0.0048991950199
0.00490869348931
0.00490429323325
0.00489688139612
0.0048865720407
0.00486328881444
0.00481043912729
0.00470943168739
0.00454193289164
0.00429473957848
0.00397313276352
0.00366169297852
0.00428649324853
0.00452795106063
0.00382462126438
0.00413798602481
0.00448070208231
0.00475512057993
0.00493657515534
0.00502997842342
0.00505897449089
0.00505505766321
0.00504270239531
0.00503384489573
0.00502740418661
0.00501059295066
0.00496415759963
0.00486812917972
0.00470405068739
0.00445909606865
0.00414096907778
0.00384198282439
0.00456629118544
0.0046741175647
0.00392755991418
0.00424191376959