/*--------------------------------*- C++ -*----------------------------------*\
| =========                 |                                                 |
| \\      /  F ield         | OpenFOAM: The Open Source CFD Toolbox           |
|  \\    /   O peration     | Version:  3.0.1                                 |
|   \\  /    A nd           | Web:      www.OpenFOAM.org                      |
|    \\/     M anipulation  |                                                 |
\*---------------------------------------------------------------------------*/
FoamFile
{
    version     2.0;
    format      ascii;
    class       volScalarField;
    location    "3.1";
    object      rAU;
}
// * * * * * * * * * * * * * * * * * * * * * * * * * * * * * * * * * * * * * //

dimensions      [-1 3 1 0 0 0 0];

internalField   nonuniform List<scalar> 
7968
(
4.17428810371e-06
4.17275025821e-06
4.17249229403e-06
4.17240023724e-06
4.17240999177e-06
4.17197037011e-06
4.1717098226e-06
4.17198676835e-06
4.17206177271e-06
4.17207206591e-06
4.17207155848e-06
4.17205218079e-06
4.17195646945e-06
4.17171549817e-06
4.17197580895e-06
4.17237098374e-06
4.17237668046e-06
4.17248738423e-06
4.17275428326e-06
4.17428886544e-06
4.17275051937e-06
4.16863313878e-06
4.16717232282e-06
4.16642978665e-06
4.16601893808e-06
4.1654584622e-06
4.16512628353e-06
4.16525944455e-06
4.16531477313e-06
4.1653230109e-06
4.16531637401e-06
4.1652926491e-06
4.16522287175e-06
4.16517461678e-06
4.16551601351e-06
4.16598860289e-06
4.16640318301e-06
4.16716793315e-06
4.16864122212e-06
4.17275598027e-06
4.1724882687e-06
4.16716760075e-06
4.1650206375e-06
4.16389491603e-06
4.16322962879e-06
4.16262772819e-06
4.16226483883e-06
4.1622934857e-06
4.16235042773e-06
4.16237196659e-06
4.1623559676e-06
4.16230658044e-06
4.16223923568e-06
4.16229039307e-06
4.16266909247e-06
4.16319731223e-06
4.16386085468e-06
4.16501015508e-06
4.16716847247e-06
4.17248903241e-06
4.17238880832e-06
4.16641861219e-06
4.16388961302e-06
4.16255849292e-06
4.16175250498e-06
4.16109178678e-06
4.16072800042e-06
4.16071509717e-06
4.16077397144e-06
4.16079435277e-06
4.16076743351e-06
4.16070083822e-06
4.16063836375e-06
4.16071196329e-06
4.16111336025e-06
4.16170688159e-06
4.16250345651e-06
4.16386393193e-06
4.16640554846e-06
4.17237949132e-06
4.17240029881e-06
4.16602036783e-06
4.16324199751e-06
4.16177620904e-06
4.16082023436e-06
4.16008276761e-06
4.15960553384e-06
4.15948878333e-06
4.15943030197e-06
4.15940872304e-06
4.1593770736e-06
4.159384355e-06
4.15942272371e-06
4.15961328013e-06
4.16009342059e-06
4.16079896976e-06
4.16170558764e-06
4.16320588439e-06
4.16599524493e-06
4.17237564878e-06
4.17194867068e-06
4.1654820174e-06
4.16267884235e-06
4.16114731339e-06
4.16008084797e-06
4.15913239064e-06
4.15859092361e-06
4.1584746807e-06
4.15847813699e-06
4.15852337375e-06
4.15848505895e-06
4.158384892e-06
4.15843133297e-06
4.15861903135e-06
4.15925283492e-06
4.16006091817e-06
4.16105313723e-06
4.16262430203e-06
4.16547676561e-06
4.1719750998e-06
4.17165933429e-06
4.16511728372e-06
4.16228944394e-06
4.16075723236e-06
4.15954571573e-06
4.15852037955e-06
4.15808096844e-06
4.15816201747e-06
4.15828690811e-06
4.15831599462e-06
4.15827813308e-06
4.15816878836e-06
4.15799319218e-06
4.15807985519e-06
4.15870039713e-06
4.15964836309e-06
4.16063657771e-06
4.16222565197e-06
4.16512610204e-06
4.17171751632e-06
4.17194177336e-06
4.16522591367e-06
4.16228064194e-06
4.16071541273e-06
4.15938991193e-06
4.15838967706e-06
4.15816776841e-06
4.15833301551e-06
4.15839927325e-06
4.15840493969e-06
4.15835916697e-06
4.15826593395e-06
4.1581044309e-06
4.15798889302e-06
4.1585919415e-06
4.15957058907e-06
4.16060986555e-06
4.16221265066e-06
4.16521332129e-06
4.17196334396e-06
4.17204218256e-06
4.16530610916e-06
4.16235823426e-06
4.16078673297e-06
4.1593379347e-06
4.15836416957e-06
4.15832512024e-06
4.15842250832e-06
4.15846040782e-06
4.15844993536e-06
4.15839928556e-06
4.15831483672e-06
4.15818705972e-06
4.15801226123e-06
4.1585589711e-06
4.15956918545e-06
4.16064518926e-06
4.16227319181e-06
4.1652775085e-06
4.17205147937e-06
4.17206084629e-06
4.16532860599e-06
4.16240118283e-06
4.16083244089e-06
4.15931346472e-06
4.15846430641e-06
4.15838907231e-06
4.15845956361e-06
4.15847978528e-06
4.15845830051e-06
4.15840395769e-06
4.1583242837e-06
4.15821148818e-06
4.15807750049e-06
4.15855283612e-06
4.15956799688e-06
4.16067578329e-06
4.16230384762e-06
4.16528834884e-06
4.1720594799e-06
4.17206144416e-06
4.16532989388e-06
4.16240541377e-06
4.16083321143e-06
4.15933360342e-06
4.15848052225e-06
4.15839376372e-06
4.15845129249e-06
4.1584634417e-06
4.15843655462e-06
4.15837893965e-06
4.15829851669e-06
4.15818929053e-06
4.15807079066e-06
4.15856347443e-06
4.1595593473e-06
4.16066939623e-06
4.16230530544e-06
4.16528681357e-06
4.17205871669e-06
4.17205231893e-06
4.16531827329e-06
4.16237399376e-06
4.16079080813e-06
4.15933192921e-06
4.1584338956e-06
4.15834175959e-06
4.15840055693e-06
4.15841452264e-06
4.15838826496e-06
4.15832805199e-06
4.15824083416e-06
4.15812008319e-06
4.15801349628e-06
4.15859294172e-06
4.15954879196e-06
4.16063401684e-06
4.1622837313e-06
4.16528479843e-06
4.17206138052e-06
4.17198331759e-06
4.16526860845e-06
4.16231865939e-06
4.16072389832e-06
4.15938574586e-06
4.15840907606e-06
4.1582153117e-06
4.15830407394e-06
4.15832975049e-06
4.15830992608e-06
4.15824855943e-06
4.15814698552e-06
4.15798075183e-06
4.15808127249e-06
4.15865831087e-06
4.15956216747e-06
4.16062371207e-06
4.1622594684e-06
4.16526113095e-06
4.17201779204e-06
4.17173848282e-06
4.16517057315e-06
4.16232469616e-06
4.16077478567e-06
4.15954783659e-06
4.15855990044e-06
4.15813197396e-06
4.15814384416e-06
4.15820776789e-06
4.15820252303e-06
4.1581424709e-06
4.15801317098e-06
4.1580530507e-06
4.15824392365e-06
4.15883439775e-06
4.1596923983e-06
4.16070286937e-06
4.16232173502e-06
4.16523218898e-06
4.17184852261e-06
4.17198568765e-06
4.16548879878e-06
4.16267019344e-06
4.1611315913e-06
4.16006332198e-06
4.15915700718e-06
4.15866946112e-06
4.15855979553e-06
4.15850906021e-06
4.15851004431e-06
4.15848327301e-06
4.15850234678e-06
4.1585656965e-06
4.15879410521e-06
4.15934957333e-06
4.16005206933e-06
4.16105559525e-06
4.16265025284e-06
4.1655144257e-06
4.1720339335e-06
4.17238957179e-06
4.16600793589e-06
4.1632238398e-06
4.16174504945e-06
4.16077856039e-06
4.16006478144e-06
4.15963876642e-06
4.15954990212e-06
4.15951384996e-06
4.15948815082e-06
4.15946861534e-06
4.15946129819e-06
4.15949344541e-06
4.15968577281e-06
4.16007174992e-06
4.1607112488e-06
4.16163419847e-06
4.16316267234e-06
4.16595940636e-06
4.1723357152e-06
4.17238904628e-06
4.16642458313e-06
4.16389202302e-06
4.16254862357e-06
4.16172956092e-06
4.16106921792e-06
4.16071013474e-06
4.16068357921e-06
4.16070849107e-06
4.1607080336e-06
4.16067090166e-06
4.16061392853e-06
4.16060020259e-06
4.1607209599e-06
4.16109159116e-06
4.16163917788e-06
4.16246190061e-06
4.16385290171e-06
4.16640114295e-06
4.17236462963e-06
4.1724917007e-06
4.16717743705e-06
4.16502842281e-06
4.16389430406e-06
4.16322164257e-06
4.16262102389e-06
4.16226269358e-06
4.16227775417e-06
4.16231379365e-06
4.1623214493e-06
4.16229990129e-06
4.16225782667e-06
4.16222604687e-06
4.1623375522e-06
4.16268340092e-06
4.16315822564e-06
4.16384557348e-06
4.16502111934e-06
4.16718489656e-06
4.17249065592e-06
4.17275439453e-06
4.1686428291e-06
4.16717806031e-06
4.1664270572e-06
4.166008602e-06
4.16546165422e-06
4.16514044559e-06
4.16525517369e-06
4.16529239918e-06
4.16529084085e-06
4.16528175284e-06
4.16526341749e-06
4.16521840978e-06
4.16525709138e-06
4.16556347106e-06
4.16594896118e-06
4.16639019864e-06
4.16718110223e-06
4.1686650742e-06
4.17276512968e-06
4.17428874183e-06
4.17275517425e-06
4.17249332614e-06
4.17239339483e-06
4.17239185358e-06
4.17198742255e-06
4.17174955202e-06
4.17199675987e-06
4.17205733697e-06
4.17206077498e-06
4.17206209818e-06
4.17205052733e-06
4.17197279721e-06
4.17180132954e-06
4.17201209287e-06
4.17232136882e-06
4.17235588343e-06
4.17248734006e-06
4.17276440098e-06
4.17428929181e-06
4.1728903507e-06
4.16885553322e-06
4.16736145909e-06
4.16660607368e-06
4.16613354411e-06
4.16566613454e-06
4.16540379841e-06
4.16542724702e-06
4.16545614032e-06
4.16546197708e-06
4.16545260269e-06
4.16542489077e-06
4.165378512e-06
4.16538197499e-06
4.16568201924e-06
4.1661156534e-06
4.16655843452e-06
4.16733243047e-06
4.16883438241e-06
4.17287845057e-06
4.16885951437e-06
4.14939797008e-06
4.13967458145e-06
4.13472562759e-06
4.13182362203e-06
4.13001324458e-06
4.12900645103e-06
4.12857020589e-06
4.12838196922e-06
4.12829480834e-06
4.12825296346e-06
4.12826353811e-06
4.12839892186e-06
4.12883807718e-06
4.1298740063e-06
4.13167097173e-06
4.13456855901e-06
4.13955557489e-06
4.14931041109e-06
4.16883622549e-06
4.16736541704e-06
4.13969089565e-06
4.12505395968e-06
4.11727711606e-06
4.11266999494e-06
4.10988866403e-06
4.10832416016e-06
4.10754899994e-06
4.10720456743e-06
4.10705697418e-06
4.10700382124e-06
4.10705596884e-06
4.10733934591e-06
4.10810281232e-06
4.10968882182e-06
4.11247168397e-06
4.11708116754e-06
4.12488632044e-06
4.13955997645e-06
4.16733539334e-06
4.16660739141e-06
4.13476227205e-06
4.11730554453e-06
4.10782538425e-06
4.10219022267e-06
4.09882727622e-06
4.09691894996e-06
4.09590284648e-06
4.09548357206e-06
4.09531682215e-06
4.09525224647e-06
4.0953095219e-06
4.09568861438e-06
4.09665282133e-06
4.09856663862e-06
4.10194586477e-06
4.1075892711e-06
4.11708362921e-06
4.13457261477e-06
4.16655866202e-06
4.16616482118e-06
4.13190576638e-06
4.11273793289e-06
4.10222275653e-06
4.09597028317e-06
4.09224700597e-06
4.09009708992e-06
4.08901357181e-06
4.08853720828e-06
4.08835713522e-06
4.08827147959e-06
4.08834451194e-06
4.0887427651e-06
4.08980502068e-06
4.09193715225e-06
4.09566055943e-06
4.10193268801e-06
4.11245995883e-06
4.13165701378e-06
4.16610044843e-06
4.16570011684e-06
4.13011818944e-06
4.10998318877e-06
4.09888727185e-06
4.09227755094e-06
4.08831983323e-06
4.0861398242e-06
4.08505637802e-06
4.08464728206e-06
4.0845265592e-06
4.08441305433e-06
4.08434853543e-06
4.08471656385e-06
4.08575615051e-06
4.08796199032e-06
4.09191218534e-06
4.09852277399e-06
4.10964718601e-06
4.12983478769e-06
4.16567255411e-06
4.16540108003e-06
4.12910307295e-06
4.10843215083e-06
4.09700760087e-06
4.09015247546e-06
4.08617115077e-06
4.08400047295e-06
4.08305657068e-06
4.08273147424e-06
4.08257403068e-06
4.08245317023e-06
4.08238178594e-06
4.08254404753e-06
4.08353527998e-06
4.08571930499e-06
4.08975580933e-06
4.09658627532e-06
4.10803468857e-06
4.12878062623e-06
4.16539036223e-06
4.16542172274e-06
4.12868842331e-06
4.10769071892e-06
4.09602847337e-06
4.0891087749e-06
4.08513785774e-06
4.08309837452e-06
4.08225670687e-06
4.0819128298e-06
4.0817576311e-06
4.08162685497e-06
4.08154316148e-06
4.08167730549e-06
4.08247405991e-06
4.08461963395e-06
4.08865049569e-06
4.09559782813e-06
4.10723823585e-06
4.12830576271e-06
4.16537428195e-06
4.16546689434e-06
4.12854132672e-06
4.10739494618e-06
4.09564598485e-06
4.08868620157e-06
4.0847557684e-06
4.08285948377e-06
4.08199367805e-06
4.08166221488e-06
4.08151118979e-06
4.08137017141e-06
4.08126556543e-06
4.08138755049e-06
4.08210649632e-06
4.0841648146e-06
4.08817998072e-06
4.09513856106e-06
4.10689269742e-06
4.12811044093e-06
4.16539934519e-06
4.16548536031e-06
4.12849245383e-06
4.10729823872e-06
4.09553855185e-06
4.08855346501e-06
4.08474806425e-06
4.08279793131e-06
4.08193085367e-06
4.08160166634e-06
4.08144705763e-06
4.08129704157e-06
4.08118021677e-06
4.08129050029e-06
4.08202886779e-06
4.08400833245e-06
4.08801725538e-06
4.09499150756e-06
4.10676620576e-06
4.12803327727e-06
4.16540349418e-06
4.16548579933e-06
4.12848067545e-06
4.10728664623e-06
4.09553052832e-06
4.08856232425e-06
4.08474087625e-06
4.08277159387e-06
4.08188910385e-06
4.08154662613e-06
4.0813819569e-06
4.08122608849e-06
4.08110882683e-06
4.08122313634e-06
4.08196643305e-06
4.08397877359e-06
4.08799715504e-06
4.09497430284e-06
4.10675036308e-06
4.12801686928e-06
4.1654019986e-06
4.16547043388e-06
4.12850997642e-06
4.10736349474e-06
4.09562112359e-06
4.08865019034e-06
4.08476002303e-06
4.08278890096e-06
4.08187647276e-06
4.08150663185e-06
4.08132682203e-06
4.08116911629e-06
4.08106244981e-06
4.08119148318e-06
4.08194793469e-06
4.08408532418e-06
4.0881281312e-06
4.09509638349e-06
4.10685252275e-06
4.12806702279e-06
4.165398972e-06
4.16543435584e-06
4.12864761067e-06
4.10764669433e-06
4.09597609626e-06
4.08905380039e-06
4.08505850138e-06
4.08300610384e-06
4.08207714238e-06
4.08167269346e-06
4.08147365924e-06
4.08131696055e-06
4.08122423886e-06
4.08135159974e-06
4.0823175172e-06
4.08451109853e-06
4.08858742236e-06
4.09554935279e-06
4.10719392942e-06
4.12825151458e-06
4.16538512666e-06
4.16541178344e-06
4.12905352637e-06
4.10838292803e-06
4.09695166117e-06
4.09008559112e-06
4.08607611087e-06
4.08385708789e-06
4.08283566481e-06
4.08243264091e-06
4.08222028975e-06
4.0820595109e-06
4.08195652401e-06
4.08230813988e-06
4.08335384176e-06
4.08560391109e-06
4.08969755438e-06
4.09654862877e-06
4.10800020549e-06
4.12872140601e-06
4.16539059621e-06
4.16567894855e-06
4.13004259186e-06
4.10992107724e-06
4.09882570426e-06
4.09220043512e-06
4.08821794558e-06
4.08599137496e-06
4.0848518132e-06
4.08432631896e-06
4.08411432599e-06
4.08399251732e-06
4.08405563444e-06
4.0844662494e-06
4.08557147867e-06
4.08785326518e-06
4.09184941501e-06
4.09848986936e-06
4.10961063203e-06
4.1297567279e-06
4.16564029821e-06
4.16613167769e-06
4.13182232974e-06
4.11266842149e-06
4.10215931362e-06
4.09588926034e-06
4.09214353126e-06
4.08995705325e-06
4.08882402515e-06
4.08829530344e-06
4.088059218e-06
4.08797151406e-06
4.08805879891e-06
4.08850641306e-06
4.08963723288e-06
4.09181703154e-06
4.09558262853e-06
4.10189684428e-06
4.11241573494e-06
4.13156751947e-06
4.16605561044e-06
4.1665899001e-06
4.13470051367e-06
4.11724751828e-06
4.10776724497e-06
4.10211841346e-06
4.09872536363e-06
4.09678181133e-06
4.09572569191e-06
4.09524066177e-06
4.09502638614e-06
4.09494032116e-06
4.09501973052e-06
4.09546165486e-06
4.09647356512e-06
4.09845238156e-06
4.10188420415e-06
4.1075548031e-06
4.11704358561e-06
4.13449302201e-06
4.16652062664e-06
4.16735318486e-06
4.13964783911e-06
4.12501332368e-06
4.11722993204e-06
4.11260889781e-06
4.10980343385e-06
4.10820222596e-06
4.10738210397e-06
4.10699094662e-06
4.10680673941e-06
4.10673429381e-06
4.10679288046e-06
4.10711661994e-06
4.10794072541e-06
4.10958403569e-06
4.11240363036e-06
4.11703730429e-06
4.12484516303e-06
4.13948867973e-06
4.16730570685e-06
4.16884744514e-06
4.14936542821e-06
4.13964281183e-06
4.13468131889e-06
4.13176336395e-06
4.12994034748e-06
4.1289098232e-06
4.12843272902e-06
4.12820424335e-06
4.12808685579e-06
4.12802943298e-06
4.12804390211e-06
4.12820670909e-06
4.12869435008e-06
4.12976384234e-06
4.13157223125e-06
4.13448885056e-06
4.13948955451e-06
4.14922854654e-06
4.16880074153e-06
4.17288358839e-06
4.16884766545e-06
4.16735377231e-06
4.16658800828e-06
4.16610738717e-06
4.16566034715e-06
4.16541084926e-06
4.16541418897e-06
4.16542638706e-06
4.165420938e-06
4.16540963851e-06
4.16538867917e-06
4.16535498407e-06
4.16537963796e-06
4.1656664876e-06
4.16607058233e-06
4.16651688344e-06
4.1673056659e-06
4.16880233325e-06
4.1728533381e-06
4.17264228407e-06
4.16746672768e-06
4.16530493441e-06
4.16416027593e-06
4.16341500973e-06
4.16288780517e-06
4.16261449533e-06
4.16253854983e-06
4.16252319159e-06
4.16251635082e-06
4.16250027919e-06
4.16247903915e-06
4.16247981785e-06
4.1625715972e-06
4.16287290563e-06
4.16337976591e-06
4.16409680666e-06
4.16525615384e-06
4.16742794703e-06
4.1726226106e-06
4.16748066213e-06
4.13998806558e-06
4.12540991196e-06
4.11769698757e-06
4.11314065573e-06
4.11040675733e-06
4.10885833825e-06
4.10806204942e-06
4.10768535877e-06
4.10751592002e-06
4.10745546012e-06
4.10751541437e-06
4.10781576088e-06
4.10858264348e-06
4.11013362059e-06
4.11286900114e-06
4.1174319665e-06
4.12517592856e-06
4.1398012666e-06
4.16743342141e-06
4.16532733103e-06
4.12546062228e-06
4.10251603631e-06
4.08973037798e-06
4.08208407853e-06
4.07751185621e-06
4.0749045196e-06
4.07351929805e-06
4.07285397041e-06
4.07257383109e-06
4.07251163174e-06
4.07267657299e-06
4.0732540594e-06
4.07459288026e-06
4.07720012908e-06
4.08178188635e-06
4.08942697775e-06
4.10220907639e-06
4.12518488582e-06
4.16526198581e-06
4.16419177894e-06
4.11779818852e-06
4.08978652491e-06
4.07377736424e-06
4.06413914231e-06
4.05846191167e-06
4.0551503583e-06
4.0533344231e-06
4.05248696068e-06
4.05215579651e-06
4.05210274623e-06
4.05234010821e-06
4.0531216627e-06
4.05485759139e-06
4.05809081248e-06
4.06382645508e-06
4.07346299711e-06
4.08942671269e-06
4.11743565427e-06
4.16409306985e-06
4.16347429911e-06
4.11328968349e-06
4.08218119146e-06
4.06417472e-06
4.05346206797e-06
4.04693969233e-06
4.04322275819e-06
4.04130815304e-06
4.04042611262e-06
4.0400968584e-06
4.04004190191e-06
4.04026550117e-06
4.04102223954e-06
4.04287301679e-06
4.04663548156e-06
4.05296777462e-06
4.06379252508e-06
4.08175895485e-06
4.11284486587e-06
4.16335614401e-06
4.16294495202e-06
4.11058801714e-06
4.07764719046e-06
4.05854348797e-06
4.04699427266e-06
4.04016127792e-06
4.03645344237e-06
4.03451103184e-06
4.03362187622e-06
4.03331989564e-06
4.0332562615e-06
4.03341821819e-06
4.03403743708e-06
4.035767511e-06
4.03959585992e-06
4.04660836164e-06
4.05798171254e-06
4.0771354206e-06
4.11006936843e-06
4.1628469353e-06
4.16265056467e-06
4.10906975434e-06
4.07509014176e-06
4.05529727792e-06
4.04333982262e-06
4.03657185495e-06
4.03288120018e-06
4.03091712693e-06
4.03006856301e-06
4.02983140561e-06
4.02976763047e-06
4.02984773871e-06
4.03027591901e-06
4.03179033533e-06
4.03557319126e-06
4.04276698379e-06
4.05479068303e-06
4.07448647046e-06
4.10847588109e-06
4.16255944776e-06
4.16257957053e-06
4.10832012055e-06
4.07376700783e-06
4.05354113996e-06
4.04152149506e-06
4.03481312269e-06
4.03114555525e-06
4.02923507215e-06
4.02848958469e-06
4.02834277027e-06
4.02828881755e-06
4.02828801802e-06
4.02853855849e-06
4.02984446231e-06
4.03351116234e-06
4.04077299936e-06
4.05300991055e-06
4.07311148835e-06
4.10765084034e-06
4.1624591865e-06
4.16257846903e-06
4.10799739117e-06
4.07316410335e-06
4.05274477081e-06
4.04072461378e-06
4.03406777898e-06
4.03047648274e-06
4.02867139594e-06
4.02804589507e-06
4.02798069705e-06
4.02793447616e-06
4.02786440757e-06
4.02797351563e-06
4.02911676143e-06
4.03266736334e-06
4.03990250951e-06
4.05216857403e-06
4.07247278652e-06
4.10727037326e-06
4.16243478398e-06
4.16258559158e-06
4.10787592505e-06
4.0729375583e-06
4.05246126046e-06
4.04045494887e-06
4.03384979115e-06
4.0303282407e-06
4.02859532822e-06
4.02803665081e-06
4.02801174339e-06
4.02796589385e-06
4.02785534687e-06
4.02788494625e-06
4.02893562243e-06
4.0324151889e-06
4.03961535225e-06
4.05187076964e-06
4.07222751007e-06
4.10711858618e-06
4.1624302905e-06
4.16258203493e-06
4.10784860883e-06
4.07291049176e-06
4.05244069684e-06
4.04044380476e-06
4.03384973959e-06
4.03032544204e-06
4.02857734732e-06
4.02800749971e-06
4.02798050938e-06
4.02793614714e-06
4.02782896504e-06
4.02785691333e-06
4.02890494156e-06
4.03239233614e-06
4.03960695381e-06
4.05186446355e-06
4.07220945423e-06
4.10709247373e-06
4.1624266235e-06
4.16256821965e-06
4.107920564e-06
4.07308796792e-06
4.05268570268e-06
4.04068973285e-06
4.03405674222e-06
4.03044921361e-06
4.02859633408e-06
4.02793943369e-06
4.02787078216e-06
4.02783100887e-06
4.02777218093e-06
4.02787778648e-06
4.02901639321e-06
4.03259533758e-06
4.03987804236e-06
4.05215218676e-06
4.07242334736e-06
4.10719728979e-06
4.16242317411e-06
4.16256602093e-06
4.10820783488e-06
4.07365588834e-06
4.0534420677e-06
4.04143469839e-06
4.03470334497e-06
4.03095397453e-06
4.02894592777e-06
4.02815575648e-06
4.02801826921e-06
4.02798909276e-06
4.02802044287e-06
4.02828511454e-06
4.02961631453e-06
4.03336882492e-06
4.04073404092e-06
4.05298738805e-06
4.07305103066e-06
4.10754659336e-06
4.16244046092e-06
4.16263347795e-06
4.108936967e-06
4.07496359099e-06
4.05516987749e-06
4.04320225549e-06
4.03634178389e-06
4.03247575361e-06
4.03035821044e-06
4.02945576777e-06
4.02924315273e-06
4.02922486671e-06
4.02936338325e-06
4.02984319211e-06
4.03144544719e-06
4.035395417e-06
4.04273412566e-06
4.05477455381e-06
4.07444288413e-06
4.10835796791e-06
4.16252970157e-06
4.16291069651e-06
4.11043915657e-06
4.07751776491e-06
4.0584097739e-06
4.04684327341e-06
4.03992836337e-06
4.03603642437e-06
4.03392452059e-06
4.03297414161e-06
4.0326900078e-06
4.03266869874e-06
4.03289405271e-06
4.03359239807e-06
4.03545881234e-06
4.0394722153e-06
4.04658817049e-06
4.05801350128e-06
4.0771040102e-06
4.10994559121e-06
4.16280970971e-06
4.16342584903e-06
4.1131315397e-06
4.0820496181e-06
4.06404955092e-06
4.05330497919e-06
4.04675654267e-06
4.04295044451e-06
4.04093116697e-06
4.03999116042e-06
4.03965202143e-06
4.03961213318e-06
4.03987920851e-06
4.04071224477e-06
4.04267854944e-06
4.04654364004e-06
4.05295370583e-06
4.0637930999e-06
4.08172155228e-06
4.11271351823e-06
4.16331399909e-06
4.16414996139e-06
4.11765368055e-06
4.0896590863e-06
4.07366222219e-06
4.06398543054e-06
4.05827694294e-06
4.05493421097e-06
4.05306550958e-06
4.05216913374e-06
4.05181071748e-06
4.05175427264e-06
4.05202160871e-06
4.0528582534e-06
4.05463556245e-06
4.0579395321e-06
4.06378566435e-06
4.07345043057e-06
4.08937515694e-06
4.11730010699e-06
4.16404331921e-06
4.16529633424e-06
4.12534898461e-06
4.10240995944e-06
4.08962477188e-06
4.08195615082e-06
4.07733863042e-06
4.07468088308e-06
4.07324890651e-06
4.07253764789e-06
4.07222189393e-06
4.07214137974e-06
4.0723114234e-06
4.07292617102e-06
4.07433983113e-06
4.0770426652e-06
4.08169783477e-06
4.08937374157e-06
4.10213545726e-06
4.12505059323e-06
4.16521183499e-06
4.16745565768e-06
4.13991405803e-06
4.12533460054e-06
4.11760725319e-06
4.11302724067e-06
4.11026048032e-06
4.1086688877e-06
4.10782296717e-06
4.1073982787e-06
4.10719186085e-06
4.10711159283e-06
4.10717379569e-06
4.10750266621e-06
4.10832256979e-06
4.10993886088e-06
4.11272526218e-06
4.11731523739e-06
4.12506352763e-06
4.13966002726e-06
4.16737093339e-06
4.17263316854e-06
4.16745521234e-06
4.16529307663e-06
4.16413467663e-06
4.16338459974e-06
4.16286619978e-06
4.16259519551e-06
4.16250517832e-06
4.16247430521e-06
4.16245684751e-06
4.16243608228e-06
4.16241631258e-06
4.16242291633e-06
4.16252386371e-06
4.16283973388e-06
4.1633461785e-06
4.16405366538e-06
4.16522000808e-06
4.16737613343e-06
4.17257901849e-06
4.17240849826e-06
4.16657564475e-06
4.16402800401e-06
4.16262623182e-06
4.16162231657e-06
4.16091196867e-06
4.16063965027e-06
4.16062501891e-06
4.16065791312e-06
4.16067191142e-06
4.16065051044e-06
4.16060436097e-06
4.16056885884e-06
4.16062799287e-06
4.16094827132e-06
4.16161222988e-06
4.16255810501e-06
4.16396664928e-06
4.16652726894e-06
4.1723938869e-06
4.16661168639e-06
4.13469043943e-06
4.11715672623e-06
4.10769445764e-06
4.10203310195e-06
4.09862977327e-06
4.09679708725e-06
4.09592163475e-06
4.0955370934e-06
4.0953752843e-06
4.09531563463e-06
4.09537594381e-06
4.09570679433e-06
4.09658701062e-06
4.09843999517e-06
4.10181709863e-06
4.1074450921e-06
4.11689183056e-06
4.13443292268e-06
4.16654029351e-06
4.16407866555e-06
4.11724266331e-06
4.08900230502e-06
4.07293180808e-06
4.06324487362e-06
4.0574254637e-06
4.05421827585e-06
4.05260036729e-06
4.05183977491e-06
4.05153670514e-06
4.05150962972e-06
4.0517348444e-06
4.05239593038e-06
4.05402712237e-06
4.05737244926e-06
4.06317833657e-06
4.07278230537e-06
4.08873854004e-06
4.11690093907e-06
4.16397788103e-06
4.16268648246e-06
4.10783198429e-06
4.07298162645e-06
4.05249317293e-06
4.04001273903e-06
4.0330851635e-06
4.02903509067e-06
4.02684177683e-06
4.02581926224e-06
4.02547149709e-06
4.02547520481e-06
4.02581089624e-06
4.02671154093e-06
4.02877624169e-06
4.03288402793e-06
4.04034255882e-06
4.0526193776e-06
4.0727759962e-06
4.10744018672e-06
4.16255140843e-06
4.161714809e-06
4.10220868589e-06
4.06329417135e-06
4.04002770466e-06
4.02664295844e-06
4.01863733548e-06
4.01417448491e-06
4.01169872959e-06
4.01053647978e-06
4.01021420534e-06
4.01023176045e-06
4.01051775775e-06
4.01122679606e-06
4.01320285385e-06
4.01784478168e-06
4.0262978465e-06
4.04033759872e-06
4.06314570298e-06
4.10177167175e-06
4.16157825695e-06
4.16099246962e-06
4.09883014241e-06
4.05745862478e-06
4.03314955154e-06
4.01876127782e-06
4.01055309544e-06
4.00592367807e-06
4.00322454573e-06
4.0020028127e-06
4.00178844038e-06
4.00183211269e-06
4.00199297925e-06
4.00229883899e-06
4.00380429346e-06
4.00840348781e-06
4.01760616758e-06
4.03280824882e-06
4.05725906488e-06
4.09833523252e-06
4.16090626383e-06
4.16067450424e-06
4.09701116701e-06
4.05433579024e-06
4.02924623063e-06
4.01457469597e-06
4.00633504129e-06
4.0016025529e-06
3.99878547126e-06
3.99764994522e-06
3.99763482835e-06
3.99773096716e-06
3.99774518675e-06
3.99758665847e-06
3.99849183673e-06
4.00284177579e-06
4.01234945263e-06
4.0284814087e-06
4.05383214561e-06
4.09642821246e-06
4.16060993809e-06
4.16065662927e-06
4.09617321643e-06
4.05281666657e-06
4.02720846659e-06
4.01245100554e-06
4.00421906201e-06
3.99948725245e-06
3.99676185374e-06
3.99586101465e-06
3.99608615725e-06
3.99624944625e-06
3.99612987476e-06
3.99557024255e-06
3.99595491273e-06
3.99998664886e-06
4.00958729015e-06
4.02610535239e-06
4.05221738728e-06
4.09549024767e-06
4.16055468088e-06
4.16070957668e-06
4.09584219462e-06
4.05210395082e-06
4.02627582401e-06
4.01151199139e-06
4.00336959992e-06
3.99879444367e-06
3.99628235985e-06
3.99565545078e-06
3.99608488716e-06
3.99629645898e-06
3.99606045064e-06
3.99518861776e-06
3.99518446964e-06
3.99893738192e-06
4.00846106151e-06
4.02505753262e-06
4.05152323478e-06
4.09509095414e-06
4.16056807522e-06
4.1607478583e-06
4.09572802607e-06
4.051820301e-06
4.02595156049e-06
4.01126101458e-06
4.00325426282e-06
3.99883561896e-06
3.99646823024e-06
3.99598427005e-06
3.9965115595e-06
3.99673862976e-06
3.99642765071e-06
3.99537418796e-06
3.99513961646e-06
3.99871243561e-06
4.00814777764e-06
4.02472341194e-06
4.0512662475e-06
4.0949501314e-06
4.1605836455e-06
4.16074745161e-06
4.09569485431e-06
4.05178551351e-06
4.0259540511e-06
4.01131697411e-06
4.00334638515e-06
3.99891798555e-06
3.99650697787e-06
3.99599806982e-06
3.99653113232e-06
3.99676798963e-06
3.99646184281e-06
3.9953811745e-06
3.9951016567e-06
3.99866356742e-06
4.00812701261e-06
4.02472603682e-06
4.0512579572e-06
4.0949262683e-06
4.16057840123e-06
4.16071172164e-06
4.09575278132e-06
4.05200473902e-06
4.02627354009e-06
4.01163916864e-06
4.00357205362e-06
3.99894577609e-06
3.99629689387e-06
3.99560098341e-06
3.99605359241e-06
3.99629865641e-06
3.99608264772e-06
3.99513713304e-06
3.99501147569e-06
3.99875015311e-06
4.00837606933e-06
4.02505512786e-06
4.05148532484e-06
4.09503337829e-06
4.16055608148e-06
4.16067005629e-06
4.09605140415e-06
4.05264941606e-06
4.02711830658e-06
4.01238412857e-06
4.00405780909e-06
3.99908021504e-06
3.99607086628e-06
3.99508108326e-06
3.99540035872e-06
3.99567359249e-06
3.99564398637e-06
3.99503509653e-06
3.99533241579e-06
3.99948467014e-06
4.00936831396e-06
4.02608115764e-06
4.05219297684e-06
4.09542992787e-06
4.1605499955e-06
4.1606991915e-06
4.09687501823e-06
4.05411859924e-06
4.02902642478e-06
4.01419016778e-06
4.00555760561e-06
4.00029050621e-06
3.99702084939e-06
3.99579003486e-06
3.9959630535e-06
3.99627115094e-06
3.99647533803e-06
3.99636772512e-06
3.99734774844e-06
4.00206496405e-06
4.0120523907e-06
4.02847281354e-06
4.05398208933e-06
4.09638717758e-06
4.16062976238e-06
4.16098426571e-06
4.0986634919e-06
4.05730000985e-06
4.03287160654e-06
4.01831484115e-06
4.00960581441e-06
4.00433868652e-06
4.001128908e-06
3.9998178661e-06
3.99981689233e-06
4.00010105571e-06
4.00048633124e-06
4.00092694474e-06
4.0026595881e-06
4.00774029065e-06
4.01743211057e-06
4.03290956096e-06
4.05740206651e-06
4.09829807045e-06
4.16094448323e-06
4.1616506072e-06
4.10200415982e-06
4.06314956042e-06
4.0398651303e-06
4.02630150451e-06
4.01795967063e-06
4.0130381228e-06
4.01019866663e-06
4.00896644115e-06
4.00879060727e-06
4.00898087345e-06
4.009438468e-06
4.01029173878e-06
4.01250293409e-06
4.01753557329e-06
4.02630068385e-06
4.04047045895e-06
4.06320777055e-06
4.10169324399e-06
4.16158474842e-06
4.16261810369e-06
4.107634338e-06
4.072829609e-06
4.05242772989e-06
4.03980789655e-06
4.03271791786e-06
4.0284835872e-06
4.02609534773e-06
4.02502128668e-06
4.02472665789e-06
4.02480624247e-06
4.02523221551e-06
4.02624260732e-06
4.02845326887e-06
4.03284883081e-06
4.04043617283e-06
4.05272096945e-06
4.07278765541e-06
4.10732833851e-06
4.16251660412e-06
4.16402521141e-06
4.11708089221e-06
4.08886171719e-06
4.07279471246e-06
4.06306487888e-06
4.05710519044e-06
4.05379533126e-06
4.05216547754e-06
4.05138257337e-06
4.05107828574e-06
4.05104236381e-06
4.05125462337e-06
4.05197510809e-06
4.05380564989e-06
4.05728428972e-06
4.06315223569e-06
4.07277969497e-06
4.08870456972e-06
4.11677924569e-06
4.16392477769e-06
4.16657322351e-06
4.13458748312e-06
4.11705797388e-06
4.1075725077e-06
4.10186987014e-06
4.09842852804e-06
4.09653843192e-06
4.09559214851e-06
4.09514893391e-06
4.09494803523e-06
4.09486921091e-06
4.09493995608e-06
4.09532705553e-06
4.09630836195e-06
4.09826917296e-06
4.10170240768e-06
4.10735625735e-06
4.11680949805e-06
4.13430434587e-06
4.16646523254e-06
4.17240749079e-06
4.16657233911e-06
4.16401909807e-06
4.16259291857e-06
4.16158325312e-06
4.16090053899e-06
4.16063547166e-06
4.1605957806e-06
4.16060151311e-06
4.16059776535e-06
4.16056751602e-06
4.16052186608e-06
4.16050293438e-06
4.16060495387e-06
4.16097803981e-06
4.16163021914e-06
4.16253838147e-06
4.16394686126e-06
4.16648216013e-06
4.17234146927e-06
4.17191691986e-06
4.16566969281e-06
4.16274593115e-06
4.16112159506e-06
4.16007836054e-06
4.15935885364e-06
4.15898777634e-06
4.15886914642e-06
4.15884872574e-06
4.15885199211e-06
4.1588484666e-06
4.15884367828e-06
4.15888159557e-06
4.15904625977e-06
4.15945260311e-06
4.16013115888e-06
4.16112331042e-06
4.16268469204e-06
4.16563022682e-06
4.17188300108e-06
4.16577457508e-06
4.13050683163e-06
4.11066120421e-06
4.09994359612e-06
4.09369035246e-06
4.09002462738e-06
4.08798470173e-06
4.08692295513e-06
4.08640711025e-06