/*--------------------------------*- C++ -*----------------------------------*\
| =========                 |                                                 |
| \\      /  F ield         | OpenFOAM: The Open Source CFD Toolbox           |
|  \\    /   O peration     | Version:  3.0.1                                 |
|   \\  /    A nd           | Web:      www.OpenFOAM.org                      |
|    \\/     M anipulation  |                                                 |
\*---------------------------------------------------------------------------*/
FoamFile
{
    version     2.0;
    format      ascii;
    class       volVectorField;
    location    "3.1";
    object      U_0;
}
// * * * * * * * * * * * * * * * * * * * * * * * * * * * * * * * * * * * * * //

dimensions      [0 1 -1 0 0 0 0];

internalField   nonuniform List<vector> 
7968
(
(0.000116382505109 0.000127366397107 -0.000259773262259)
(0.000509867979465 2.00704597263e-05 -0.000295903923544)
(0.00108773940592 -3.10522704062e-05 -0.000273718231715)
(0.00157145569482 -4.53448760854e-05 -0.000203823369115)
(0.00189567713194 -2.0345140443e-05 -0.000120038729916)
(0.00198239815285 2.8160629262e-05 -3.47324159516e-05)
(0.00182693382946 8.02908711931e-05 3.93673695592e-05)
(0.00145227884655 0.000127664936027 0.000100979108687)
(0.000914175203313 0.000159956027543 0.000140345702872)
(0.00028313607378 0.000172511558921 0.000154966022628)
(-0.000361755652815 0.00016558944675 0.000150310221052)
(-0.000942385286181 0.000140143941861 0.000128783698522)
(-0.00140019620253 9.82049968221e-05 8.71944214802e-05)
(-0.00168610964538 4.7303613217e-05 3.20558203123e-05)
(-0.00177177542184 -3.0124377734e-06 -3.04576121703e-05)
(-0.00164978109674 -4.50969934453e-05 -0.000100562340937)
(-0.00133850704464 -6.29997720961e-05 -0.000169048338437)
(-0.000905988431478 -4.57190036029e-05 -0.000225313280606)
(-0.000408245219877 1.51894217778e-06 -0.000239656104562)
(-8.2819208178e-05 9.64676456235e-05 -0.000201207269622)
(1.23283320894e-05 0.000526174006327 -0.000289197687768)
(0.000413992268429 0.000417833087807 -0.000663183046322)
(0.00113284225387 0.000401845699495 -0.000793771626165)
(0.00172141847995 0.000457954859033 -0.000776564897522)
(0.0021162128484 0.000574946471415 -0.000696486170885)
(0.00223269639141 0.000716863129769 -0.000582895643305)
(0.00206458867916 0.000845532912613 -0.000462953018597)
(0.00164250266168 0.000944867455749 -0.000352423483762)
(0.00103071616578 0.00100190049374 -0.000271268894672)
(0.00031430432185 0.00101504265777 -0.000230555609499)
(-0.000415695513107 0.000988952294946 -0.000232668228154)
(-0.00107419916226 0.000926463268605 -0.000273709530268)
(-0.00159136034867 0.000831183445011 -0.000346359974983)
(-0.00190992621927 0.000712330508483 -0.000438787069718)
(-0.00199828703839 0.000582939935691 -0.000536527630089)
(-0.00184452136536 0.000457446994718 -0.000627875121388)
(-0.00146853637062 0.000363702592217 -0.000691759263386)
(-0.00094332164313 0.000325016413804 -0.0007009658757)
(-0.000320122348386 0.000344351135169 -0.000578440904712)
(1.07064889804e-05 0.0004380568551 -0.000234522981499)
(-4.01520215864e-05 0.00109406363139 -0.000266314999752)
(0.000402188003137 0.00111757010785 -0.00079909909673)
(0.00123872344135 0.00121299385309 -0.000978229999139)
(0.00190651682985 0.00138650093144 -0.00094443506156)
(0.00233953950263 0.00161209730499 -0.000822736565545)
(0.00245276162103 0.00184114455516 -0.000661039778176)
(0.00224812963314 0.00202822894693 -0.000496731809501)
(0.00176963253321 0.00215701240279 -0.000353166328113)
(0.0010922293607 0.00221939634149 -0.000250790646675)
(0.000309855501771 0.00222069875442 -0.000201398296539)
(-0.000481746717359 0.00216946394545 -0.000207774955642)
(-0.00119465833601 0.00207228055629 -0.000264656755569)
(-0.00175531006144 0.00193439939181 -0.0003615391631)
(-0.00210355601473 0.00176321805556 -0.000485402425487)
(-0.00220348007209 0.00156798866284 -0.000620302060081)
(-0.00203684494911 0.0013628924937 -0.000749103948667)
(-0.00161960171724 0.00117838308285 -0.000844259398601)
(-0.00102557932432 0.00104304520466 -0.000864551416271)
(-0.000304339469574 0.000967467665154 -0.000699315588459)
(5.71821879291e-05 0.00093871407502 -0.000216712384011)
(-5.82489650292e-05 0.00158300369909 -0.000199571425126)
(0.000457072460661 0.00170714889634 -0.000796598345446)
(0.00141646143494 0.00188014745652 -0.000963163622121)
(0.00215859798814 0.00212698707805 -0.00086553269805)
(0.00261145584499 0.00241115050331 -0.000667706602986)
(0.00269520029984 0.00267781487158 -0.00043868795386)
(0.00243053352926 0.00288195224554 -0.00022654414235)
(0.00187813487172 0.00300969880838 -5.6883280051e-05)
(0.00112779387441 0.00305940688001 5.59066761047e-05)
(0.000280918747498 0.00304286945687 0.000103125301637)
(-0.000566473906642 0.00297311084722 8.65879520059e-05)
(-0.00132813348732 0.00285917878531 1.32957837493e-05)
(-0.0019307338255 0.00270556540382 -0.000106495117766)
(-0.00231321163451 0.00251551960874 -0.000263291368223)
(-0.00243488100685 0.00229493863128 -0.000441170968022)
(-0.00226835169521 0.00205459565733 -0.000622819391527)
(-0.00182009548774 0.00182330509511 -0.000775185343253)
(-0.00116066066771 0.00163057864132 -0.000843453496138)
(-0.000341591097249 0.00149169760678 -0.000688093036755)
(7.47884930423e-05 0.00137147177616 -0.000156579327973)
(-3.78014033905e-05 0.00192723089122 -0.00012009867029)
(0.000571241498066 0.00212378199514 -0.000733550773447)
(0.00164441369947 0.00233805037196 -0.000862831105251)
(0.00244604686368 0.00260821365953 -0.000689477427159)
(0.00289790919085 0.00289502606534 -0.000412039222008)
(0.00293174371746 0.00314711793155 -0.000120092320338)
(0.00259207980324 0.00332493241602 0.000127957940288)
(0.0019580170846 0.00342139715379 0.000315856551967)
(0.00113579558944 0.00344179348565 0.000428455579081)
(0.000231354998378 0.00340381446492 0.000466161049446)
(-0.000661337439996 0.00332413779616 0.000436833526219)
(-0.00146128058039 0.00321284050486 0.000348605114519)
(-0.00210029903217 0.00307215790091 0.000208838543948)
(-0.00251752233898 0.00290017795563 2.68039038459e-05)
(-0.0026664285584 0.00269812359443 -0.000184985047274)
(-0.00251095652441 0.00247057445001 -0.000414192615273)
(-0.0020450078004 0.00224054462419 -0.000623071054215)
(-0.00133201142478 0.00203269269648 -0.000745373007324)
(-0.000426526273639 0.0018618069435 -0.000619248513804)
(5.9110805545e-05 0.00167785650526 -8.3999766512e-05)
(6.80227499122e-06 0.00205118796182 -3.7729162446e-05)
(0.000712128869666 0.00228426331385 -0.000634627082917)
(0.00187854484228 0.00250147533375 -0.000719048176639)
(0.00271986835575 0.00274890387095 -0.000477667914633)
(0.00315441363809 0.00299286853003 -0.000135709610938)
(0.00312669419804 0.00318983765474 0.000195082463625)
(0.00270830259849 0.00331249150666 0.000462954681584)
(0.0019971594625 0.00336147327514 0.000650577800691)
(0.00111434035793 0.00334632059015 0.000748548622882)
(0.000168895582278 0.00328970390656 0.000770582815939)
(-0.000751173958852 0.00320978541328 0.000729165113654)
(-0.00157377825621 0.00311638314673 0.00063380363729)
(-0.00223795240088 0.00300890283365 0.000487455843102)
(-0.00268418692019 0.00288159388883 0.000295200614433)
(-0.00286144680838 0.00273000985118 6.51117286727e-05)
(-0.00272468914854 0.00255194055677 -0.000193305096594)
(-0.00225406755404 0.00236190360182 -0.000443432513815)
(-0.00150435928774 0.00217655714756 -0.000610658609555)
(-0.000532364095741 0.00200581870079 -0.000518728003216)
(2.23729716767e-05 0.00179281329165 -9.38919934841e-06)
(5.74071038988e-05 0.00193850953522 3.60243624722e-05)
(0.000844099735567 0.00216946637143 -0.000523512471933)
(0.00207631321876 0.00235879059239 -0.000565101258584)
(0.00293765962232 0.00255428792321 -0.000273893642177)
(0.00334347169464 0.00273199148521 0.000106108502495)
(0.00325458299557 0.00285876504101 0.000457411308466)
(0.00276713323002 0.00292067759038 0.000726326820494)
(0.00199315321372 0.00292202201131 0.000897791159209)
(0.00106687281647 0.00287455528757 0.00097414436447)
(0.000100265964107 0.002805165474 0.000978131200503)
(-0.000826984760755 0.00273264698717 0.000926628405298)
(-0.00165393603695 0.00266591235462 0.000829789698963)
(-0.00232828776822 0.00260108970997 0.000689142670057)
(-0.00279357506635 0.00252868861256 0.00050095727457)
(-0.00299406770054 0.002439206958 0.000269493345198)
(-0.00287831435148 0.00232605538705 -1.13998958685e-06)
(-0.00241312871204 0.0021950987041 -0.000272448096438)
(-0.00164458667715 0.00205531484504 -0.000469942284277)
(-0.000630402142269 0.0019102858628 -0.000410144456163)
(-1.9483856407e-05 0.00170408019422 5.68112582024e-05)
(0.000105644426636 0.00160679285815 9.99282492325e-05)
(0.000950940184438 0.00180281231694 -0.000415874976356)
(0.00222083846439 0.00194423324247 -0.000423920098668)
(0.00308587431937 0.00207423830306 -0.000101656910315)
(0.00345916340615 0.00217814516884 0.000299282152909)
(0.00331728324105 0.00223634430618 0.000652488340015)
(0.00277396038001 0.0022435035776 0.000906629032214)
(0.00195310407649 0.00220659456009 0.00105500867164)
(0.00100118040744 0.00213752409631 0.00110340997065)
(3.23855553411e-05 0.00206453032466 0.0010866228421)
(-0.000883913080122 0.00200516476588 0.00102721761052)
(-0.00169874813397 0.00196702506676 0.000935664117415)
(-0.00236995412832 0.00194469617781 0.000807978740247)
(-0.00284392054919 0.00192559579005 0.000636865253015)
(-0.00306163455591 0.00189741384784 0.000417140087211)
(-0.00296608847159 0.00185076729701 0.000149391131233)
(-0.00251279205184 0.00178474823247 -0.000128274998989)
(-0.00174069408825 0.00170033006141 -0.000342856197653)
(-0.000707517480107 0.00159729387825 -0.000308072520807)
(-5.86014596625e-05 0.00142933845787 0.000113255537596)
(0.000142126571686 0.00109944185972 0.000146254891552)
(0.00102086209456 0.00123323962511 -0.000329777575698)
(0.00230564630539 0.00131639575478 -0.000314942247852)
(0.00316300883003 0.00137986086973 2.1581836213e-05)
(0.00350599976433 0.00141730626244 0.000429170086341)
(0.003324327448 0.00142134710152 0.000772257521135)
(0.00274134299472 0.00139171485002 0.00100691032459)
(0.0018905764335 0.00133618631692 0.00112966187077)
(0.00092876210463 0.00126492731968 0.00114651049749)
(-2.74621153648e-05 0.00120164304131 0.00110796507965)
(-0.000919632502288 0.00116023751834 0.00104202188555)
(-0.00171027050506 0.00114653579884 0.000959672735549)
(-0.00236743519743 0.00115580679158 0.000851351950078)
(-0.00284127759386 0.00117640087615 0.000701677279555)
(-0.00306913270151 0.00119556268894 0.000501914348565)
(-0.00299007920646 0.00120429577397 0.000245706961816)
(-0.0025524159821 0.0011960636294 -3.06183056276e-05)
(-0.00178843247958 0.00116683871922 -0.000248600048102)
(-0.000753065881421 0.00111403006448 -0.000230184869808)
(-8.54882627929e-05 0.00100699654583 0.000149744306198)
(0.000160480030289 0.000480435040635 0.000167237426547)
(0.00104936457163 0.000535864572272 -0.000278769907069)
(0.00233250258611 0.000556771402519 -0.000251513102118)
(0.00317747690354 0.000558041734319 8.89674377618e-05)
(0.00349885110751 0.000540249141597 0.000493641498141)
(0.00329432935138 0.000506096598499 0.000825263996374)
(0.00269129736888 0.000458246414401 0.00104449512465)
(0.00182909999391 0.000404326165485 0.00114786803899)
(0.000869898193962 0.000351142363514 0.00114257873053)
(-6.86567095903e-05 0.000311162835154 0.00108912202692)
(-0.000935436099191 0.000291905787501 0.00101846842602)
(-0.00170038719976 0.000296941387758 0.0009421360671)
(-0.0023387059504 0.000324677219197 0.000847569620187)
(-0.00280424787688 0.000368599633392 0.000714229744841)
(-0.00303366522281 0.000419231011547 0.000530324929413)
(-0.00296415085394 0.000469204753405 0.000286936585108)
(-0.00254020218889 0.00050813866124 1.8015951618e-05)
(-0.00179006107544 0.000529540564003 -0.000198067876798)
(-0.000766015135943 0.000528983726645 -0.000187395598521)
(-9.78956679591e-05 0.000493394873518 0.000166565521746)
(0.00016054649705 -0.000179577393273 0.000166723418614)
(0.00103949463188 -0.000205885565643 -0.000269142342)
(0.00230679998357 -0.000246835052447 -0.000240333218097)
(0.00313852969246 -0.000302985427945 9.66089433386e-05)
(0.0034502497583 -0.000368457458474 0.000494964029134)
(0.00324137155265 -0.000431011011422 0.000819649111483)
(0.00263958072159 -0.000485618093958 0.00103157253345)
(0.00178438708275 -0.000527056567525 0.00112735692866)
(0.00083709588749 -0.000552004781985 0.00111517077598)
(-8.48599812935e-05 -0.000561724500697 0.0010564141827)
(-0.000932059243665 -0.000556059797703 0.000982452177651)
(-0.00167615512624 -0.000534022124444 0.000905335043089)
(-0.00229499694066 -0.000493287876188 0.000813186265579)
(-0.00274552387529 -0.000433746862158 0.000685491989023)
(-0.00296737377225 -0.000360035688836 0.00050897169081)
(-0.00289856620248 -0.000277017240681 0.000274432512552)
(-0.0024842702529 -0.000197255555072 1.3775902107e-05)
(-0.00175066045772 -0.000130189453818 -0.000196276225061)
(-0.000748019722148 -8.03498875215e-05 -0.000184315166434)
(-9.47668939541e-05 -4.3532868845e-05 0.000164981729309)
(0.000142564442376 -0.000799525691584 0.000147049955655)
(0.000992971958008 -0.000904982551699 -0.00030032185628)
(0.00223189733105 -0.00100506727872 -0.000281033508969)
(0.00305078996003 -0.00111657332511 4.50239010932e-05)
(0.00336576131134 -0.0012284005197 0.00043494341995)
(0.0031723098107 -0.00131898034726 0.000756866018698)
(0.00259251326806 -0.00138018834532 0.000969989271381)
(0.00176122279403 -0.0014098105753 0.00107110658413)
(0.00083437107254 -0.00140738893288 0.00106790107311)
(-7.32134262473e-05 -0.00138653715059 0.0010144708667)
(-0.000908110800191 -0.00135413806747 0.000939420439946)
(-0.00163789142723 -0.0013119365288 0.000855223048986)
(-0.00223821021277 -0.00125465263382 0.000754436986004)
(-0.00266848945078 -0.00117667560997 0.000621666582318)
(-0.00287441271339 -0.00107849689805 0.000443747879052)
(-0.00279740797559 -0.00096268614526 0.000213966695016)
(-0.002388175468 -0.000844015904825 -3.80117578149e-05)
(-0.00167282342704 -0.000733657915945 -0.000238200327956)
(-0.000700477414805 -0.000637867686954 -0.000216644735041)
(-7.6256576735e-05 -0.000536775377178 0.000147581583457)
(0.000106795623096 -0.00130992824857 0.000104594371908)
(0.000909523705741 -0.00148117504595 -0.000367411665848)
(0.00210785271509 -0.00163437421957 -0.000368207416559)
(0.00291269458167 -0.00180080688093 -6.27373286872e-05)
(0.00324189494282 -0.00196136955387 0.0003127624657)
(0.00308180706236 -0.00208667455048 0.000633119334227)
(0.00254383040475 -0.00216407834534 0.000852373046822)
(0.00175376744945 -0.00219203554445 0.000966921445195)
(0.000857408804072 -0.00217343924362 0.000984228886361)
(-3.44298745555e-05 -0.00212899392648 0.000944729503081)
(-0.000860182969623 -0.00207077002587 0.000872182171763)
(-0.00157889744673 -0.00200299731437 0.000779400208187)
(-0.00216046436004 -0.00191969232081 0.000665816406322)
(-0.00256641668564 -0.00181341980593 0.000521833636648)
(-0.00274984928456 -0.00168219508401 0.000339102930736)
(-0.00265863900057 -0.00152811094995 0.000114204936979)
(-0.00225142148421 -0.00136810174051 -0.000124876355969)
(-0.00155742170272 -0.0012166389146 -0.000311604401539)
(-0.000625524974467 -0.00108201129126 -0.000273959174574)
(-4.53469193132e-05 -0.000930922245808 0.000117172602521)
(5.9275915537e-05 -0.00165348825946 4.57006642661e-05)
(0.000793933041001 -0.00186563629719 -0.000458766293994)
(0.0019360479699 -0.00206019661144 -0.000489633770421)
(0.00272243465193 -0.00227673917502 -0.00021618678981)
(0.00307351733557 -0.00248777250175 0.000131957036542)
(0.00296122856029 -0.00265496163652 0.000443051783803)
(0.00248150055769 -0.00275928503968 0.000669128763996)
(0.00174785133293 -0.00279888632295 0.000798805392535)
(0.000893300726158 -0.00277871789627 0.000838664503201)
(2.48493333494e-05 -0.00272113403238 0.000816235910588)
(-0.000787074640106 -0.00264119286148 0.000750058555974)
(-0.00149134961652 -0.0025453026481 0.000653298395997)
(-0.0020511870913 -0.00242945193464 0.000529789763581)
(-0.00242916911531 -0.0022870993706 0.000378479936658)
(-0.0025858029159 -0.00211613786633 0.000195820860861)
(-0.00247724922967 -0.00192035981685 -1.96193576735e-05)
(-0.00207327711805 -0.0017183186095 -0.000241551100337)
(-0.00140749074635 -0.00153007357109 -0.000405146034259)
(-0.000526618748475 -0.00136660657623 -0.000345772541616)
(-4.36804732628e-06 -0.00118624556218 7.25750820002e-05)
(9.45588214483e-06 -0.00178841781363 -2.24370357327e-05)
(0.000659301677659 -0.00201076298984 -0.000558247116876)
(0.00172676610674 -0.00222794329014 -0.000628817631022)
(0.00248515575582 -0.00248047154883 -0.000404655378425)
(0.0028591853756 -0.00273461829577 -9.62289219249e-05)
(0.00280506429028 -0.00294387527738 0.000193515196004)
(0.00239635747351 -0.00307989887882 0.000417302319816)
(0.00173175132946 -0.00313948826514 0.00056101834407)
(0.000930774560519 -0.00312849359334 0.000621974666297)
(9.66518953193e-05 -0.00306795421179 0.00061732008507)
(-0.000692411567802 -0.00297387823004 0.000561573192829)
(-0.00137553702141 -0.00285468879531 0.0004661318246)
(-0.00190883360359 -0.00270905863586 0.000340461398764)
(-0.00225534788769 -0.00253272171105 0.00019040495381)
(-0.002382703525 -0.00232545182909 1.58788955203e-05)
(-0.00225614900007 -0.00209283295867 -0.000180411445624)
(-0.00185838240839 -0.00185691755861 -0.000375235073755)
(-0.00122999669761 -0.00164237624479 -0.000506218390076)
(-0.000415190737941 -0.00146460404796 -0.000420074013698)
(3.7304122717e-05 -0.00128080648543 2.18959750575e-05)
(-3.45498145758e-05 -0.00170247025267 -9.91032747347e-05)
(0.000520931264459 -0.00189736030143 -0.000652685946132)
(0.00149551638249 -0.0021082484604 -0.000766032293285)
(0.00221395380566 -0.00237071547846 -0.00060579713307)
(0.00260484882852 -0.00264716399193 -0.000356305007251)
(0.00261141180697 -0.00288639705784 -0.000102118676118)
(0.00228204952026 -0.00305135690716 0.000106179060429)
(0.00169682939983 -0.00313436767005 0.000253780311086)
(0.000960783490361 -0.00313965242936 0.000331381083232)
(0.00017307265273 -0.00308555300898 0.000344568323693)
(-0.000582114224672 -0.00298767733836 0.000302424645712)
(-0.00123546091219 -0.00285532643102 0.000216102485236)
(-0.00173675532678 -0.00269041281678 9.88202245465e-05)
(-0.00204978394194 -0.00249176437079 -4.01288159449e-05)
(-0.00214737290779 -0.00226096205993 -0.00019471563035)
(-0.00200524467081 -0.00200750021571 -0.000360766330063)
(-0.00161955256902 -0.00175648648649 -0.000514668290166)
(-0.00103865438089 -0.00153643000618 -0.000602449267695)
(-0.000304169120288 -0.00136551357691 -0.000487749299364)
(7.24581430755e-05 -0.00120627787623 -3.47448486869e-05)
(-5.55361827476e-05 -0.00140500512816 -0.000174433311391)
(0.000411112491974 -0.00153613340349 -0.000719388471668)
(0.00127925380581 -0.00170679423829 -0.000869860616171)
(0.00194426293324 -0.00194042960431 -0.000779877259757)
(0.00234033205947 -0.00220283038293 -0.000601322344889)
(0.00239871182624 -0.00244156128346 -0.000399591598184)
(0.00214489414455 -0.00261619571344 -0.00021780990028)
(0.00164075507819 -0.00271447043909 -7.81912311454e-05)
(0.00097502335563 -0.00273679147471 7.00461386465e-06)
(0.000242258992098 -0.00269695763822 3.45646546635e-05)
(-0.000470120964657 -0.00260851108696 8.13892025287e-06)
(-0.0010873434966 -0.00248034994269 -6.26312476303e-05)
(-0.00155413374733 -0.00231646986777 -0.000161972992478)
(-0.00183349562945 -0.00211956401523 -0.000280094884459)
(-0.00190452281999 -0.00189286189165 -0.000406185660059)
(-0.00175303838232 -0.00164926598183 -0.000531013067985)
(-0.00138704553088 -0.00141540443394 -0.000634070288249)
(-0.000862115754805 -0.00122106265166 -0.000672472624472)
(-0.000217644513879 -0.00108293473025 -0.000532656541936)
(8.83763740039e-05 -0.00097584741739 -9.00208258787e-05)
(-4.03472487956e-05 -0.000967182774789 -0.000237087414346)
(0.000358936341587 -0.00100373365037 -0.000729977043717)
(0.00111545820869 -0.00110094208074 -0.000895522984299)
(0.00171593840683 -0.00126312658437 -0.000864727177917)
(0.0020993528558 -0.00146641284256 -0.000753516495775)
(0.00219100743356 -0.0016652105668 -0.000607718497954)
(0.00199809308264 -0.00181959217162 -0.000462019205832)
(0.00156539167106 -0.00191563937466 -0.000337814861688)
(0.000967599167419 -0.00194913572528 -0.000253320933878)
(0.000292627218772 -0.00192768455665 -0.000217557181063)
(-0.000372035418358 -0.00186091735892 -0.000230335897693)
(-0.000948871609373 -0.00175594354589 -0.00028438929074)
(-0.00138112518322 -0.00161775597673 -0.00036454318615)
(-0.00163173640248 -0.00145190842201 -0.000456753254313)
(-0.00168412722238 -0.00126453523968 -0.000549249567026)
(-0.00153251021371 -0.00106928493437 -0.00063111131562)
(-0.00119461513287 -0.000891625459335 -0.00068542453517)
(-0.000729877871677 -0.000757851899587 -0.000681301640403)
(-0.000177124087705 -0.000678250323964 -0.000531941029549)
(7.53965546157e-05 -0.000646199733004 -0.000133592990452)
(6.597264844e-06 -0.000450638928284 -0.000256502925642)
(0.000370405291919 -0.000358140109388 -0.00060554940969)
(0.00102086790104 -0.000348618104954 -0.000728178441675)
(0.00155239550243 -0.000400293183827 -0.000712794850638)
(0.00190513898775 -0.000503429304042 -0.000638310726169)
(0.00200463101907 -0.000624512393304 -0.000533215681624)
(0.00184945523773 -0.000730030040274 -0.000422969070495)
(0.00147103189432 -0.000805704585312 -0.000322927342024)
(0.000933524219287 -0.00084148311807 -0.000251604774375)
(0.000316503950441 -0.000839471909301 -0.000218402205597)
(-0.000296718137977 -0.000804218951309 -0.000224341686214)
(-0.000830743796522 -0.000739968593391 -0.000264005890812)
(-0.00123063405258 -0.000650558856629 -0.000325087683847)
(-0.00145997542565 -0.000543052617835 -0.000394443943317)
(-0.00150536265417 -0.000426909522542 -0.000461180796264)
(-0.00136509233232 -0.000315517651397 -0.000516886210897)
(-0.0010618526495 -0.000230337610174 -0.000548861095262)
(-0.000654644890831 -0.00019065300086 -0.000537231672925)
(-0.000185410433929 -0.000197529314356 -0.000423024912124)
(3.90592662602e-05 -0.000268013939959 -0.000138739342856)
(0.000104057680268 -9.80041465544e-05 -0.000222364611034)
(0.000464072211708 -9.99531286135e-07 -0.000255804499601)
(0.000985453716933 4.44152061735e-05 -0.00023517638736)
(0.00142210241251 5.81176078935e-05 -0.000169889698912)
(0.0017119232446 3.70925500978e-05 -9.17467440315e-05)
(0.00178727759561 -3.95395059771e-06 -1.26280999597e-05)
(0.00164710273886 -4.75132618339e-05 5.60924781035e-05)
(0.00131527891544 -8.54338743752e-05 0.000112683181707)
(0.000845736143372 -0.000108452979934 0.000146657539138)
(0.000303665183734 -0.000114938588744 0.000158940883715)
(-0.000237946946341 -0.000104978302757 0.000152743592134)
(-0.000711235033595 -8.03624785009e-05 0.000130797865473)
(-0.00106879319958 -4.37392527459e-05 9.47300959926e-05)
(-0.00127850777918 -6.2848459746e-07 5.03821989045e-05)
(-0.00132831037979 4.13886280391e-05 2.85265136179e-06)
(-0.00121739840216 7.52407570598e-05 -4.84668215678e-05)
(-0.000967385073852 8.91481305684e-05 -9.75278033164e-05)
(-0.000632623060893 7.45314829457e-05 -0.000135695997872)
(-0.000261200569737 3.76033978145e-05 -0.000138115213001)
(-3.6686505953e-05 -3.6867345232e-05 -9.72754790765e-05)
(0.000246898430711 0.000261464070946 -0.00101892838994)
(0.000769163242994 0.000323604214719 -0.00116930361649)
(0.00137675288151 0.000385665840411 -0.00117247846375)
(0.00186241084171 0.00045742718947 -0.00104817196656)
(0.00216276611101 0.000526982441747 -0.00085691261068)
(0.00221635310771 0.000584305251113 -0.000634587263806)
(0.00201437603986 0.000621869709577 -0.000415304682168)
(0.00158289139167 0.000640413682839 -0.000225938958883)
(0.000981885548413 0.00064377589165 -9.31445311258e-05)
(0.00029039511063 0.000637099429418 -3.14306922115e-05)
(-0.000407885329442 0.000622927454516 -4.2218421206e-05)
(-0.00103981587198 0.000602075634678 -0.000117209578685)
(-0.0015423923538 0.00057632232156 -0.000245193392275)
(-0.0018632039053 0.000543031546496 -0.000407401186611)
(-0.00197617468385 0.000501101937302 -0.000584366534631)
(-0.00187602702822 0.000449973267593 -0.000758602058487)
(-0.00158433537849 0.000393546509528 -0.00090500639059)
(-0.00115532556641 0.000335464363878 -0.000994529330727)
(-0.000638677867691 0.000280451250255 -0.000973946002732)
(-0.000202564491783 0.000219828743418 -0.000822912415793)
(0.000326755561874 0.000786387024883 -0.00115789227061)
(0.000888360760988 0.000874200789389 -0.00169892600265)
(0.00151222351657 0.000992623533225 -0.00185422065533)
(0.00200510741136 0.00115049873757 -0.00177776094082)
(0.00230023127252 0.00131730020669 -0.00157243354228)
(0.0023428301201 0.00146386863352 -0.00129777886292)
(0.00212215691698 0.00156966800417 -0.00100745094158)
(0.0016650806074 0.00162969784975 -0.00074840650787)
(0.00103200692126 0.00164879007246 -0.000560796524172)
(0.000303069982144 0.00163614208142 -0.000468537980991)
(-0.000434975003934 0.00160030679166 -0.000477661900284)
(-0.00110151416637 0.00154466975646 -0.000579128588304)
(-0.00162966593611 0.00147013827798 -0.000753738766737)
(-0.00196846019007 0.00137437281017 -0.000973776120655)
(-0.00209117978014 0.00125745467893 -0.00120692042366)
(-0.00199539884049 0.00112349021619 -0.00141944104834)
(-0.00170483068238 0.000984822628083 -0.0015715102356)
(-0.0012698026216 0.000857171851653 -0.00161483592225)
(-0.000740397294013 0.00075704203564 -0.00145990080414)
(-0.000274961091655 0.000672236910258 -0.000963842549135)
(0.000397599395271 0.00137733895925 -0.00116867460724)
(0.00102249640166 0.00148469652099 -0.00187006231553)
(0.0016893925814 0.00164838394896 -0.00204261224869)
(0.0021914540913 0.00186846252571 -0.00190446134146)
(0.00246870191363 0.00210301935802 -0.0016048837874)
(0.00247694034739 0.00231094227993 -0.00123317894393)
(0.00221413567173 0.00246377200174 -0.000861128435884)
(0.00171531460685 0.00255224821022 -0.00054494689867)
(0.0010452056951 0.00258130981871 -0.00032562325301)
(0.000284813367666 0.00256218643505 -0.000224890794318)
(-0.00048041372299 0.00250631782081 -0.000245890728534)
(-0.00117101745673 0.00241995772162 -0.000377402499351)
(-0.00172117240272 0.0023052578155 -0.00059818819393)
(-0.00208099476092 0.00216065195989 -0.000878757299403)
(-0.00222241517535 0.00198833325098 -0.00118395273735)
(-0.00214065953694 0.00179568205997 -0.001473322382)
(-0.00185535339169 0.00159991727404 -0.00169572851312)
(-0.00141014572613 0.00142387445166 -0.00178265864602)
(-0.000847799651853 0.00129009154572 -0.0016093475321)
(-0.000335406849126 0.00118819414572 -0.000977310940925)
(0.000473787346078 0.00186739266318 -0.0010641247416)
(0.00118932610878 0.00198803399361 -0.00182659177021)
(0.0019173164095 0.00216656020074 -0.00194103726172)
(0.00243436741067 0.00240639288912 -0.0016760343501)
(0.00268649930068 0.00266079655318 -0.0012342055663)
(0.00264407484866 0.00288436236827 -0.0007392378725)
(0.00232030308149 0.00304633540669 -0.000279553945927)
(0.00176366687634 0.0031378297869 8.50214380443e-05)
(0.00104596150929 0.00316264838449 0.000320988750247)
(0.000248918515376 0.00313389428505 0.000415676883138)
(-0.000544901414129 0.00306467752167 0.000372804475821)
(-0.0012605889349 0.00296302661348 0.000206858108413)
(-0.00183651695035 0.00283129501391 -6.1385622985e-05)
(-0.00222374770584 0.00266936347137 -0.000405362618315)
(-0.00239119394999 0.00247944591356 -0.000792503129438)
(-0.00232892331352 0.00226948325147 -0.00118080051079)
(-0.00204856060629 0.0020579431014 -0.00150959243711)
(-0.00158456589215 0.00186955408656 -0.0016890470799)
(-0.00097405516774 0.00172808003599 -0.00155759231238)
(-0.000394074228344 0.00161531122893 -0.000878463880214)
(0.000547740385933 0.00219225938159 -0.000895141191149)
(0.00136457211479 0.00231622939418 -0.00165723556359)
(0.00216031213124 0.00248443070304 -0.00168039488496)
(0.00269348613501 0.00270621118067 -0.00127238171326)
(0.00291623281346 0.00293777887767 -0.000686494187903)
(0.00281578357665 0.00313653325117 -7.88396980375e-05)
(0.00242479916611 0.00327625161042 0.000449734635558)
(0.00180491717141 0.00334868655548 0.000843195785484)
(0.00103557986303 0.0033575285005 0.00107753182241)
(0.000201277166487 0.00331761390902 0.00115406459961)
(-0.000619814896352 0.00324280845595 0.00108500829756)
(-0.00135929759566 0.00314184740335 0.000888434534579)
(-0.00195978199226 0.00301664519983 0.00058267643626)
(-0.0023738695707 0.00286725734308 0.000188751551824)
(-0.00256868892396 0.00269416641853 -0.000266397378723)
(-0.00252717370736 0.00250466018691 -0.000743689515497)
(-0.00225100217368 0.00231410341316 -0.00117626456251)
(-0.00176444997593 0.0021441361824 -0.00145589349074)
(-0.00110000916186 0.0020145979475 -0.00138993768708)
(-0.000446117769083 0.00189927894471 -0.000718039150439)
(0.000610368079754 0.00228868962339 -0.000688830854198)
(0.00152162632592 0.00240956027484 -0.00141083062047)
(0.00238073070762 0.00255045474882 -0.00133794058072)
(0.00292757271179 0.00272891221716 -0.000803457736236)
(0.00312002182635 0.00290993653315 -0.000102098848873)
(0.00296369555813 0.00306042500116 0.000585075516871)
(0.0025088391458 0.00315886052174 0.00114962691464)
(0.00182867429004 0.0031993303588 0.0015446540623)
(0.00101254605104 0.00318645305851 0.00175837116017)
(0.00014734511875 0.00313654349109 0.00180696636657)
(-0.00069382704111 0.00306373566856 0.00171250266211)
(-0.00144994321539 0.00297673227132 0.00149568559986)
(-0.00206928369065 0.00287620921504 0.00117111647552)
(-0.00250629025469 0.0027602199604 0.000751651884989)
(-0.00272482793699 0.00262743332325 0.000256217592246)
(-0.00270144563277 0.00248243108058 -0.000280587701582)
(-0.00242887977435 0.00233654459817 -0.000790806364296)
(-0.00192093947033 0.00220451582754 -0.00115359431163)
(-0.00120651968764 0.00209923302328 -0.00115464972246)
(-0.000486243172298 0.00198719955738 -0.000524884880989)
(0.000653729397686 0.00213647209714 -0.000476426784563)
(0.00164031713151 0.00224593890323 -0.00113617054178)
(0.00255105573379 0.00235052264442 -0.000979797795396)