/*--------------------------------*- C++ -*----------------------------------*\
| =========                 |                                                 |
| \\      /  F ield         | OpenFOAM: The Open Source CFD Toolbox           |
|  \\    /   O peration     | Version:  3.0.1                                 |
|   \\  /    A nd           | Web:      www.OpenFOAM.org                      |
|    \\/     M anipulation  |                                                 |
\*---------------------------------------------------------------------------*/
FoamFile
{
    version     2.0;
    format      ascii;
    class       surfaceVectorField;
    location    "3.1";
    object      Uf;
}
// * * * * * * * * * * * * * * * * * * * * * * * * * * * * * * * * * * * * * //

dimensions      [0 1 -1 0 0 0 0];

internalField   nonuniform List<vector> 
22672
(
(0.000303441630726 7.31504295113e-05 -0.000276994199084)
(6.37347254243e-05 0.000317355817326 -0.000273633018244)
(0.000181455049515 0.000194290695051 -0.000620798777864)
(0.000806154637814 -6.3729824704e-06 -0.000283882411313)
(0.000460947020033 0.000207465644113 -0.000479199176269)
(0.000639154038915 0.000171567270099 -0.000710180096673)
(0.0013317528948 -3.92545440305e-05 -0.000237672574125)
(0.00110956624734 0.000173326339204 -0.000533503020362)
(0.00123196044265 0.000176998222818 -0.000698926026953)
(0.00174121208738 -3.39724051007e-05 -0.000160642652939)
(0.00164559546728 0.000192645743018 -0.000489828011627)
(0.00171634826397 0.000205732217956 -0.000602106289063)
(0.00194680414439 2.80310084125e-06 -7.5949740724e-05)
(0.00200468378134 0.000261142987661 -0.000407733729363)
(0.00202802144207 0.000253050837865 -0.000466736289169)
(0.00190947466921 5.31883766721e-05 3.82359027752e-06)
(0.00210543422907 0.000353814204513 -0.000308142978419)
(0.0020971660931 0.000306022567084 -0.00031648585366)
(0.00164132841768 0.000103017847021 7.16652419295e-05)
(0.00194250894614 0.000442294942421 -0.000211055656698)
(0.00191719741831 0.000350908967074 -0.000174149700284)
(0.00118102984311 0.000142909737165 0.000122043419885)
(0.00154286259222 0.000514332325795 -0.000124983590572)
(0.00151278139602 0.000383893484162 -5.40346639339e-05)
(0.000593463088779 0.000165375301147 0.000148877065597)
(0.000966635449226 0.000558188411062 -6.48251593807e-05)
(0.000941945895092 0.000401728916821 2.93775000432e-05)
(-4.70043352418e-05 0.000168218726234 0.000153701343443)
(0.00029179039311 0.000571031493061 -3.72848114105e-05)
(0.000279616514148 0.000404671700834 6.94351261089e-05)
(-0.000663137929004 0.000152025798896 0.000140442131715)
(-0.000396457648216 0.000555087500058 -4.08367146096e-05)
(-0.00039271313001 0.000394121965782 6.10452980569e-05)
(-0.00118397703036 0.00011830759193 0.000108736022593)
(-0.0010164694205 0.000512029181344 -7.23088961809e-05)
(-0.000999368898952 0.000370966765188 8.80911130586e-06)
(-0.00155736616661 7.1852854033e-05 6.02348773168e-05)
(-0.00150399487034 0.000444908991846 -0.000129602603959)
(-0.00147955772465 0.000337112122801 -7.15206900207e-05)
(-0.00174299409914 2.12078820196e-05 1.26765438327e-06)
(-0.00180584419282 0.000361914039726 -0.000203562446248)
(-0.00178253008282 0.000295001706748 -0.000176286970733)
(-0.00172447327317 -2.50113676155e-05 -6.5184393968e-05)
(-0.00189210164355 0.000274306867504 -0.000283845283462)
(-0.00188112191885 0.000248860462642 -0.000292828582828)
(-0.00150518725443 -5.49802772272e-05 -0.000134628404514)
(-0.00175311437679 0.000193086324211 -0.000364715279369)
(-0.00176902099526 0.000202229893655 -0.000412373250866)
(-0.0011264415551 -5.51906830538e-05 -0.000197147214937)
(-0.00140809009845 0.00013951692304 -0.000431011635177)
(-0.00146625663191 0.000165062589285 -0.000518263539025)
(-0.000665364196963 -2.27571238509e-05 -0.000232560344612)
(-0.000927698617022 0.000130013156644 -0.00046380175491)
(-0.00103408614255 0.000144690212355 -0.000591091445311)
(-0.000239280415939 4.86012009106e-05 -0.00022055113811)
(-0.000365540331596 0.000163574258452 -0.000409593252554)
(-0.000525327604639 0.000140846029157 -0.000589659017801)
(-3.62790234664e-05 0.000259213552473 -0.000217980553962)
(-0.000143267606099 0.0001581132692 -0.00049849462173)
(0.000201524368804 0.000471082066884 -0.000475837995429)
(-1.48385377291e-05 0.000816987765729 -0.000276806348388)
(0.000169220517676 0.000655995142441 -0.000701157726573)
(0.00078285364493 0.00040865196489 -0.000728819785319)
(0.000406864619683 0.000776637758946 -0.000731483196224)
(0.000650723261714 0.000645620925525 -0.00115050286604)
(0.00142742557259 0.000428628244664 -0.000785658457865)
(0.00118512568313 0.000817681244811 -0.000886736403206)
(0.00132231979902 0.000696841505876 -0.00128892826678)
(0.00192732174421 0.000515231549092 -0.000736919088051)
(0.0018133686669 0.000934020681667 -0.000861162875371)
(0.00186281050922 0.00080389883261 -0.00124127244609)
(0.00218261477639 0.000644841760141 -0.000639926967058)
(0.00222693976078 0.00110706788464 -0.000760079105464)
(0.00220715470658 0.000945914404154 -0.00110121913778)
(0.00215414813185 0.000780314404322 -0.000523022225395)
(0.0023409582055 0.00129424480185 -0.000622229836288)
(0.00228567328604 0.00109028938922 -0.000911965024877)
(0.00185547399912 0.000894466832625 -0.000407704489199)
(0.00215340510384 0.00145344821844 -0.000479965742526)
(0.00209000364 0.00120762054331 -0.000712480086766)
(0.00133451247639 0.000972743744558 -0.000311852169837)
(0.00170175265951 0.00156842440789 -0.000352849825601)
(0.00164904879293 0.0012873651795 -0.000533131396798)
(0.000667066346346 0.00100788059886 -0.000250987036388)
(0.00105579426373 0.00162861844933 -0.000261111697884)
(0.00102531842288 0.00132544882344 -0.000402984672707)
(-5.89282463965e-05 0.00100142890852 -0.000231822869463)
(0.000305202622646 0.00163580386283 -0.00021616906615)
(0.000301564162293 0.00132570128743 -0.000338778506565)
(-0.000755921655201 0.000957123090018 -0.000253587742505)
(-0.000456494780791 0.0015966374467 -0.000220587372481)
(-0.000433217084833 0.00129473047037 -0.000344557268436)
(-0.00134580228031 0.0008782015745 -0.000310647522733)
(-0.00114271170741 0.00151592065739 -0.000269764330274)
(-0.00109612004583 0.00123565842733 -0.000414011610502)
(-0.00176492947742 0.000771074676584 -0.000393399927524)
(-0.00168170319221 0.00139828678683 -0.000354763635714)
(-0.00161876688734 0.00115073299738 -0.000534251402684)
(-0.00196872148476 0.000646868530081 -0.000488675384094)
(-0.00201475260428 0.00125191827882 -0.00046313595834)
(-0.00194705459427 0.00104338532496 -0.000686213086512)
(-0.00193533132594 0.000519343320254 -0.000583376168863)
(-0.00210813667412 0.00108820106984 -0.000579654022003)
(-0.0020518664114 0.000920179422861 -0.000847285261691)
(-0.00166812559982 0.000409683734323 -0.000661098510032)
(-0.00194679019154 0.000921428504425 -0.000689889691499)
(-0.00192605977834 0.000790396387532 -0.000995548842605)
(-0.00120789632818 0.000343514808068 -0.00069766617515)
(-0.0015487118785 0.000780964646956 -0.000769506588803)
(-0.00159150289215 0.000674167276729 -0.00110167795339)
(-0.00064176233298 0.000333975943355 -0.000640834662852)
(-0.000987453765417 0.000692846291785 -0.000784236470682)
(-0.00110995203158 0.000591017636578 -0.00112896810381)
(-0.000147268048174 0.000390730337405 -0.000407022668405)
(-0.000313354992498 0.000663660637923 -0.00063999725773)
(-0.000532009077393 0.000550659113181 -0.000994581660355)
(3.39736906855e-05 0.00069415508201 -0.000225675689049)
(-0.00013258604455 0.000555181704807 -0.000582210221052)
(0.000168811109238 0.00110515192099 -0.000532451549183)
(-5.0296998956e-05 0.00134133928781 -0.000231812701039)
(0.00017837759188 0.0012354984598 -0.00069316392202)
(0.000831322043299 0.00116465686432 -0.000889399814112)
(0.000428339927301 0.00141324262441 -0.00079834127982)
(0.000711913334271 0.00130098880895 -0.00129911711216)
(0.00157183927935 0.00129925111187 -0.000962240820712)
(0.00132708379988 0.00154633364817 -0.000971609303294)
(0.00146394170147 0.00143063105373 -0.00146917088642)
(0.00213279552745 0.00149903167283 -0.000884322892784)
(0.00203220858254 0.00175649302984 -0.000905725175916)
(0.00204861812399 0.00162755924266 -0.00138342972703)
(0.00240539696306 0.00172664512138 -0.000742381974694)
(0.00247483319401 0.00201236913143 -0.000745654250681)
(0.00240309656291 0.001857813545 -0.00117790366834)
(0.00235691402672 0.00193498881492 -0.00057917335342)
(0.00257245255327 0.00226175553311 -0.000550004402851)
(0.00246276525565 0.00207648449632 -0.000919028627132)
(0.00201125553026 0.00209313683759 -0.000425111078928)
(0.00233655887508 0.00245847542645 -0.00036158636048)
(0.00222773975253 0.00224658849712 -0.000659369399887)
(0.00142888312461 0.00218886528389 -0.000302109353649)
(0.00181968791453 0.00258807758302 -0.000204878436583)
(0.00173769999185 0.00235532759354 -0.000437281341177)
(0.000695462989776 0.00222078491986 -0.000226293727647)
(0.00110440144599 0.00264448852765 -9.73268624437e-05)
(0.0010626544202 0.00240111169855 -0.000282450439513)
(-9.43808031165e-05 0.00219583456265 -0.000204933569167)
(0.00028853352685 0.00263694441831 -4.91477546636e-05)
(0.000290211663599 0.00239222513746 -0.000211297231212)
(-0.000849424933498 0.00212159339511 -0.000236763960249)
(-0.000531894697382 0.00257606537675 -6.0796014145e-05)
(-0.000488932703265 0.00233866858474 -0.000224384287855)
(-0.00148837554602 0.00200398689688 -0.000313880443254)
(-0.00126971724669 0.00246972083664 -0.000126118040453)
(-0.00119103884524 0.0022468753691 -0.000314850111932)
(-0.00194423679451 0.00184934197833 -0.00042449966653)
(-0.00185145383227 0.00232244982618 -0.000234711064439)
(-0.00174640821547 0.00212053910081 -0.000468302415788)
(-0.00216896388653 0.0016659903233 -0.00055411459625)
(-0.00221648386782 0.0021406587175 -0.000375314958639)
(-0.00210003820144 0.00196257580339 -0.000664014058453)
(-0.00213490482159 0.00146566385112 -0.000686167544639)
(-0.00232653509587 0.00193137188325 -0.000531957621194)
(-0.00221998026956 0.00177871793675 -0.000877230671485)
(-0.00184050389779 0.00127072189521 -0.00079829777027)
(-0.00215880152572 0.00170729043007 -0.000687405364394)
(-0.00209476407909 0.0015797622236 -0.00108026370953)
(-0.00132297470942 0.00111072554509 -0.000856076884334)
(-0.00172455798791 0.00149873567881 -0.000811329769761)
(-0.00174223516463 0.00138957888332 -0.00123530112676)
(-0.000675974171398 0.0010052595766 -0.000783399065559)
(-0.00109612685855 0.00133507263011 -0.000855645038282)
(-0.00122121759359 0.00123388274466 -0.00128922781483)
(-0.000115961191701 0.000953105420856 -0.000458650278373)
(-0.000323974615246 0.00122921452721 -0.000694959112758)
(-0.000577777462864 0.00112920733746 -0.00112556783201)
(6.61684979141e-05 0.00115670118883 -0.000186572806858)
(-0.000139537732078 0.00106384803996 -0.000578507912142)
(0.00018567543084 0.00164429258979 -0.000497702431676)
(-4.91914875611e-05 0.00176309878182 -0.000158502320174)
(0.000207434695115 0.0017247003376 -0.000607435977097)
(0.000949278062046 0.00179309215888 -0.000880550769003)
(0.000512936333844 0.00192419752023 -0.000765476359248)
(0.000822853957112 0.00184722970853 -0.0012745585573)
(0.00178679905984 0.00200325646223 -0.000915093658498)
(0.00153017525699 0.00211899128877 -0.000913744816599)
(0.00166691548396 0.00202308580128 -0.00141017957842)
(0.00239642442389 0.00226908070331 -0.000767056533813)
(0.00230230065182 0.00237901135606 -0.000777940643405)
(0.00229624618151 0.00226656215127 -0.00123214449386)
(0.00266407318229 0.00254486304532 -0.000553276678838)
(0.00275434981349 0.00266610198654 -0.000539869006397)
(0.00264804490902 0.00253603767154 -0.000921382252272)
(0.00257036737777 0.0027806057339 -0.000332417409912)
(0.00281222520832 0.00292650074663 -0.000279002405862)
(0.00266760066264 0.00278136734391 -0.000571039874065)
(0.00215744355931 0.00294681862881 -0.000141353718135)
(0.00250874409837 0.00311869712476 -4.8659973947e-05)
(0.00237204390127 0.00296461896579 -0.00024729818348)
(0.00150081060444 0.00303573444747 -9.59453785119e-08)
(0.00191401396868 0.00323124101569 0.000130230681463)
(0.00181613079368 0.00307440190432 1.34693465857e-05)
(0.000698713009791 0.0030524227533 7.98191105393e-05)
(0.00112625809555 0.00326671893615 0.00024288523072)
(0.00108082105736 0.00311177691434 0.000179867087327)
(-0.000151561717966 0.00300931019989 9.49898003588e-05)
(0.000249320707243 0.00323942336808 0.000285200619186)
(0.000257822015769 0.00308919650049 0.000247795694414)
(-0.000958673908145 0.00291744758751 4.98499056512e-05)
(-0.000621674316727 0.00316434150069 0.000262053773527)
(-0.000563486829574 0.00301973867952 0.000218835936885)
(-0.00164351786687 0.00278360555738 -4.69486616377e-05)
(-0.00140303789412 0.00305108930343 0.000181027780245)
(-0.00130248668895 0.0029119436137 0.000103475267256)
(-0.00213725552767 0.00261165433642 -0.000185526356549)
(-0.00202399428573 0.00290332582537 5.09602295966e-05)
(-0.00189170785272 0.00276923142021 -8.71386889787e-05)
(-0.00239053967334 0.00240617431625 -0.000353157983584)
(-0.00242355400273 0.00272104465026 -0.000118775605121)
(-0.00227616102173 0.00259317265202 -0.000327102273393)
(-0.00236752585693 0.00217551725268 -0.000533195440949)
(-0.00255812720507 0.00250834293448 -0.000313926210776)
(-0.00241999724725 0.00238783720012 -0.000599985481793)
(-0.00205744046734 0.00193951982834 -0.000700437363885)
(-0.00239598726421 0.00227308934179 -0.000519657170234)
(-0.00230459166927 0.00216260424807 -0.000875885023172)
(-0.00149011954068 0.00172738317525 -0.000810897923709)
(-0.00193737607757 0.00204113723455 -0.000700532390508)
(-0.00193904967386 0.00194115335042 -0.00110972328358)
(-0.000763118065412 0.00156149678307 -0.000767205085481)
(-0.00124940993341 0.001839689502 -0.00079594009157)
(-0.00137595541592 0.00175060511407 -0.00123161920338)
(-0.000124717131135 0.00143182299877 -0.000422881641243)
(-0.000385040315722 0.00168399836097 -0.000654854194159)
(-0.000659517739907 0.00161044805204 -0.00109318565898)
(6.72145592676e-05 0.00153126581921 -0.000120055382292)
(-0.00016005379085 0.00149387620653 -0.000499282324307)
(0.000250501718059 0.00202428244952 -0.000426276247746)
(-1.6641085851e-05 0.00199753486209 -7.74181660102e-05)
(0.000254686379435 0.00205861218831 -0.000484938538192)
(0.00112223681629 0.00223002722579 -0.000798670406844)
(0.000640640733308 0.0022126422525 -0.000684333245405)
(0.000967699992495 0.0022190336622 -0.00116018050599)
(0.00204557351782 0.00247253584535 -0.000776591801506)
(0.00176153661419 0.00242944906962 -0.000791439029147)
(0.00190258277533 0.00241034225164 -0.00123379504259)
(0.00268512927383 0.00275137481875 -0.000550753115988)
(0.00258332372377 0.00268976070027 -0.000583634720747)
(0.00256972516164 0.00265643514312 -0.000950305502383)
(0.00292683584237 0.00302121760145 -0.00026559473342)
(0.00302621867801 0.00295643368928 -0.000273383748393)
(0.00290631115285 0.00291580862124 -0.00053203848676)
(0.00277078938917 0.00323654045281 4.75503010283e-06)
(0.00302831054948 0.00318270168676 3.84529197944e-05)
(0.00287187216385 0.00314147260402 -0.000100154507129)
(0.00227824774218 0.00337398846131 0.000222924425652)
(0.00264789702077 0.00333365742411 0.000296704606838)
(0.00250518319448 0.00330047616893 0.000277581507369)
(0.00154499821661 0.00343264423615 0.000373211857562)
(0.00197371018362 0.00340715703754 0.000484584507764)
(0.00187678606349 0.00338514066707 0.000557333802817)
(0.000677728146811 0.00342399106661 0.000448266739367)
(0.00111964815326 0.00340996648506 0.000589818584023)
(0.00107970587342 0.00339993030738 0.000724022896591)
(-0.000223997532242 0.00336523771032 0.000452264592355)
(0.000193390375464 0.00336256542562 0.000619506767169)
(0.000209295648867 0.00336110742945 0.000778583997597)
(-0.00107294863868 0.00326977405266 0.000393231648121)
(-0.000713967725619 0.00328246046968 0.000583901660464)
(-0.000648292872901 0.00328394892442 0.000730832437458)
(-0.00179489276876 0.00314375601454 0.000278936671479)
(-0.00152583260814 0.00317963799399 0.000491834132587)
(-0.00141833278961 0.00317786152155 0.000593395600746)
(-0.00232500179821 0.00298733962804 0.000117710981024)
(-0.00217762467632 0.0030547755988 0.000348455771527)
(-0.00203805383227 0.00304491850315 0.000378659239357)
(-0.00260945827836 0.00280018447867 -7.95438323135e-05)
(-0.00260911954267 0.00290425440589 0.000160961847584)
(-0.0024533293753 0.00288419729979 0.000101246517538)
(-0.00260570420332 0.00258520862338 -0.000300387940061)
(-0.00277153679846 0.00272654770893 -6.03472067331e-05)
(-0.00262449269263 0.00269656562202 -0.000221959236273)
(-0.0022921645309 0.00235624916723 -0.000519752196857)
(-0.00262430948446 0.00252244866529 -0.000304537589917)
(-0.00252501193075 0.00248798302938 -0.00056289953592)
(-0.00168848646305 0.00213717496786 -0.00068557455837)
(-0.00215451361357 0.00231120066903 -0.000534375004803)
(-0.00215273518895 0.00227767981277 -0.000873742158773)
(-0.000892313378616 0.00194769628865 -0.000683589200249)
(-0.00142137633124 0.00211340335603 -0.000679338614853)
(-0.00155159498923 0.00208880558448 -0.00106988767657)
(-0.000173003006423 0.00177008089515 -0.000352027935209)
(-0.00048047235007 0.00194176218687 -0.000570023854226)
(-0.000764980632685 0.00193863870564 -0.000977074983841)
(4.10173498702e-05 0.00174293386501 -4.63138393249e-05)
(-0.000193923447799 0.00178891803777 -0.000384671544485)
(0.000340642036896 0.00216561095054 -0.000335475163668)
(3.10346807138e-05 0.00200067464875 7.30229877837e-07)
(0.000308369577885 0.00216774924045 -0.000343782218347)
(0.00131164119914 0.00239113219897 -0.000677101867708)
(0.000777275870179 0.00223331863216 -0.000579166883403)
(0.00111682809634 0.00234488903814 -0.000991675835252)
(0.00230120168948 0.00262374201014 -0.000598481948389)
(0.0019778096097 0.00243754264462 -0.00064234821173)
(0.00213007577151 0.00252399403538 -0.000997654219955)
(0.00295152912566 0.00286976666383 -0.000306265353152)
(0.00282951610428 0.00266016397828 -0.00037552700844)
(0.002823916279 0.00273703445826 -0.000620730689674)
(0.00315434799315 0.00309059505395 3.06639048219e-05)
(0.00324939413796 0.00287230496023 -1.391066796e-05)
(0.00313670632871 0.00294970190766 -0.000118689905949)
(0.00292687211577 0.00325075907183 0.00033040249653)
(0.00319008733689 0.00303472146285 0.000327660403912)
(0.00304354148921 0.0031236694061 0.00037545654976)
(0.00235640217889 0.00333688854004 0.000558364688951)
(0.00273572599663 0.00312782994361 0.000596374698785)
(0.00260552483893 0.00323447193115 0.000776298063304)
(0.00155376044101 0.00335405501705 0.000701191234225)
(0.00199151383517 0.00315327241526 0.000776036857722)
(0.00190841851787 0.00327945722928 0.00105652715607)
(0.00063563548666 0.00331835749023 0.000761058611824)
(0.00108536821717 0.0031219986282 0.000863110854965)
(0.00105762354848 0.00326567476073 0.00120609368335)
(-0.000300292603039 0.00325022284604 0.000751143835277)
(0.000127991857027 0.00305892237623 0.000875911157448)
(0.000151249371208 0.00321260369103 0.00123957199715)
(-0.00117414608895 0.00316364939749 0.000682504144929)
(-0.000796670271271 0.0029825635298 0.000829206012004)
(-0.00073007843736 0.00313639224172 0.00117375117835)
(-0.00192004713454 0.00306325299005 0.000561353232635)
(-0.00162207007883 0.00290233918369 0.000732846031146)
(-0.00151978375958 0.00304629979711 0.00102320042722)
(-0.00247764351821 0.00294585483874 0.000391706638087)
(-0.00229157665247 0.00281599844047 0.000589038059723)
(-0.00216154335679 0.00294236752969 0.000796373884563)
(-0.00279088193373 0.00280635453847 0.000180158473164)
(-0.0027471663547 0.00271574866682 0.000398450133391)
(-0.00260282504381 0.00282074754611 0.00050174425313)
(-0.00281113326229 0.00264143201125 -6.44968565893e-05)
(-0.00293543483976 0.00259458756956 0.000167272588376)
(-0.00280006387631 0.00267856497849 0.000152211335339)
(-0.00250439033183 0.00245727121165 -0.000319160397863)
(-0.00280810808692 0.00244838732321 -9.76846250882e-05)
(-0.00271903380199 0.00251702553694 -0.00023268191967)
(-0.00188002521858 0.00226948678761 -0.000528139061285)
(-0.00233870445074 0.00228696713751 -0.000358792651169)
(-0.00234623854994 0.00234909515132 -0.000600132066978)
(-0.0010323993809 0.00209134658283 -0.00056577326883)
(-0.00157777563607 0.00212345255798 -0.000541406128943)
(-0.00171605288147 0.00219047362823 -0.000857675633751)
(-0.000242142714316 0.00189924316011 -0.000264309758343)
(-0.000582478341353 0.0019648329995 -0.000465305161976)
(-0.000871185479236 0.00205252797167 -0.000813328134269)
(1.69245599748e-06 0.00175473596202 2.41970174128e-05)
(-0.000232374036505 0.00188991418369 -0.000253945217798)
(0.000429881539773 0.00205064158307 -0.000242961489857)
(8.0537215318e-05 0.00177557460527 6.95497385235e-05)
(0.000355402026288 0.00203394467135 -0.000204781554981)
(0.00147806699554 0.00226113209194 -0.000544413227426)
(0.000896860786373 0.0019891514189 -0.000469699725797)
(0.00124228586982 0.00220430551636 -0.000804018171846)
(0.00251022735382 0.00245379466303 -0.000419393271781)
(0.0021492329818 0.00215502657657 -0.000494636326266)
(0.0023143183027 0.00235129058532 -0.000749644061713)
(0.00315639324149 0.00264067608407 -8.31723232477e-05)
(0.00301285692649 0.00231835031631 -0.000187330888685)
(0.00302282010447 0.00251106599463 -0.000304351800381)
(0.00331362815346 0.00279322881658 0.00028308583113)
(0.00340212454076 0.00245963896169 0.000203835311386)
(0.00330819185444 0.00266035822006 0.000255431737594)
(0.00302100706062 0.00288789574698 0.000593632606166)
(0.00328572632322 0.0025526068191 0.000556640487468)
(0.00316044386286 0.00277109090279 0.000774736620709)
(0.00238404839389 0.00291983738814 0.000814046867555)
(0.00276887371403 0.00258729807627 0.000818504733906)
(0.00266034783959 0.00282793355313 0.00117749163035)
(0.00152802060484 0.00289705937963 0.000937956478462)
(0.00196976768569 0.00256979763104 0.000978521812088)
(0.00190676511696 0.00283221681817 0.001439503829)
(0.000577625679284 0.00283886791762 0.000977963400589)
(0.00102902921054 0.00251182323112 0.00104078902466)
(0.0010161777516 0.00279199966708 0.00156057165528)
(-0.000372589696549 0.00276810873507 0.000953973334174)
(5.99480857515e-05 0.00244084222556 0.00103417088742)
(8.94989245955e-05 0.0027296174139 0.0015682968339)
(-0.00125212135531 0.00269864424278 0.00087954789822)
(-0.000862849699624 0.00237499509192 0.000978463001236)
(-0.00079973394266 0.0026612907125 0.00148710127435)
(-0.00200522396067 0.00263299323127 0.000760530858233)
(-0.00168439302032 0.00232255369884 0.000884009450556)
(-0.00159456113558 0.00259552044997 0.00133288905089)
(-0.00257761561148 0.00256446972879 0.000595781555026)
(-0.00235745699179 0.00227892561254 0.000749563653233)
(-0.00224635216493 0.00252999343496 0.00110946516706)
(-0.00291242936977 0.00248357342476 0.000385564248602)
(-0.00282696941298 0.00223319390584 0.000569555519557)
(-0.00270485446731 0.0024577429019 0.000817368917184)
(-0.00295475297124 0.00238225823759 0.000134084819877)
(-0.00303552097951 0.00217427453639 0.000343552586343)
(-0.00292279991856 0.0023722911862 0.000462636756543)
(-0.00266150674416 0.0022601819532 -0.000137316878395)
(-0.00292884810711 0.00209409191987 7.39055999216e-05)
(-0.00285949818458 0.00227067429996 6.10490592718e-05)
(-0.00203055360044 0.00212478285785 -0.000372059718827)
(-0.002468128698 0.00199508673088 -0.000200997465434)
(-0.00249085601465 0.00215923364304 -0.000339073041754)
(-0.00115227463711 0.00198231669549 -0.000440938022089)
(-0.00169600627784 0.00188277986152 -0.000407317219229)
(-0.00184301094912 0.00204627760935 -0.000637606704792)
(-0.000310427552669 0.00180647925971 -0.000176798386221)
(-0.000670107765647 0.00175843045939 -0.000359826976911)
(-0.000957371231973 0.00193629215488 -0.000635445054767)
(-3.88361995185e-05 0.00157091247591 8.55773445258e-05)
(-0.000265501476696 0.001782696763 -0.000126604379566)
(0.00050595257381 0.00170006232719 -0.000157188497416)
(0.000122942915462 0.00135138747089 0.000124506364852)
(0.000391739382439 0.0016750056293 -8.17652094181e-05)
(0.00160494515435 0.00186902891054 -0.000419922824638)
(0.000985342938469 0.00151672722862 -0.000372821277116)
(0.00133323917845 0.00181732316206 -0.000626568014986)
(0.00265769996135 0.00200492902925 -0.000262573943171)
(0.00226410691994 0.00162922390723 -0.000369504908748)
(0.00244203943818 0.00192108184564 -0.000526951592369)
(0.00328928260843 0.00212210545779 9.96767459491e-05)
(0.00312580829227 0.00172633005642 -3.95267137564e-05)
(0.00315499900932 0.00202107710893 -3.95616336005e-05)
(0.00340367437605 0.00220342303065 0.000477389967725)
(0.00348370136388 0.00179710529264 0.000365459735792)
(0.00341330947595 0.00210473596342 0.000548142892108)
(0.0030560188114 0.00223639300887 0.000781512615207)
(0.00332092268957 0.00182832437255 0.000714168262314)
(0.00322018070922 0.00215449720168 0.00107193924622)
(0.0023678761661 0.00222182682729 0.000982979678439)
(0.00275630750304 0.00181721182031 0.000958876093742)
(0.00267138792549 0.00216293142084 0.0014582303589)
(0.00147535941831 0.00216914141908 0.00108135435829)
(0.0019187935558 0.00177135208156 0.00109452670105)
(0.00187614305545 0.00213428939067 0.00169096392204)
(0.000511104760993 0.00209838805629 0.0010969965115)
(0.000960262283784 0.00170145521496 0.00112704318163)
(0.000961125146036 0.00207614028349 0.00177462437722)
(-0.000434975520866 0.00203246344094 0.00105866055448)
(-3.64721166109e-06 0.00163353123737 0.00109914824672)
(2.99952086926e-05 0.00201191162428 0.00175339294216)
(-0.00130295481335 0.00198394684995 0.000982924553572)
(-0.000908919572431 0.00158327633975 0.00103621481474)
(-0.000852107185899 0.00195666387002 0.00165969957077)
(-0.00204843455816 0.00195392727823 0.000873042245556)
(-0.00171232653246 0.00155747247369 0.000949010294553)
(-0.00163823518835 0.0019177709063 0.00151056225365)
(-0.0026234568106 0.00193339819052 0.000723337617764)
(-0.00237683205358 0.00155108667248 0.000830743842451)
(-0.00228835529538 0.00189156099309 0.00130286217225)
(-0.00297156518201 0.00190990633611 0.000527543857298)
(-0.00285066755762 0.00155204936495 0.000670033944063)
(-0.00275469892764 0.00186843081965 0.00102925356764)
(-0.00303277520609 0.00187260012678 0.000283373366388)
(-0.00307295210326 0.00154790546371 0.000459893931357)
(-0.0029869191506 0.00183924326314 0.000687579442998)
(-0.00275571106978 0.00181634369169 1.02250128823e-05)
(-0.00298467736339 0.00152921230512 0.000197464384571)
(-0.00293905881618 0.00179802026895 0.00028781555574)
(-0.00212903531151 0.00174117231314 -0.000236254965836)
(-0.0025377536782 0.00149253647995 -7.99532967084e-05)
(-0.00257822594134 0.00174486429505 -0.000124125643012)
(-0.00123939556077 0.00164743567737 -0.00032620617405)
(-0.00176793423296 0.00143538040658 -0.00029651503797)
(-0.0019237936505 0.00168211352261 -0.000442240582756)
(-0.000367430007838 0.00151176663441 -9.74512461639e-05)
(-0.000731463151826 0.00135737445525 -0.000269735951335)
(-0.00101607611321 0.00160866216837 -0.000470909916356)
(-7.18790178109e-05 0.00122023529065 0.000132054861733)
(-0.000290117843631 0.00148385044024 -1.67530449032e-05)
(0.000558209171041 0.00116006968377 -9.1126414848e-05)
(0.000150416688674 0.000785244643169 0.000157997679222)
(0.000414080499809 0.00113568856533 7.93409794526e-06)
(0.00168293523259 0.00126874050457 -0.000322403361227)
(0.00103464605226 0.000879286111048 -0.000304329147852)
(0.00138540202499 0.00123279063447 -0.000487284354611)
(0.0027395745746 0.00134219134985 -0.000146457679334)
(0.00232008906685 0.000931337466096 -0.000283348986514)
(0.00251120732126 0.00128943503551 -0.000358752137834)
(0.00335176854792 0.00139281869383 0.000226256276087)
(0.00317182119273 0.000963698910782 5.5737763815e-05)
(0.0032207139828 0.0013329651092 0.000150438147138)
(0.00343111013953 0.0014137891822 0.000602238030382)
(0.00350380812405 0.000973665455546 0.000462594647298)
(0.00345589677018 0.00135918078687 0.000744099460851)
(0.00304332452162 0.00140126383124 0.000891531740849)
(0.0033097434307 0.000958743722554 0.000800486961698)
(0.00322980862917 0.0013609251261 0.00125736773172)
(0.0023208422817 0.00135899134154 0.00107042311636)
(0.00271530041509 0.000920453211883 0.00102772280212)
(0.00264762519216 0.00133619445374 0.00161924253976)
(0.00140814235886 0.00129592327193 0.0011402155244)
(0.00185712649279 0.000866013015527 0.0011408835323)
(0.00182607440863 0.00129064406427 0.00181804085225)
(0.000445371696205 0.00122897257615 0.00112919491686)
(0.000894950030238 0.000804125956643 0.00114655399498)
(0.000900671036776 0.00123059284677 0.00186010186592)
(-0.000482641174351 0.00117693933004 0.00107670250698)
(-5.38474816228e-05 0.000752813924889 0.00110031626902)
(-2.16924441613e-05 0.00117586291137 0.00180873209431)
(-0.0013264235351 0.00114968803776 0.00100230055572)
(-0.000934367956487 0.000722754914438 0.00103175632156)
(-0.000884769557828 0.00113841726109 0.0017043055433)
(-0.00205277799835 0.00114776156376 0.000906711891448)
(-0.0017128466149 0.00071865257101 0.00095217094551)
(-0.00165114225894 0.00112394087852 0.00156517586717)
(-0.00262061030873 0.00116296032176 0.00077744016875)
(-0.00236093461327 0.000737393495978 0.000850478904761)
(-0.00228960904491 0.00112902585768 0.00138152666707)
(-0.00297377993098 0.00118307052193 0.000602384018122)
(-0.00283059783838 0.000769952718231 0.000708692044965)
(-0.00275553552632 0.00114434501061 0.00113526710647)
(-0.0030486676252 0.00119721035006 0.00037398494954)
(-0.00305877781452 0.000805173682756 0.000516494089436)
(-0.00299565435234 0.00115997888102 0.000817619985917)
(-0.00278720356563 0.0011976153991 0.00010728607498)
(-0.00298356656578 0.000834923552475 0.000266264168385)
(-0.00296000452827 0.00116896644995 0.000432824918946)
(-0.00217380102119 0.00117899561396 -0.000140213368842)
(-0.002551360895 0.000850418129286 -6.77025019196e-06)
(-0.00260920859219 0.00116646129183 2.87158056524e-05)
(-0.00128625710606 0.00113801733559 -0.000240044815255)
(-0.001792562477 0.000846873711923 -0.000224063526919)
(-0.00195764448994 0.00115025708344 -0.000299037381368)
(-0.000403059682635 0.00105798823779 -4.02298434379e-05)