/*--------------------------------*- C++ -*----------------------------------*\
| =========                 |                                                 |
| \\      /  F ield         | OpenFOAM: The Open Source CFD Toolbox           |
|  \\    /   O peration     | Version:  3.0.1                                 |
|   \\  /    A nd           | Web:      www.OpenFOAM.org                      |
|    \\/     M anipulation  |                                                 |
\*---------------------------------------------------------------------------*/
FoamFile
{
    version     2.0;
    format      ascii;
    class       volVectorField;
    location    "0.5";
    object      U;
}
// * * * * * * * * * * * * * * * * * * * * * * * * * * * * * * * * * * * * * //

dimensions      [0 1 -1 0 0 0 0];

internalField   nonuniform List<vector> 
400
(
(0.000201536 -0.000202411 0)
(-3.3613e-06 0.000139706 0)
(-0.00128897 0.000508714 0)
(-0.00333839 0.000743856 0)
(-0.00582046 0.000860572 0)
(-0.00846731 0.000890415 0)
(-0.011059 0.000851329 0)
(-0.0133967 0.000746249 0)
(-0.0152795 0.000569352 0)
(-0.0164997 0.000316112 0)
(-0.0168623 -6.50128e-06 0)
(-0.0162258 -0.000373386 0)
(-0.0145546 -0.0007341 0)
(-0.0119677 -0.00102149 0)
(-0.00876391 -0.00116448 0)
(-0.00540208 -0.00110907 0)
(-0.00242563 -0.000841491 0)
(-0.000333939 -0.000407013 0)
(0.000555981 6.86885e-05 0)
(0.000338054 0.000320673 0)
(-0.000146983 -8.24548e-06 0)
(-0.00175331 0.00169037 0)
(-0.0056199 0.00331283 0)
(-0.0110139 0.00438787 0)
(-0.0172716 0.00492845 0)
(-0.02383 0.00501827 0)
(-0.0301708 0.00471298 0)
(-0.0358006 0.00402723 0)
(-0.0402348 0.00295516 0)
(-0.0430055 0.0015077 0)
(-0.0437087 -0.000248544 0)
(-0.0420807 -0.00216378 0)
(-0.0380943 -0.0039961 0)
(-0.0320438 -0.00543933 0)
(-0.0245766 -0.00618324 0)
(-0.0166495 -0.00600311 0)
(-0.00938032 -0.0048566 0)
(-0.00380059 -0.00295678 0)
(-0.000585802 -0.000821246 0)
(0.000187719 0.000588226 0)
(-0.000598936 0.00136801 0)
(-0.00378871 0.00567601 0)
(-0.0102372 0.00937557 0)
(-0.018665 0.0118221 0)
(-0.0281325 0.0130257 0)
(-0.0378946 0.0131185 0)
(-0.047241 0.0121965 0)
(-0.0554817 0.0102941 0)
(-0.0619413 0.00742438 0)
(-0.0659782 0.00365367 0)
(-0.0670474 -0.00082175 0)
(-0.0647962 -0.00562226 0)
(-0.0591801 -0.0101777 0)
(-0.0505671 -0.0137854 0)
(-0.0397894 -0.0157411 0)
(-0.0281075 -0.0155335 0)
(-0.0170384 -0.0130598 0)
(-0.00804448 -0.00878588 0)
(-0.00222627 -0.00380742 0)
(-0.000109892 4.05686e-05 0)
(-0.00100531 0.00385003 0)
(-0.00569958 0.0118853 0)
(-0.0146234 0.018212 0)
(-0.0258801 0.0222781 0)
(-0.0382516 0.0241906 0)
(-0.05086 0.0241635 0)
(-0.0628742 0.0223407 0)
(-0.0734805 0.0187775 0)
(-0.0818763 0.0135114 0)
(-0.0872889 0.00667801 0)
(-0.0890421 -0.00137109 0)
(-0.0866586 -0.00998868 0)
(-0.0799929 -0.0182133 0)
(-0.0693685 -0.0248573 0)
(-0.0556738 -0.0287052 0)
(-0.0403783 -0.0288276 0)
(-0.0253819 -0.0249524 0)
(-0.0126631 -0.0177618 0)
(-0.00393066 -0.00898326 0)
(-0.000376417 -0.00137567 0)
(-0.00135813 0.00732271 0)
(-0.00742097 0.0201376 0)
(-0.0186397 0.0295745 0)
(-0.0325162 0.0354329 0)
(-0.0475685 0.0380565 0)
(-0.0628202 0.0378035 0)
(-0.0773712 0.0348843 0)
(-0.0903397 0.0293723 0)
(-0.10084 0.0213159 0)
(-0.107988 0.0109018 0)
(-0.110959 -0.00138162 0)
(-0.109087 -0.0146239 0)
(-0.102017 -0.02746 0)
(-0.0898878 -0.0381485 0)
(-0.0735073 -0.0448242 0)
(-0.0544692 -0.045937 0)
(-0.0350815 -0.0408277 0)
(-0.0180012 -0.0302524 0)
(-0.00581269 -0.0165835 0)
(-0.000627714 -0.00366687 0)
(-0.00166181 0.0116744 0)
(-0.00893467 0.030253 0)
(-0.0222133 0.0432731 0)
(-0.0384623 0.0511066 0)
(-0.055971 0.0544774 0)
(-0.0737 0.0539634 0)
(-0.0907253 0.0498677 0)
(-0.106145 0.0422746 0)
(-0.119031 0.0312129 0)
(-0.128402 0.0168721 0)
(-0.133264 -0.000181967 0)
(-0.132701 -0.0188301 0)
(-0.126037 -0.0373245 0)
(-0.113066 -0.0533182 0)
(-0.0943378 -0.0641313 0)
(-0.0714312 -0.0673013 0)
(-0.0470402 -0.06142 0)
(-0.0246727 -0.0470318 0)
(-0.00815444 -0.0271274 0)
(-0.000926373 -0.00695528 0)
(-0.00191406 0.0167844 0)
(-0.0102112 0.0420011 0)
(-0.0252548 0.0590453 0)
(-0.0435587 0.0690491 0)
(-0.0632293 0.0732518 0)
(-0.0832017 0.0725305 0)
(-0.102573 0.0673117 0)
(-0.120472 0.0576809 0)
(-0.135971 0.0436043 0)
(-0.148027 0.0252008 0)
(-0.155478 0.00301704 0)
(-0.157127 -0.021729 0)
(-0.151882 -0.0469737 0)
(-0.139032 -0.06976 0)
(-0.118644 -0.0864395 0)
(-0.0920391 -0.0932798 0)
(-0.0621388 -0.0875876 0)
(-0.0333894 -0.0691702 0)
(-0.0113126 -0.0414634 0)
(-0.00135245 -0.0115405 0)
(-0.00210651 0.0225128 0)
(-0.0112057 0.0550958 0)
(-0.0276466 0.0765441 0)
(-0.047583 0.0889039 0)
(-0.0689857 0.0940543 0)
(-0.0908001 0.0932531 0)
(-0.112191 0.0870862 0)
(-0.132369 0.0756341 0)
(-0.150469 0.0587532 0)
(-0.165449 0.0364046 0)
(-0.176037 0.00899056 0)
(-0.180768 -0.0223209 0)
(-0.178105 -0.0552964 0)
(-0.166705 -0.086452 0)
(-0.145905 -0.111095 0)
(-0.116402 -0.123868 0)
(-0.0809644 -0.120093 0)
(-0.0448396 -0.0979543 0)
(-0.0156967 -0.0607972 0)
(-0.00200573 -0.0179301 0)
(-0.00223019 0.0286924 0)
(-0.0118737 0.0691913 0)
(-0.0292684 0.0953253 0)
(-0.0502876 0.110174 0)
(-0.0728041 0.116371 0)
(-0.0958044 0.115641 0)
(-0.118563 0.108776 0)
(-0.140435 0.0958563 0)
(-0.160698 0.076593 0)
(-0.178403 0.050706 0)
(-0.192283 0.0183202 0)
(-0.200713 -0.0196273 0)
(-0.201771 -0.0609589 0)
(-0.193452 -0.101877 0)
(-0.174149 -0.136734 0)
(-0.143487 -0.158326 0)
(-0.103446 -0.159222 0)
(-0.0595267 -0.134657 0)
(-0.0217626 -0.0866571 0)
(-0.00302097 -0.0268699 0)
(-0.00228587 0.0351364 0)
(-0.012206 0.0838919 0)
(-0.0300587 0.114844 0)
(-0.0514844 0.132192 0)
(-0.0742794 0.13944 0)
(-0.0974961 0.138873 0)
(-0.120562 0.131552 0)
(-0.143039 0.117587 0)
(-0.164437 0.0965311 0)
(-0.184033 0.0678092 0)
(-0.200726 0.0311544 0)
(-0.21293 -0.0129203 0)
(-0.218532 -0.0625783 0)
(-0.214979 -0.114065 0)
(-0.199637 -0.16112 0)
(-0.170654 -0.19477 0)
(-0.128381 -0.204224 0)
(-0.0774982 -0.180086 0)
(-0.0299903 -0.120755 0)
(-0.00459317 -0.0393856 0)
(-0.00229983 0.0416705 0)
(-0.0122803 0.0987995 0)
(-0.0301057 0.134485 0)
(-0.0511682 0.154123 0)
(-0.0731947 0.162223 0)
(-0.0953342 0.161748 0)
(-0.117213 0.154103 0)
(-0.138665 0.139482 0)
(-0.159525 0.11731 0)
(-0.179431 0.0867077 0)
(-0.19765 0.0469536 0)
(-0.212894 -0.0020238 0)
(-0.223174 -0.0590423 0)
(-0.225685 -0.120855 0)
(-0.216933 -0.18121 0)
(-0.193384 -0.229904 0)
(-0.15294 -0.25269 0)
(-0.0979193 -0.233877 0)
(-0.0407901 -0.164664 0)
(-0.00700612 -0.0568298 0)
(-0.00234827 0.0482032 0)
(-0.0123334 0.113607 0)
(-0.0297602 0.153623 0)
(-0.0496582 0.174993 0)
(-0.0696949 0.183428 0)
(-0.0891786 0.182698 0)
(-0.108003 0.174648 0)
(-0.126337 0.159625 0)
(-0.144421 0.136988 0)
(-0.162372 0.105607 0)
(-0.18 0.0643098 0)
(-0.196602 0.0123612 0)
(-0.210676 -0.0499471 0)
(-0.219631 -0.120394 0)
(-0.219582 -0.193572 0)
(-0.205519 -0.259121 0)
(-0.172403 -0.300095 0)
(-0.118548 -0.293592 0)
(-0.0542605 -0.219191 0)
(-0.0106423 -0.0809053 0)
(-0.00259886 0.0548513 0)
(-0.0128625 0.128247 0)
(-0.0297614 0.171724 0)
(-0.0477209 0.193753 0)
(-0.0644082 0.201558 0)
(-0.0794381 0.199871 0)
(-0.0930853 0.191052 0)
(-0.10593 0.175667 0)
(-0.118671 0.153091 0)
(-0.131967 0.122031 0)
(-0.146282 0.0809542 0)
(-0.161679 0.0284975 0)
(-0.177499 -0.0360276 0)
(-0.191915 -0.111832 0)
(-0.20138 -0.195219 0)
(-0.200135 -0.277169 0)
(-0.180398 -0.339866 0)
(-0.135332 -0.353903 0)
(-0.0697156 -0.283333 0)
(-0.0159191 -0.113556 0)
(-0.00338819 0.0621576 0)
(-0.0147754 0.143087 0)
(-0.0313539 0.188417 0)
(-0.0465976 0.209292 0)
(-0.0583924 0.214952 0)
(-0.066968 0.211224 0)
(-0.0731712 0.200998 0)
(-0.078079 0.185074 0)
(-0.0828729 0.162898 0)
(-0.088744 0.133119 0)
(-0.0968021 0.0939856 0)
(-0.107929 0.0436656 0)
(-0.122498 -0.0194102 0)
(-0.139907 -0.095982 0)
(-0.157793 -0.184687 0)
(-0.170867 -0.279428 0)
(-0.169736 -0.364309 0)
(-0.142375 -0.406399 0)
(-0.0849653 -0.352907 0)
(-0.0230394 -0.156513 0)
(-0.00536288 0.0714724 0)
(-0.019601 0.159135 0)
(-0.0362997 0.203447 0)
(-0.0477265 0.220327 0)
(-0.0526112 0.221716 0)
(-0.0523667 0.214546 0)
(-0.0486856 0.202107 0)
(-0.0432314 0.185345 0)
(-0.0376527 0.163765 0)
(-0.033592 0.136022 0)
(-0.0326865 0.100297 0)
(-0.0365217 0.0545248 0)
(-0.0464758 -0.00343746 0)
(-0.0633551 -0.075568 0)
(-0.0866491 -0.162911 0)
(-0.112982 -0.26343 0)
(-0.133416 -0.36633 0)
(-0.132271 -0.440497 0)
(-0.0954826 -0.419537 0)
(-0.0313734 -0.210467 0)
(-0.00967732 0.0856608 0)
(-0.0296256 0.178106 0)
(-0.0463281 0.216298 0)
(-0.0514188 0.224968 0)
(-0.0460541 0.219404 0)
(-0.0337325 0.207286 0)
(-0.0172843 0.191912 0)
(0.00100611 0.174121 0)
(0.0191093 0.15336 0)
(0.0350914 0.1283 0)
(0.0469939 0.097165 0)
(0.0527637 0.0578971 0)
(0.0502574 0.00819496 0)
(0.0374285 -0.0545493 0)
(0.0127562 -0.133156 0)
(-0.0233865 -0.229746 0)
(-0.0651397 -0.341193 0)
(-0.096422 -0.445141 0)
(-0.0938052 -0.470807 0)
(-0.0383176 -0.274476 0)
(-0.0179991 0.110543 0)
(-0.0470414 0.201506 0)
(-0.0599929 0.224378 0)
(-0.0519047 0.219097 0)
(-0.0299192 0.203835 0)
(-0.000585949 0.185787 0)
(0.0321512 0.167432 0)
(0.0656244 0.149035 0)
(0.0977233 0.129767 0)
(0.126531 0.108262 0)
(0.150072 0.0828707 0)
(0.166149 0.0517495 0)
(0.1722 0.0128244 0)
(0.165378 -0.0364497 0)
(0.142567 -0.0994834 0)
(0.101034 -0.181308 0)
(0.0414216 -0.287107 0)
(-0.0247954 -0.409865 0)
(-0.0695169 -0.490421 0)
(-0.0377029 -0.344106 0)
(-0.0307502 0.156949 0)
(-0.0677098 0.225157 0)
(-0.0590999 0.215625 0)
(-0.0214424 0.191028 0)
(0.027422 0.166091 0)
(0.0792904 0.143863 0)
(0.130616 0.124687 0)
(0.179387 0.107776 0)
(0.224172 0.0918637 0)
(0.263649 0.0755558 0)
(0.296289 0.0574413 0)
(0.320159 0.0360869 0)
(0.332676 0.00995559 0)
(0.330803 -0.0228585 0)
(0.310537 -0.065108 0)
(0.266914 -0.122299 0)
(0.195376 -0.205294 0)
(0.0965974 -0.326051 0)
(-0.00714948 -0.45543 0)
(-0.0158304 -0.397766 0)
(-0.0279988 0.227271 0)
(-0.0417661 0.224209 0)
(0.0372742 0.165765 0)
(0.125776 0.127084 0)
(0.205515 0.100631 0)
(0.276153 0.0809952 0)
(0.338784 0.0661399 0)
(0.393958 0.0545221 0)
(0.441947 0.0447151 0)
(0.482668 0.0355197 0)
(0.515503 0.0259381 0)
(0.53922 0.0150999 0)
(0.551671 0.00216865 0)
(0.550413 -0.0135277 0)
(0.53146 -0.0337325 0)
(0.489109 -0.0617713 0)
(0.414907 -0.107105 0)
(0.295798 -0.193817 0)
(0.132073 -0.332993 0)
(0.0671197 -0.369362 0)
(0.261732 0.137656 0)
(0.324721 0.118464 0)
(0.456095 0.0775561 0)
(0.560898 0.0519546 0)
(0.632894 0.0363329 0)
(0.685769 0.0260605 0)
(0.727294 0.0191225 0)
(0.760719 0.014329 0)
(0.78768 0.0108003 0)
(0.809019 0.00790023 0)
(0.824904 0.00517243 0)
(0.834938 0.00228706 0)
(0.83826 -0.00105828 0)
(0.833445 -0.00480745 0)
(0.818075 -0.00959173 0)
(0.788766 -0.0162697 0)
(0.738046 -0.0273249 0)
(0.648125 -0.0517942 0)
(0.474751 -0.111402 0)
(0.341584 -0.155808 0)
)
;

boundaryField
{
    movingWall
    {
        type            fixedValue;
        value           uniform (1 0 0);
    }
    fixedWalls
    {
        type            fixedValue;
        value           uniform (0 0 0);
    }
    frontAndBack
    {
        type            empty;
    }
}


// ************************************************************************* //
