/*--------------------------------*- C++ -*----------------------------------*\
| =========                 |                                                 |
| \\      /  F ield         | OpenFOAM: The Open Source CFD Toolbox           |
|  \\    /   O peration     | Version:  3.0.1                                 |
|   \\  /    A nd           | Web:      www.OpenFOAM.org                      |
|    \\/     M anipulation  |                                                 |
\*---------------------------------------------------------------------------*/
FoamFile
{
    version     2.0;
    format      ascii;
    class       volScalarField;
    location    "2.5";
    object      alpha.water;
}
// * * * * * * * * * * * * * * * * * * * * * * * * * * * * * * * * * * * * * //

dimensions      [0 0 0 0 0 0 0];

internalField   nonuniform List<scalar> 
15984
(
1.00000017168
1.00000019093
1.00000016611
1.00000000373
1.00000000092
1.00000000241
1.0000000052
1.00000021604
1.00000022526
1.0000002124
1.00000021271
1.00000049521
1.00000075095
1.00000016083
1.00000015628
1.00000015138
1.00000013996
1.00000006693
1.00000004363
1.0000000268
1.00000002122
1.00000002044
1.00000003437
1.00000004175
1.00000004404
1.00000005302
1.00000010406
1.00000010633
1.00000010671
1.00000010782
1.0000001081
1.00000011021
1.00000011134
1.00000011437
1.00000011725
1.00000011581
1.00000011695
1.00000013906
1.00000016871
1.00000015176
1.00000018623
1.0000002654
1.00000046413
1.00000000224
1.00000000016
1.00000000049
1.00000000404
1.00000034671
1.00000028703
1.00000023762
1.00000020578
1.00000031737
1.00000077817
1.00000061967
1.00000017054
1.00000016531
1.0000001565
1.00000014628
1.00000011182
1.00000007742
1.00000007003
1.00000007084
1.00000006484
1.00000006647
1.00000009129
1.00000011107
1.00000011218
1.0000001177
1.00000011848
1.00000012202
1.00000012704
1.00000013262
1.00000013619
1.00000014087
1.00000014174
1.00000013951
1.00000014044
1.00000016089
1.00000019598
1.00000018278
1.00000020344
1.00000033602
1.00000010058
1.00000000021
1.00000000009
1.00000000003
1.00000000032
1.00000000685
1.00000030214
1.00000027165
1.00000021288
1.00000026788
1.00000064918
1.00000070513
1.00000035307
1.00000016257
1.00000015516
1.00000016763
1.0000001309
1.00000011475
1.00000010105
1.00000008534
1.00000007805
1.00000009814
1.00000010867
1.00000010807
1.00000011226
1.00000011553
1.00000011886
1.00000012279
1.00000012807
1.0000001337
1.00000013968
1.00000014346
1.00000014507
1.00000014565
1.00000014619
1.00000016394
1.00000020967
1.00000023993
1.00000016521
1.00000000043
1.00000000048
1.00000000015
0.999999999409
0.999999999557
1
1.00000000025
1.00000006116
1.00000022987
1.00000035339
1.00000019803
1.00000031638
1.00000082991
1.00000053648
1.00000016944
1.00000014492
1.00000014697
1.00000015546
1.00000011264
1.00000010219
1.00000009393
1.00000009337
1.00000010344
1.00000010095
1.00000010214
1.00000010611
1.00000010824
1.00000011116
1.00000011548
1.0000001206
1.00000012511
1.0000001319
1.00000013597
1.00000013826
1.00000013624
1.00000013827
1.00000015533
1.00000020793
1.00000024808
1.00000009606
1.00000000037
1.00000000018
1.00000000005
0.999999994084
0.999999995901
1.00000000011
1.00000000004
1.00000006689
1.00000016442
1.00000027946
1.00000025434
1.00000018304
1.00000044247
1.00000073209
1.00000034784
1.00000013626
1.00000012689
1.00000017543
1.00000010362
1.00000009219
1.00000008614
1.0000000931
1.00000009666
1.00000009509
1.00000009664
1.0000000985
1.00000010231
1.00000010395
1.00000010738
1.00000011185
1.00000011758
1.00000012355
1.00000012623
1.00000012865
1.00000012731
1.00000012652
1.00000014302
1.00000019916
1.00000024246
1.00000000015
1.00000000013
1.00000000009
0.999999996381
0.999999994084
0.999999994084
0.999999999708
1.00000000002
1.00000000033
1.00000012044
1.00000017306
1.00000029734
1.00000017093
1.00000020286
1.00000056346
1.00000056959
1.00000014353
1.00000012061
1.0000001127
1.00000012601
1.00000008315
1.00000008332
1.00000008893
1.00000009239
1.0000000911
1.00000009145
1.00000009608
1.00000009723
1.00000009824
1.00000010139
1.00000010625
1.000000114
1.00000011675
1.00000012227
1.00000012401
1.00000012062
1.00000011819
1.00000013489
1.0000001928
1.00000023837
1.0000000001
1.00000000018
1.00000000004
0.999999996411
0.99999999528
0.999999994873
0.999999999741
1.00000000029
1.00000000012
1.00000007132
1.00000018003
1.00000017498
1.00000017251
1.00000016711
1.00000015465
1.00000077058
1.00000019981
1.0000001174
1.00000010942
1.00000010353
1.0000001239
1.00000009072
1.00000009262
1.00000009102
1.00000008881
1.00000009012
1.00000009256
1.00000009555
1.00000009459
1.00000009871
1.00000010329
1.00000010957
1.00000011476
1.00000011935
1.00000012107
1.00000011708
1.0000001139
1.00000012994
1.00000018865
1.00000023618
1.00000000008
1.00000000015
0.999999999234
0.999999994845
0.999999992145
0.999999991676
0.999999999283
1.00000000032
1.00000000014
1.00000006108
1.00000013646
1.00000024822
1.00000016949
1.00000016118
1.00000014662
1.00000019779
1.00000065707
1.00000011641
1.00000010834
1.00000010252
1.00000011241
1.00000010175
1.00000009328
1.00000009153
1.00000008923
1.00000008863
1.00000009212
1.00000009488
1.00000009482
1.00000009762
1.00000010263
1.00000010919
1.00000011374
1.00000011902
1.00000012065
1.00000011574
1.00000011218
1.00000012828
1.00000018723
1.00000023561
1.00000000007
0.999999999956
0.999999996462
0.999999993314
0.999999988325
0.999999988942
0.999999998586
1.00000000016
1.00000000008
1.0000000581
1.00000011499
1.00000017503
1.00000019966
1.00000016483
1.00000014906
1.00000013874
1.00000059295
1.00000014064
1.00000010852
1.00000010265
1.00000009858
1.00000011942
1.00000009364
1.000000094
1.00000009033
1.00000008954
1.00000009065
1.0000000961
1.00000009588
1.00000009862
1.00000010332
1.00000010839
1.00000011503
1.00000012018
1.00000012156
1.00000011649
1.00000011216
1.00000012828
1.00000018693
1.00000023578
1.00000000001
0.999999998458
0.99999999456
0.999999992406
0.999999987331
0.999999990575
0.999999998005
1.00000000005
1.00000000002
1.00000005279
1.00000011724
1.00000018851
1.00000018016
1.00000016425
1.00000014998
1.00000013972
1.00000045351
1.00000014198
1.00000010913
1.00000010311
1.00000009903
1.00000012231
1.00000009417
1.00000009301
1.00000009249
1.00000009082
1.00000009106
1.00000009384
1.0000001004
1.00000010024
1.00000010466
1.00000011037
1.00000011626
1.0000001215
1.0000001228
1.00000011758
1.00000011314
1.00000012888
1.00000018766
1.00000023606
0.999999999905
0.999999996
0.999999994584
0.999999991782
0.999999987006
0.999999990328
0.999999997768
1.00000000006
1.00000000002
1.00000005371
1.00000011858
1.00000017011
1.00000017993
1.00000016795
1.00000015105
1.0000001397
1.00000050072
1.00000016075
1.00000010921
1.00000010321
1.00000010051
1.00000011791
1.00000009456
1.00000009441
1.00000009226
1.00000009103
1.00000009143
1.00000009375
1.00000010217
1.0000001005
1.00000010539
1.00000011079
1.00000011704
1.00000012216
1.00000012348
1.00000011814
1.00000011361
1.00000012919
1.00000018923
1.00000023626
0.999999999837
0.999999996037
0.999999994487
0.999999992067
0.999999987125
0.999999988966
0.999999998215
1.00000000017
1.00000000007
1.00000005722
1.00000011445
1.0000001725
1.00000018575
1.00000016418
1.00000015058
1.00000013919
1.00000057554
1.00000017061
1.00000010868
1.00000010274
1.00000010048
1.00000010749
1.00000009141
1.00000009553
1.00000009159
1.00000008924
1.00000009113
1.00000009474
1.00000009929
1.00000009958
1.00000010478
1.00000011062
1.00000011681
1.00000012223
1.00000012327
1.00000011897
1.00000011343
1.00000012903
1.00000018992
1.00000023674
0.999999999997
0.999999999127
0.999999994328
0.999999992735
0.999999991463
0.999999991517
0.999999999239
1.00000000026
1.00000000012
1.00000005901
1.0000001197
1.00000019959
1.00000018223
1.0000001633
1.00000014756
1.00000019272
1.00000063621
1.00000011678
1.00000010819
1.00000010231
1.00000011818
1.0000000868
1.00000008482
1.00000009291
1.00000008894
1.00000008924
1.00000009114
1.00000009681
1.00000009517
1.00000009958
1.00000010443
1.00000011037
1.00000011655
1.00000012182
1.00000012316
1.00000011879
1.0000001133
1.00000013045
1.00000019066
1.00000023858
0.999999999827
1
0.999999998316
0.999999994165
0.999999991641
0.999999993705
1.00000000011
1.00000000009
1.00000000009
1.00000007009
1.00000016254
1.00000018564
1.00000017399
1.00000015701
1.00000016071
1.00000059195
1.00000026474
1.00000011826
1.00000010924
1.00000010321
1.00000010594
1.00000007684
1.00000008711
1.00000009044
1.00000008994
1.0000000903
1.00000009231
1.00000009564
1.00000009676
1.00000010098
1.00000010615
1.00000011181
1.00000011796
1.00000012331
1.00000012473
1.00000012051
1.00000011552
1.00000013393
1.00000019398
1.00000024317
1
1.00000000006
0.999999999671
0.999999991819
0.999999991071
0.999999991056
0.999999999744
1.00000000007
1.00000000009
1.00000007368
1.00000016031
1.00000018964
1.00000017113
1.00000016952
1.00000036375
1.00000062022
1.00000015959
1.00000012277
1.00000011433
1.00000012507
1.00000008766
1.00000008468
1.00000009324
1.00000009424
1.00000009376
1.00000009422
1.00000009712
1.00000009996
1.00000010208
1.000000106
1.00000011158
1.00000011758
1.00000012393
1.00000012916
1.00000013113
1.00000012742
1.00000012349
1.00000014318
1.00000020416
1.00000025458
1.00000002647
1.00000000017
1.00000000009
0.999999997718
0.999999992166
0.999999995062
1.00000000009
1.00000000001
1.00000002526
1.00000014606
1.00000020955
1.00000027893
1.00000018481
1.00000029312
1.00000058242
1.0000003946
1.00000014704
1.00000013539
1.00000014852
1.00000010985
1.00000009556
1.00000009028
1.00000009761
1.00000010392
1.00000010236
1.00000010282
1.00000010591
1.00000011209
1.00000011377
1.00000012016
1.00000012328
1.00000012964
1.00000013671
1.00000014275
1.00000014562
1.00000014315
1.00000014116
1.00000016289
1.00000022536
1.00000027648
1.00000019362
1.00000000023
1.00000000015
1.00000000015
0.999999993214
0.999999998116
1.00000000002
1.00000000005
1.00000004926
1.00000021535
1.00000034949
1.00000021875
1.00000021842
1.00000057175
1.00000064052
1.00000019161
1.00000016884
1.00000015675
1.00000015383
1.00000012843
1.00000011547
1.00000011228
1.00000011118
1.00000012112
1.00000011817
1.00000011744
1.00000011955
1.00000012548
1.0000001318
1.00000013629
1.00000014682
1.00000015019
1.00000015808
1.00000016579
1.00000017018
1.00000017023
1.0000001699
1.00000019542
1.00000026013
1.00000031036
1.0000002183
1.00000033003
1.00000000045
1.00000000008
0.999999999853
0.999999999997
1
1.00000000534
1.0000002016
1.00000037449
1.00000026923
1.00000029341
1.00000041642
1.00000089735
1.00000032227
1.00000022142
1.00000020835
1.00000019597
1.00000018286
1.00000016029
1.0000001514
1.00000013614
1.00000014198
1.00000015204
1.00000014713
1.00000014653
1.00000014932
1.00000015404
1.00000016087
1.00000016748
1.00000017498
1.00000018666
1.00000019519
1.00000020367
1.00000020982
1.00000021258
1.00000021766
1.00000024507
1.00000031691
1.00000036898
1.00000029474
1.00000026449
1.00000053316
1.00000000022
1.00000000003
1.00000000007
1.00000000352
1.00000025169
1.00000031912
1.00000031363
1.00000033241
1.0000003326
1.0000009039
1.0000005985
1.00000028208
1.00000027136
1.00000025407
1.00000022383
1.00000019102
1.00000015215
1.00000011784
1.00000010965
1.00000010513
1.00000013194
1.00000016304
1.00000017157
1.00000018322
1.00000018997
1.00000019708
1.00000020541
1.00000021578
1.00000022376
1.00000023414
1.00000023948
1.00000024608
1.0000002505
1.00000026387
1.00000030068
1.00000037176
1.00000035048
1.00000019739
1.00000018229
1.00000003047
1.00000000154
1.0000000001
1.00000000002
1.0000000042
1.00000015065
1.0000001915
1.00000022862
1.0000002063
1.00000046336
1.00000069252
1.000000184
1.00000017921
1.00000013352
1.00000003743
1.00000002788
1.0000000223
1.00000001618
1.00000001176
1.00000000915
1.00000000704
1.00000000881
1.00000001367
1.00000001605
1.00000004354
1.0000000947
1.00000012328
1.0000001246
1.00000012718
1.00000013088
1.00000013531
1.00000014175
1.0000001489
1.00000015551
1.00000016713
1.00000019923
1.00000022998
1.00000014252
1.00000021356
1.00000018735
1.00000000444
1.00000000231
1.00000000229
1.00000000193
1.00000000076
1.00000004488
1.00000021776
1.00000026871
1.00000035752
1.00000153449
1.00000021196
1.00000020819
1.00000020203
1.00000019611
1.00000006069
1.00000003515
1.00000002604
1.00000001798
1.00000001402
1.00000001151
1.0000000071
1.00000000445
1.00000001705
1.00000001753
1.00000006968
1.00000010424
1.00000013314
1.00000013367
1.00000013583
1.00000014199
1.00000014931
1.00000014726
1.00000014895
1.00000015974
1.00000016113
1.00000019045
1.00000021949
1.00000018191
1.00000024319
1.00000000631
1.00000000009
1.00000000095
1.00000000076
1.00000000054
1.00000000041
1.00000000036
1.00000024386
1.00000030424
1.00000028488
1.00000055623
1.0000016923
1.00000022815
1.00000022198
1.00000021251
1.00000020357
1.00000011566
1.00000005483
1.0000000327
1.00000002484
1.00000002256
1.0000000568
1.00000006244
1.0000000747
1.0000001305
1.00000014385
1.00000014381
1.00000014934
1.00000015195
1.00000015641
1.00000016313
1.0000001656
1.00000017254
1.00000017991
1.00000018003
1.00000018592
1.00000022033
1.00000026281
1.00000023984
1.0000002253
1.00000000008
1.00000000176
1.00000000132
1.00000000126
1.00000000114
1.00000000146
1.00000000073
1.00000000107
1.00000023564
1.00000030871
1.00000029794
1.00000059069
1.0000010786
1.00000021941
1.00000021202
1.0000001988
1.00000016639
1.00000008987
1.0000000837
1.00000009538
1.00000009759
1.00000009052
1.00000009911
1.00000014162
1.00000013929
1.0000001397
1.00000014251
1.00000014792
1.00000015758
1.00000016732
1.00000017278
1.0000001814
1.00000018766
1.00000019283
1.00000019619
1.00000020195
1.00000022821
1.00000028113
1.00000031272
1.00000006558
1.00000000081
1.0000000019
1.000000003
1.00000000299
1.00000000207
1.00000000127
1.00000000222
1.00000000034
1.00000020879
1.0000002104
1.00000027845
1.0000002499
1.00000066822
1.00000051012
1.00000019954
1.0000001895
1.0000001698
1.00000013638
1.00000012565
1.00000011508
1.00000010216
1.0000000934
1.0000001162
1.00000013446
1.00000012904
1.00000013004
1.00000013392
1.00000013921
1.00000014925
1.00000015752
1.00000016603
1.00000017407
1.00000018259
1.00000018785
1.00000019034
1.00000019525
1.00000022105
1.00000028434
1.00000032703
1.00000003448
1.00000000092
1.00000000236
1.00000000239
1.00000000129
1.00000000229
1.00000000469
1.00000000099
1.00000000102
1.00000008741
1.000000265
1.00000021746
1.00000026454
1.00000023284
1.00000070744
1.00000020581
1.00000017853
1.00000021113
1.00000013515
1.00000012037
1.00000010995
1.00000010109
1.00000009673
1.00000011689
1.00000012522
1.00000012089
1.00000012227
1.00000012699
1.00000013082
1.0000001415
1.00000014906
1.00000015499
1.00000016412
1.00000017026
1.00000017479
1.00000017527
1.0000001801
1.00000020723
1.00000027307
1.0000003201
1.00000002388
1.00000000155
0.999999996791
0.999999996621
0.999999999884
1.00000000063
1.00000000559
1.00000000316
1.00000000062
1.00000005008
1.00000020066
1.00000025881
1.00000021251
1.00000024704
1.00000023363
1.00000045859
1.0000001708
1.00000015969
1.00000023549
1.00000011724
1.00000010703
1.0000000987
1.00000009223
1.00000010825
1.00000011699
1.00000011388
1.00000011687
1.0000001197
1.00000012566
1.00000013738
1.00000013927
1.00000014684
1.00000015372
1.00000016164
1.00000016576
1.00000016522
1.00000016845
1.00000019605
1.00000026466
1.00000031484
1.00000000097
1.00000000054
1.00000000104
1.00000000015
1.00000000002
1.00000000128
1.00000000308
1.00000000405
1.00000000046
1.00000005815
1.00000010827
1.00000033246
1.00000021992
1.00000020111
1.00000026257
1.00000030726
1.00000019776
1.00000015467
1.00000014278
1.00000018091
1.00000010472
1.00000009689
1.0000000886
1.00000010529
1.00000011299
1.00000011257
1.00000011179
1.00000011441
1.00000012774
1.00000012645
1.00000013212
1.00000013995
1.00000014877
1.00000015669
1.00000016058
1.00000015936
1.00000016125
1.0000001894
1.00000025932
1.00000031148
1.0000000001
1.00000000031
1.00000000121
1.0000000002
0.99999999966
1.00000000001
1.00000000228
1.00000000236
1.00000000066
1.00000006305
1.00000008082
1.00000021436
1.00000024875
1.00000020699
1.00000019787
1.00000036492
1.00000018105
1.00000015288
1.00000014401
1.00000018699
1.0000001295
1.00000009393
1.00000008773
1.00000010737
1.00000011404
1.00000011006
1.00000011022
1.0000001146
1.00000011894
1.00000012678
1.00000012929
1.00000013796
1.00000014691
1.00000015434
1.000000158
1.0000001561
1.00000015763
1.00000018591
1.00000025659
1.00000030986
1.00000000001
1.00000000059
1.00000000118
0.999999999489
0.99999999805
0.999999999906
0.999999999885
1.00000000138
1.00000000037
1.00000005051
1.00000005274
1.0000002018
1.00000021019
1.00000020095
1.00000020358
1.00000024521
1.00000026665
1.0000001522
1.00000014322
1.00000014446
1.0000001744
1.00000009323
1.00000009158
1.00000011234
1.00000011316
1.00000010974
1.00000011021
1.00000011226
1.00000012256
1.00000012412
1.00000012946
1.00000013787
1.00000014614
1.00000015373
1.00000015741
1.00000015504
1.00000015631
1.00000018436
1.00000025557
1.00000030937
1.00000000001
1.00000000055
1.00000000127
0.99999999927
0.999999997016
0.99999999738
0.999999999481
1.00000000045
1.00000000011
1.00000003277
1.00000002361
1.00000016578
1.00000020964
1.00000020405
1.00000018921
1.0000002452
1.00000022579
1.00000015212
1.00000014298
1.00000013622
1.00000018562
1.0000000932
1.00000008885
1.00000011547
1.0000001148
1.00000010955
1.00000011075
1.0000001132
1.00000011741
1.00000012858
1.00000013034
1.00000013802
1.00000014627
1.00000015375
1.00000015774
1.00000015492
1.00000015567
1.0000001828
1.00000025524
1.00000030925
1.00000000001
1.00000000051
1.00000000111
0.999999999051
0.999999996648
0.999999996998
0.999999999492
1.00000000045
1.00000000009
1.00000003426
1.00000002092
1.00000016404
1.00000020816
1.00000020201
1.00000018786
1.00000025018
1.00000021908
1.00000015181
1.00000014261
1.00000013749
1.00000019133
1.00000009258
1.00000009116
1.00000011554
1.00000011289
1.00000010932
1.00000011065
1.00000011308
1.00000011779
1.00000012839
1.00000013043
1.0000001382
1.00000014636
1.00000015376
1.00000015719
1.0000001547
1.00000015529
1.00000018313
1.00000025563
1.00000030896
1.00000000001
1.00000000058
1.00000000077
0.999999999045
0.999999996862
0.999999997865
0.999999999825
1.00000000123
1.00000000038
1.00000004606
1.00000004938
1.00000019962
1.0000002177
1.00000020133
1.00000019594
1.00000021877
1.00000029511
1.00000015112
1.0000001421
1.00000014331
1.00000018989
1.00000009218
1.00000008558
1.00000011248
1.00000011295
1.00000010889
1.00000010969
1.00000011205
1.00000011998
1.00000012572
1.00000012944
1.00000013757
1.00000014627
1.00000015365
1.000000157
1.00000015422
1.00000015489
1.00000018312
1.00000025581
1.00000030945
1.00000000004
1.00000000035
1.00000000062
0.99999999916
0.999999998821
0.999999999577
1.00000000237
1.00000000229
1.00000000054
1.000000056
1.00000005997
1.00000021826
1.00000021362
1.00000020335
1.00000022338
1.0000003007
1.00000019375
1.00000015135
1.00000014225
1.00000019522
1.00000011763
1.00000009242
1.00000008564
1.00000010983
1.00000011166
1.00000010946
1.00000010989
1.000000113
1.00000012301
1.00000012536
1.00000012931
1.0000001377
1.00000014651
1.00000015416
1.00000015775
1.00000015527
1.00000015587
1.00000018418
1.00000025773
1.00000031162
1.00000000003
1.00000000015
0.999999999862
0.999999999623
1.00000000001
1.00000000093
1.00000000287
1.00000000337
1.00000000054
1.00000005035
1.00000007838
1.00000027191
1.00000022188
1.00000019973
1.00000023181
1.00000035577
1.00000018511
1.0000001538
1.00000014619
1.00000020362
1.0000001026
1.00000009397
1.00000008729
1.00000011061
1.00000011147
1.00000011142
1.0000001119
1.0000001154
1.00000012653
1.00000012715
1.00000014137
1.00000014373
1.00000015113
1.00000015745
1.00000016163
1.00000015999
1.00000016087
1.00000019008
1.00000026338
1.00000031835
1.00000000409
1.00000000105
0.999999995833
0.99999999571
1.00000000174
1.00000000067
1.0000000052
1.00000000345
1.00000000061
1.00000004337
1.00000020019
1.0000002731
1.00000021351
1.00000022972
1.00000026498
1.00000043926
1.00000017479
1.00000016185
1.00000021475
1.00000011843
1.0000001076
1.00000009945
1.00000009334
1.00000011679
1.00000012205
1.00000011618
1.00000011913
1.00000012275
1.00000012774
1.00000013741
1.00000014211
1.00000015533
1.00000016357
1.00000017112
1.00000017246
1.00000017192
1.00000017453
1.00000020356
1.00000027821
1.00000033332
1.00000000611
1.00000000095
1.00000000266
1.00000000483
1.00000000295
1.00000000154
1.00000000368
1.00000000148
1.00000000088
1.00000012754
1.00000019794
1.00000023146
1.00000025902
1.00000024544
1.00000055515
1.00000025944
1.00000019021
1.00000018802
1.00000016219
1.00000013012
1.0000001193
1.00000011038
1.00000010281
1.00000012734
1.00000013279
1.00000013458
1.00000013242
1.00000014004
1.0000001434
1.00000015087
1.00000015872
1.0000001691
1.00000017886
1.00000018856
1.00000019453
1.00000019317
1.00000019808
1.00000022914
1.00000030575
1.00000035976
1.00000000864
1.00000000071
1.00000000114
1.00000000319
1.00000000351
1.00000000169
1.00000000222
1.00000000167
1.00000000038
1.00000021544
1.00000025219
1.00000027992
1.00000026112
1.00000054575
1.00000056004
1.00000023044
1.00000021816
1.00000020448
1.00000016151
1.00000014799
1.00000013353
1.00000012286
1.00000011496
1.00000015053
1.00000015381
1.00000014923
1.00000015362
1.00000015746
1.00000016798
1.00000017461
1.0000001846
1.00000019403
1.00000020347
1.00000021464
1.00000022281
1.00000022587
1.00000023422
1.00000026781
1.00000034765
1.00000039788
1.00000022455
1.00000000003
1.00000000139
1.00000000086
1.00000000202
1.00000000182
1.0000000012
1.00000000095
1.00000000197
1.00000026012
1.00000038844
1.00000036961
1.00000065569
1.00000101368
1.00000028317
1.00000027286
1.00000025712
1.00000024347
1.00000015908
1.00000014523
1.00000014019
1.00000013213
1.00000011967
1.00000017051
1.00000017979
1.00000017931
1.00000018084
1.00000018685
1.0000001962
1.00000020678
1.00000021583
1.00000022757
1.00000024273
1.00000025235
1.00000026325
1.00000027033
1.00000028059
1.00000031802
1.00000040153
1.00000044511
1.00000034847
1.0000000175
1.0000000001
1.00000000106
1.00000000111
1.00000000137
1.0000000012
1.00000000031
1.00000029488
1.00000036597
1.00000038181
1.00000064362
1.00000162527
1.00000034431
1.0000003371
1.00000030314
1.00000025647
1.00000018215
1.00000007109
1.00000003663
1.00000002673
1.00000002388
1.00000006029
1.00000007502
1.00000013617
1.00000016357
1.0000001897
1.00000020733
1.00000022922
1.00000023392
1.00000024392
1.00000025451
1.00000026304
1.00000027885
1.00000029134
1.00000030393
1.00000032459
1.00000037223
1.00000044396
1.00000039714
1.00000026491
1.00000000614
1.00000000006
1.00000000005
1.00000000032
1.00000000044
1.00000000016
1.00000000014
1.0000002193
1.00000022553
1.00000034645
1.0000014634
1.00000022586
1.00000020696
1.00000007234
1.00000000056
1.00000000005
1.00000000042
1.00000000147
1.00000000056
1.00000000056
1.00000000075
1.00000000052
1.0000000004
1.00000000043
1.00000000048
1.00000000009
1.00000000014
1.00000000551
1.00000003944
1.00000011905
1.00000015614
1.00000016507
1.00000017199
1.0000001808
1.00000019101
1.00000020457
1.00000024681
1.0000002739
1.00000016179
1.00000036496
1.00000000016
1.00000000005
1.00000000019
1.00000000041
1.00000000045
1.00000000048
1.00000000001
1.00000000044
1.00000021457
1.00000159312
1.00000029262
1.00000029247
1.00000026874
1.00000011387
1.00000016231
1.00000000004
1.0000000001
1.00000000084
1.00000000079
1.00000000095
1.00000000094
1.00000000093
1.00000000065
1.00000000041
1.00000000052
1.00000000022
1.00000000008
1.00000004652
1.0000001007
1.00000018025
1.00000018864
1.00000019483
1.00000021785
1.00000021206
1.00000021941
1.00000023154
1.00000028366
1.0000003127
1.0000002236
1.00000017447
1.00000000023
1.00000000046
1.00000000055
1.00000000194
1.00000000188
1.00000000081
1.00000000093
1.00000000045
1.00000004992
1.00000050336
1.00000266419
1.00000031711
1.00000031172
1.00000030102
1.00000029362
1.00000021716
1.0000000686
1.00000004302
1.0000000206
1.00000001284
1.00000000989
1.00000000888
1.00000003884
1.00000005303
1.00000010923
1.00000016962
1.000000181
1.0000001875
1.00000019777
1.00000020039
1.00000021476
1.00000022447
1.0000002316
1.00000024845
1.00000026123
1.00000027379
1.00000031587
1.000000367
1.00000031675
1.00000001204
1.00000000057
1.00000000034
1.0000000029
1.00000000256
1.00000000274
1.00000000338
1.00000000133
1.00000000089
1.00000000148
1.0000001166
1.00000059133
1.00000186268
1.00000030951
1.00000030015
1.00000028554
1.00000025301
1.00000011641
1.00000009645
1.00000006827
1.00000004505
1.00000008506
1.00000010957
1.00000010391
1.00000015206
1.00000017973
1.00000018419
1.00000018948
1.00000019482
1.00000020394
1.00000022009
1.00000023437
1.00000024209
1.0000002576
1.00000026997
1.00000027866
1.00000029688
1.00000033215
1.00000039152
1.00000042652
1.0000000004
1.00000000052
1.00000000276
1.00000000165
1.00000000173
1.00000000198
1.00000000174
1.00000000405
1.00000000309
1.00000000072
1.0000000013
1.00000018452
1.00000053221
1.00000104677
1.00000028588
1.00000027604
1.00000022991
1.00000014155
1.00000010297
1.00000011467
1.00000013823
1.00000013398
1.00000011977
1.00000011222
1.0000001722
1.00000017013
1.00000017086
1.00000017782
1.00000018576
1.00000020039
1.00000020927
1.00000022127
1.00000023969
1.000000252
1.00000026537
1.00000027323
1.00000028419
1.00000032419
1.00000040156
1.00000044072
1.00000000501
1.00000000086
1.00000000179
1.00000000276
1.00000000401
1.00000000577
1.00000000442
1.00000000483
1.00000000268
1.0000000019
1.00000000092
1.00000010858
1.000000301
1.00000058845
1.00000052591
1.00000026294
1.00000028918
1.00000017976
1.00000016242
1.00000016757
1.00000015395
1.00000014119
1.00000013108
1.0000001199
1.00000016573
1.00000015987
1.00000016263
1.00000016536
1.00000018082
1.00000018743
1.00000019943
1.00000021006
1.0000002233
1.00000024146
1.00000025074
1.00000025676
1.00000026777
1.00000030628
1.0000003877
1.00000043404
1.00000005467
1.00000000055
0.999997294368
1.00000000027
1.00000000042
1.00000000105
1.00000000192
1.00000000542
1.00000000371
1.0000000017
1.00000000072
1.00000003
1.00000032172
1.00000031698
1.00000053104
1.00000026057
1.00000021178
1.00000021215
1.00000017566
1.00000016701
1.00000015238
1.00000013838
1.00000012709
1.00000011403
1.00000016107
1.00000015609
1.00000015254
1.00000016463
1.0000001668
1.00000017854
1.00000018644
1.00000019975
1.00000021556
1.00000023121
1.00000023726
1.00000024163
1.00000025232
1.00000029288
1.00000037643
1.00000042712
1.00000000094
1.00000000085
0.999978169708
0.999978956791
0.999965127607
0.999972738638
0.999988517651
0.999993438339
1.00000000384
1.00000000162
1.00000000062
1.0000000193
1.00000027063
1.00000032377
1.00000031353
1.00000043763
1.00000019923
1.00000017031
1.00000017184
1.00000016079
1.00000014807
1.00000013379
1.00000012072
1.00000010809
1.00000015328
1.00000014801
1.00000014999
1.0000001516
1.00000016088
1.0000001679
1.00000017907
1.00000019467
1.0000002123
1.00000022102
1.00000022551
1.00000023086
1.00000024084
1.00000028212
1.00000036857
1.00000042245
1.0000000007
1.00000000009
0.999958691449
0.999947614022
0.999999997964
1.00000000079
0.999941240223
0.99997831734
1.00000000315
1.0000000018
1.00000000026
1.00000000264
1.00000027175
1.00000033568
1.00000038056
1.00000029161
1.00000023342
1.00000021769
1.00000024927
1.00000016483
1.00000014476
1.00000013178
1.00000011911
1.00000010672
1.00000014555
1.00000014555
1.00000014298
1.0000001486
1.00000015452
1.00000016396
1.00000017919
1.00000019022
1.00000020546
1.00000020991
1.00000021902
1.00000022336
1.00000023403
1.00000027545
1.0000003637
1.0000004193
1
1.00000000002
0.999957756529
0.999954778125
0.99999999587
0.999999996786
0.999940095144
0.999978427265
1.00000000355
1.00000000123
1.00000000027
1.00000000042
1.00000020555
1.00000028655
1.00000038629
1.00000030096
1.00000021263
1.00000021222
1.0000002271
1.00000028773
1.00000014346
1.00000013049
1.00000011767
1.00000010513
1.0000001409
1.00000014304
1.00000014202
1.00000014522
1.00000015245
1.00000016147
1.00000017701
1.00000019105
1.00000019504
1.00000020669
1.00000021497
1.00000021928
1.00000022957
1.00000027184
1.00000036104
1.0000004176
1
1.00000000002
0.999960942749
0.999956183414
0.999999994134
0.999999993794
0.999943829348
0.999979605672
1.00000000185
1.00000000089
1.0000000001
1.00000000018
1.00000013577
1.00000024826
1.00000037278
1.0000002659
1.00000022154
1.00000020878
1.00000020595
1.00000033621
1.00000014227
1.00000012756
1.00000011452
1.00000011118
1.00000013938
1.00000014325
1.00000014161
1.00000014488
1.00000015303
1.00000016219
1.00000017449
1.00000018876
1.00000019509
1.00000020534
1.00000021348
1.00000021704
1.00000022778
1.00000026958
1.00000035955
1.00000041637
1
1.00000000001
0.999960039881
0.99995611664
0.999999993834
0.999999993812
0.999945071979
0.99997946644
1.00000000208
1.0000000007
1.00000000009
1.00000000014
1.0000001005
1.00000024369
1.00000036895
1.00000027106
1.00000020934
1.00000020625
1.00000019995
1.00000032744
1.00000014097
1.00000012671
1.0000001138
1.00000012268
1.00000013646
1.00000013994
1.0000001408
1.00000014452
1.00000015308
1.00000016224
1.00000017202
1.00000018843
1.00000019778
1.00000020577
1.00000021246
1.00000021579
1.00000022563
1.0000002683
1.00000035875
1.00000041537
1
1.00000000003
0.999956630909
0.999954709864
0.999999994499
0.999999995206
0.999941048669
0.999977479984
1.00000000229
1.00000000118
1.00000000008
1.00000000035
1.00000020216
1.00000027673
1.00000035829
1.0000003
1.00000020618
1.00000020955
1.00000023355
1.00000031426
1.00000014012
1.00000012744
1.00000011577
1.00000010463
1.00000013668
1.00000014188
1.00000014063
1.00000014403
1.00000015199
1.00000015968
1.00000017299
1.00000018964
1.00000019412
1.00000020534
1.00000021248
1.00000021634
1.00000022612
1.00000026858
1.00000035878
1.00000041401
1
1.00000000017
0.999957474195
0.999947316769
0.999999996455
0.999999998508
0.999940894233
0.999976311424
1.00000000361
1.00000000115
1.00000000023
1.00000000824
1.00000027115
1.0000003202