/*--------------------------------*- C++ -*----------------------------------*\
| =========                 |                                                 |
| \\      /  F ield         | OpenFOAM: The Open Source CFD Toolbox           |
|  \\    /   O peration     | Version:  3.0.1                                 |
|   \\  /    A nd           | Web:      www.OpenFOAM.org                      |
|    \\/     M anipulation  |                                                 |
\*---------------------------------------------------------------------------*/
FoamFile
{
    version     2.0;
    format      ascii;
    class       surfaceScalarField;
    location    "0.5";
    object      alphaPhi;
}
// * * * * * * * * * * * * * * * * * * * * * * * * * * * * * * * * * * * * * //

dimensions      [0 3 -1 0 0 0 0];

internalField   nonuniform List<scalar> 
22672
(
5.49029924552e-07
6.01013386937e-07
-1.1602289213e-06
1.28442355392e-06
5.91264139193e-07
-1.32756915945e-06
1.97786561274e-06
6.63327396242e-07
-1.36415382516e-06
2.4878819862e-06
8.32580198223e-07
-1.33978273498e-06
2.72287380722e-06
1.0878113118e-06
-1.32433160551e-06
2.66877469335e-06
1.42764754621e-06
-1.30145445485e-06
2.25308690953e-06
1.69952742288e-06
-1.30260371535e-06
1.61677573463e-06
1.95509570786e-06
-1.28649108482e-06
8.18347781181e-07
2.09970531989e-06
-1.30063523766e-06
-5.26188276885e-08
2.20049834844e-06
-1.32653694534e-06
-9.20340487112e-07
2.20013537044e-06
-1.32533812295e-06
-1.71408623131e-06
2.10842631595e-06
-1.31461994878e-06
-2.33716688327e-06
1.95783897239e-06
-1.2943087061e-06
-2.74534003926e-06
1.70043867998e-06
-1.31840620144e-06
-2.77158655808e-06
1.42361262565e-06
-1.31152450837e-06
-2.52263720481e-06
1.08090791221e-06
-1.33255108864e-06
-2.00231405589e-06
8.28055269947e-07
-1.34642997303e-06
-1.30013883323e-06
6.60533915096e-07
-1.37031494811e-06
-5.51957175727e-07
5.85760487442e-07
-1.33471839581e-06
5.98766658573e-07
-1.16250934793e-06
5.37151255612e-07
1.38530327791e-06
-1.3189668238e-06
1.3504327833e-06
1.45496025138e-06
-1.68589845725e-06
2.14594765845e-06
1.68620284534e-06
-1.81821913562e-06
2.73553471904e-06
2.10228520369e-06
-1.85889065377e-06
3.05022162551e-06
2.72648403124e-06
-1.85495324322e-06
2.93179302226e-06
3.38312862947e-06
-1.85211666367e-06
2.48502104011e-06
4.04553414771e-06
-1.84029515221e-06
1.76354843355e-06
4.53931475433e-06
-1.86110981867e-06
8.88741162516e-07
4.89197856211e-06
-1.87959516506e-06
-5.82879029256e-08
5.06443588803e-06
-1.9084941235e-06
-1.00294178161e-06
5.05697954855e-06
-1.90996422178e-06
-1.86926883241e-06
4.89681684821e-06
-1.88762156029e-06
-2.58216183576e-06
4.54020842877e-06
-1.87100643433e-06
-3.01162270081e-06
4.03312724417e-06
-1.85085285634e-06
-3.11763711242e-06
3.37016755926e-06
-1.86209857768e-06
-2.77376632836e-06
2.71260602908e-06
-1.86403413091e-06
-2.17168033536e-06
2.09155332922e-06
-1.86617101642e-06
-1.36019899751e-06
1.67608793379e-06
-1.82754184045e-06
-5.36058959199e-07
1.44571393022e-06
-1.69480891615e-06
1.3869586533e-06
-1.32311358312e-06
6.1009564648e-07
2.1016730373e-06
-1.37720592605e-06
1.58158136479e-06
2.29074646543e-06
-1.81086049367e-06
2.55204312964e-06
2.69688241081e-06
-1.9891131442e-06
3.3265910315e-06
3.39204484356e-06
-1.9940775758e-06
3.65671595878e-06
4.30542553641e-06
-1.91864515044e-06
3.54795349098e-06
5.36036700809e-06
-1.81001543428e-06
2.97075409344e-06
6.32156168383e-06
-1.7127293318e-06
2.09404558291e-06
7.10924987701e-06
-1.65727148666e-06
1.04668274099e-06
7.60068332632e-06
-1.65254204158e-06
-6.28038762931e-08
7.85889850329e-06
-1.66603795893e-06
-1.16941157921e-06
7.85326564739e-06
-1.66754918485e-06
-2.21121249539e-06
7.59771178636e-06
-1.65771606922e-06
-3.07508834918e-06
7.09090243637e-06
-1.66476571347e-06
-3.63685017386e-06
6.30240704223e-06
-1.72228597143e-06
-3.71784520749e-06
5.33757856257e-06
-1.82004502242e-06
-3.37650464589e-06
4.28291506762e-06
-1.92941417497e-06
-2.58006432297e-06
3.37360614539e-06
-2.00341688827e-06
-1.59628424334e-06
2.68160352765e-06
-1.99756029649e-06
-6.13441562793e-07
2.27743734954e-06
-1.82004519311e-06
2.09090223043e-06
-1.38232221599e-06
8.45397112866e-07
2.6260171145e-06
-1.358708869e-06
2.00713017822e-06
2.87127761013e-06
-1.85789382289e-06
3.26986452392e-06
3.4417853816e-06
-1.97944520916e-06
4.17651176483e-06
4.32786191453e-06
-1.87163342557e-06
4.67862820049e-06
5.52063220165e-06
-1.60077213606e-06
4.47675736056e-06
6.79447797517e-06
-1.25385075499e-06
3.7391507046e-06
8.02652588467e-06
-9.27582041479e-07
2.60055872083e-06
8.95858008965e-06
-7.20155160483e-07
1.29154603087e-06
9.5756415891e-06
-6.45518793246e-07
-6.89908785607e-08
9.85440626562e-06
-6.41452129106e-07
-1.42632111695e-06
9.85181164426e-06
-6.4437702901e-07
-2.72513148966e-06
9.56033880358e-06
-6.518803656e-07
-3.84963715145e-06
8.93695370992e-06
-7.29703919831e-07
-4.56537458808e-06
7.99715108244e-06
-9.40062955086e-07
-4.7504394012e-06
6.764553787e-06
-1.26682021619e-06
-4.21832609169e-06
5.49012612712e-06
-1.6132260169e-06
-3.29880519442e-06
4.30574569326e-06
-1.88447783468e-06
-2.02460688309e-06
3.42246640233e-06
-1.99085977033e-06
-8.5069343638e-07
2.8465940009e-06
-1.86577053642e-06
2.61393576739e-06
-1.36201323227e-06
1.09723495944e-06
2.84575609464e-06
-1.35081575808e-06
2.67061308723e-06
3.14846635432e-06
-1.84607088919e-06
4.16281034913e-06
3.77352976028e-06
-1.90959533072e-06
5.38674222233e-06
4.76162486357e-06
-1.58928610514e-06
5.89933196055e-06
6.01960004811e-06
-1.02324097359e-06
5.69131135046e-06
7.43397058299e-06
-3.22029122915e-07
4.68123356652e-06
8.70231037334e-06
3.20468046789e-07
3.22550984449e-06
9.69349100248e-06
7.37140661054e-07
1.58766816006e-06
1.03095979005e-05
8.9520797402e-07
-7.31269057277e-08
1.05978069243e-05
9.13886682286e-07
-1.73098497333e-06
1.05966735463e-05
9.12577913541e-07
-3.3593330414e-06
1.02943451681e-05
8.85205566564e-07
-4.79700649253e-06
9.66727472229e-06
7.23879699442e-07
-5.78773202353e-06
8.67155247039e-06
3.04142696993e-07
-5.9564618033e-06
7.39789662623e-06
-3.40290940972e-07
-5.422358157e-06
5.98796828599e-06
-1.03957542398e-06
-4.18645078858e-06
4.7322278427e-06
-1.60247645364e-06
-2.68794244178e-06
3.74735041559e-06
-1.92295184701e-06
-1.10393136239e-06
3.12478037284e-06
-1.85668019282e-06
2.829365023e-06
-1.35064169506e-06
1.42532050541e-06
2.75891527061e-06
-1.32618208291e-06
3.26028014745e-06
3.03089491231e-06
-1.85120896369e-06
5.20024666353e-06
3.64362541704e-06
-1.77953041802e-06
6.60644846258e-06
4.57032302987e-06
-1.23870566381e-06
7.34953421912e-06
5.76934372125e-06
-3.18836083558e-07
6.94371199059e-06
7.03052385855e-06
7.81286170113e-07
5.68209261471e-06
8.21307621632e-06
1.7823711986e-06
3.86506092169e-06
9.08666351326e-06
2.41263220058e-06
1.89011086267e-06
9.63931133649e-06
2.6463893668e-06
-7.80274499047e-08
9.88529455241e-06
2.67087226485e-06
-2.04508245667e-06
9.8822843245e-06
2.66871810088e-06
-4.00766209243e-06
9.62317928966e-06
2.63664768069e-06
-5.8071393422e-06
9.05978721971e-06
2.39458900057e-06
-7.04564001681e-06
8.17816239387e-06
1.7598448347e-06
-7.42772261445e-06
6.99751494167e-06
7.58189951012e-07
-6.65255950907e-06
5.73403619961e-06
-3.40739843905e-07
-5.226011481e-06
4.543750141e-06
-1.25627653785e-06
-3.27599757769e-06
3.61935073825e-06
-1.79402121305e-06
-1.42507600854e-06
3.00355603661e-06
-1.86112945133e-06
2.74310088044e-06
-1.32573691102e-06
1.69788204532e-06
2.34528921152e-06
-1.32205526851e-06
3.98565593614e-06
2.58634541342e-06
-1.83219898673e-06
6.16455955252e-06
3.07256432879e-06
-1.68897763205e-06
7.88279820886e-06
3.82870568844e-06
-9.06074563328e-07
8.54437951464e-06
4.767114928e-06
3.2784597111e-07
8.12520232904e-06
5.77711340706e-06
1.78731515505e-06
6.56640687302e-06
6.66661518877e-06
3.08454874087e-06
4.43330103272e-06
7.34340322658e-06
3.8836843323e-06
2.15293831515e-06
7.75001428763e-06
4.15257340193e-06
-8.27050366067e-08
7.94499107274e-06
4.17406627638e-06
-2.31500602626e-06
7.94057773418e-06
4.17333987784e-06
-4.58682545278e-06
7.73740568151e-06
4.14034337857e-06
-6.69585276954e-06
7.31676482877e-06
3.86109836051e-06
-8.23123238313e-06
6.63669995654e-06
3.0562618639e-06
-8.6228478917e-06
5.74322599327e-06
1.75572087036e-06
-7.93697306975e-06
4.73891079213e-06
3.01247352276e-07
-6.19505549097e-06
3.80119900289e-06
-9.28683934225e-07
-3.99465360658e-06
3.04762996987e-06
-1.70707144658e-06
-1.69655445518e-06
2.56635217429e-06
-1.84495951346e-06
2.33141062254e-06
-1.32751086385e-06
1.9654782602e-06
1.70543132748e-06
-1.31158679873e-06
4.44759745639e-06
1.85499098645e-06
-1.85659559098e-06
6.96788656164e-06
2.19182162632e-06
-1.6150560582e-06
8.77775330395e-06
2.69512336371e-06
-6.95959832077e-07
9.6059558489e-06
3.31987031657e-06
7.50435305395e-07
8.9797793346e-06
3.96509468939e-06
2.42392680299e-06
7.24285971568e-06
4.54147383399e-06
3.89384678087e-06
4.84950793578e-06
4.96371370253e-06
4.75417562983e-06
2.34826886773e-06
5.22712376506e-06
5.02951737319e-06
-8.85365657988e-08
5.34480342242e-06
5.02778671385e-06
-2.52722060794e-06
5.33938201381e-06
5.02351359016e-06
-5.01025623354e-06
5.21366692331e-06
5.01336677517e-06
-7.38269180306e-06
4.94257376907e-06
4.72583297089e-06
-9.08577048074e-06
4.51528609435e-06
3.85736018266e-06
-9.68582788463e-06
3.94019033351e-06
2.38576410631e-06
-8.82290351994e-06
3.29534203198e-06
7.1663438662e-07
-6.98806078745e-06
2.67412732128e-06
-7.23747305341e-07
-4.4484029624e-06
2.17427458548e-06
-1.63536649111e-06
-1.96477057319e-06
1.8375035612e-06
-1.87505788266e-06
1.70103520224e-06
-1.31825890761e-06
2.09994701708e-06
8.94533640833e-07
-1.32480271651e-06
4.84370786394e-06
9.71854754213e-07
-1.85520876571e-06
7.49734306464e-06
1.13244156686e-06
-1.62056854684e-06
9.4879973742e-06
1.38022411874e-06
-6.14987878282e-07
1.02046153695e-05
1.6801170275e-06
9.15225101972e-07
9.56328599206e-06
1.98930791746e-06
2.6691580634e-06
7.65246710635e-06
2.25841520933e-06
4.1756429418e-06
5.11869359562e-06
2.45801557158e-06
5.04196721562e-06
2.47020021642e-06
2.58241192468e-06
5.28020975172e-06
-9.61705207714e-08
2.63858963034e-06
5.27463412903e-06
-2.65408097601e-06
2.63608771957e-06
5.26661568186e-06
-5.28873128913e-06
2.5729751558e-06
5.2608710088e-06
-7.79546968291e-06
2.44488556825e-06
5.00629428259e-06
-9.67372988125e-06
2.24396011156e-06
4.13303923354e-06
-1.0284806492e-05
1.97490535353e-06
2.6237236553e-06
-9.53919576636e-06
1.66702549396e-06
8.75526543889e-07
-7.5189477531e-06
1.36934373939e-06
-6.46817681112e-07
-4.85265338723e-06
1.12344100936e-06
-1.64786233417e-06
-2.09889055898e-06
9.66750618348e-07
-1.87430009172e-06
8.98647622765e-07
-1.33351654089e-06
2.19540102514e-06
1.26682523305e-08
-1.31363688329e-06
5.01772868794e-06
1.05312943059e-08
-1.88569001487e-06
7.78505254189e-06
9.82317367573e-09
-1.62893908006e-06
9.78166012042e-06
9.59679047354e-09
-6.11670092901e-07
1.05503560887e-05
9.61594432816e-09
9.42687845521e-07
9.81993444242e-06
9.54637799905e-09
2.70466098483e-06
7.85642748795e-06
1.01325353878e-08
4.21074257059e-06
5.23952962158e-06
1.07928540016e-08
5.05822486876e-06
2.52616994437e-06
1.07061515266e-08
5.28647861617e-06
-9.64277631836e-08
1.10609947024e-08
5.25482723203e-06
-2.71238824312e-06
1.13321493505e-08
5.24265860919e-06
-5.40925872846e-06
1.05271194272e-08
5.25762320151e-06
-7.998834369e-06
1.04200866734e-08
5.01515925767e-06
-9.92924281212e-06
1.02967323229e-08
4.1618497319e-06
-1.06251396727e-05
1.05956542456e-08
2.6552699147e-06
-9.82015677788e-06
1.16888984955e-08
8.9959680553e-07
-7.8084556484e-06
1.23153919561e-08
-6.46834810877e-07
-5.01701633035e-06
1.38016678581e-08
-1.65301261699e-06
-2.19234893812e-06
1.78505818343e-08
-1.90704674948e-06
2.82217365326e-08
-1.32122356304e-06
2.19031965332e-06
-8.70530390485e-07
-1.31485513146e-06
5.02659671011e-06
-9.4924580861e-07
-1.88139325011e-06
7.79467210332e-06
-1.11257058073e-06
-1.63197278878e-06
9.77901816892e-06
-1.36048025897e-06
-6.12444309775e-07
1.05504249072e-05
-1.66015156396e-06
9.42974534264e-07
9.81941728495e-06
-1.97081250637e-06
2.70487842562e-06
7.85685921727e-06
-2.23763822251e-06
4.21159985411e-06
5.23887459596e-06
-2.43804966381e-06
5.05839138749e-06
2.52661710938e-06
-2.56159419041e-06
5.28769839128e-06
-9.35765561118e-08
-2.61622654454e-06
5.25471304565e-06
-2.71136796714e-06
-2.61381686213e-06
5.2422525725e-06
-5.40807213407e-06
-2.55202917549e-06
5.25789684092e-06
-7.99834352432e-06
-2.42518458964e-06
5.01408957497e-06
-9.92909253447e-06
-2.22219505191e-06
4.16052811192e-06
-1.06245112176e-05
-1.95254621968e-06
2.65456951954e-06
-9.8281183362e-06
-1.64398560026e-06
8.99475543104e-07
-7.81909897694e-06
-1.34365778244e-06
-6.4943644176e-07
-5.03094109337e-06
-1.09574865456e-06
-1.65985914605e-06
-2.19043978104e-06
-9.29918849668e-07
-1.90600499231e-06
-8.42274149176e-07
-1.32426217589e-06
2.10050620261e-06
-1.6800619402e-06
-1.32520240014e-06
4.84392732054e-06
-1.83455637237e-06
-1.85529913256e-06
7.5058247809e-06
-2.16953281244e-06
-1.62009470842e-06
9.47969000753e-06
-2.67316148022e-06
-6.14997310189e-07
1.02018435945e-05
-3.30067170401e-06
9.15516916767e-07
9.56528886309e-06
-3.9450903877e-06
2.66974151401e-06
7.65474206927e-06
-4.52228355942e-06
4.1770640022e-06
5.11910553285e-06
-4.9428856733e-06
5.04396642741e-06
2.46883117905e-06
-5.20582933882e-06
5.28041029171e-06
-9.56022115232e-08
-5.32263754158e-06
5.272777044e-06
-2.65194836465e-06
-5.31753541632e-06
5.26554960586e-06
-5.28786242064e-06
-5.19178870961e-06
5.25906148738e-06
-7.79518315218e-06
-4.92113845469e-06
5.00537350622e-06
-9.67263607547e-06
-4.49391039659e-06
4.13230750417e-06
-1.02911170963e-05
-3.91771326003e-06
2.62342533926e-06
-9.54343065519e-06
-3.27120164569e-06
8.75595593449e-07
-7.53472148274e-06
-2.6480384669e-06
-6.48510222041e-07
-4.85766562378e-06
-2.14492751095e-06
-1.64863704691e-06
-2.1019792579e-06
-1.80220754363e-06
-1.87721633685e-06
-1.6431839368e-06
-1.33389140492e-06
1.96639532869e-06
-2.32338956194e-06
-1.31402986786e-06
4.46259654944e-06
-2.56330063996e-06
-1.85747242506e-06
6.98088778892e-06
-3.05247864414e-06
-1.61787078662e-06
8.79767323763e-06
-3.80913177311e-06
-6.95676084413e-07
9.60669216946e-06
-4.74723097737e-06
7.50843266265e-07
8.98164037591e-06
-5.75875010926e-06
2.42455671245e-06
7.24511072528e-06
-6.64732766932e-06
3.89571313628e-06
4.85009245573e-06
-7.32421787889e-06
4.75554692052e-06
2.34817741644e-06
-7.72937311071e-06
5.03022014604e-06
-8.79770008389e-08
-7.92358121423e-06
5.0270001851e-06
-2.52735336016e-06
-7.92006287119e-06
5.0238861846e-06
-5.01022186162e-06
-7.71595107413e-06
5.01304595238e-06
-7.38212019382e-06
-7.2956677734e-06
4.72542732259e-06
-9.08712463453e-06
-6.6148101912e-06
3.85709309487e-06
-9.68527476964e-06
-5.72124369942e-06
2.3859252917e-06
-8.84263565714e-06
-4.71479880639e-06
7.17722446206e-07
-7.00417508917e-06
-3.77630167878e-06
-7.23307874152e-07
-4.46526502617e-06
-3.01980769246e-06
-1.63888902031e-06
-1.96493610337e-06
-2.52842947014e-06
-1.87475096769e-06
-2.2757742651e-06
-1.31922558042e-06
1.70010665204e-06
-2.73597259983e-06
-1.32173768269e-06
3.99107953432e-06
-3.01152296614e-06
-1.83341353931e-06
6.17455169091e-06
-3.6229218831e-06
-1.69038116658e-06
7.8877021799e-06
-4.54968256056e-06
-9.05247003784e-07
8.55155591605e-06
-5.75078108971e-06
3.2926490734e-07
8.12864259202e-06
-7.01230207021e-06
1.78811292915e-06
6.56996287536e-06
-8.19528793018e-06
3.08691823839e-06
4.43430320164e-06
-9.06868572307e-06
3.88659103734e-06
2.15312775365e-06
-9.61988380674e-06
4.15358856577e-06
-8.25661573224e-08
-9.8654591511e-06
4.17432778305e-06
-2.31513373048e-06
-9.86189010089e-06
4.17379260337e-06
-4.58633174985e-06
-9.6025550801e-06
4.14012089409e-06
-6.6961771326e-06
-9.03917626325e-06
3.86132036002e-06
-8.23022904393e-06
-8.15689833676e-06
3.05613815734e-06
-8.62657798206e-06
-6.97591439767e-06
1.75581735002e-06
-7.941103252e-06
-5.71176133369e-06
3.02842351656e-07
-6.20357751293e-06
-4.5192043555e-06
-9.27394564668e-07
-3.99961762052e-06
-3.59197137195e-06
-1.70726385527e-06
-1.69888043045e-06
-2.96876631851e-06
-1.84535359899e-06
-2.68742940338e-06
-1.32559042198e-06
1.42690892993e-06
-2.82410924267e-06
-1.32675228941e-06
3.27121000599e-06
-3.12769230476e-06
-1.85247855619e-06
5.2112677579e-06
-3.75453345368e-06
-1.77994716038e-06
6.61542222779e-06
-4.74182421419e-06
-1.23788895389e-06
7.34224774077e-06
-5.9996558592e-06
-3.18490974648e-07
6.94507758009e-06
-7.41315078523e-06
7.82132313439e-07
5.68617985535e-06
-8.6831884801e-06
1.78377888597e-06
3.86671055222e-06
-9.6763905546e-06
2.41478038493e-06
1.89124794847e-06
-1.0289984258e-05
2.6475192527e-06
-7.72935420112e-08
-1.057868531e-05
2.67100969467e-06
-2.04430318221e-06
-1.05769424549e-05
2.66870145408e-06
-4.00681980059e-06
-1.02731231761e-05
2.63633085299e-06
-5.80630593346e-06
-9.64641375838e-06
2.39445163877e-06
-7.04272303057e-06
-8.6494338608e-06
1.7598225286e-06
-7.42181829476e-06
-7.37576255075e-06
7.58849528502e-07
-6.65947674678e-06
-5.96525563565e-06
-3.38445708823e-07
-5.23572593707e-06
-4.70952032305e-06
-1.25408326907e-06
-3.28499325132e-06
-3.72311092055e-06
-1.79296821418e-06
-1.42587372022e-06
-3.09205015706e-06
-1.86016766504e-06
-2.77400389763e-06
-1.32626112758e-06
1.10658296341e-06
-2.60512139855e-06
-1.35041928276e-06
2.68904345913e-06
-2.85231980172e-06
-1.85091126976e-06
4.16846760286e-06
-3.42564566655e-06
-1.9130997418e-06
5.38519525034e-06
-4.31209940923e-06
-1.58722746781e-06
5.90071581218e-06
-5.50575885638e-06
-1.02172609447e-06
5.69387945797e-06
-6.77708645499e-06
-3.21271865992e-07
4.68424858186e-06
-8.00841512411e-06
3.21726636897e-07
3.22819282888e-06
-8.9408358217e-06
7.38996521836e-07
1.58945970368e-06
-9.55782268671e-06
8.96787194756e-07
-7.1712491064e-08
-9.83592647707e-06
9.15486291858e-07
-1.72996358066e-06
-9.83218199962e-06
9.13616851084e-07
-3.3577001545e-06
-9.54043747723e-06
8.85788344321e-07
-4.79472135924e-06
-8.91595128938e-06
7.24704577991e-07
-5.78468268574e-06
-7.97613471659e-06
3.05071559797e-07
-5.95404650146e-06
-6.74331025732e-06
-3.38800968381e-07
-5.42145722287e-06
-5.47093479271e-06
-1.03683180373e-06
-4.19338584352e-06
-4.2862455929e-06
-1.59922348797e-06
-2.69454011121e-06
-3.40145359669e-06
-1.92099205282e-06
-1.1058515425e-06
-2.81830769089e-06
-1.85462112976e-06
-2.56180299442e-06
-1.34764354552e-06
8.49184442081e-07
-2.08534956162e-06
-1.35627060775e-06
2.02302322364e-06
-2.27226714631e-06
-1.85838960775e-06
3.29175400305e-06
-2.68145302257e-06
-1.98156190798e-06
4.18733695368e-06
-3.38046841987e-06
-1.87234338994e-06
4.68956585015e-06
-4.29007246829e-06
-1.59859441023e-06
4.4842142043e-06
-5.3483747322e-06
-1.25196843196e-06
3.7436391718e-06
-6.3057929899e-06
-9.25841617602e-07
2.60419586974e-06
-7.0929972568e-06
-7.18361975289e-07
1.29443356358e-06
-7.58357674312e-06
-6.43565533823e-07
-6.66797304587e-08
-7.84162820949e-06
-6.39667458921e-07
-1.4242218219e-06
-7.83465468065e-06
-6.42712335192e-07
-2.72295627987e-06
-7.57851705659e-06
-6.50294440688e-07
-3.84785057539e-06
-7.07104447992e-06
-7.28029361274e-07
-4.56460359276e-06
-6.28289273747e-06
-9.37977337834e-07
-4.74992574874e-06
-5.32020379349e-06
-1.26403219976e-06
-4.22654407641e-06
-4.2664026147e-06
-1.60955262209e-06
-3.31336591329e-06
-3.35970498305e-06
-1.88082620168e-06
-2.0380320866e-06
-2.66444561479e-06
-1.9869089982e-06
-8.52467251382e-07
-2.25520364948e-06
-1.86111861319e-06
-2.0475866113e-06
-1.35529819676e-06
6.15303246277e-07
-1.37440461708e-06
-1.37435706655e-06
1.59135006721e-06
-1.43689620247e-06
-1.81325098421e-06
2.56546225095e-06
-1.67256710496e-06
-1.99038903065e-06
3.34230206935e-06
-2.08926179817e-06
-1.9935949854e-06
3.66507999444e-06
-2.71050157773e-06
-1.91616853215e-06
3.55612199264e-06
-3.36587950423e-06
-1.80587745846e-06
2.97450418955e-06
-4.03292579453e-06
-1.70951096321e-06
2.09871788696e-06
-4.51718286499e-06
-1.65320286424e-06
1.05066834628e-06
-4.87408674504e-06
-1.64909261567e-06
-5.89025879982e-08
-5.04254575391e-06
-1.66263082679e-06
-1.16588587776e-06
-5.03558639151e-06
-1.66422047668e-06
-2.20735348825e-06
-4.87584566828e-06
-1.65448259776e-06
-3.07139816489e-06
-4.52042783133e-06
-1.66122849796e-06
-3.63589471382e-06
-4.01696504293e-06
-1.71851744884e-06
-3.72101146403e-06
-3.3534125036e-06
-1.81538867797e-06
-3.3905657033e-06
-2.69926019743e-06
-1.9247583361e-06
-2.59423937876e-06
-2.07934203997e-06
-1.99822918938e-06
-1.6088186333e-06
-1.66366632063e-06
-1.99274908327e-06
-6.19209843035e-07
-1.42767114838e-06
-1.81557286801e-06
-1.35089429411e-06
-1.37286690978e-06
5.40701013185e-07
-5.91067639226e-07
-1.32064576299e-06
1.35928648376e-06
-5.75343121344e-07
-1.68864382249e-06
2.1613092632e-06
-6.52006413212e-07
-1.82121451608e-06
2.75220168602e-06
-8.21593283318e-07
-1.85843342882e-06
3.05745960372e-06
-1.07440558132e-06
-1.85302816891e-06
2.93989548798e-06
-1.40918671224e-06
-1.84616617525e-06
2.49254542786e-06
-1.67858643146e-06
-1.8329171298e-06
1.77046661809e-06
-1.93894707336e-06
-1.85274364422e-06
8.95397056416e-07
-2.08149710379e-06
-1.87077153358e-06
-5.17313035359e-08
-2.18505490704e-06
-1.90185139924e-06
-9.96365263995e-07
-2.1835605675e-06
-1.90365286199e-06
-1.86261140523e-06
-2.09193931214e-06
-1.88127428009e-06
-2.57535839239e-06
-1.94246027506e-06
-1.864492474e-06
-3.00635335836e-06
-1.68377432303e-06
-1.84409729452e-06
-3.11495136217e-06
-1.41071858196e-06
-1.85617729989e-06
-2.78309936663e-06
-1.06986518854e-06
-1.85805992095e-06
-2.1833675769e-06
-8.1729184863e-07
-1.86064476577e-06
-1.37005546975e-06
-6.50334900732e-07
-1.82362842247e-06
-5.45041250802e-07
-5.75093336083e-07
-1.68887352701e-06
-5.79887881778e-07
-1.31455484489e-06
5.55995508179e-07
-1.15967789079e-06
1.30558781716e-06
-1.32684695032e-06
2.00548135239e-06
-1.36013922134e-06
2.51593628564e-06
-1.33078814673e-06
2.74583933015e-06
-1.30856767295e-06
2.68469562423e-06
-1.28730571737e-06
2.27067922928e-06
-1.28317161647e-06
1.6327224726e-06
-1.26372385423e-06
8.32510286233e-07
-1.28111515241e-06
-3.87560528015e-08
-1.30952473746e-06
-9.07046065931e-07
-1.31000011551e-06
-1.7006564305e-06
-1.29843305174e-06
-2.32450086172e-06
-1.27964361143e-06
-2.73232156377e-06
-1.30416846332e-06
-2.76472480466e-06
-1.29755066826e-06
-2.51782199482e-06
-1.32041089829e-06
-1.99681644918e-06
-1.3350519883e-06
-1.29559993677e-06
-1.35986603167e-06
-5.49293534489e-07
-1.3220651083e-06
-1.14231884346e-06
6.59701794316e-07
7.0765544595e-07
-2.52202801462e-06
1.43091076003e-06
7.98921966989e-07
-2.92034766988e-06
2.16067158576e-06
9.73473887872e-07
-3.06622101036e-06
2.67599506674e-06
1.24189513557e-06
-3.12192529667e-06
2.9153067085e-06
1.60043885169e-06
-3.15157754609e-06
2.80005181354e-06
1.9942033509e-06
-3.20102752102e-06
2.36962488963e-06
2.37684990237e-06
-3.24170083912e-06
1.68449760132e-06
2.67576824971e-06
-3.31129179649e-06
8.48717757131e-07
2.88058023137e-06
-3.3462213246e-06
-5.84926982892e-08
2.9785126748e-06
-3.40863349927e-06
-9.60676956168e-07
2.97687286012e-06
-3.4054073356e-06
-1.78865237477e-06
2.87692298512e-06
-3.3693904365e-06
-2.46556423659e-06
2.67062878587e-06
-3.32783509603e-06
-2.87750490815e-06
2.36852171424e-06
-3.25748846828e-06
-2.97729505323e-06
1.9845039728e-06
-3.21674431447e-06
-2.71965496434e-06
1.58799371499e-06
-3.16391583699e-06
-2.18893640503e-06
1.2291106227e-06
-3.13259336323e-06
-1.44235490351e-06
9.62127464566e-07
-3.07650948415e-06
-6.57919401576e-07
7.87774965136e-07
-2.92929096362e-06
7.03346629644e-07
-2.51823420364e-06
7.72677949843e-07
1.50144893735e-06
-2.91489060938e-06
1.62164404947e-06
1.66214542882e-06
-3.39402486517e-06
2.3800513661e-06
1.97870454385e-06
-3.61576286138e-06
2.95252409991e-06
2.52893419425e-06
-3.69904654651e-06
3.18275105417e-06
3.23307140013e-06
-3.73622550676e-06
3.07088886952e-06
4.01773695206e-06
-3.73649844325e-06
2.57128243904e-06
4.7474977308e-06
-3.74099726108e-06
1.82748711763e-06
5.33191185066e-06
-3.76580318053e-06
9.08624967308e-07
5.71243544957e-06
-3.81486756261e-06
-6.29226114517e-08
5.89580953508e-06
-3.85507665946e-06
-1.03238695006e-06
5.89232095882e-06
-3.85766520683e-06
-1.93487575721e-06
5.70289185209e-06
-3.82213638682e-06
-2.66850643696e-06
5.3163830131e-06
-3.77714542936e-06
-3.14915278129e-06
4.72619164943e-06
-3.7543358906e-06
-3.25158907633e-06
3.99521466641e-06
-3.75111640717e-06
-3.00249695989e-06
3.20712687497e-06
-3.750336893e-06
-2.41594839764e-06
2.5032397202e-06
-3.71208010577e-06
-1.63658797641e-06
1.95272801906e-06
-3.62732929493e-06
-7.75634842544e-07
1.63976019022e-06
-3.40392901695e-06
1.48796715813e-06
-2.91903594665e-06
9.46777080966e-07
2.2487730181e-06
-3.06861188019e-06
1.95049095316e-06
2.42065863496e-06
-3.6135317609e-06
2.86543648108e-06
2.90910182997e-06
-3.82162522806e-06
3.52535330932e-06
3.68181977506e-06
-3.82492014638e-06
3.81248017866e-06
4.69994589243e-06
-3.66866213985e-06
3.63108434343e-06
5.80213250385e-06
-3.43130494242e-06
3.03362458587e-06
6.83028412556e-06
-3.19436612149e-06
2.12235935248e-06
7.63045737726e-06
-3.05614854359e-06
1.05642530291e-06
8.15423877326e-06
-3.02845973646e-06
-6.84133265861e-08
8.39746476804e-06
-3.04895496526e-06
-1.19000985456e-06
8.39260666433e-06
-3.05192664393e-06
-2.24826828458e-06
8.14068365008e-06
-3.03769194326e-06
-3.1439069164e-06
7.6080017877e-06
-3.07028968328e-06
-3.72581054827e-06
6.80059498837e-06
-3.21186729613e-06
-3.88634548421e-06
5.76866517348e-06
-3.45022524336e-06
-3.58249229093e-06
4.66361681139e-06
-3.68757618694e-06
-2.90317104473e-06
3.64569138498e-06
-3.84175103957e-06
-1.97252891473e-06
2.87477017953e-06
-3.83562549939e-06
-9.55844168354e-07
2.39002059658e-06
-3.62531357226e-06
2.22683148215e-06
-3.07276819622e-06
1.2252770656e-06
2.75996985498e-06
-3.13151536868e-06
2.50021878775e-06
3.00334227232e-06
-3.69594662548e-06
3.64287207297e-06
3.57961165497e-06
-3.82385797477e-06
4.48404052155e-06
4.53773031168e-06
-3.56641498829e-06
4.81845580523e-06
5.75767875267e-06
-3.00849961361e-06
4.56825451554e-06
7.0804126567e-06
-2.2768232756e-06
3.76840571796e-06
8.2823355937e-06
-1.58739653772e-06
2.61000428866e-06
9.21234701701e-06
-1.14070831143e-06
1.28792491895e-06
9.80225929024e-06
-9.76873714952e-07
-7.3671996984e-08
1.00787842035e-05
-9.60948164319e-07
-1.43213705702e-06
1.00818868937e-05
-9.65052598737e-07
-2.74460119865e-06
9.78441380743e-06
-9.89451499924e-07
-3.88768348031e-06
9.18437824105e-06
-1.1600817936e-06
-4.668019902e-06
8.24585960952e-06
-1.61119659238e-06
-4.89842632954e-06
7.03882005584e-06
-2.30253476179e-06
-4.54272384244e-06
5.71392307559e-06
-3.03357717194e-06
-3.68308490452e-06
4.49472598926e-06
-3.58918188788e-06
-2.52364107664e-06
3.53713696674e-06
-3.84313867706e-06
-1.23477272686e-06
2.96713485124e-06
-3.71134725736e-06
2.73518601363e-06
-3.13372117495e-06
1.58805025374e-06
3.00050019617e-06
-3.16808353286e-06
3.20755910759e-06
3.24224609565e-06
-3.72534894303e-06
4.66489942079e-06
3.88583431558e-06
-3.66354960179e-06
5.70736219363e-06
4.88617025673e-06
-3.00572172922e-06
6.1092994543e-06
6.17514902018e-06
-1.83820208105e-06
5.73488242488e-06
7.53567810889e-06
-4.09338058157e-07
4.6799397529e-06
8.76378343074e-06
8.96063126431e-07
3.19964959502e-06
9.69232805537e-06
1.73536793123e-06
1.56797855982e-06
1.0274789051e-05
2.05723857864e-06
-7.8253906605e-08
1.05565797949e-05
2.10211878181e-06
-1.72455311593e-06
1.05409366408e-05
2.09598230252e-06
-3.34438771769e-06
1.02635487732e-05
2.0405730079e-06
-4.80749921169e-06
9.65974513034e-06
1.70908633033e-06
-5.84083399031e-06
8.7224410648e-06
8.63025952101e-07
-6.19197145453e-06
7.48845709579e-06
-4.45724602809e-07
-5.76874030259e-06
6.12660917426e-06
-1.87268811188e-06
-4.70614745185e-06
4.83900823716e-06
-3.03633184604e-06
-3.23192944426e-06
3.84176955944e-06
-3.6891888534e-06
-1.5984117158e-06
3.20295069345e-06
-3.74534879471e-06
2.97197423132e-06
-3.17463358707e-06
1.98992857328e-06
2.88434591978e-06
-3.21488353047e-06
3.99556209439e-06
3.13032354962e-06
-3.72437175552e-06
5.76835832978e-06
3.70956058183e-06
-3.42052422376e-06
7.03785315367e-06
4.65278081552e-06
-2.2682010931e-06
7.46989054711e-06
5.81269420279e-06
-4.03842741695e-07
6.95936126257e-06
7.03911266377e-06
1.79502773996e-06
5.61610115524e-06
8.12149593395e-06
3.76704516537e-06
3.79934028715e-06
8.93062409264e-06
5.00489955306e-06
1.85295846557e-06
9.43730344149e-06
5.45552057576e-06
-8.37687717864e-08
9.67411659096e-06
5.51122758173e-06
-2.01660674726e-06
9.66674962228e-06
5.50418859052e-06
-3.95783410073e-06
9.40935989253e-06
5.43338828814e-06
-5.75276840814e-06
8.90380656065e-06
4.96872295282e-06
-7.0714196058e-06
8.07831860841e-06
3.72146732708e-06
-7.55560566524e-06
6.99131288769e-06
1.74588451163e-06
-7.09945058903e-06
5.76298355867e-06
-4.50824007228e-07
-5.80976483099e-06
4.60689929135e-06
-2.30860586228e-06
-4.01999979387e-06
3.66511873641e-06
-3.45373643626e-06
-1.99963442921e-06
3.09516032378e-06
-3.75019337024e-06
2.85414708997e-06
-3.22538626133e-06
2.37090288436e-06
2.45296214238e-06
-3.25677713354e-06
4.72779440206e-06
2.63993020771e-06
-3.72408626408e-06
6.80568860368e-06
3.12316973e-06
-3.17732837984e-06
8.23632200671e-06
3.85298279965e-06
-1.57169034254e-06
8.70468070222e-06
4.77046983707e-06
9.1099680337e-07
8.0412083233e-06
5.70687217136e-06
3.77683175389e-06
6.44020863611e-06
6.53316198968e-06
6.30012413323e-06
4.31957968296e-06
7.13697771266e-06
7.8172366315e-06
2.09772433869e-06
7.518463623e-06
8.3256175229e-06
-8.90932493688e-08
7.68592764499e-06
8.36308139048e-06
-2.27121509555e-06
7.66635834814e-06
8.35395246987e-06
-4.48315435931e-06
7.49415354137e-06
8.29855333294e-06
-6.58768374965e-06
7.1022237923e-06
7.7699511785e-06
-8.15778111871e-06
6.49653800733e-06
6.23949707579e-06
-8.7921135495e-06
5.66090876906e-06
3.71201553075e-06
-8.29802560786e-06
4.72542888755e-06
8.50480321851e-07
-6.8462123976e-06
3.80996880461e-06
-1.62289153707e-06
-4.75036347076e-06
3.0846854287e-06
-3.2193051957e-06
-2.37988365079e-06
2.60528257744e-06
-3.75768468955e-06
2.42761795715e-06
-3.27413546257e-06
2.67691290613e-06
1.76561931025e-06
-3.31037092675e-06
5.31865986334e-06
1.89878515813e-06
-3.74224407396e-06
7.60508502651e-06
2.20604646135e-06
-3.0317672031e-06
9.18130685529e-06