/*--------------------------------*- C++ -*----------------------------------*\
| =========                 |                                                 |
| \\      /  F ield         | OpenFOAM: The Open Source CFD Toolbox           |
|  \\    /   O peration     | Version:  3.0.1                                 |
|   \\  /    A nd           | Web:      www.OpenFOAM.org                      |
|    \\/     M anipulation  |                                                 |
\*---------------------------------------------------------------------------*/
FoamFile
{
    version     2.0;
    format      ascii;
    class       volScalarField;
    location    "0.5";
    object      epsilon_0;
}
// * * * * * * * * * * * * * * * * * * * * * * * * * * * * * * * * * * * * * //

dimensions      [0 2 -3 0 0 0 0];

internalField   nonuniform List<scalar> 
7968
(
0.0479086225125
0.0487904960738
0.0491753524322
0.0492745068052
0.0492947264945
0.0492983111091
0.0492979847977
0.0492963134368
0.0492942174807
0.0492926708044
0.0492927806982
0.049294446741
0.0492965571256
0.0492982012369
0.0492984865773
0.049294879226
0.0492745536114
0.0491753662365
0.0487906573949
0.0479087362162
0.048790510855
0.0564791778
0.0599378224874
0.0609318202974
0.0611515277608
0.0611884629112
0.0611903708507
0.0611878241601
0.0611864833704
0.061186277091
0.0611864479342
0.0611869494294
0.0611884836547
0.0611911550596
0.061189174352
0.0611522463707
0.0609323378333
0.0599382307265
0.056479865691
0.0487906576617
0.0491754425057
0.0599380068616
0.0655569297516
0.0674125395696
0.067882239994
0.0679726851855
0.0679801775889
0.0679763190248
0.0679750446024
0.067975796811
0.0679759916501
0.0679756014356
0.067977136425
0.0679811696369
0.0679736719408
0.0678832004892
0.0674132701483
0.0655574340804
0.0599383668638
0.0491754610955
0.0492746260174
0.0609321085484
0.0674125516412
0.0696870114789
0.0702910141528
0.0704024425255
0.0704009198692
0.0703874078903
0.0703822446719
0.0703826614909
0.0703829028223
0.0703829520157
0.0703884248817
0.0704021554077
0.0704037030868
0.0702921724723
0.0696879395496
0.0674131299148
0.0609324524495
0.0492745817569
0.0492949105416
0.0611517199874
0.0678824724752
0.0702910610758
0.0709265722688
0.0710226387182
0.0710132700991
0.0710090174422
0.0710066174512
0.0710066002959
0.0710067121898
0.0710069633605
0.0710094840728
0.0710138142915
0.0710242436763
0.0709280259473
0.0702921565961
0.0678830986627
0.061151962953
0.0492948091464
0.0492984968405
0.0611887905776
0.0679728448124
0.0704024754456
0.0710226091028
0.0711353731742
0.0711434057911
0.0711325609686
0.0711264129882
0.071125289742
0.0711254270059
0.0711268344601
0.0711331865767
0.0711441139342
0.0711360973129
0.0710244675519
0.070403905775
0.0679736880856
0.0611890998258
0.0492984072348
0.0492981873873
0.0611905740968
0.067980251961
0.0704008198954
0.0710132345758
0.0711433334213
0.0711413620923
0.071121596369
0.0711106530732
0.0711078300602
0.0711080240897
0.0711112683773
0.0711225052017
0.0711423809285
0.0711442830392
0.0710140377018
0.0704026587241
0.0679814001921
0.0611911327968
0.0492981424881
0.0492965241372
0.0611879527542
0.0679761815575
0.0703870260673
0.0710088723781
0.0711323279222
0.0711214119287
0.0710941588139
0.0710782466972
0.071073096638
0.07107338323
0.0710791213946
0.0710954234653
0.0711227667711
0.071133580063
0.0710098666168
0.0703893387388
0.067977685353
0.0611887436877
0.0492964711482
0.0492943894651
0.0611864110207
0.0679746507303
0.0703815604954
0.0710063186937
0.0711259777194
0.0711101888599
0.071077879368
0.0710574590535
0.0710493132393
0.0710497510246
0.0710586384727
0.0710795113547
0.0711118351251
0.0711274738201
0.0710075217081
0.0703842242163
0.0679763993689
0.0611873174361
0.0492943463697
0.0492927157885
0.0611859930808
0.0679751485593
0.0703816330484
0.0710061547648
0.0711246508091
0.0711070934067
0.0710723596318
0.071048821745
0.0710376611393
0.0710382845312
0.0710503239751
0.0710742518124
0.0711089164523
0.0711262705755
0.0710074077379
0.070384480867
0.0679770392601
0.0611869688425
0.0492926727832
0.0492926647612
0.0611859970803
0.0679751489862
0.0703816179066
0.0710061550196
0.0711246401828
0.0711070656299
0.0710723051397
0.071048756851
0.0710375878355
0.0710382038079
0.0710502570937
0.0710741846928
0.0711088627429
0.0711262339264
0.0710073704589
0.0703844038718
0.0679769707949
0.0611869141224
0.0492925375644
0.0492942513259
0.0611863961559
0.0679746565884
0.0703815621083
0.0710063457267
0.0711259693006
0.0711101714258
0.0710778385878
0.071057382817
0.0710492407854
0.0710496757986
0.07105854864
0.0710794129506
0.0711117457393
0.0711273879649
0.0710074385327
0.0703840386007
0.0679762186176
0.0611871396688
0.049294025851
0.0492963296274
0.0611879090522
0.0679761847401
0.0703870062494
0.0710088609631
0.0711323030641
0.0711213666346
0.0710940812528
0.0710781510983
0.0710730108398
0.0710732915694
0.0710790029965
0.0710952752796
0.0711226165561
0.0711334398259
0.0710096886991
0.0703889408116
0.0679773182617
0.0611883779791
0.0492960230482
0.0492980024143
0.0611905858298
0.0679802898913
0.0704008263829
0.0710132059508
0.0711432994758
0.0711413064905
0.0711214982173
0.0711105251931
0.0711077055439
0.0711078784003
0.0711111112299
0.071122327939
0.0711421984838
0.0711440938563
0.0710138013059
0.0704021786153
0.0679809280404
0.0611906698887
0.0492976160222
0.0492983134499
0.0611887318773
0.0679728878709
0.0704025245133
0.0710225543432
0.0711353500918
0.0711433676242
0.0711324977417
0.0711263191784
0.0711251868015
0.0711253070716
0.0711267089469
0.071133040971
0.071143937194
0.0711358691691
0.0710239106026
0.070403341727
0.0679731117333
0.0611885031869
0.0492978878015
0.0492947670087
0.0611518011817
0.0678826233594
0.0702911814798
0.0709265202041
0.0710225155175
0.0710132196923
0.0710089541112
0.0710065216999
0.0710064866404
0.0710065788147
0.0710068460557
0.0710093066508
0.0710135998276
0.0710236678632
0.0709273877536
0.0702915256998
0.0678824007608
0.0611512867514
0.0492943069047
0.0492744861804
0.060932191554
0.0674127814175
0.0696872177315
0.0702910231859
0.0704023169092
0.070400706133
0.0703871317235
0.0703818578485
0.0703822166357
0.0703824009261
0.0703824405963
0.0703878636604
0.0704015627995
0.0704030801915
0.070291537499
0.0696872414398
0.0674122862383
0.0609314647287
0.0492740490581
0.04917534365
0.0599381498264
0.0655571907913
0.0674127394537
0.0678822044558
0.0679725068182
0.0679799134425
0.0679759963253
0.0679746349513
0.0679753383686
0.0679754859201
0.0679750812453
0.0679765642608
0.0679805382884
0.0679730275805
0.0678824891896
0.067412410783
0.0655565161082
0.0599374659934
0.0491749846256
0.0487906431514
0.0564798520651
0.0599382615437
0.0609321195802
0.0611515463811
0.0611882924836
0.0611901979817
0.0611875462528
0.06118613702
0.0611858487757
0.0611859843469
0.061186507289
0.0611880310587
0.0611906346769
0.0611886197146
0.0611516643027
0.0609316521411
0.0599376376243
0.056479021081
0.0487903195423
0.0479087426425
0.0487907012334
0.0491754795938
0.0492745739534
0.049294753122
0.04929830567
0.0492979346805
0.0492961802116
0.0492940417402
0.0492924020409
0.0492924389512
0.0492941038198
0.049296216435
0.0492978626382
0.049298162257
0.0492945513105
0.0492742471345
0.0491751106247
0.0487903881913
0.0479085821046
0.0487848711085
0.0564157013224
0.0598523996882
0.0608394339876
0.0610571938688
0.0610939622651
0.0610957386643
0.0610923330719
0.0610892780171
0.0610876987349
0.0610878046796
0.0610895556729
0.0610927103316
0.0610961469148
0.0610943696517
0.061057542252
0.0608397034008
0.0598526053435
0.0564159724605
0.0487848767306
0.0564156723901
0.0525143084184
0.053552005349
0.0539155317929
0.0540033287896
0.0540222015003
0.0540269677296
0.0540289573609
0.0540301099398
0.0540306786964
0.0540306846286
0.0540301213011
0.0540289684089
0.0540269752758
0.0540221949776
0.0540033130187
0.0539154930612
0.0535519728764
0.052514372847
0.056415874529
0.059852498844
0.0535519685826
0.053814964738
0.0539260401492
0.0539444728357
0.0539472943825
0.0539486101188
0.0539496453863
0.0539503364303
0.0539506725766
0.0539506732724
0.0539503360164
0.0539496421288
0.0539486067475
0.0539472814836
0.0539444436082
0.0539259732274
0.0538148772195
0.0535519637125
0.059852502292
0.060839623684
0.0539155067138
0.0539260346381
0.0539272605013
0.0539065080054
0.0538983785391
0.0538976062731
0.053898717266
0.053899534681
0.0538998540903
0.0538998488816
0.0538995169253
0.0538986878799
0.0538975768701
0.0538983517714
0.0539064584922
0.0539271635495
0.0539259014091
0.053915452195
0.0608395644905
0.0610574621103
0.0540033130322
0.0539444820115
0.0539065142254
0.0538692751928
0.0538570340218
0.0538584225128
0.0538640006127
0.0538667799338
0.0538673845124
0.0538673453637
0.0538666562413
0.0538638152262
0.05385821763
0.0538569595316
0.0538692041764
0.0539063926181
0.0539443170381
0.0540032234271
0.0610573351278
0.0610942525745
0.0540222021433
0.0539473090613
0.0538983920296
0.0538570454858
0.053851473876
0.0538623630388
0.0538722137951
0.0538765429126
0.0538773737427
0.0538773199392
0.0538763688126
0.0538719379189
0.0538620380531
0.0538511684271
0.0538569183011
0.0538982532994
0.0539471317272
0.054022098324
0.0610941477895
0.0610960129477
0.0540269701368
0.0539486317152
0.0538976306141
0.0538584752843
0.0538624028708
0.0538793075852
0.0538923071615
0.0538976441742
0.0538985040733
0.0538984310903
0.0538974121907
0.0538919345665
0.0538788654999
0.0538619568159
0.0538580966704
0.0538974614115
0.0539484507163
0.0540268782152
0.0610959960946
0.0610925549021
0.0540289629578
0.0539496696558
0.0538987497358
0.0538640964979
0.0538723257026
0.053892385139
0.0539068796009
0.0539124579085
0.053913079851
0.0539129842914
0.053912162118
0.0539064006897
0.0538918302743
0.0538717651848
0.0538636219191
0.0538985664535
0.0539494920027
0.0540288835737
0.0610926012533
0.0610894013905
0.0540301095532
0.0539503627229
0.053899580154
0.0538669448789
0.0538767412931
0.0538978333902
0.0539125869771
0.0539178295287
0.0539180623295
0.0539179458888
0.0539174794916
0.0539120056401
0.0538971850414
0.0538760914352
0.0538663971414
0.0538993823366
0.0539501835024
0.0540300329669
0.0610895047751
0.0610876821156
0.0540306698611
0.0539507001431
0.0538999098741
0.0538676131994
0.053877662118
0.05389879797
0.0539133397281
0.0539181981187
0.0539180892411
0.0539179602471
0.0539177952169
0.0539126854615
0.053898091345
0.0538769611367
0.0538670294442
0.0538997062108
0.053950520743
0.054030596092
0.0610878276562
0.0610876567106
0.0540306709041
0.0539507021253
0.0538999127759
0.0538676222336
0.0538776785131
0.0538988219187
0.0539133695271
0.0539182235282
0.0539181049711
0.0539179746076
0.0539178122099
0.0539127039763
0.053898102436
0.0538769685575
0.0538670366284
0.0538997048993
0.0539505193614
0.0540305927599
0.0610877700854
0.0610893361803
0.0540301083495
0.0539503651048
0.0538995845049
0.0538669550229
0.0538767618595
0.0538978626818
0.0539126144023
0.0539178407061
0.0539180470407
0.0539179301045
0.0539174794385
0.0539120324268
0.0538972149511
0.05387611277
0.0538664128442
0.0538993815445
0.0539501796339
0.0540300215571
0.0610893454857
0.061092451892
0.0540289565834
0.0539496702757
0.0538987541516
0.0538641135427
0.053872355995
0.0538924281004
0.0539069242059
0.0539124838767
0.0539130845086
0.0539129823042
0.0539121824068
0.0539064464011
0.0538918768499
0.0538718010302
0.0538636518619
0.0538985567091
0.0539494766043
0.0540288542526
0.0610923473927
0.0610959193898
0.0540269676295
0.053948631947
0.0538976330708
0.0538584857397
0.0538624301832
0.0538793493669
0.0538923588024
0.0538976873957
0.0538985324828
0.0538984573232
0.0538974529661
0.0538919878098
0.0538789131063
0.0538619959414
0.0538581244163
0.0538974467996
0.053948428043
0.0540268367697
0.0610956745204
0.0610941744706
0.0540221949415
0.0539473004728
0.0538983821825
0.0538570340099
0.0538514795783
0.0538623850829
0.0538722450228
0.05387657307
0.053877398698
0.053877343822
0.0538763994586
0.0538719756108
0.053862072916
0.0538511887039
0.0538568955957
0.0538982216604
0.0539470965128
0.0540220461148
0.0610938202708
0.0610574120667
0.0540033163038
0.0539444612271
0.0539064764223
0.0538692211572
0.0538569848892
0.0538584044661
0.0538639930238
0.0538667764923
0.0538673820178
0.0538673450013
0.053866656821
0.0538638205027
0.0538582149399
0.0538569025352
0.0538691344395
0.0539063280239
0.0539442550742
0.0540031538529
0.0610569562234
0.0608396340902
0.0539155117549
0.0539259858966
0.0539271758463
0.0539063953852
0.0538982565123
0.0538974873027
0.0538986011236
0.0538994152725
0.053899734017
0.0538997278603
0.0538993974921
0.0538985662024
0.0538974501685
0.0538982181456
0.0539063291112
0.0539270445496
0.0539257960168
0.0539153456525
0.0608390901566
0.0598526016267
0.0535519923296
0.0538148884978
0.0539259097385
0.0539443064617
0.05394711252
0.0539484266257
0.0539494629296
0.0539501511852
0.0539504866163
0.0539504870035
0.0539501521144
0.0539494542261
0.0539484115705
0.0539470860134
0.0539442507099
0.0539257864431
0.0538147180628
0.0535518228805
0.0598519805671
0.0564159780615
0.0525143781322
0.0535519552767
0.0539154295696
0.0540031884678
0.0540220367597
0.0540268031445
0.054028784434
0.0540299289639
0.0540304910755
0.0540304952693
0.0540299388179
0.0540287858492
0.0540267838118
0.0540219995355
0.0540031148957
0.0539152857595
0.0535517598945
0.0525141208186
0.056415256918
0.0487848862648
0.0564158828487
0.0598524706479
0.0608394913726
0.0610571689041
0.0610939074801
0.0610956497656
0.0610921713992
0.0610890723929
0.0610874526564
0.06108753154
0.0610892919635
0.0610924606697
0.0610958996614
0.0610941109177
0.0610572346294
0.0608393102673
0.0598520676216
0.0564152458594
0.0487846063995
0.0491675225384
0.0598429315514
0.0654203721954
0.0672585401036
0.0677233543138
0.0678144543424
0.0678239330088
0.0678199613671
0.0678160849524
0.0678142397821
0.0678143331843
0.0678163806631
0.0678204005961
0.0678244177379
0.0678149476058
0.0677238698003
0.0672590010698
0.0654207079917
0.0598431912384
0.0491675236681
0.0598428921075
0.0535508332341
0.0538202178945
0.0539361731964
0.053959608752
0.0539676002673
0.0539736792124
0.0539784123869
0.0539814674442
0.0539828979045
0.0539828765064
0.0539814033071
0.0539783114723
0.0539735454861
0.0539674462509
0.0539594200702
0.0539359658634
0.0538200248031
0.0535507694161
0.0598430336796
0.0654204560267
0.0538201287844
0.052218859002
0.051623145318
0.051413448188
0.0513574481026
0.0513484171064
0.0513495845182
0.0513514376256
0.0513523462874
0.0513523217188
0.0513513637903
0.0513494691529
0.0513482712763
0.0513572763482
0.0514132359203
0.0516228876778
0.0522186038767
0.0538200527979
0.0654204371251
0.0672587560857
0.0539360671175
0.0516231027518
0.0506961983238
0.0503548305152
0.0502562304774
0.0502362185378
0.0502350868217
0.0502362667461
0.0502368174674
0.050236790129
0.05023618329
0.0502349557896
0.0502360557714
0.0502560474353
0.0503546051419
0.0506959125798
0.0516228097072
0.0539359634818
0.0672586491664
0.0677236526465
0.0539594997888
0.0514133890884
0.0503548094506
0.049954150562
0.0498359194886
0.0498123734617
0.049812275614
0.0498141866075
0.0498148022473
0.0498147577239
0.0498140498336
0.0498120678347
0.0498121243872
0.0498356794407
0.0499538940782
0.0503544970407
0.0514130707797
0.0539593800377
0.0677235044812
0.0678147530341
0.0539675050624
0.051357393731
0.0502562116514
0.0498359256064
0.0497145160182
0.0496943061376
0.0496969318172
0.0497002121802
0.0497011830057
0.0497011217719
0.0497000145242
0.0496966353382
0.0496939642755
0.0497141467454
0.0498355823298
0.050255852963
0.0513570425993
0.0539673593389
0.0678147167304
0.0678241966942
0.0539735996308
0.0513483825965
0.0502362250967
0.049812422075
0.0496943400795
0.0496780339865
0.0496835748242
0.0496885184087
0.0496900440618
0.0496899571835
0.0496882429628
0.0496831657049
0.04967758786
0.0496938695
0.0498119246666
0.0502357953063
0.0513479931648
0.053973440366
0.0678242392239
0.0678201536634
0.0539783567494
0.0513495810925
0.0502351343115
0.0498123805814
0.0496970214209
0.0496836353346
0.0496916288133
0.0496982764363
0.0497004585648
0.0497003402135
0.0496979152913
0.0496910950316
0.0496830672885
0.0496964517554
0.0498117831058
0.0502346378859
0.0513491551134
0.0539781884839
0.0678202875183
0.0678161556235
0.0539814336236
0.051351469656
0.0502363614184
0.0498143636287
0.0497003888224
0.049688683836
0.0496983928526
0.0497064172108
0.0497091813367
0.0497090354987
0.0497059904139
0.0496977463539
0.0496880086113
0.0496997215482
0.0498136865362
0.0502358126062
0.0513510106442
0.0539812477749
0.0678163848224
0.0678141742096
0.0539828835219
0.0513524112658
0.0502369541216
0.0498150497533
0.0497014542784
0.0496903254704
0.0497007226215
0.0497093394281
0.0497123420885
0.0497121778604
0.049708850566
0.0496999974333
0.0496895863252
0.049700730454
0.0498143320218
0.0502363803834
0.051351935349
0.0539826919785
0.0678144762302
0.0678141517006
0.0539828851467
0.051352413098
0.0502369565879
0.0498150558784
0.0497014621513
0.0496903344229
0.049700732479
0.049709341839
0.0497123356715
0.0497121700591
0.0497088458421
0.0496999965065
0.0496895827401
0.0497007308695
0.0498143371296
0.0502363841403
0.0513519404981
0.0539826976745
0.0678144306657
0.0678161181523
0.0539814369656
0.0513514710322
0.0502363620676
0.049814368007
0.0497003903848
0.0496886757524
0.0496983704526
0.0497063741991
0.0497091193577
0.0497089726241
0.0497059395613
0.049697730181
0.0496880051379
0.0496997290241
0.0498137046899
0.0502358262289
0.0513510264507
0.0539812652986
0.0678162557414
0.0678201316728
0.0539783553543
0.0513495787692
0.0502351323223
0.0498123858138
0.0496970232325
0.0496836189506
0.0496915912815
0.0496982153308
0.0497003818375
0.0497002622462
0.0496978636896
0.0496910705539
0.0496830617659
0.0496964657617
0.0498118109506
0.050234655823
0.0513491767881
0.0539782117255
0.0678200972638
0.0678241700068
0.0539735989459
0.0513483724339
0.0502362101537
0.04981241148
0.0496943313458
0.0496780105829
0.0496835359751
0.0496884652709
0.049689980063
0.0496898932696
0.0496881989322
0.049683140868
0.0496775793844
0.0496938808297
0.0498119440696
0.0502358076775
0.0513480152817
0.0539734631355
0.067824010674
0.0678147346954
0.053967500023
0.0513573590827
0.0502561598368
0.0498358696051
0.0497144655813
0.0496942576293
0.0496968773441
0.0497001516697
0.0497011205913
0.0497010596883
0.0496999633629
0.0496965977193
0.0496939368491
0.0497141230565
0.0498355554018
0.0502558404788
0.0513570587287
0.0539673964584
0.0678144619367
0.0677237156953
0.0539594720543
0.0514132993824
0.0503546834085
0.0499540087085
0.0498357781038
0.0498122439075
0.0498121507014
0.0498140628075
0.0498146795691
0.0498146362074
0.0498139328622
0.0498119571236
0.0498120156049
0.0498355629171
0.0499537912499
0.0503544309948
0.0514130577589
0.0539594019791
0.0677232397964
0.0672589101848
0.0539360137691
0.0516229337198
0.0506959676212
0.0503545733747
0.0502559669404
0.0502359588183
0.0502348315418
0.0502360127615
0.0502365643701
0.0502365382169
0.0502359349839
0.0502347113871
0.0502358153671
0.0502558170473
0.0503544054074
0.050695772681
0.05162275876
0.0539359840815
0.0672582526039
0.0654206844263
0.0538200626538
0.0522186347545
0.0516228496955
0.0514131256046
0.0513571192971
0.0513480929914
0.0513492678667
0.0513511220972
0.0513520319538
0.0513520093647
0.0513510572475
0.0513491665291
0.0513479689586
0.0513569884012
0.0514129839746
0.0516227051612
0.0522185243029
0.0538200449772
0.065419865141
0.0598431763814
0.0535507784921
0.0538200553581
0.053935977556
0.0539594027534
0.053967389509
0.0539734742099
0.0539782182272
0.0539812689033
0.0539826995222
0.0539826788382
0.0539812147916
0.0539781299555
0.0539733537144
0.0539672642729
0.0539592564132
0.0539358358544
0.0538199190658
0.0535506318866
0.0598422086064
0.0491675230704
0.0598429884405
0.065420350265
0.0672585223228
0.0677232865177
0.0678144143552
0.067823827057
0.0678197965952
0.0678158837198
0.0678140352242
0.0678141083685
0.0678161191798
0.0678201410468
0.0678242092362
0.0678147335303
0.0677235308884
0.067258468025
0.0654199123631
0.0598421508881
0.0491672670667
0.0492680293346
0.0608310556173
0.0672596449378
0.0695141872836
0.0701215705781
0.0702496908855
0.0702667991942
0.0702642150302
0.0702608959122
0.0702594713826
0.070259569492
0.0702612068848
0.0702646787898
0.0702673360522
0.0702502077235
0.070122163585
0.069514709776
0.0672599753514
0.060831158228
0.0492679662502
0.0608310329008
0.05391185617
0.0539328701011
0.0539417293726
0.0539284275581
0.0539276143945
0.0539331681163
0.0539388489666
0.0539426488497
0.0539443895251
0.0539443494714
0.0539425415168
0.0539386860503
0.0539329471806
0.0539273680242
0.0539281427568
0.0539414275412
0.0539325930607
0.0539117309592
0.060830976703
0.0672597061794
0.0539327603643
0.0516272107552
0.0507054552226
0.0503676811752
0.0502713491149
0.050252694138
0.0502524676281
0.0502544905417
0.0502556003524
0.0502555640699
0.0502543818894
0.0502522924922
0.0502524627547
0.0502710793482
0.0503673615084
0.050705083489
0.051626854162
0.05393263556
0.0672596380981
0.0695143921743
0.053941591376
0.0507053968977
0.0493380878761
0.0488135827925
0.0486520270888
0.0486143888531
0.0486092238869
0.0486098445749
0.0486104592693
0.0486104252593
0.0486097374005
0.0486090645142
0.0486141932463
0.0486517716268
0.0488132490174
0.0493376800752
0.0507049941176
0.0539414440821
0.0695142601276
0.0701218570868
0.0539282770539
0.0503675971253
0.0488135539305
0.0482000349619
0.0480048560779
0.047958236933
0.0479519000635
0.047952806519
0.0479535577309
0.0479535126349
0.0479526616588
0.0479516979019
0.0479580271921
0.0480046510526
0.0481997131319
0.048813103354
0.050367156152
0.0539281105307
0.0701217439997
0.0702499694237
0.0539274795196
0.0502712762059
0.0486519994114
0.0480048172072
0.0477990210755
0.0477513697146
0.0477468751195
0.0477499032245
0.0477517222671
0.0477516746203
0.0477497438676
0.0477466552674
0.0477511624526
0.0477988397751
0.048004564734
0.0486515028859
0.0502707721233
0.0539272777195
0.0702499931058
0.0702670049141
0.0539330604775
0.0502526625239
0.0486143585882
0.0479581320031
0.0477512967367
0.0477063591837
0.0477064066099
0.0477140074721
0.0477181642944
0.0477181121607
0.0477138409816
0.0477061731108
0.0477061540054
0.0477511579039
0.0479579379478
0.0486138674256
0.0502520719913
0.0539328203815
0.0702671518644
0.0702643140571
0.0539387928287
0.0502524994795
0.0486091907853
0.0479517611729
0.0477467706061
0.0477063801055
0.047713347097
0.047728021186
0.0477356752086
0.0477355997808
0.0477278275956
0.0477130839609
0.0477061514287
0.0477466344571
0.0479516107972
0.0486087196019
0.0502518247824
0.0539385131106
0.0702646168766
0.0702608563539
0.0539426324186
0.050254583589
0.0486098501492
0.047952706185
0.0477498319093
0.0477140110789
0.0477280380804
0.0477498636051
0.0477608812682
0.0477608151232
0.0477496933742
0.047727757951
0.0477137490765
0.0477496506334
0.0479525163621
0.0486093438813
0.0502538463826
0.0539423060113
0.0702613401947
0.0702592514337
0.0539444070367
0.0502557429552
0.0486105182873
0.0479535235615
0.0477517094263
0.047718215108
0.0477357455295
0.0477609485699
0.0477736493243
0.0477735605603
0.047760736446
0.047735435934
0.0477179297877
0.0477514906513
0.0479532913903
0.0486099769471
0.0502549777234
0.0539440705462
0.070259848807
0.070259245516
0.0539444109362
0.0502557447372
0.0486105198373
0.0479535254104
0.0477517017007
0.0477182033504
0.0477357352374
0.0477609299353
0.0477736237943
0.0477735341455
0.0477607100517
0.0477354086316
0.0477178943788
0.0477514667907
0.0479532819046
0.0486099773766
0.0502549852069
0.0539440811428
0.070259809432
0.0702608286935
0.0539426396177
0.0502545826054
0.0486098456443
0.0479526959502
0.047749788099
0.0477139419837
0.0477279481194
0.0477497524489
0.0477607763462
0.0477607034863
0.0477495698852
0.0477276767845
0.0477136742235
0.0477495986266
0.047952498416
0.0486093503714
0.0502538702908
0.0539423386444
0.0702612246016
0.0702642978297
0.0539388033669
0.0502524940388
0.0486091791946
0.0479517416439
0.0477466980986
0.0477062505886
0.0477131807524
0.0477278312756
0.0477354866805
0.0477354406044
0.0477276789946
0.0477129421426
0.0477060280474
0.0477465529443
0.0479515810131
0.0486087269598
0.0502518565677
0.0539385554731
0.0702644364709
0.0702669753782
0.0539330732562
0.050252645158
0.0486143238941
0.0479580856434
0.0477511955235
0.0477061908035
0.047706200877
0.0477137894039
0.0477179428323
0.0477179031437
0.047713651189
0.047705997322
0.047706002569
0.0477510598408
0.0479578954705
0.0486138678128
0.0502521002789
0.0539328661099
0.0702669834703
0.07024991704
0.0539274854669
0.0502712241652
0.0486519097911
0.0480047094193
0.0477988785523
0.0477511804321
0.0477466555017
0.0477496770255
0.0477515055469
0.0477514692829
0.047749555107
0.0477464831585
0.0477510148147
0.0477987254358
0.0480044817994
0.0486514682991
0.0502707898461
0.053927352429
0.0702497393256
0.0701219519997
0.0539282512342
0.0503674695348
0.0488133635962
0.0481998137802
0.0480046194109
0.0479579878912
0.0479516425534
0.0479525520887
0.0479533160781
0.0479532830025
0.0479524467959
0.0479514942665
0.0479578280693
0.0480044477142
0.0481995407025
0.0488129930975
0.0503671337866
0.0539281688875
0.0701215157939
0.0695145649135
0.0539415184464
0.0507051643643
0.0493377664503
0.0488132204712
0.0486516523019
0.0486140133431
0.0486088484453
0.0486094706819
0.0486100892368
0.0486100593016
0.0486093785663
0.0486087100055
0.0486138401713
0.0486514328177
0.0488129584777
0.0493374796436
0.0507049256114
0.0539415004189
0.0695139128251
0.0672599020174
0.0539326569652
0.0516269157806
0.0507050711688
0.0503672605648
0.0502709253012
0.0502522766822
0.0502520595743
0.0502540823847
0.0502551921463
0.0502551557764
0.0502539773339
0.050251891451
0.0502520658265
0.0502707044897
0.0503670365376
0.050704857098
0.0516267666909
0.0539326595826
0.0672591270933
0.0608311610337
0.0539117554235
0.0539326681469
0.0539415084446
0.0539281920077
0.0539273978874
0.0539329632364
0.0539386664724
0.0539424604153
0.0539442063081
0.0539441680969
0.0539423653274
0.0539385149769
0.0539327633726
0.0539271961786
0.053927986677
0.0539413233774
0.0539325139175
0.0539116249003
0.0608302284159
0.0492679841443
0.0608309170635
0.0672595064353
0.0695140632312
0.0701214416534
0.0702495859261
0.0702666082549
0.0702639780252
0.0702606683693
0.0702592156137
0.0702593108244
0.0702609139187
0.0702643401629
0.0702670850607
0.0702499529936
0.0701217617414
0.0695141020321
0.0672591585369
0.0608301526507
0.0492677605184
0.0492922397608
0.0610618374992
0.0677418619706
0.070140491513
0.070804550774
0.0709513096057
0.0709751933904
0.0709764543226
0.0709754534144
0.0709752711948
0.0709753967857
0.0709757854005
0.0709769010905
0.0709757991644
0.0709519047167
0.0708051722049
0.0701409973843
0.0677422014974
0.0610619389024
0.0492921459307
0.0610618498353
0.0539973591483
0.0539497903115
0.0539197599332
0.0538901224388
0.0538841360376
0.0538883767063
0.0538936758875
0.0538972904997
0.0538989107931
0.0538988508647
0.053897134225
0.0538934482293
0.053888060087
0.0538837873064
0.0538897587406
0.0539193987753
0.0539494671093
0.0539971978888
0.0610617860406
0.0677419188898
0.0539496704948
0.0514144951912
0.0503639537246
0.0499679184827
0.0498506173048
0.0498256627908
0.0498236997881
0.0498253167421
0.0498263406922
0.0498262896176
0.0498251592794
0.0498234603312
0.0498253580885
0.0498502424979
0.0499674877229
0.0503634882656
0.0514140610134
0.0539494887351
0.0677418345116
0.0701406544598
0.0539196151835
0.050363894322
0.0488144867484
0.0482035287524
0.0480085561346
0.0479602751482
0.0479524517077
0.0479529423892
0.0479538099748
0.0479537585559
0.047952776824
0.0479522252318
0.0479600405212
0.0480082994782
0.0482031517793
0.0488139485629
0.0503633811263
0.0539194010976
0.0701406101337
0.0708048287167
0.0538899543356
0.0499678414109
0.0482034796258
0.0474871592611
0.0472510576624
0.0471913999288
0.0471828936966
0.0471854312824
0.0471876257551
0.0471875829325
0.0471852848619
0.0471827128277
0.0471912802525
0.0472510416675
0.0474870653975
0.0482029996886
0.0499672326898
0.0538897156866
0.0708047943275
0.0709515037581
0.05388399057
0.0498505589928
0.0480083338786
0.0472507560205
0.0470004158456
0.0469402993505
0.0469382290656
0.0469487182857
0.0469552342456
0.0469552110789
0.0469486318329
0.0469381593688
0.0469403988332
0.0470008123622
0.047251232028
0.0480082008679
0.0498498572258
0.0538836701974
0.0709517312295
0.0709752409925
0.053888290314
0.0498256016076
0.0479597673277
0.047190707471
0.0469399387877
0.0468888544061
0.0469034937662
0.0469317732972
0.0469472403222
0.0469472246473
0.0469317328686
0.0469034829866
0.0468891163038
0.046940730138
0.0471918364035
0.0479601996756
0.0498249309923
0.0538878669289
0.0709757832931
0.0709762474085
0.053893698307
0.0498236425667
0.0479517549217
0.04718198183
0.0469377027204
0.0469033707356
0.0469453778387
0.0470020727125
0.0470305056828
0.0470304672398
0.0470020687576
0.0469453973158
0.0469036827412
0.0469386843053
0.0471834965495
0.0479525836669
0.0498230289848
0.053893164663
0.070977135317
0.0709751085765
0.0538973819131
0.0498253235051
0.0479522577972
0.0471845129496
0.0469481819804
0.0469316605541
0.0470020789486
0.0470878817887
0.0471279816775
0.0471281036896
0.0470881482528
0.0470022750081
0.0469320425416
0.0469491912346
0.047186069549
0.0479531234934
0.0498246656206
0.0538967645365
0.0709762365952
0.0709747149588
0.0538990599216
0.0498264282836
0.0479532166646
0.0471867768565
0.0469547250351
0.0469471128612
0.0470304585276
0.0471279838034
0.0471735805679
0.047173596105
0.0471282771809
0.0470307077274
0.0469475280591
0.0469557131968
0.0471882749305
0.0479540118421
0.0498257166334
0.0538984140249
0.0709759833374
0.0709747017446
0.0538990667307
0.0498264328307
0.0479532283482
0.0471867837477
0.046954711836
0.0469470956911
0.0470304470002
0.0471279955108
0.0471736130976
0.0471736081366
0.0471282634505
0.0470306647259
0.0469474665146
0.0469556652152
0.0471882380438
0.0479539943255
0.0498257215083
0.053898429659
0.0709759459381
0.0709751043491
0.0538973864271
0.0498253242828
0.047952277317
0.0471845169784
0.0469481324937
0.0469315861896
0.0470020009342
0.0470878166387
0.0471280713101
0.0471280925096
0.0470880207807
0.0470021635041