/*--------------------------------*- C++ -*----------------------------------*\
| =========                 |                                                 |
| \\      /  F ield         | OpenFOAM: The Open Source CFD Toolbox           |
|  \\    /   O peration     | Version:  3.0.1                                 |
|   \\  /    A nd           | Web:      www.OpenFOAM.org                      |
|    \\/     M anipulation  |                                                 |
\*---------------------------------------------------------------------------*/
FoamFile
{
    version     2.0;
    format      ascii;
    class       volScalarField;
    location    "1";
    object      ddt0(k);
}
// * * * * * * * * * * * * * * * * * * * * * * * * * * * * * * * * * * * * * //

dimensions      [0 2 -3 0 0 0 0];

internalField   nonuniform List<scalar> 
15984
(
-0.0116368263234
-0.0116384755663
-0.0115995721182
-0.0115879677072
-0.0115854311296
-0.0115816381619
-0.0115796274124
-0.0115797570644
-0.0115827423095
-0.0115881349351
-0.011593717573
-0.0115972994244
-0.0116010774152
-0.0116048161237
-0.0116075408092
-0.0116074160829
-0.0116072163466
-0.0116071121232
-0.011607124041
-0.0116068555926
-0.0116065050897
-0.0116062629925
-0.0116061229082
-0.011606070812
-0.0116060896879
-0.0116061620889
-0.0116062720184
-0.0116064057775
-0.0116065524684
-0.0116067037232
-0.0116068537098
-0.0116069987092
-0.0116071360521
-0.0116072672103
-0.0116074050536
-0.011607731885
-0.0116096043575
-0.0116202559163
-0.0116539330078
-0.0116452917561
-0.0125111773281
-0.0130482772307
-0.0129544834847
-0.0128978072192
-0.0128860959462
-0.0128823299172
-0.0128746519634
-0.0128616202953
-0.0128555510324
-0.0128628504943
-0.012875838834
-0.0128873727844
-0.0128943553741
-0.0128997742865
-0.0129029544907
-0.0129032389012
-0.0129037418983
-0.0129048587679
-0.012906503235
-0.0129082007232
-0.0129080167871
-0.0129078668689
-0.0129077745793
-0.0129077392756
-0.012907754364
-0.0129078102005
-0.0129078965241
-0.012908003607
-0.0129081230387
-0.0129082480766
-0.012908373889
-0.0129084979566
-0.0129086196233
-0.0129087613223
-0.0129091266908
-0.0129114837281
-0.012926504845
-0.0129909285357
-0.0130805057213
-0.0125313082437
-0.0125871835488
-0.0136567293963
-0.0135730352375
-0.0134808923589
-0.0134603507251
-0.0134542756199
-0.0134381033979
-0.0134079043228
-0.0133877800339
-0.0133934649565
-0.013411871002
-0.0134279800727
-0.0134396490798
-0.0134470242376
-0.0134511123541
-0.0134517896001
-0.0134524902705
-0.0134537924295
-0.0134556640341
-0.0134579887876
-0.0134592920499
-0.0134592262552
-0.0134591839038
-0.0134591756182
-0.0134592026874
-0.0134592605989
-0.0134593429557
-0.0134594432349
-0.0134595547781
-0.0134596719797
-0.0134597908026
-0.0134599100425
-0.0134600343573
-0.013460229832
-0.0134610563361
-0.0134666286807
-0.0134983042941
-0.0136119165931
-0.013699632094
-0.0126194112404
-0.0125383482577
-0.0136954753404
-0.0135907082648
-0.013474783353
-0.0134503977927
-0.0134410086954
-0.0134106893949
-0.013352991634
-0.0133059237978
-0.0133021287709
-0.0133236416287
-0.0133447361516
-0.0133593322189
-0.013369084603
-0.0133743248093
-0.0133754828433
-0.0133763996622
-0.0133777838197
-0.0133796730422
-0.0133819133627
-0.0133842874542
-0.0133846823501
-0.0133846724213
-0.0133846819474
-0.0133847170372
-0.0133847774476
-0.0133848609898
-0.013384961866
-0.0133850756883
-0.0133851973645
-0.0133853254344
-0.0133854610029
-0.0133856205149
-0.013385928729
-0.0133873779134
-0.0133965275368
-0.0134451167498
-0.0136068336062
-0.0137374530681
-0.0125804483071
-0.0125003914052
-0.0135756428108
-0.0134284697777
-0.0132776938668
-0.0132412113977
-0.0132293275478
-0.0131956739623
-0.0131223609898
-0.0130379537255
-0.0130166627346
-0.0130387907569
-0.0130644690416
-0.0130825352768
-0.0130942583831
-0.0131007593882
-0.0131025027785
-0.0131037038647
-0.0131052270017
-0.0131071747361
-0.013109422828
-0.0131117873972
-0.0131128933194
-0.0131128976099
-0.013112911036
-0.0131129441513
-0.013112999353
-0.0131130758109
-0.0131131710086
-0.0131132811477
-0.0131134036421
-0.0131135382153
-0.0131136918511
-0.0131138915503
-0.013114313092
-0.0131163390977
-0.0131286662666
-0.0131920138045
-0.0133985580587
-0.0136043318136
-0.0125498890302
-0.0124809965799
-0.0134821461011
-0.0132849647079
-0.0131001677975
-0.013061507923
-0.0130468531624
-0.0130013672587
-0.0129197799644
-0.0128167925423
-0.0127725618717
-0.0127929026445
-0.0128223258762
-0.0128435724158
-0.0128573335357
-0.0128649472486
-0.0128672588196
-0.0128687606517
-0.0128704425116
-0.0128724664287
-0.0128747681484
-0.012877217303
-0.0128784257006
-0.0128784332042
-0.0128784437053
-0.0128784692376
-0.0128785131798
-0.01287857667
-0.0128786584825
-0.012878755747
-0.0128788668582
-0.0128789920605
-0.0128791405639
-0.0128793426923
-0.0128798164666
-0.0128822067358
-0.0128967942658
-0.0129708446838
-0.0132120049055
-0.0134875299734
-0.0125357469983
-0.0124718729559
-0.0134450382509
-0.0132100504948
-0.0130189517509
-0.0129849365449
-0.0129684496118
-0.0129092553037
-0.0128063691006
-0.0126962935454
-0.01262830837
-0.0126453351921
-0.0126774960477
-0.0127013208909
-0.0127167100225
-0.0127255968185
-0.0127282796978
-0.0127300078231
-0.0127318232756
-0.0127339419751
-0.0127362900709
-0.0127387599043
-0.0127398799025
-0.0127398872368
-0.0127398940527
-0.012739912747
-0.0127399473542
-0.0127399987009
-0.0127400662124
-0.012740148073
-0.0127402424864
-0.0127403505266
-0.0127404799173
-0.0127406636631
-0.0127411390875
-0.0127437113909
-0.0127596184312
-0.0128400758346
-0.01310277065
-0.0134238025285
-0.0125304098396
-0.0124670531469
-0.0134400654406
-0.013189962145
-0.0130034764844
-0.0129770261648
-0.012959186459
-0.0128872557949
-0.0127652253644
-0.0126474702003
-0.0125602126478
-0.0125740617827
-0.0126081070013
-0.0126338340243
-0.0126505053281
-0.0126603190104
-0.0126633948347
-0.0126652434204
-0.0126671639654
-0.0126693526855
-0.0126717571799
-0.0126742872168
-0.0126751906266
-0.0126751970409
-0.0126752018721
-0.0126752167662
-0.0126752459354
-0.0126752895949
-0.0126753471465
-0.0126754167715
-0.0126754971915
-0.0126755894711
-0.012675701016
-0.0126758653591
-0.0126763275458
-0.0126789731508
-0.0126955248177
-0.0127791725102
-0.0130528219594
-0.0133969304224
-0.0125286656521
-0.0124639939346
-0.0134436348644
-0.0131910834877
-0.0130111485586
-0.012991594073
-0.0129724142936
-0.0128912341061
-0.0127562222198
-0.0126318019649
-0.0125326272924
-0.0125445182581
-0.0125797705245
-0.0126067852346
-0.0126242883269
-0.0126348041383
-0.0126381147459
-0.0126400551127
-0.0126420416383
-0.0126442739383
-0.0126467058512
-0.0126492859331
-0.012650009576
-0.012650015642
-0.0126500196175
-0.0126500329739
-0.0126500596766
-0.0126500998632
-0.0126501520619
-0.0126502145028
-0.0126502861856
-0.012650368002
-0.0126504670927
-0.0126506171938
-0.0126510683491
-0.012653737079
-0.0126705536202
-0.0127555360921
-0.0130338372082
-0.0133875175224
-0.0125281630495
-0.0124623072118
-0.0134461186301
-0.0131945336275
-0.0130185660335
-0.0130032783467
-0.0129828363447
-0.012896972871
-0.012755766565
-0.0126275635396
-0.0125232378002
-0.0125343761621
-0.0125702661349
-0.0125979408172
-0.012615910862
-0.0126266568871
-0.0126301524164
-0.0126321577742
-0.0126341696644
-0.0126364218046
-0.0126388786885
-0.0126414780737
-0.01264209727
-0.0126421033331
-0.0126421070467
-0.0126421198188
-0.0126421460978
-0.0126421851281
-0.0126422353423
-0.0126422947541
-0.012642362604
-0.0126424392294
-0.012642531989
-0.0126426746822
-0.0126431204303
-0.0126457950223
-0.0126626987865
-0.0127481283697
-0.0130279961441
-0.0133848151722
-0.0125280407574
-0.012462279165
-0.0134460069491
-0.0131944347335
-0.0130184162314
-0.0130030354031
-0.012982639586
-0.0128968174965
-0.0127556845162
-0.0126274358832
-0.0125232110978
-0.0125343758445
-0.0125702693902
-0.0125979437588
-0.012615912603
-0.0126266541535
-0.0126301540011
-0.0126321565161
-0.0126341699339
-0.0126364235
-0.0126388815712
-0.0126414792543
-0.0126420975427
-0.0126421038567
-0.0126421077352
-0.0126421207823
-0.0126421473172
-0.012642186593
-0.012642236957
-0.0126422965722
-0.0126423644689
-0.012642441013
-0.0126425336863
-0.0126426762093
-0.0126431218946
-0.0126457961953
-0.0126626993747
-0.0127481259946
-0.0130279923126
-0.0133848097126
-0.0125280450234
-0.0124639089433
-0.013443281715
-0.0131907882115
-0.0130107316552
-0.0129910002547
-0.012971864028
-0.0128908296474
-0.0127559989381
-0.0126314593561
-0.0125325497042
-0.0125445215082
-0.0125797835648
-0.0126067915264
-0.0126242961022
-0.0126348303785
-0.0126381165265
-0.0126400560489
-0.0126420456425
-0.0126442797048
-0.0126467145857
-0.0126492934134
-0.012650010803
-0.012650017673
-0.012650022248
-0.0126500362517
-0.0126500636388
-0.0126501044293
-0.0126501570055
-0.0126502197966
-0.0126502913615
-0.0126503728702
-0.0126504714123
-0.012650620871
-0.0126510716553
-0.0126537392817
-0.0126705537489
-0.0127555273406
-0.0130338221044
-0.0133874988277
-0.0125281754986
-0.0124669518541
-0.0134395728662
-0.0131895158048
-0.0130028493985
-0.0129762464396
-0.0129584576285
-0.0128866808835
-0.0127649068338
-0.0126469790827
-0.0125601198486
-0.0125740833976
-0.0126081457075
-0.0126338587597
-0.012650527352
-0.0126603249493
-0.0126634031334
-0.0126652508177
-0.0126671767288
-0.0126693659805
-0.0126717709383
-0.01267431982
-0.0126751959647
-0.0126752033977
-0.0126752090533
-0.0126752247399
-0.0126752546135
-0.0126752988959
-0.012675356799
-0.0126754260298
-0.0126755058404
-0.0126755973127
-0.012675707702
-0.0126758705139
-0.0126763310561
-0.0126789746132
-0.0126955224939
-0.0127791534526
-0.0130527945322
-0.0133968944516
-0.012528685432
-0.0124717787747
-0.0134445183612
-0.0132095338943
-0.0130182272544
-0.0129841036846
-0.012967674486
-0.0129086283039
-0.0128060227629
-0.012695769314
-0.0126282378278
-0.0126453862065
-0.0126775565188
-0.0127013599227
-0.0127167400378
-0.0127256186318
-0.0127282971166
-0.0127300248343
-0.0127318459925
-0.0127339710261
-0.0127363288866
-0.0127388121045
-0.0127398962866
-0.0127399047224
-0.0127399124164
-0.0127399317094
-0.0127399665409
-0.0127400179314
-0.0127400849379
-0.0127401652186
-0.0127402579734
-0.0127403641144
-0.0127404908861
-0.012740672865
-0.0127411435242
-0.0127437097823
-0.0127596110587
-0.0128400436095
-0.013102724617
-0.0134237453175
-0.0125304355476
-0.0124809415662
-0.0134817017694
-0.0132844457303
-0.013099475951
-0.0130607412655
-0.0130461390977
-0.0130007901803
-0.0129194341303
-0.0128163562113
-0.0127725680315
-0.0127930045254
-0.0128224268928
-0.0128436433972
-0.0128574039927
-0.0128649842415
-0.0128672867928
-0.0128687986613
-0.0128704934417
-0.0128725257583
-0.0128748404289
-0.0128772893771
-0.0128784616167
-0.012878469991
-0.0128784808794
-0.0128785060097
-0.0128785495129
-0.0128786119728
-0.0128786922608
-0.0128787869694
-0.012878894968
-0.012879017502
-0.0128791610466
-0.0128793602337
-0.0128798250199
-0.0128822072497
-0.0128967862624
-0.0129708007355
-0.0132119377997
-0.0134874440569
-0.0125357771752
-0.0125003895134
-0.0135753397699
-0.0134275649397
-0.0132770906627
-0.0132405320633
-0.0132286747382
-0.0131951544964
-0.0131215251259
-0.0130376892568
-0.0130167535872
-0.0130389565986
-0.0130645928746
-0.0130826422806
-0.0130943572106
-0.0131008065974
-0.0131025418831
-0.0131037531385
-0.013105289973
-0.0131072576181
-0.0131095258785
-0.0131119076732
-0.0131129468052
-0.0131129515734
-0.0131129651228
-0.0131129974589
-0.0131130514214
-0.0131131262158
-0.0131132191218
-0.0131133266211
-0.0131134458409
-0.0131135769794
-0.0131137255075
-0.0131139182094
-0.0131143336898
-0.0131163456933
-0.0131286590928
-0.0131919626901
-0.0133984797814
-0.0136042247062
-0.0125499206447
-0.0125383893166
-0.0136953741356
-0.013590120546
-0.0134737902961
-0.0134490912315
-0.0134397490962
-0.0134096634925
-0.0133524518153
-0.0133058593589
-0.0133022955958
-0.0133238223778
-0.0133448818364
-0.0133594988648
-0.0133691611172
-0.0133743470637
-0.0133755182029
-0.0133764484623
-0.0133778487325
-0.0133797633317
-0.0133820304529
-0.0133844168555
-0.0133847344534
-0.0133847248861
-0.0133847345286
-0.013384769004
-0.0133848281484
-0.0133849101701
-0.013385009097
-0.0133851204517
-0.0133852397004
-0.0133853648167
-0.0133854972987
-0.0133856518223
-0.0133859533027
-0.0133873897649
-0.0133965272004
-0.0134450770576
-0.0136067669698
-0.0137373522336
-0.0125804759172
-0.0125872937077
-0.0136567630872
-0.0135728075299
-0.0134802433244
-0.0134595062882
-0.0134534290625
-0.0134374712095
-0.0134076318705
-0.0133878410021
-0.013393652516
-0.0134120460055
-0.0134281332097
-0.0134397351765
-0.0134470629017
-0.0134511244659
-0.0134518178576
-0.0134525415236
-0.0134538548103
-0.0134557472833
-0.0134581012427
-0.0134593279613
-0.013459263469
-0.0134592220938
-0.0134592145567
-0.0134592419931
-0.0134593000541
-0.0134593824788
-0.0134594827726
-0.0134595942683
-0.0134597113522
-0.0134598302111
-0.0134599492624
-0.0134600731462
-0.0134602672254
-0.013461090319
-0.013466657621
-0.0134983133053
-0.0136119107189
-0.0136995945419
-0.0126194292649
-0.0125113100015
-0.0130483924004
-0.0129544130017
-0.0128974903161
-0.0128856423153
-0.0128818816786
-0.0128743226051
-0.0128615412024
-0.0128556558507
-0.0128630142861
-0.012876012974
-0.0128875331006
-0.0128944315448
-0.0128998228961
-0.0129029859557
-0.0129032827122
-0.0129037974507
-0.0129049286766
-0.0129066098133
-0.0129082263624
-0.0129080418473
-0.0129078935797
-0.0129078028448
-0.0129077689899
-0.0129077855007
-0.0129078428028
-0.0129079306592
-0.0129080393344
-0.0129081602233
-0.0129082866195
-0.0129084137408
-0.0129085388786
-0.0129086616171
-0.0129088039741
-0.0129091701663
-0.0129115275107
-0.0129265481511
-0.0129909646212
-0.013080524523
-0.012531322753
-0.0116368653162
-0.0116385469994
-0.0115996199497
-0.0115879529619
-0.0115853730715
-0.0115815770757
-0.0115796160882
-0.0115798081236
-0.0115828234112
-0.0115882118589
-0.0115937876911
-0.0115973338115
-0.011601123712
-0.0116048629108
-0.0116075678098
-0.0116074570507
-0.0116072732132
-0.0116071842425
-0.0116072125488
-0.0116068683609
-0.0116065187257
-0.0116062780267
-0.0116061394275
-0.0116060888131
-0.011606109167
-0.0116061830906
-0.0116062945829
-0.0116064298758
-0.011606577935
-0.0116067304025
-0.0116068813944
-0.0116070271402
-0.0116071650643
-0.0116072965164
-0.0116074346389
-0.0116077618127
-0.0116096354049
-0.0116202872953
-0.0116539607318
-0.0116453076678
-0.0125249040865
-0.0130744431408
-0.0129842313354
-0.012926032158
-0.0129143458856
-0.0129102864951
-0.0129029417006
-0.0128915524252
-0.0128835630584
-0.0128841556774
-0.0128895537971
-0.0128952859648
-0.0128995657515
-0.0129035360972
-0.0129068407064
-0.0129074228385
-0.0129075828805
-0.0129077364104
-0.0129079613488
-0.0129079702016
-0.012908058754
-0.0129081687469
-0.0129082993348
-0.0129084456245
-0.0129086004332
-0.0129087568438
-0.0129089093805
-0.0129090545515
-0.0129091896779
-0.012909314367
-0.0129094287828
-0.0129095352616
-0.0129096355313
-0.0129097564292
-0.0129100975771
-0.0129124332436
-0.0129274239038
-0.0129918091468
-0.0130812856607
-0.0125318542467
-0.0199720434338
-0.0230393604672
-0.0231051558286
-0.0229617407138
-0.0229280718138
-0.0229181539706
-0.0228865856197
-0.0228283826902
-0.0227742348939
-0.0227507791334
-0.0227511319163
-0.022758240961
-0.0227655654727
-0.0227695239126
-0.0227720969302
-0.0227737582101
-0.0227752550572
-0.0227768085168
-0.0227783747698
-0.0227801226089
-0.02278182565
-0.0227833007362
-0.0227844999139
-0.0227854227111
-0.0227860888476
-0.0227865314421
-0.0227867898569
-0.0227869051265
-0.0227869135429
-0.0227868475528
-0.0227867335799
-0.0227865958923
-0.0227864624451
-0.0227864907019
-0.0227878966504
-0.0227991569922
-0.0228602257517
-0.0230499287755
-0.0230184943515
-0.0199803708754
-0.0210004387316
-0.0258988940415
-0.0261251600615
-0.0259243539398
-0.0258620125218
-0.0258418903465
-0.0257946859728
-0.0257123534501
-0.0256385742554
-0.0256100602912
-0.0256148827528
-0.0256277451781
-0.0256383569383
-0.0256454904424
-0.0256491755811
-0.0256516333343
-0.0256537749358
-0.0256559404206
-0.0256581235701
-0.0256601652287
-0.0256621573232
-0.02566400925
-0.0256655052342
-0.0256666433629
-0.0256674524725
-0.025667977178
-0.0256682687594
-0.0256683799469
-0.0256683580367
-0.0256682444186
-0.0256680727248
-0.0256678744689
-0.0256677026648
-0.0256679010533
-0.0256709961834
-0.0256923624814
-0.0257934895178
-0.0260566785889
-0.0258751053786
-0.0210208128621
-0.0210294259476
-0.0265704317424
-0.0268408721081
-0.0265894687426
-0.026505874783
-0.0264750564372
-0.0264048681837
-0.0262871790868
-0.0261808995336
-0.026139606164
-0.0261469619881
-0.0261657881735
-0.0261808040441
-0.026190460273
-0.0261955540278
-0.026198785796
-0.0262014421139
-0.026204028435
-0.0262066002995
-0.0262090144154
-0.026211147003
-0.0262129857595
-0.0262146237831
-0.0262158627196
-0.0262167340904
-0.0262172886995
-0.0262175882962
-0.0262176858273
-0.0262176374411
-0.0262174862371
-0.0262172725475
-0.0262170329527
-0.0262168458309
-0.0262172685951
-0.0262222357552
-0.0262540123979
-0.0263940117907
-0.0267339302361
-0.0265295670943
-0.0210611604964
-0.0209267195969
-0.0264985010979
-0.0267227104911
-0.0264205606949
-0.0263228235971
-0.0262818839847
-0.0261834110593
-0.0260258090263
-0.0258760813718
-0.0258140209246
-0.0258213653222
-0.0258459485506
-0.0258656971109
-0.0258778017606
-0.0258844564497
-0.0258884558558
-0.0258915568394
-0.0258944497852
-0.0258972584474
-0.0258998793585
-0.0259021797845
-0.0259039998259
-0.0259057042788
-0.0259069907196
-0.025907890582
-0.0259084570606
-0.0259087520592
-0.0259088371712
-0.0259087675751
-0.0259085907628
-0.0259083472167
-0.0259080783096
-0.0259078854984
-0.0259085354585
-0.0259152440649
-0.0259564763764
-0.0261320623534
-0.0265529683803
-0.0264255151329
-0.0209657611351
-0.0208566652897
-0.0262966177441
-0.0264418983677
-0.0261114665247
-0.026013254669
-0.0259645617196
-0.0258316626221
-0.0256170722265
-0.0254210974188
-0.0253322515693
-0.0253367519915
-0.0253662038776
-0.0253904397723
-0.0254051283606
-0.0254131686705
-0.0254178914862
-0.0254213846929
-0.0254244970231
-0.0254274538627
-0.0254301720845
-0.0254325666854
-0.0254344355693
-0.0254361720289
-0.0254374794229
-0.0254383905172
-0.0254389597169
-0.0254392498516
-0.0254393252323
-0.025439242526
-0.0254390539765
-0.0254387983913
-0.0254385197773
-0.0254383478002
-0.0254391990249
-0.0254473046762
-0.0254959443148
-0.0257002993645
-0.0261942412311
-0.0261795785715
-0.0208981957034
-0.0208249425061
-0.0261665188694
-0.02625353785
-0.0259140645923
-0.025825991391
-0.0257724390464
-0.0256044253867
-0.0253341562868
-0.0250881829298
-0.0249702605403
-0.0249697411382
-0.0250027060529
-0.0250306784793
-0.0250477751096
-0.0250569738025
-0.02506230644
-0.0250661031749
-0.0250693716079
-0.0250724120597
-0.025075188568
-0.0250775983334
-0.0250795448367
-0.0250812945791
-0.0250826089852
-0.0250835235679
-0.0250840933376
-0.0250843817123
-0.0250844510421
-0.0250843633864
-0.0250841656634
-0.0250839054615
-0.0250836285171
-0.0250834773301
-0.0250844732865
-0.0250935131132
-0.0251470815786
-0.025371076406
-0.0259187772156
-0.0260005380616
-0.0208657683501
-0.0208137120529
-0.0261181194159
-0.0261793010936
-0.0258469668398
-0.025774569165
-0.0257185194637
-0.0255196771491
-0.0252015224868
-0.0249118266612
-0.0247680108389
-0.0247619746344
-0.0247971125936
-0.0248278226826
-0.0248467796769
-0.0248569238613
-0.0248627264313
-0.0248667322507
-0.0248701010971
-0.0248731821254
-0.0248759773098
-0.0248783929439
-0.0248803947473
-0.0248821504467
-0.0248834669757
-0.0248843810999
-0.0248849509036
-0.0248852380113
-0.0248853060834
-0.0248852145665
-0.0248850139669
-0.0248847515281
-0.0248844761053
-0.0248843344148
-0.024885412176
-0.0248949639467
-0.0249512812123
-0.0251865621347
-0.0257665112784
-0.0259087875866
-0.0208530995578
-0.0208102498029
-0.0261106159219
-0.0261669780029
-0.0258473493406
-0.0257888122696
-0.0257317781325
-0.0255111381892
-0.0251594938967
-0.0248388054481
-0.0246766626473
-0.0246663331086
-0.0247026552522
-0.0247351226022
-0.0247553238823
-0.0247660857779
-0.0247722153587
-0.0247763490388
-0.0247797789921
-0.0247828774543
-0.0247856735367
-0.0247881078797
-0.024790122974
-0.024791880741
-0.0247931965087
-0.0247941115119
-0.024794679868
-0.0247949667441
-0.0247950342915
-0.0247949413989
-0.0247947399044
-0.0247944760817
-0.0247941993763
-0.0247940645054
-0.0247951775379
-0.0248049687504
-0.0248625809399
-0.0251033142713
-0.0256991386231
-0.0258713180986
-0.0208488778938
-0.0208091938342
-0.026113060232
-0.0261708883602
-0.0258598557866
-0.0258086898517
-0.0257514394834
-0.0255202150617
-0.025151859569
-0.024815627212
-0.0246444016633
-0.0246318716297
-0.0246687234351
-0.0247020391862
-0.024722869266
-0.0247339426377
-0.0247402230715
-0.0247444188548
-0.024747875672
-0.0247509817724
-0.0247537778254
-0.024756208111
-0.0247582374589
-0.0247599954314
-0.0247613103309
-0.0247622249294
-0.0247627941604
-0.0247630803462
-0.0247631477574
-0.0247630545717
-0.02476285312
-0.0247625887855
-0.0247623117501
-0.0247621799503
-0.0247633038602
-0.0247731815603
-0.0248312735051
-0.0250740480923
-0.0256758854845
-0.0258592784083
-0.0208477099327
-0.0208091635508
-0.0261128577106
-0.0261705501038
-0.0258593732895
-0.0258079889447
-0.025750869515
-0.0255196730959
-0.0251515537117
-0.0248154737151
-0.0246443664074
-0.024631873793
-0.0246687313159
-0.0247020458239
-0.0247228737485
-0.0247339447764
-0.0247402229344
-0.0247444174305
-0.0247478745247
-0.0247509803732
-0.0247537763833
-0.0247562068087
-0.0247582357269
-0.0247599938863
-0.0247613087076
-0.0247622232926
-0.0247627927213
-0.0247630788044
-0.0247631461532
-0.024763053247
-0.0247628519813
-0.0247625877929
-0.0247623106136
-0.024762178311
-0.0247633020328
-0.0247731798015
-0.0248312715305
-0.0250740469211
-0.0256758857605
-0.025859278804
-0.0208477112051
-0.0208101648694
-0.0261100384586
-0.0261660068655
-0.0258459891125
-0.0257869627842
-0.0257299929792
-0.025509711153
-0.025158661955
-0.0248383871958
-0.0246765715419
-0.0246663472212
-0.0247026843301
-0.0247351460418
-0.0247553418547
-0.0247660954277
-0.0247722188038
-0.0247763473629
-0.0247797790654
-0.0247828755361
-0.0247856725443
-0.0247881081136
-0.0247901214025
-0.0247918799058
-0.0247931956023
-0.0247941108141
-0.0247946791393
-0.0247949662814
-0.024795034228
-0.0247949417135
-0.0247947407703
-0.0247944774428
-0.0247942005548
-0.024794065109
-0.024795177259
-0.0248049675436
-0.0248625792295
-0.0251033102939
-0.0256991410175
-0.0258713241029
-0.0208488804168
-0.020813600759
-0.0261172791288
-0.0261778414075
-0.0258449087139
-0.0257719656306
-0.0257159886267
-0.0255176785749
-0.0252003565168
-0.0249112474678
-0.0247679105446
-0.0247620254365
-0.02479718009
-0.0248278785919
-0.0248468207464
-0.0248569559764
-0.0248627460037
-0.0248667447301
-0.0248701131782
-0.0248731900171
-0.0248759856901
-0.0248783990848
-0.0248804068331
-0.0248821632212
-0.0248834796218
-0.0248843938874
-0.0248849635193
-0.0248852514436
-0.024885320819
-0.0248852284232
-0.0248850293989
-0.024884765994
-0.0248844889598
-0.0248843499304
-0.0248854254965
-0.0248949762047
-0.0249512927109
-0.025186586252
-0.0257665306897
-0.025908798968
-0.0208531043069
-0.020824839372
-0.0261655830129
-0.026251834019
-0.025911638731
-0.0258231205263
-0.0257696787379
-0.0256022343031
-0.0253328820572
-0.0250875939305
-0.02497021627
-0.0249698584128
-0.0250028331842
-0.0250307847691
-0.0250478609503
-0.0250570412479
-0.0250623575938
-0.0250661465058
-0.0250694119755
-0.0250724474837
-0.0250752288005
-0.0250776373512
-0.0250795893715
-0.0250813398929
-0.0250826547303
-0.0250835690853
-0.025084138981
-0.0250844281083
-0.0250844992812
-0.0250844101748
-0.0250842145824
-0.0250839534433
-0.0250836766952
-0.0250835236162
-0.0250845206539
-0.0250935599395
-0.0251471268981
-0.0253711300474
-0.0259188270714
-0.026000563069
-0.0208657732321
-0.0208566037175
-0.0262957574453
-0.0264402704589
-0.0261091084214
-0.0260105426603
-0.0259619900136
-0.0258296324359
-0.0256158678494
-0.0254206374665
-0.0253323159424
-0.0253369551638
-0.025366402308
-0.025390607754
-0.0254052704021
-0.0254132799306
-0.0254179800916
-0.0254214646869
-0.0254245739262
-0.0254275269268
-0.0254302491115
-0.0254326384196
-0.0254345218805
-0.0254362590713
-0.0254375669461
-0.0254384781253
-0.0254390475035
-0.0254393386346
-0.0254394159907
-0.0254393341769
-0.0254391437479
-0.0254388869722
-0.0254386120194
-0.025438437943
-0.0254392917399
-0.0254474008379
-0.0254960470157
-0.0257003848307
-0.0261943065843
-0.0261796409895
-0.020898196144
-0.0209267130176
-0.0264978284818
-0.0267213913597
-0.026418645016
-0.0263205647364
-0.0262796700853
-0.026181689643
-0.02602477773
-0.0258758126977
-0.0258141892807
-0.0258216354429
-0.0258461927162
-0.0258659049437
-0.0258779824061
-0.0258845821465
-0.0258885552945
-0.0258916498939
-0.0258945374447
-0.0258973412579
-0.0258999632112
-0.025902262099
-0.0259041023404
-0.0259058083666
-0.025907096431
-0.0259079969543
-0.025908563848
-0.0259088595182
-0.0259089447799
-0.0259088755523
-0.0259086998497
-0.0259084581095
-0.025908188313
-0.0259080028774
-0.0259086515614
-0.0259153688406
-0.0259565987724
-0.0261321913517
-0.0265530796822
-0.0264255816838
-0.0209657526778
-0.021029471831
-0.026569971099
-0.0268399260969
-0.0265880004409
-0.0265040992672
-0.0264733057864
-0.0264034732152
-0.026286428283
-0.0261807908828
-0.0261398216466
-0.0261472396445
-0.0261660314229
-0.0261810060046
-0.0261905981225
-0.0261956462641
-0.0261988513885
-0.0262014936457
-0.0262040747276
-0.0262066421695
-0.0262090601786
-0.0262111786379
-0.0262130557976
-0.0262146959374
-0.0262159373214
-0.0262168107126
-0.0262173661511
-0.0262176659799
-0.0262177645127
-0.0262177148396
-0.0262175654768
-0.026217351574
-0.0262171146095
-0.0262169307465
-0.02621735653
-0.0262223308214
-0.0262541118336
-0.0263941253513
-0.0267340133463
-0.0265296102111
-0.0210611326857
-0.0210005304553
-0.0258986215595
-0.0261245264963
-0.0259232929119
-0.0258607132149
-0.0258405952504
-0.0257936604483
-0.0257118477188
-0.0256385535184
-0.0256102740943
-0.025615133265
-0.0256279623291
-0.0256385233347
-0.0256455659032
-0.0256492223155
-0.025651655082
-0.0256537814994
-0.0256559380225
-0.0256581121393
-0.0256601536096
-0.0256621838263
-0.0256640389101
-0.0256655374866
-0.0256666778392
-0.0256674884356
-0.0256680130267
-0.0256683047151
-0.0256684155914
-0.0256683933716
-0.025668279247
-0.0256681079545
-0.0256679110813
-0.0256677413688
-0.0256679419362
-0.0256710395286
-0.0256924076907
-0.025793530602
-0.0260566894789
-0.0258750833347
-0.0210207691047
-0.0199721872761
-0.0230392519843
-0.0231047869558
-0.0229610437786
-0.0229272139974
-0.0229173103357
-0.0228859359561
-0.0228280909209
-0.0227742813613
-0.0227509733343
-0.0227513673325
-0.022758437877
-0.0227657311197
-0.0227695994101
-0.0227721323076
-0.0227737711056
-0.022775250573
-0.0227767977819
-0.0227783582883
-0.0227801360924
-0.0227818507238
-0.0227833289351
-0.0227845304696
-0.022785454811
-0.0227861217471
-0.0227865648103
-0.0227868236473
-0.0227869388757
-0.0227869472463
-0.0227868808915
-0.0227867672835
-0.0227866301485
-0.0227864984575
-0.0227865282353
-0.0227879365408
-0.0227991973692
-0.0228602607747
-0.0230499357983
-0.023018460947
-0.0199803389807
-0.0125249410438
-0.0130744718593
-0.0129842326175
-0.0129259329675
-0.0129141909718
-0.0129101351066
-0.0129028617505
-0.0128915882768
-0.012883672407
-0.0128842766356
-0.0128896665075
-0.0128953715992
-0.0128995917496
-0.0129036167943
-0.0129068914795
-0.0129074524415
-0.0129076128989
-0.0129077726843
-0.0129079703895
-0.0129080080527
-0.0129081000984
-0.0129082121888
-0.0129083451359
-0.0129084936852
-0.0129086505848
-0.0129088093439
-0.0129089647361
-0.0129091128975
-0.0129092510677
-0.0129093784206
-0.0129094952126
-0.0129096035207
-0.0129097053901
-0.0129098269712
-0.0129101688706
-0.0129125036322
-0.0129274926506
-0.0129918628397
-0.0130813058791
-0.0125318737474
-0.012616829085
-0.0137111674711
-0.01362982725
-0.0135285157823
-0.0135038848691
-0.0134974317137
-0.0134855044016
-0.013465065896
-0.0134471994982
-0.0134412619757
-0.013443712424
-0.0134482485095
-0.0134527903991
-0.0134559326884
-0.0134588698261
-0.0134597213642
-0.0134598031689
-0.0134596614953
-0.0134594834464
-0.0134594618369
-0.0134595118089
-0.0134596017699
-0.0134597251619
-0.0134598724248
-0.0134600348102
-0.0134602039019
-0.013460370719
-0.0134605300542
-0.0134606786167
-0.0134608151089
-0.0134609398292
-0.0134610557522
-0.0134611679124
-0.0134613457079
-0.0134621387709
-0.0134676681695
-0.0134992114988
-0.0136127787784
-0.0137002901282
-0.0126199654632
-0.0210254426105
-0.0259355812161
-0.0261706469481
-0.0259707378617
-0.0259079407045
-0.0258877730492
-0.0258418359631
-0.0257628577894
-0.0256868568152
-0.0256471441196
-0.0256387740426
-0.0256420557819
-0.0256473914701
-0.0256514891692
-0.0256542939491
-0.025656281844
-0.0256578979697
-0.0256593800305
-0.0256607696121
-0.0256620609783
-0.025663647446
-0.0256649166622
-0.0256659211651
-0.0256666696793
-0.0256671877624
-0.0256675097416
-0.0256676728464
-0.0256677145327
-0.025667668118
-0.0256675618759
-0.0256674197388
-0.0256672648816
-0.0256671438728
-0.0256673932306
-0.0256705411869
-0.0256919466085
-0.0257930956344
-0.026056268621
-0.0258745979831
-0.0210204791597
-0.022295492514
-0.0295998161869
-0.0300672225428
-0.0298125124657
-0.0297122830228
-0.0296761180474
-0.0296089255808
-0.0295030626977
-0.0294075979168
-0.0293632084926
-0.0293592341237
-0.0293682453358
-0.0293773780718
-0.0293842128299
-0.029388041959
-0.0293907690169
-0.029392993342
-0.0293950422306
-0.029396973601
-0.0293987265422
-0.02940042559
-0.0294020417546
-0.0294033163795
-0.0294042561846
-0.0294048949293
-0.0294052789651
-0.029405458424
-0.0294054826429
-0.0294053951349
-0.0294052330583
-0.0294050272212
-0.0294048104135
-0.0294046778477
-0.0294053202423
-0.0294114898879
-0.0294485064224
-0.0296019616396
-0.0299370193206
-0.0295310602009
-0.0222982696991
-0.0223542679995
-0.0306013698713
-0.0311626187327
-0.0308619425635
-0.0307360546508