/*--------------------------------*- C++ -*----------------------------------*\
| =========                 |                                                 |
| \\      /  F ield         | OpenFOAM: The Open Source CFD Toolbox           |
|  \\    /   O peration     | Version:  3.0.1                                 |
|   \\  /    A nd           | Web:      www.OpenFOAM.org                      |
|    \\/     M anipulation  |                                                 |
\*---------------------------------------------------------------------------*/
FoamFile
{
    version     2.0;
    format      ascii;
    class       surfaceVectorField;
    location    "7.8";
    object      ddt0(Uf);
}
// * * * * * * * * * * * * * * * * * * * * * * * * * * * * * * * * * * * * * //

dimensions      [0 1 -2 0 0 0 0];

internalField   nonuniform List<vector> 
22672
(
(0.00111946469441 0.000652418738566 -0.000784340471196)
(0.000655376253585 0.00111335006485 -0.000784196211701)
(0.000540624050228 0.000537465296267 -0.00224593260734)
(0.00195808713441 0.000702409871052 -0.000666368093245)
(0.00166186886137 0.00117157613418 -0.000755108374072)
(0.00137231029679 0.000575239706523 -0.00202473269775)
(0.00231913907056 0.000708460682224 -0.000511678405833)
(0.0021770398152 0.0011922270248 -0.000564317981254)
(0.00178529961373 0.000682929118263 -0.00156769935056)
(0.00233175917407 0.000670153742004 -0.000314204475092)
(0.00240280557055 0.00118672458105 -0.000453836404694)
(0.0018034152014 0.000734077449624 -0.00121284178611)
(0.00207690321794 0.00060716754842 -0.000161257744264)
(0.00222525659407 0.00112708441938 -0.000156002446126)
(0.00151626787666 0.000712808582006 -0.000884713637349)
(0.00171898068146 0.000559381825295 -0.000118410101262)
(0.00198637317868 0.00100802863404 -0.000108382076056)
(0.00123406223561 0.000681723453848 -0.000661604837708)
(0.00127809626693 0.000550012178177 -7.41345052789e-05)
(0.00157600373504 0.000944466279978 1.39940260582e-05)
(0.000825725323536 0.00066041429451 -0.000514138585453)
(0.000826747230958 0.000577473705801 -6.3280335237e-05)
(0.0010930279761 0.00091075455167 0.000111635614177)
(0.000448496965947 0.000671860595043 -0.000469096780438)
(0.00039299576638 0.000617066473463 -7.11719832572e-05)
(0.000611630821837 0.000902922494815 0.00015067659345)
(0.000193075230178 0.000708313926519 -0.000478199119467)
(-2.87356550753e-06 0.000636111767594 -7.5361457097e-05)
(0.000186066240114 0.000913799670159 0.000147913111362)
(4.63304720483e-05 0.000742986053385 -0.000526644503836)
(-0.000399348781798 0.000617382748702 -7.10222167816e-05)
(-0.000191654719407 0.000913953024608 0.000148120578248)
(-5.22270453387e-05 0.000743098921622 -0.00052631535641)
(-0.00083470213057 0.000577827044643 -6.29445379583e-05)
(-0.000618315892035 0.000903311300889 0.000151315661361)
(-0.000200130008914 0.000708617756777 -0.000477287439822)
(-0.00128815548822 0.000550161227237 -7.36929088534e-05)
(-0.00110174591236 0.00091097023768 0.000112574175069)
(-0.000457717886067 0.000671953254875 -0.000467451507617)
(-0.00173124494676 0.000559466505118 -0.000118025246571)
(-0.00158719888369 0.000944581455485 1.48162914318e-05)
(-0.000837388065963 0.000660403676779 -0.000511804278589)
(-0.0020904660486 0.000607382297929 -0.000161062162233)
(-0.00199954344492 0.00100854800932 -0.000107778554025)
(-0.00124756530606 0.000681814556122 -0.00065954979773)
(-0.00234483438002 0.000670574803124 -0.000314140137294)
(-0.00223798668374 0.00112803866117 -0.000155557010758)
(-0.00152964938648 0.000713157952758 -0.00088334563902)
(-0.00233001468728 0.000709162038095 -0.000511808836781)
(-0.00241504023359 0.00118835045171 -0.000453655817986)
(-0.00181548684613 0.000734841503644 -0.00121207358627)
(-0.00196545210977 0.000703260951681 -0.000666824973201)
(-0.00218597229679 0.00119442818977 -0.00056459183928)
(-0.00179442228064 0.000683978340391 -0.00156742981572)
(-0.00112387691051 0.000653269747458 -0.000784968512446)
(-0.00166774621481 0.00117383647167 -0.000755628915352)
(-0.00137820541104 0.000576246156858 -0.00202455162057)
(-0.000657682935912 0.00111555394128 -0.000785099227414)
(-0.000543229413169 0.000538129126657 -0.00224671120615)
(0.00117758448494 0.00165287542291 -0.000754964114577)
(0.000705392230584 0.00194582366906 -0.000666153074213)
(0.000578590960926 0.00136213313848 -0.00202440852397)
(0.00197873604402 0.00169482765385 -0.000653058262082)
(0.00170357728717 0.00196698010501 -0.000653089423395)
(0.00136752103567 0.00135793609908 -0.00161193399249)
(0.00231067536765 0.00170255989141 -0.000506475980115)
(0.00217169066682 0.00198232542155 -0.00044617306015)
(0.00178161867472 0.00151529285315 -0.00113704109595)
(0.00234019972668 0.00165541225958 -0.000295634375728)
(0.00236270962443 0.0019350303923 -0.000335050116576)
(0.0018724773192 0.00166722659485 -0.000791795580008)
(0.00209970005122 0.00151357872389 -0.000103126777918)
(0.00223625612059 0.00177843513181 -3.93394438737e-05)
(0.00166921387823 0.00169525032087 -0.000423675681124)
(0.00178958715001 0.00135699558449 2.40220512639e-05)
(0.0019910669898 0.001490645109 5.27145557869e-05)
(0.00139793050424 0.00160130795777 -0.000184164154965)
(0.00135530103815 0.00125577683886 0.000199764145514)
(0.0016494083766 0.00129041090034 0.000244788227993)
(0.00102853802079 0.00151384913335 7.78121727844e-05)
(0.000865846886293 0.00118815645972 0.000325592542864)
(0.00119936040476 0.00112010210556 0.000444676935097)
(0.000621991506111 0.00142143663407 0.000270588147833)
(0.000400547191073 0.00115936391014 0.000369761688069)
(0.000694954744885 0.00101582902684 0.000594208448291)
(0.000272066075022 0.00133893995123 0.000343618359328)
(-2.57669873326e-06 0.00115454314758 0.000371395146707)
(0.000216757976696 0.000981332984803 0.000614230444019)
(5.93780683266e-05 0.00125739407005 0.000327141762828)
(-0.000406329091369 0.00115956527281 0.00037045845639)
(-0.000221505753045 0.000981477011289 0.00061459848145)
(-6.51043628343e-05 0.00125754144682 0.000327620139154)
(-0.00087355105368 0.00118832837722 0.000326834374388)
(-0.000701142883448 0.00101629997264 0.000595784176984)
(-0.000279071817057 0.00133981292513 0.000345086901524)
(-0.00136540935906 0.00125587918906 0.000201083375354)
(-0.00120796682368 0.00112043295273 0.000446112528446)
(-0.000631301797091 0.0014217744557 0.000272628570977)
(-0.00180177035579 0.00135755249168 2.50629839781e-05)
(-0.00166045191111 0.00129114696447 0.000245825110314)
(-0.0010402850797 0.00151436098943 7.96750456488e-05)
(-0.00211277451397 0.00151490281708 -0.000102273402549)
(-0.00200374036701 0.00149245406556 5.33025585198e-05)
(-0.00141132084319 0.00160258010246 -0.000182911573778)
(-0.00235290282409 0.00165764948211 -0.00029507269145)
(-0.00224825989098 0.0017815780962 -3.85541776481e-05)
(-0.0016821893852 0.0016974257586 -0.000422933007417)
(-0.0023211973754 0.00170575024371 -0.000506438820486)
(-0.00237435336473 0.00193948499219 -0.000334931972994)
(-0.00188430890592 0.00167051321847 -0.00079181481515)
(-0.00198576605953 0.00169854198884 -0.000653395781431)
(-0.00218010036261 0.00198782455517 -0.000446491281059)
(-0.00179019033706 0.00151937885751 -0.00113774398286)
(-0.00118193368832 0.00165676327654 -0.00075575963032)
(-0.00170910804274 0.00197288299787 -0.000653738716122)
(-0.00137315747375 0.00136230066493 -0.00161280276095)
(-0.000707633435771 0.0019518006874 -0.000667426881918)
(-0.000580909126706 0.00136631514827 -0.00202597009386)
(0.00119810422148 0.00216250436086 -0.000564278383031)
(0.000711453942965 0.00230170458242 -0.000511806380861)
(0.000685982768199 0.00176934678795 -0.00156770655715)
(0.00199370140684 0.0021578127864 -0.000446204221464)
(0.00171112355895 0.00229425229662 -0.000506507362771)
(0.00152453312382 0.0017665111781 -0.00113728361255)
(0.00228558197277 0.00211563233725 -0.000274747196612)
(0.00212899933671 0.00226978565594 -0.000274707280679)
(0.0019559972183 0.00194141051485 -0.000593226011281)
(0.00230366341437 0.00197148488948 -7.87551847222e-05)
(0.00225453608794 0.00214816343342 -0.000157780273841)
(0.00202819575995 0.00204835671447 -0.000243946576444)
(0.00209794928255 0.00168379313882 0.000116501889832)
(0.00213856340821 0.00188048767411 9.57743399691e-05)
(0.00186985283276 0.00198313617194 9.22228889912e-05)
(0.00182090408522 0.00135308990645 0.000273480732516)
(0.00187415123271 0.00142307909231 0.000192651071801)
(0.00160996537809 0.00173842551145 0.000334504604425)
(0.00145403410648 0.00107636476416 0.000489701017577)
(0.00159883413569 0.00104088703345 0.000352900964084)
(0.00131208243367 0.00148315247281 0.000607557711584)
(0.00100420876071 0.000856663255036 0.000713292840525)
(0.00122647813357 0.000676011074703 0.000547353171105)
(0.000959775636149 0.0012306862821 0.000886176132373)
(0.000503062969788 0.000730643598689 0.000838677204241)
(0.000758916269818 0.000417037229821 0.000729107859096)
(0.000538659622987 0.00104622639526 0.00109298814128)
(-2.03444988296e-06 0.000693281856171 0.000857433778763)
(0.000250358743281 0.000291471961463 0.000783981845942)
(0.000149679936164 0.000955502558511 0.00118836572942)
(-0.00050787287578 0.000730676382535 0.000839924202043)
(-0.000254323745242 0.000291337586027 0.0007842975746)
(-0.000153959912586 0.000955493677302 0.00118924845735)
(-0.0010117746544 0.000856913584779 0.000715062331041)
(-0.000764424008241 0.000416788901589 0.000730567886621)
(-0.000545139401975 0.00104631402051 0.00109617047722)
(-0.00146387861346 0.00107721902136 0.000490854263406)
(-0.00123439118322 0.000676685140165 0.000548492866217)
(-0.000969334011295 0.00123121362651 0.000888018619777)
(-0.00183253340945 0.00135509571777 0.000274064684856)
(-0.00160889013505 0.00104294962288 0.000353625378663)
(-0.00132340828069 0.00148474197476 0.000608671926015)
(-0.0021100781511 0.00168749672902 0.000117021783421)
(-0.0018854891588 0.00142700181259 0.00019282672952)
(-0.00162249981824 0.00174171351549 0.000334845914617)
(-0.00231548782209 0.00197688360691 -7.84134591919e-05)
(-0.00214931117676 0.00188680703362 9.65661878502e-05)
(-0.00188190753612 0.00198857264808 9.22814484151e-05)
(-0.00229520750735 0.00212234925491 -0.000274984433567)
(-0.00226494358166 0.00215615411442 -0.000157910165199)
(-0.00203912564055 0.0020552747907 -0.000244737867757)
(-0.00200014103721 0.00216538440587 -0.000446834215751)
(-0.0021364664747 0.00227912145602 -0.000275250479003)
(-0.00196380821911 0.00194946860988 -0.000594677290287)
(-0.00120231110586 0.00217038721181 -0.00056540596772)
(-0.00171601162904 0.0023042827405 -0.000507453484108)
(-0.00152972964109 0.00177504609459 -0.00113909327359)
(-0.000713461036468 0.00231186174353 -0.000513205791743)
(-0.000688408559508 0.00177773446728 -0.0015702587074)
(0.00119254791527 0.00238438208228 -0.000454035360602)
(0.00067326739586 0.00231085151626 -0.00031508436849)
(0.000737051656145 0.00178304328152 -0.00121376180153)
(0.0019460189297 0.00234517364327 -0.000335010421986)
(0.00166393626345 0.0023202680331 -0.000295729125125)
(0.00167633448549 0.00185326787064 -0.000792041874461)
(0.00216339714779 0.00223760970418 -0.000157740357908)
(0.00198453319834 0.00228452663121 -7.85471064677e-05)
(0.00206231523242 0.00200965064258 -0.000243993217286)
(0.00211891655309 0.00199973257396 1.67492508509e-05)
(0.0020162285697 0.0021004916004 1.69192120604e-05)
(0.00208003215058 0.00206210204683 8.16074234244e-05)
(0.00188972540748 0.00158006385572 0.000171923521939)
(0.00185615274224 0.00174454152427 0.000205178010076)
(0.00188738436927 0.00189943164521 0.000356082622258)
(0.00162337870551 0.00109223503534 0.000272071303369)
(0.001566852181 0.00116304303511 0.000239094765911)
(0.00159562976605 0.00150651380782 0.000518806475726)
(0.00132639806756 0.000645672579419 0.000410553117612)
(0.00134015966271 0.000636905434007 0.000320360733034)
(0.00132078144196 0.00108882009959 0.000694707623619)
(0.000953941215104 0.000268555771402 0.000563168189675)
(0.0010455262112 0.000131976543559 0.000446596394529)
(0.00100665159681 0.000669428017066 0.000911309234086)
(0.000495954768813 3.24649939925e-05 0.000674412500796)
(0.000669726470581 -0.000234798344594 0.000523157247214)
(0.000625105014058 0.000348744849765 0.00110539760896)
(-1.81997644409e-06 -4.6958178864e-05 0.000710845641779)
(0.000228683607851 -0.000424146947197 0.000536422200705)
(0.000206854577799 0.000209040756653 0.00120932947794)
(-0.000500283370855 3.24876924665e-05 0.000674941259177)
(-0.000231774027856 -0.000424008693703 0.000536527872866)
(-0.000210916270522 0.000208962253339 0.00120964189299)
(-0.000960273044935 0.000269155990027 0.000563998421797)
(-0.000674061871252 -0.000234221551031 0.000523525357221)
(-0.000630550321531 0.00034838216889 0.00110638649297)
(-0.00133486786507 0.000647641317118 0.000411263981475)
(-0.00105175108219 0.000133742924777 0.00044727824632)
(-0.00101424646808 0.000670605362172 0.000912413573059)
(-0.00163330019359 0.00109614927614 0.000272387423326)
(-0.00134816706177 0.000640651806732 0.00032082834046)
(-0.00133017668833 0.00109199236895 0.000695283471091)
(-0.0018999266388 0.00158654716395 0.000172371133948)
(-0.00157579004739 0.0011692933677 0.000239227440539)
(-0.00160602178062 0.00151236350412 0.000518798702521)
(-0.00212924801401 0.00200851407193 1.70694818435e-05)
(-0.00186494978305 0.00175423548644 0.000207297060291)
(-0.00189777004894 0.00190951218346 0.000356280317191)
(-0.00217162572732 0.00224793168663 -0.000158176210634)
(-0.00202501436394 0.00211179047061 1.68243109129e-05)
(-0.00208973401874 0.00207284609817 8.06960810935e-05)
(-0.00195140575582 0.00235659111899 -0.00033586974736)
(-0.00199058296999 0.00229739266301 -7.9226065917e-05)
(-0.00206916465539 0.00202169708635 -0.000245730312424)
(-0.00119609449042 0.0023961635299 -0.000455253308131)
(-0.00166774152641 0.00233399596639 -0.000296815216728)
(-0.00168064165941 0.001865983939 -0.000794373625119)
(-0.000674814664118 0.00232457620378 -0.000316474290424)
(-0.000739068852202 0.00179549991312 -0.00121646140278)
(0.00113305124149 0.0022038206669 -0.000156778133013)
(0.000610485883257 0.00205422514046 -0.000162837534217)
(0.000715750972991 0.00149344523395 -0.000886689180347)
(0.00178935954935 0.00221561932234 -3.92658096063e-05)
(0.00152228986613 0.00207764914967 -0.00010342830938)
(0.00170400789186 0.00164682710891 -0.000424231147727)
(0.00189543019957 0.00211876242698 9.61124635005e-05)
(0.00169674317974 0.00207667890226 0.000116781371481)
(0.00199662133011 0.00184826033364 9.21339967842e-05)
(0.00176252948437 0.0018369953291 0.000205347971286)
(0.00159632496197 0.00186921400791 0.000172270162895)
(0.00191684216004 0.00186648590003 0.000356108406922)
(0.00149791237089 0.00134671729757 0.000272349254049)
(0.00136555250353 0.00147789536673 0.000272444200016)
(0.0016539617 0.00163353529935 0.000524900695431)
(0.00125134020298 0.000751402385528 0.000287384195576)
(0.00106463576784 0.00086038597381 0.000204900806597)
(0.0013290938617 0.00115791450158 0.000544440861342)
(0.00102097313926 0.000184136577742 0.00035640400995)
(0.000887577873388 0.000275073126125 0.000199589746663)
(0.00108937983856 0.000638386586561 0.00058870073847)
(0.000738574577513 -0.000297169018217 0.000406585452067)
(0.000690624503533 -0.000273970589234 0.000256089567298)
(0.000831273299666 0.000122757216806 0.000685838816902)
(0.000385990250693 -0.000603473180855 0.000385166947122)
(0.000446484329297 -0.000673295170564 0.000287869551218)
(0.000528262747533 -0.00027493210823 0.000789307945434)
(-1.19067926307e-06 -0.000705275218943 0.000362104431791)
(0.000154963952956 -0.000865451733839 0.000258270255802)
(0.000182742569182 -0.000474530760393 0.000827072356924)
(-0.000388991404487 -0.00060289470451 0.000385111970909)
(-0.000156412497818 -0.000864914982531 0.000257685637029)
(-0.000185380814459 -0.000474278519575 0.000827244553218)
(-0.000743012193449 -0.000295599133441 0.000406805181744)
(-0.000448976654085 -0.000671849688323 0.000288214076798)
(-0.000531994549227 -0.000274058164205 0.000789836954096)
(-0.00102714979175 0.000187429366341 0.000356842605306)
(-0.000694725350504 -0.000270922114107 0.000256711848034)
(-0.000836633850384 0.00012517628037 0.000686570729949)
(-0.00125866623787 0.00075699437565 0.000287668357673)
(-0.000893233853405 0.000280471517839 0.000199949616211)
(-0.00109605999566 0.000643158366811 0.000589157266971)
(-0.00150510781614 0.00135507767593 0.000274153366883)
(-0.00107111184742 0.000868250405219 0.000204956103878)
(-0.00133543040563 0.0011654455421 0.000544702474881)
(-0.00177121416098 0.00184801353071 0.000207051889361)
(-0.00137198505145 0.00148820510966 0.000274542257841)
(-0.00166204467835 0.00164427744657 0.000528920500513)
(-0.00190185871832 0.00213185911832 9.577445563e-05)
(-0.00160295496314 0.00188257064579 0.000172200798569)
(-0.00192611689943 0.00187978349542 0.00035566206257)
(-0.00179326952156 0.00223019001699 -4.01715352844e-05)
(-0.00170112636759 0.00209220270859 0.000116173012026)
(-0.00200224576892 0.00186352703332 9.05624624726e-05)
(-0.00113567545118 0.00221894868271 -0.00015803619902)
(-0.00152506664863 0.00209420323715 -0.000104301198984)
(-0.00170744766171 0.00166315753341 -0.000426430998997)
(-0.000611616032151 0.00207080548915 -0.000164074823076)
(-0.000717206770001 0.00150944340208 -0.000889124232393)
(0.00101419991961 0.00196409832061 -0.000109487710584)
(0.000562860903472 0.00169632402757 -0.000120590646804)
(0.000684769410397 0.00121016989952 -0.000664874309666)
(0.00150166073903 0.0019694153896 5.26188717072e-05)
(0.00136586894272 0.00176707677346 2.32372469204e-05)
(0.00160994181939 0.00137422201967 -0.000185501197142)
(0.00143786379216 0.00185321114387 0.000192939070876)
(0.00136600319677 0.00179902061887 0.000273607322164)
(0.00175161885 0.0015870254126 0.000334009465282)
(0.00118080736414 0.00154648638253 0.000239366391624)
(0.00110838692413 0.00160208200204 0.00027244417882)
(0.00152352642446 0.00157327297793 0.00051858634612)
(0.000880267946002 0.00104450650964 0.000204995752564)
(0.000770016890335 0.00123044550461 0.000287771050481)
(0.00117801938345 0.001307049352 0.000544294878128)
(0.000672305852105 0.000450672953918 0.000117106357684)
(0.000470726799865 0.000651378137492 0.000117262265038)
(0.000852543901871 0.000830580331403 0.000414926267085)
(0.000532272144393 -0.000107709390392 9.92753040107e-05)
(0.00034516367722 9.73019452325e-05 3.17512517852e-05)
(0.000650032350667 0.000308891470309 0.000317046716859)
(0.000386380051591 -0.00057994843443 0.000137373666449)
(0.000263829904017 -0.000418029774392 2.82994197848e-05)
(0.000484932620583 -0.000194438829988 0.000290249584388)
(0.000198449682132 -0.000879218704722 0.000160972859897)
(0.000184202749378 -0.000806843354246 -3.82102026923e-05)
(0.000309977538191 -0.000580493056664 0.000322540248308)
(-2.17215220275e-07 -0.000975296462216 0.000153851461039)
(6.47528867294e-05 -0.00101277829484 -4.60032218822e-05)
(0.000108281877276 -0.000780464049591 0.000347454294251)
(-0.000199363417406 -0.00087793022976 0.000160787742918)
(-6.39194164791e-05 -0.00101202091242 -4.65543794582e-05)
(-0.00010875704983 -0.000779924984756 0.000347700272631)
(-0.000388661351314 -0.000577197042529 0.000138120743088)
(-0.000184285157057 -0.000804752124775 -3.78352371254e-05)
(-0.000311480566841 -0.000578683734102 0.000323336056632)
(-0.000536228580875 -0.000102717320999 9.98188589397e-05)
(-0.000265447866652 -0.000413673524179 2.91878259383e-05)
(-0.00048792425241 -0.000190614364202 0.000291046492655)
(-0.00067743331888 0.000458262531493 0.000117237362416)
(-0.000348341456666 0.000104433081308 3.219998811e-05)
(-0.000654447496625 0.000315395524009 0.000317570536396)
(-0.000885652426454 0.00105475724972 0.000205344994836)
(-0.000474865139777 0.000661377830325 0.000117278047185)
(-0.000857755148517 0.000839838112873 0.000414977945598)
(-0.00118649709953 0.00155953133831 0.000239691167049)
(-0.000773861975891 0.00124334378752 0.000288510615033)
(-0.00118344801142 0.00131808956937 0.000544793638323)
(-0.00144219060218 0.00186875794466 0.000192599354965)
(-0.00111248017216 0.00161765896288 0.000272442292345)
(-0.00152901998557 0.00158865761691 0.000518189378185)
(-0.0015043399617 0.00198639981514 5.20433483266e-05)
(-0.00136860346053 0.00181659561984 0.000273249368327)
(-0.00175544124104 0.00160487608989 0.000332943314053)
(-0.00101627551067 0.00198141017171 -0.00011033982304)
(-0.00136769827037 0.00178534350904 2.2718020052e-05)
(-0.00161264176938 0.00139309749711 -0.000186992965184)
(-0.00056359333749 0.00171434848096 -0.000121587634523)
(-0.000685829654955 0.00122863179242 -0.000666477212458)
(0.000950660839451 0.00155456750358 1.21343107009e-05)
(0.000553505812173 0.00125844421704 -7.71175753883e-05)
(0.000663606255155 0.000802776429607 -0.000519891369595)
(0.00130143482361 0.0016279334386 0.000244225697377)
(0.00126458087651 0.00133437046263 0.000198114306618)
(0.00152226219657 0.00100501614208 7.50257619374e-05)
(0.00105558697739 0.00157781678759 0.000353112430108)
(0.00108933208988 0.00143300956854 0.000489360908232)
(0.00149615187467 0.00128908379526 0.000606390619629)
(0.000654425171877 0.00131962216545 0.000320848837677)
(0.000661957223514 0.0013056445372 0.000410794479295)
(0.00110555238271 0.00129836543313 0.000694233700353)
(0.000294689959582 0.000867204640039 0.000200037562956)
(0.000202642101028 0.0010004978253 0.000357130279675)
(0.000658095290116 0.00106714484498 0.000588442524224)
(0.000118167272923 0.000324733577148 3.19071591395e-05)
(-8.77469778864e-05 0.00051161575784 9.97240188493e-05)
(0.000330654538898 0.000627657609564 0.000316852475675)
(6.64048151341e-05 -0.000190340773085 -3.92246324408e-05)
(-0.000169929186746 4.56684100385e-05 -3.92623575854e-05)
(0.000176550474318 0.000154122094846 0.000105485361173)
(4.94461218396e-05 -0.00060881962109 -0.000147284449357)
(-0.000138699412398 -0.000399827959808 -0.00016931141691)
(0.000115294170158 -0.000298832448842 2.04426987216e-06)
(4.00086895527e-05 -0.000876524252001 -0.000245186284472)
(-6.79135072593e-05 -0.000707394585054 -0.000286632156673)
(8.72551991156e-05 -0.000628580194484 -8.58477568788e-05)
(1.04097311461e-06 -0.000976010551195 -0.000246409062379)
(-2.13248627327e-05 -0.000870001219961 -0.000302889924693)
(3.26332880599e-05 -0.000808893080681 -9.92226249233e-05)
(-3.83691946602e-05 -0.000874891761545 -0.000245177359501)
(2.48196092384e-05 -0.000869084903969 -0.000302875108361)
(-3.04663539938e-05 -0.000808128165262 -9.89749918778e-05)
(-4.89564669243e-05 -0.000605153794372 -0.000146768154275)
(7.06445168785e-05 -0.000704512972156 -0.000286729458923)
(-8.60220135711e-05 -0.000625965133959 -8.54701638001e-05)
(-6.75578759433e-05 -0.000184003106894 -3.84310448913e-05)
(0.000140066762014 -0.000394576410577 -0.000168537258516)
(-0.000115418166595 -0.000293872790848 3.14961661901e-06)
(-0.000120546754221 0.000334069097374 3.22406728785e-05)
(0.000169663678559 5.41776270946e-05 -3.84072872456e-05)
(-0.000178141375005 0.000162118642218 0.000106328238368)
(-0.000297511324264 0.00087947755306 0.000200443667381)
(8.6339889151e-05 0.000523311550762 0.000100183732102)
(-0.000333270788977 0.000638832561546 0.000317385999932)
(-0.000657332130629 0.00133465288006 0.000321261740329)
(-0.000203921531614 0.00101513905879 0.000358018406507)
(-0.000660785927186 0.00108131428692 0.000589191646682)
(-0.0010576543514 0.0015951024059 0.000353092305706)
(-0.000663764637602 0.00132275511923 0.000411220031577)
(-0.00110832036715 0.00131565304592 0.000694422295118)
(-0.00130262325191 0.00164642133719 0.000243924040052)
(-0.00109035918819 0.00145178495759 0.000489554046011)
(-0.00149813229975 0.00130871975067 0.000606121235341)
(-0.000951948296666 0.00157308200463 1.14702085688e-05)
(-0.00126561931201 0.00135347334328 0.000197971061501)
(-0.00152404775789 0.00102541869028 7.42910782748e-05)
(-0.000553953150191 0.00127689304272 -7.78748419986e-05)
(-0.000664192985574 0.000822565286657 -0.000520531816391)
(0.000916648331757 0.00107449268889 0.000108862420529)
(0.000580783723639 0.000811200317182 -6.66099665276e-05)
(0.000675046447613 0.000428963048959 -0.000475307798613)
(0.00113109792514 0.00117973588347 0.000443249517473)
(0.00119659831074 0.000848461897712 0.000322949877986)
(0.00142928321461 0.000600768399182 0.000265971553496)
(0.000690980526591 0.00120672865402 0.00054704295742)
(0.000869679315864 0.000985695270352 0.000711581130219)
(0.00124363982293 0.000937936956183 0.000883615382096)
(0.000149572569691 0.00102609468476 0.000447075921293)
(0.000285214893079 0.000935472405534 0.000562733565824)
(0.000686249073775 0.000985759318394 0.000910114674722)
(-0.000254405833121 0.000671274927858 0.000256816735568)
(-0.000278575253868 0.000720135894072 0.000408034945129)
(0.000142263763816 0.0008104844497 0.000685251160165)
(-0.000397243101064 0.000244379238304 2.85545021244e-05)
(-0.000559886002108 0.00036786486755 0.000137621636773)
(-0.000172881648248 0.000463839137699 0.000289648124354)
(-0.000379083427159 -0.000158197987334 -0.000169349142055)
(-0.000588117240332 3.09052443922e-05 -0.000147439713507)
(-0.000276509480912 9.41109032441e-05 1.43780991952e-06)
(-0.000263048031934 -0.000498592303478 -0.000308659124226)
(-0.000479286407125 -0.000281572088652 -0.000308833942176)
(-0.000235299143616 -0.000256532043128 -0.000228012897234)
(-0.000130930005492 -0.000716950151395 -0.000344335796895)
(-0.000298682732331 -0.00051998998221 -0.000365758226745)
(-0.00014234595696 -0.000531279333996 -0.000312279858511)
(2.44428221234e-06 -0.000786241447491 -0.000359355970675)
(-0.000101219734664 -0.000630252461803 -0.000406643417438)
(-4.59354856294e-05 -0.000662769845425 -0.000365472035798)
(0.000135418749644 -0.000714875910901 -0.000344427207783)
(0.000107293333756 -0.000629177175594 -0.000406685822417)
(5.09310816022e-05 -0.000661784706828 -0.000365337621208)
(0.000266544154478 -0.000494242417397 -0.000308498563164)
(0.000304138319241 -0.000516661462169 -0.000365901016733)
(0.000146576346154 -0.000528106386524 -0.0003119233664)
(0.000381054400827 -0.000150942859759 -0.00016851350087)
(0.000483461028679 -0.000275743483233 -0.000308565597893)
(0.000238245699823 -0.000250809464105 -0.000226966771162)
(0.000397788191929 0.000254993901178 2.95357719785e-05)
(0.000590654616265 4.00936458295e-05 -0.000146583563855)
(0.000277911537532 0.000103170752791 2.89933910879e-06)
(0.00025419803942 0.000684977065209 0.000257758471228)
(0.000561041688614 0.000380394011002 0.000138767950027)
(0.000173064374454 0.00047630697567 0.000291001978488)
(-0.000150128854414 0.00104240465008 0.000447976697755)
(0.000279390959866 0.000735546483878 0.000409167148109)
(-0.000142424242514 0.000826115446348 0.000686845407331)
(-0.000691282771288 0.00122498757119 0.000547681771881)
(-0.000285326620098 0.000953048336743 0.000563766236279)
(-0.000686850977815 0.00100410956149 0.000911417020484)
(-0.00113145505085 0.00119884109355 0.000443601067459)
(-0.000869769349727 0.00100474564092 0.000712738338126)
(-0.00124432864794 0.00095860723832 0.000884572994733)
(-0.000917692580011 0.00109335229084 0.000108626010933)
(-0.00119742752146 0.000867530947285 0.000323233548464)
(-0.00143073529814 0.000621574156817 0.000266135624009)
(-0.000581237899469 0.00082976726571 -6.71446194778e-05)
(-0.000675474200423 0.000448975128844 -0.000475990360005)
(0.000908458527601 0.000597920808759 0.00014747749093)
(0.000620105753599 0.000382929609223 -7.43704975389e-05)
(0.000711249755072 0.000178533369631 -0.000485127080929)
(0.00102621221971 0.000679773484246 0.000591281490732)
(0.00116742657534 0.000388988191349 0.000366902471051)
(0.00134534067615 0.000256191446944 0.000337370113135)
(0.00043246856714 0.000742845246883 0.000727271738623)
(0.000743222255303 0.000490492438656 0.000836532830112)
(0.00105894412619 0.000521961617095 0.00108645336852)
(-0.000217043021774 0.000653100845937 0.00052369258966)
(4.89001487534e-05 0.000482073368508 0.000673221687074)
(0.000366139695086 0.000608056443926 0.00110297559887)
(-0.000653720290807 0.000429778860969 0.000288839846334)
(-0.000585015324157 0.000371495849517 0.000386495513303)
(-0.000255576187885 0.000510865613933 0.000788046652189)
(-0.000785428055368 0.000167652685112 -3.83725788591e-05)
(-0.000860348428037 0.000184081700751 0.000166823648224)
(-0.000558907288362 0.00029219281662 0.000320632760776)
(-0.00068664075876 -8.43534516226e-05 -0.000286924513629)
(-0.00085538530639 2.60274564796e-05 -0.000246551634917)
(-0.000606186250288 6.95844657135e-05 -8.66771927292e-05)
(-0.00050190430711 -0.000314799222723 -0.000365933044695)
(-0.000697536251948 -0.000144429583305 -0.000345272945715)
(-0.00051038476865 -0.000159739788494 -0.000313043930405)
(-0.000265927779945 -0.000457163405817 -0.000428065847288)
(-0.000441185586683 -0.000278716450148 -0.000428316100369)
(-0.000320216107326 -0.000337352892648 -0.000467396648464)
(3.65211966759e-06 -0.000499537230482 -0.00045397326918)
(-0.000150803625851 -0.000336842961104 -0.000484861102484)
(-0.000106648915311 -0.000418626599991 -0.000552734397841)
(0.000272873343785 -0.000454861463353 -0.000428159631367)
(0.000159211685815 -0.00033561704323 -0.000484922223956)
(0.000114134306555 -0.000417494207812 -0.000552689422649)
(0.000507858813573 -0.000310030843899 -0.000365968051461)
(0.000449010902383 -0.000275034012767 -0.000428397648156)
(0.000327038051392 -0.000333861408941 -0.000467091818509)
(0.000691114804555 -7.6603336706e-05 -0.000286635660878)
(0.000704100654151 -0.000138123037709 -0.000345130143085)
(0.000515934981583 -0.000153532916763 -0.000312209888057)
(0.000788515912944 0.000178724644285 -3.73513858071e-05)
(0.000860243989283 3.55070113571e-05 -0.00024590505636)
(0.00061015181038 7.91043775164e-05 -8.52134004923e-05)
(0.000655541133514 0.000443910882031 0.000290176626907)
(0.000863552974014 0.0001966875505 0.000168424885982)
(0.000561452729355 0.00030502834943 0.000322913905193)
(0.000218080770348 0.000669585383262 0.000524956686633)
(0.000587281074073 0.000386757077777 0.000388135769301)
(0.000257321895894 0.000526722768793 0.000790561089652)
(-0.000431620161634 0.000760826752822 0.000728822802524)
(-4.81506495808e-05 0.000499105862955 0.000674667208268)