/*--------------------------------*- C++ -*----------------------------------*\
| =========                 |                                                 |
| \\      /  F ield         | OpenFOAM: The Open Source CFD Toolbox           |
|  \\    /   O peration     | Version:  3.0.1                                 |
|   \\  /    A nd           | Web:      www.OpenFOAM.org                      |
|    \\/     M anipulation  |                                                 |
\*---------------------------------------------------------------------------*/
FoamFile
{
    version     2.0;
    format      ascii;
    class       volScalarField;
    location    "5.9";
    object      ddt0(k);
}
// * * * * * * * * * * * * * * * * * * * * * * * * * * * * * * * * * * * * * //

dimensions      [0 2 -3 0 0 0 0];

internalField   nonuniform List<scalar> 
7968
(
-0.000123028679851
-0.000136180607723
-0.000147058628912
-0.000154027678995
-0.000158721179215
-0.000161450649839
-0.000163323778845
-0.000164384170959
-0.000164990439675
-0.000165267699139
-0.000165278023786
-0.000165008745521
-0.000164406661119
-0.000163348052616
-0.000161475055453
-0.000158744757018
-0.000154046368151
-0.000147071862338
-0.000136189496212
-0.000123031470145
-0.000136179407872
-0.000197749164525
-0.000240510340412
-0.000266382841154
-0.000281625581144
-0.000289620308034
-0.000294078816069
-0.000296708503462
-0.000298836661333
-0.000300328974085
-0.000300337835226
-0.000298854184923
-0.000296727934243
-0.000294096810508
-0.000289640085743
-0.000281654540861
-0.000266415166682
-0.000240541607389
-0.000197773682262
-0.000136187273628
-0.000147052466844
-0.000240501353472
-0.000303287509128
-0.000341259684158
-0.000363597980636
-0.000375667182518
-0.000382047668598
-0.00038594958217
-0.000389251743864
-0.000391625643701
-0.000391631973613
-0.000389260223755
-0.00038595324621
-0.000382043603449
-0.000375663148803
-0.000363608214397
-0.00034128068195
-0.000303313429054
-0.000240524985627
-0.000147062562413
-0.000154014206409
-0.000266366647451
-0.000341257075616
-0.000385444440857
-0.000410044565003
-0.000421972917831
-0.00042711209587
-0.000428987693054
-0.000424322999556
-0.000424252207742
-0.00042424896766
-0.000424283578891
-0.000428974090071
-0.000427089783642
-0.00042193398326
-0.000410024248512
-0.000385442354374
-0.000341266746739
-0.00026638111891
-0.000154025162224
-0.000158700952013
-0.000281614365643
-0.000363613277545
-0.000410071151421
-0.0004329487156
-0.000439715108104
-0.000441893211073
-0.000444524282593
-0.000446148668568
-0.000447244627051
-0.000447246571187
-0.000446140982128
-0.000444518534473
-0.000441862734244
-0.000439375040658
-0.000432891566166
-0.000410041839948
-0.000363602868451
-0.000281615846949
-0.000158710786608
-0.000161424991387
-0.000289630096222
-0.000375726800116
-0.000422067274805
-0.000439932672634
-0.000447998716596
-0.000451859169502
-0.000453336557155
-0.000454295469959
-0.000455236660747
-0.000455242763157
-0.000454300696697
-0.000453334025199
-0.000451844284867
-0.000447944914074
-0.000439575325571
-0.000422016940883
-0.000375699365673
-0.000289619742247
-0.000161432492886
-0.00016329117168
-0.000294116183808
-0.000382168450994
-0.000427292079432
-0.000442023059763
-0.0004519301886
-0.000454771786546
-0.000454100425072
-0.000453290876179
-0.000453354568429
-0.000453363501461
-0.00045330312586
-0.000454105264683
-0.000454765994731
-0.000451914416897
-0.000441988437624
-0.000427255615904
-0.000382140655145
-0.000294101692471
-0.000163295832755
-0.000164344938343
-0.000296763121061
-0.000386109268135
-0.000429236972367
-0.000444707021674
-0.000453471476842
-0.00045416325514
-0.000451057914055
-0.000448291858001
-0.000447332295802
-0.000447343379876
-0.000448309438126
-0.000451072534955
-0.000454172850105
-0.000453474533235
-0.000444704164025
-0.000429223676576
-0.000386100431492
-0.000296756991772
-0.000164348909665
-0.000164943540448
-0.000298883309178
-0.000389406956839
-0.000424701340661
-0.000446391323378
-0.000454460712149
-0.000453375874793
-0.000448306341393
-0.000443681449383
-0.000441702587259
-0.000441715522665
-0.000443704658892
-0.000448332693447
-0.000453404364565
-0.000454487691034
-0.000446410507426
-0.000424699189825
-0.000389428947363
-0.000298892019156
-0.000164946312849
-0.000165217789304
-0.000300354489894
-0.000391742083679
-0.000424471863046
-0.000447445343015
-0.000455390894048
-0.000453436925637
-0.000447337536254
-0.000441684779193
-0.000439153516673
-0.00043916960723
-0.000441715096701
-0.000447375243449
-0.000453482563463
-0.000455443366125
-0.000447504741607
-0.000424534771402
-0.000391796757973
-0.000300377010859
-0.000165216887891
-0.000165233216752
-0.000300347633955
-0.000391713420776
-0.000424411299554
-0.000447412362712
-0.000455384310142
-0.000453451265226
-0.000447367894756
-0.000441722506527
-0.000439193007986
-0.000439211333047
-0.000441759745615
-0.000447416472692
-0.000453512785051
-0.000455458395178
-0.000447503778633
-0.000424520547605
-0.000391789159459
-0.000300377277946
-0.000165225742575
-0.00016497199111
-0.000298856153485
-0.000389314295591
-0.000424441438249
-0.000446278273932
-0.000454428870204
-0.000453402101787
-0.000448376365138
-0.000443775434628
-0.000441805141651
-0.000441823250452
-0.000443817438209
-0.000448437499503
-0.000453483960238
-0.000454528839486
-0.000446408492649
-0.000424643598312
-0.000389413381149
-0.000298896872678
-0.000164963682297
-0.000164378187623
-0.000296724356154
-0.000385980818862
-0.000429036300519
-0.000444599348345
-0.000453429578538
-0.000454197093062
-0.000451156121905
-0.000448428890196
-0.000447486613738
-0.00044750296064
-0.000448471798756
-0.000451225488544
-0.000454294016819
-0.000453545303473
-0.00044472755384
-0.000429201336903
-0.000386090801296
-0.000296772827401
-0.000164372689741
-0.000163329372325
-0.000294088184536
-0.000382045470911
-0.000427101874562
-0.000441884659831
-0.000451887733086
-0.000454814765387
-0.000454220537513
-0.00045345910695
-0.000453545799536
-0.000453559973932
-0.000453500565076
-0.000454291873032
-0.000454914036818
-0.000452006432607
-0.00044201580695
-0.000427248858482
-0.000382144220347
-0.000294132083875
-0.000163326197453
-0.000161467517865
-0.000289633785082
-0.000375650325851
-0.000421906185589
-0.000439210423566
-0.000447913973882
-0.000451908560154
-0.000453463886382
-0.000454474533567
-0.000455436342346
-0.000455448734379
-0.000454512410872
-0.000453530230446
-0.000452000314159
-0.000448022953299
-0.000439346159197
-0.000422007509528
-0.000375712832316
-0.000289659619185
-0.000161464940229
-0.000158748210567
-0.000281659936322
-0.000363602656034
-0.000409996194305
-0.000432829513584
-0.000439300756738
-0.000441932832352
-0.00044465059711
-0.000446338016442
-0.000447450871765
-0.000447462928905
-0.000446374938551
-0.000444712195408
-0.000442010501635
-0.000439321136895
-0.000432901127633
-0.000410040198168
-0.000363624972119
-0.000281664635722
-0.000158745783755
-0.000154060346937
-0.000266440957301
-0.000341302407078
-0.000385447350898
-0.000410018506797
-0.000421962284327
-0.000427180358923
-0.000429127801633
-0.000424554383475
-0.000424461451445
-0.000424474853178
-0.000424595994667
-0.00042919219356
-0.000427253742939
-0.000422019456117
-0.000410051608221
-0.000385460009033
-0.000341302262471
-0.000266434760832
-0.000154058791542
-0.000147093435129
-0.000240585399663
-0.000303361654872
-0.000341308905476
-0.000363627920525
-0.000375702892337
-0.000382120069309
-0.000386062689399
-0.000389390135176
-0.000391770648142
-0.000391783392798
-0.000389427147809
-0.000386117509187
-0.000382177598027
-0.000375746511374
-0.000363652821183
-0.000341315386286
-0.00030335781844
-0.000240579725495
-0.000147093820072
-0.000136213410358
-0.000197818738766
-0.000240579628751
-0.000266441105571
-0.000281673601881
-0.000289669466921
-0.000294142719996
-0.000296790088425
-0.000298925530819
-0.000300416976484
-0.000300428642879
-0.000298957327505
-0.000296836205262
-0.000294192099293
-0.000289709772547
-0.000281700899258
-0.000266452585801
-0.000240582349569
-0.000197819772668
-0.000136215901189
-0.000123050649063
-0.000136212269884
-0.000147090244531
-0.000154058277467
-0.000158750538427
-0.000161479620081
-0.000163351683987
-0.0001644106202
-0.000165012483504
-0.00016528513442
-0.000165294304162
-0.000165031111533
-0.000164435927161
-0.000163378551741
-0.00016150260322
-0.000158768402508
-0.000154067975156
-0.000147094754831
-0.000136215149013
-0.000123052758784
-0.000121097819531
-0.000169550390693
-0.000207609477114
-0.000233394687671
-0.000250341311952
-0.000260882678022
-0.000266593908131
-0.000268510978771
-0.000267911137796
-0.000266604939479
-0.00026661731345
-0.000267941549882
-0.000268551501758
-0.000266637868093
-0.000260925426652
-0.000250380433795
-0.000233426157277
-0.00020763197337
-0.000169565464501
-0.000121103156744
-0.000169540758383
-0.000354578789826
-0.000460494237514
-0.000529471693262
-0.000573312540278
-0.000599552972401
-0.000613996656313
-0.000621031994363
-0.000624410391714
-0.000625994860962
-0.000626005363532
-0.000624431760748
-0.000621055980287
-0.000614021455721
-0.000599585265787
-0.000573354673625
-0.000529520252407
-0.000460538430236
-0.000354609101153
-0.000169546915214
-0.000207590593539
-0.000460474167558
-0.000600512226913
-0.000692432180026
-0.000751870698038
-0.000788082672051
-0.000808628098022
-0.00081945237175
-0.000826642139267
-0.000830735663152
-0.000830744960039
-0.000826658438266
-0.000819456488088
-0.000808625282933
-0.000788082763084
-0.000751886704794
-0.000692461512816
-0.000600544224722
-0.000460498003798
-0.000207596733602
-0.000233368374545
-0.000529438345899
-0.000692424325713
-0.00079767209871
-0.000863860820722
-0.000902140840005
-0.000922366260939
-0.000927060998014
-0.000939220304971
-0.000944791192287
-0.000944803484074
-0.00093924712149
-0.0009270520228
-0.00092236563514
-0.000902111037676
-0.000863836778843
-0.000797667551725
-0.000692429854754
-0.000529445568833
-0.000233374436411
-0.000250312919158
-0.000573286907284
-0.000751884580149
-0.000863890293148
-0.000930091582392
-0.000963157045309
-0.000981401712349
-0.000987953283062
-0.000993085528795
-0.000996506451314
-0.000996511574803
-0.000993085168868
-0.000987915771965
-0.000981354341105
-0.000963393981403
-0.000930029452695
-0.000863847405947
-0.000751859993755
-0.00057327437314
-0.000250318588551
-0.00026085475995
-0.000599562382968
-0.000788152840572
-0.000902237310671
-0.00096309551622
-0.000993821940289
-0.00100488921792
-0.00100724487865
-0.00100837441441
-0.00100970950146
-0.00100971405769
-0.0010083701672
-0.00100721060914
-0.00100482449066
-0.000993773009001
-0.000963315898128
-0.000902178265569
-0.000788107154376
-0.000599537787908
-0.000260861358181
-0.000266563864216
-0.00061404892745
-0.000808765615144
-0.000922519981316
-0.000981603507628
-0.00100502880211
-0.0010092555108
-0.00100672438519
-0.00100476215828
-0.00100397134245
-0.00100397879489
-0.00100477130056
-0.00100671459895
-0.00100921530547
-0.00100496384912
-0.000981546553269
-0.000922486922452
-0.000808724389599
-0.000614025450687
-0.000266574190041
-0.000268471524179
-0.000621107641481
-0.000819625705412
-0.000927241382428
-0.000988246318502
-0.00100750101079
-0.00100684361486
-0.00099999258545
-0.000995133966845
-0.00099335847361
-0.000993370389054
-0.000995154401934
-0.00100000695633
-0.00100684604948
-0.00100748281487
-0.000988219863826
-0.000927224560058
-0.000819615593917
-0.00062110574705
-0.000268487617102
-0.000267858719607
-0.000624473741663
-0.000826785436614
-0.000939331554074
-0.000993361705577
-0.0010086595095
-0.00100491651857
-0.000995158430855
-0.000987457610238
-0.00098441725211
-0.000984433044534
-0.000987490446469
-0.000995199140005
-0.00100496409777
-0.00100870377738
-0.000993407057375
-0.000939381654339
-0.000826828095348
-0.000624504603164
-0.000267875362951
-0.000266549739363
-0.00062602841229
-0.00083085267736
-0.000944934452716
-0.000996770080598
-0.00100997429123
-0.00100413978324
-0.000993383804053
-0.000984393628465
-0.00098080032583
-0.000980820780902
-0.00098444039644
-0.000993451258847
-0.00100422795296
-0.00101007423588
-0.000996874774603
-0.00094502766627
-0.0008309425317
-0.000626090492768
-0.000266557377768
-0.000266576758479
-0.000626014807286
-0.000830822278217
-0.000944918523706
-0.000996736093076
-0.00100995776091
-0.00100415414107
-0.000993428521956
-0.000984451637942
-0.000980859784036
-0.000980884953536
-0.000984513210397
-0.000993521857826
-0.00100428334868
-0.00101010614278
-0.000996886730043
-0.000945037260079
-0.000830946490772
-0.00062609925391
-0.000266571753865
-0.000267916822237
-0.000624427947971
-0.000826695547649
-0.000939301219866
-0.00099325428828
-0.00100859123715
-0.00100495236159
-0.000995275162033
-0.000987619107806
-0.000984596156735
-0.000984623582643
-0.000987691846075
-0.00099539120081
-0.00100512355711
-0.00100879336319
-0.000993444834295
-0.000939421494221
-0.000826846062106
-0.000624533850715
-0.000267911366132
-0.000268539231346
-0.00062104644819
-0.000819473013586
-0.000927094154983
-0.000988033483389
-0.00100737796176
-0.00100688265457
-0.00100015964213
-0.000995385605413
-0.000993666025947
-0.000993693474992
-0.000995465886632
-0.00100029529147
-0.00100708705041
-0.00100762174175
-0.000988274640834
-0.000927269420654
-0.000819650823696
-0.000621164921651
-0.000268542054731
-0.000266637162808
-0.000614014409971
-0.000808624729442
-0.000922383101648
-0.000981410524716
-0.00100490023914
-0.00100930271528
-0.00100694694312
-0.00100509763568
-0.00100438026402
-0.00100440679804
-0.00100518403068
-0.00100709758327
-0.00100951222981
-0.00100514042001
-0.000981642640306
-0.000922564735709
-0.000808792294568
-0.000614124345284
-0.000266646720111
-0.000260939943148
-0.000599599680405
-0.00078809025165
-0.000902116459543
-0.000963514599502
-0.000993797365552
-0.00100495732521
-0.00100747828479
-0.00100872000147
-0.00101010570107
-0.00101013111627
-0.00100880011286
-0.00100761680989
-0.00100513968804
-0.000993991543364
-0.000963672467336
-0.000902267625088
-0.000788212968482
-0.000599679196374
-0.000260951233559
-0.000250415238155
-0.000573417474886
-0.000751940996717
-0.000863869969683
-0.000930040286191
-0.000963523851408
-0.00098151782102
-0.0009881689685
-0.000993378425828
-0.00099685198919
-0.000996875264736
-0.000993449470167
-0.000988285174619
-0.000981662891625
-0.000963714655621
-0.000930148564202
-0.000863961562725
-0.000752011284866
-0.000573462576166
-0.000250425327817
-0.000233484518657
-0.000529651403407
-0.000692592327939
-0.000797775412674
-0.000863917216679
-0.000902217779462
-0.000922505728945
-0.000927236464599
-0.000939420036454
-0.000945041827935
-0.000945063787887
-0.000939483501482
-0.000927334651965
-0.000922629860253
-0.000902325605379
-0.000863997613875
-0.00079783331082
-0.000692631931722
-0.000529676000455
-0.000233495143885
-0.000207712101209
-0.000460733310407
-0.000600750540939
-0.000692618114644
-0.000752010936665
-0.000788211368409
-0.000808785111291
-0.000819649875928
-0.000826863585976
-0.00083098131769
-0.000831005622716
-0.000826932186765
-0.000819751345798
-0.000808898754653
-0.000788313017761
-0.000752089294577
-0.000692672343017
-0.000600785569947
-0.000460756196094
-0.000207726481788
-0.000169653384523
-0.000354822417894
-0.000460733899199
-0.000529677044461
-0.000573482617749
-0.000599709832174
-0.0006141627781
-0.000621217236122
-0.000624609626339
-0.00062620251561
-0.000626224987197
-0.000624672316739
-0.000621310503387
-0.000614269251053
-0.000599811411013
-0.000573567757292
-0.000529740275716
-0.000460778338644
-0.000354853749881
-0.000169671019968
-0.000121174994418
-0.000169669742365
-0.000207728536595
-0.000233503158833
-0.000250440628903
-0.000260979774173
-0.000266694666258
-0.00026861386163
-0.000268011335872
-0.000266698996518
-0.000266708631824
-0.000268039487317
-0.000268659306989
-0.000266749691
-0.000261035228335
-0.000250489830256
-0.000233541743117
-0.000207758436403
-0.00016969254412
-0.000121188303049
-0.000100534613085
-0.000159119819275
-0.000208625338392
-0.000244202964028
-0.000268154168554
-0.000282708524121
-0.000287953326485
-0.000283846639574
-0.000273591546448
-0.00026462900508
-0.000264646559573
-0.000273644878022
-0.000283930576708
-0.00028805034348
-0.000282801550846
-0.00026823181583
-0.000244261786244
-0.00020866834551
-0.000159150746224
-0.0001005476666
-0.000159096838918
-0.000379538368706
-0.000514694861318
-0.000610395367676
-0.000677069044189
-0.000721855914093
-0.000749330338724
-0.000763274479757
-0.000768125806492
-0.000768779025234
-0.000768802698054
-0.000768185600921
-0.000763360124025
-0.000749429217919
-0.000721960143906
-0.000677175344125
-0.000610493605889
-0.000514772538749
-0.000379586264112
-0.000159110502835
-0.000208587763371
-0.000514665329211
-0.000693685234596
-0.000820758091033
-0.000910465035074
-0.000971266119212
-0.00101000826532
-0.00103438636124
-0.00104805138465
-0.00105412391151
-0.00105413907574
-0.00104809311341
-0.00103443773032
-0.00101006546778
-0.000971324561755
-0.000910536478309
-0.000820831751801
-0.000693744355596
-0.000514699443678
-0.00020859712047
-0.000244153950488
-0.000610343937468
-0.000820743749102
-0.000965554251121
-0.00106380862362
-0.00112656936732
-0.00115996064697
-0.00118769065932
-0.00120295445228
-0.00121032791043
-0.00121033947098
-0.00120297521159
-0.0011877008149
-0.00115996191117
-0.00112656019996
-0.00106380836028
-0.00096558545977
-0.00082077242286
-0.000610359504579
-0.000244160098849
-0.000268102097688
-0.000677017340822
-0.000910462832839
-0.00106382698004
-0.00115939421737
-0.00122029802664
-0.00125390391882
-0.00127411815427
-0.00128576903597
-0.00129176439957
-0.00129176716266
-0.00128576292836
-0.00127410329839
-0.00125387674823
-0.00122024126319
-0.00115912895038
-0.00106379304849
-0.000910459611027
-0.000677017905021
-0.000268109505281
-0.000282646274052
-0.000721824814637
-0.000971301669036
-0.0011266340609
-0.00122034702242
-0.00127384538123
-0.00130094347677
-0.00131413078221
-0.00132125840686
-0.00132523289974
-0.00132522036706
-0.00132120908934
-0.00131408591243
-0.00130092573119
-0.00127380694957
-0.00122026833963
-0.00112657600444
-0.000971278087193
-0.000721822821139
-0.000282663177345
-0.000287859729606
-0.000749315510439
-0.00101008021124
-0.00116005024255
-0.00125402532446
-0.00130104329116
-0.00132034381622
-0.00132685858356
-0.00132982113278
-0.00133227542536
-0.00133225401541
-0.0013297526274
-0.00132682094985
-0.00132037275888
-0.00130106335788
-0.00125397321621
-0.00116000863046
-0.00101007193226
-0.000749332262142
-0.000287891990558
-0.000283713981986
-0.00076325508651
-0.00103448065335
-0.00118782599716
-0.00127429542599
-0.00131434062501
-0.00132700478052
-0.00132849633797
-0.00132787559229
-0.0013282594827
-0.00132824634692
-0.00132783193003
-0.00132850259487
-0.00132708925778
-0.00131443758475
-0.00127430254487
-0.00118782328584
-0.00103450959894
-0.00076330518097
-0.000283750506862
-0.000273446213333
-0.000768074591505
-0.00104812298896
-0.00120306796956
-0.00128595999359
-0.00132153056055
-0.00133006896565
-0.00132799413265
-0.00132440480381
-0.00132323845403
-0.00132323622909
-0.00132439200209
-0.00132803704696
-0.00133020264089
-0.00132169650648
-0.00128603941034
-0.00120312906245
-0.00104820768022
-0.000768159134325
-0.000273458363569
-0.000264511657565
-0.000768695242773
-0.00105418539086
-0.00121042486219
-0.00129194227356
-0.00132551392591
-0.00133255619997
-0.00132839105456
-0.00132324914193
-0.00132139662873
-0.00132139709424
-0.00132324927703
-0.00132845984078
-0.00133274518938
-0.00132574428374
-0.00129208743747
-0.00121054534726
-0.00105432254839
-0.000768804676346
-0.000264480704456
-0.000264575450194
-0.000768700239437
-0.00105414872656
-0.00121038796918
-0.00129190130999
-0.00132548494297
-0.00133255058128
-0.00132840938307
-0.00132327798127
-0.00132142467299
-0.00132142592604
-0.00132328241144
-0.0013284931195
-0.00133277856248
-0.00132576793751
-0.00129209932244
-0.00121055011675
-0.0010543267877
-0.00076882305124
-0.000264509764582
-0.000273612452079
-0.000768081089532
-0.00104803774182
-0.00120295600562
-0.00128583084969
-0.0013214316056
-0.00133003511714
-0.00132802461054
-0.00132447457025
-0.00132331791659
-0.001323321182
-0.00132448736859
-0.00132812256379
-0.00133028746966
-0.00132175193187
-0.00128606769572
-0.00120314458917
-0.00104822968806
-0.00076821664718
-0.000273536530233
-0.000283924446728
-0.000763265361103
-0.00103435979768
-0.00118764486137
-0.00127410480305
-0.00131422565991
-0.00132701287552
-0.00132863157347
-0.00132809631632
-0.00132852071629
-0.00132852935133
-0.00132813027098
-0.0013287506185
-0.001327275947
-0.00131455376294
-0.00127435225084
-0.00118784855566
-0.001034560553
-0.000763408450447
-0.000283865493592
-0.000288072553438
-0.000749363697678
-0.0010099901097
-0.00115989308879
-0.00125382819933
-0.00130095746233
-0.00132046041501
-0.00132717235008
-0.0013302774469
-0.00133281611998
-0.00133283341716
-0.00133034236395
-0.00132732710145
-0.00132072773346
-0.00130124034905
-0.00125403312574
-0.00116006300738
-0.00101017173479
-0.000749496244518
-0.000288039382507
-0.00028284955727
-0.000721952254832
-0.000971298773121
-0.00112651771371
-0.00122017570251
-0.00127376392627
-0.00130106683928
-0.00131447782789
-0.00132174898183
-0.00132579996632
-0.00132582773885
-0.00132183741609
-0.00131464148022
-0.00130128222137
-0.00127395143916
-0.00122031160576
-0.00112665584073
-0.000971433457281
-0.000722049867453
-0.000282835105359
-0.000268311037769
-0.000677264243981
-0.000910615993261
-0.0010638482442
-0.00115901713558
-0.00122023852554
-0.00125394830209
-0.00127428870796
-0.0012860351155
-0.00129208443313
-0.00129211194079
-0.00128611757993
-0.00127441747783
-0.00125408773864
-0.00122034791013
-0.00115905532345
-0.00106392746315
-0.00091069167468
-0.00067731624172
-0.000268306233095
-0.000244374049347
-0.000610707930549
-0.000821052425559
-0.000965767997547
-0.00106390570797
-0.00112663647793
-0.00116004774763
-0.00118783022012
-0.0012031293044
-0.00121053985193
-0.00121056731276
-0.0012032081009
-0.00118794408836
-0.00116016512856
-0.00112673970544
-0.00106397698644
-0.000965823394389
-0.000821093045951
-0.000610731268509
-0.000244378265896
-0.000208811603474
-0.000515105272956
-0.0006941011249
-0.000821090761386
-0.000910708116918
-0.000971448043901
-0.00101017961061
-0.00103457026078
-0.0010482469269
-0.00105435595879
-0.00105438844634
-0.00104833608874
-0.00103470024555
-0.00101032171333
-0.000971573638194
-0.0009108018106
-0.000821153441224
-0.000694138699768
-0.000515125144261
-0.000208827503928
-0.000159299001663
-0.000379965965881
-0.000515124771189
-0.000610765082805
-0.000677370926563
-0.000722111220597
-0.000749567557709
-0.000763502403268
-0.000768346672014
-0.000768999621579
-0.000769032676882
-0.000768439600189
-0.000763640012991
-0.000749724469489
-0.000722259374037
-0.000677490046682
-0.000610849430645
-0.000515178675348
-0.000379998830107
-0.000159325099783
-0.000100657374674
-0.000159334641718
-0.00020885435948
-0.000244422757962
-0.000268367065333
-0.000282924452378
-0.000288179340178
-0.000284072821615
-0.000273818467498
-0.000264855272276
-0.000264868271474
-0.0002738600082
-0.000284144192707
-0.000288269248474
-0.00028301650303
-0.000268446482433
-0.000244484324862
-0.000208901027083
-0.000159370606724
-0.000100685539033
-7.0256479212e-05
-0.000126042148686
-0.000173984556645
-0.00020643173903
-0.000223959302465
-0.000227507848263
-0.000215714958889
-0.00019040060147
-0.000163375283812
-0.00014645987015
-0.000146472976102
-0.000163408626026
-0.000190485006141
-0.000215824989459
-0.000227635838942
-0.000224067266531
-0.000206507192598
-0.000174039239459
-0.000126078498382
-7.02762531558e-05
-0.000126004958337
-0.000354860833279
-0.000502110432226
-0.000612584203077
-0.000693338760633
-0.000749104431861
-0.000781608913714
-0.000792541976514
-0.000789741009328
-0.000783968797968
-0.00078400757426
-0.000789856528858
-0.000792728518716
-0.000781834903365
-0.000749335589651
-0.000693555822943
-0.000612765224358
-0.000502241664731
-0.000354930515731
-0.000126036973786
-0.000173932307464
-0.000502077596521
-0.000706253695531
-0.00086229116155
-0.000980293489151
-0.00106562817373
-0.00112532163006
-0.00116243669471
-0.00118148433755
-0.00118187417176
-0.00118186363266
-0.00118158431843
-0.00116259641798
-0.00112550291949
-0.00106581193413
-0.000980480611779
-0.000862454706176
-0.000706370189076
-0.00050213132026
-0.000173954711437
-0.000206356729367
-0.000612517793474
-0.000862266344645
-0.00104568458769
-0.00117698311739
-0.00125990844319
-0.00132376543586
-0.0013625696787
-0.00138463083836
-0.00139426528237
-0.00139427956293
-0.0013846745115
-0.0013626517861
-0.00132389259351
-0.0012600143727
-0.00117711269799
-0.00104579700307
-0.000862351368008
-0.000612554566113
-0.000206368024017
-0.000223882313476
-0.000693251942881
-0.000980258125175
-0.00117697855096
-0.00130407741302
-0.0013888432928
-0.00144096952225
-0.00147221819952
-0.00149041438669
-0.0014992113207
-0.00149918273732
-0.00149032199793
-0.00147217314136
-0.00144105840913
-0.00138899477495
-0.00130436009772
-0.00117705250347
-0.000980317856224
-0.000693283335079
-0.000223878060523
-0.000227398534087
-0.000748997801454
-0.00106559293488
-0.00125990792499
-0.00138886005571
-0.00146286514382
-0.0015038816004
-0.00152643627651
-0.00153881927177
-0.0015450612696
-0.00154497467365
-0.00153856612683
-0.00152624606113
-0.00150392986458
-0.00146304148697
-0.00138903113454
-0.00125992739563
-0.00106564194727
-0.000749045420598
-0.000227392994813
-0.00021553905284
-0.000781461579578
-0.00112527236997
-0.00132375702211
-0.00144101615026
-0.0015039704923
-0.00153655890861
-0.00155140784877
-0.00155786422323
-0.00156163817289
-0.00156151528101
-0.00155754649468
-0.00155121932605
-0.00153666523073
-0.00150423263405
-0.00144126382998
-0.00132384054433
-0.00112535286106
-0.000781552147516
-0.000215530124076
-0.000190222977132
-0.000792335474272
-0.00116234783882
-0.00136253178092
-0.00147229183912
-0.00152668365622
-0.0015516682256
-0.00156006632485
-0.00156161697841
-0.00156242453697
-0.00156233455057
-0.00156136912095
-0.00155999076339
-0.00155187641234
-0.00152704462757
-0.00147263517407
-0.00136271284643
-0.00116247827367
-0.000792467659002
-0.000190160434636
-0.000163233619424
-0.00078948927394
-0.00118139371849
-0.00138456908714
-0.00149054099951
-0.00153920445743
-0.00155837823577
-0.00156195608073
-0.00155931973598
-0.00155798125615
-0.00155791863556
-0.00155915433069
-0.00156194346538
-0.00155864059721
-0.00153963669472
-0.00149094263095
-0.00138481444447
-0.0011815717009
-0.000789637557722
-0.000163081140177
-0.000146388648214
-0.000783729307792
-0.00118215855176
-0.00139423870617
-0.00149938101849
-0.00154550348962
-0.00156221755105
-0.00156274071386
-0.00155803342214
-0.00155568879052
-0.00155562752698
-0.00155788308961
-0.00156275221274
-0.00156256362324
-0.00154600289578
-0.00149981518909
-0.00139452274198
-0.0011823974621
-0.000783877828858
-0.000146154652776
-0.000146453916128
-0.000783756888358
-0.00118200722926
-0.00139420281368
-0.00149933708885
-0.00154543363929
-0.00156214442926
-0.00156267237608
-0.00155797263078
-0.00155562787707
-0.001555561802
-0.00155781394505
-0.00156268726094
-0.0015625294085
-0.00154597569497
-0.00149979333648
-0.00139451455469
-0.00118237902911
-0.000783901992887
-0.000146173443525
-0.000163437953162
-0.000789592539274
-0.00118136199282
-0.00138450434814
-0.00149041478009
-0.00153899795548
-0.00155816000059
-0.00156174898569
-0.00155914209089
-0.00155781085986
-0.00155774689807
-0.00155898709707
-0.00156177176402
-0.00155855717269
-0.00153954210829
-0.0014908648599
-0.0013847941253
-0.00118159930412
-0.000789720537685
-0.000163151753473
-0.000190525238229
-0.000792482138161
-0.00116233711352
-0.00136245515443
-0.00147221077843
-0.00152656477839
-0.00155160262703
-0.001560107342
-0.00156174653535
-0.00156258001737
-0.00156253327053
-0.00156164573209
-0.00156013662186
-0.00155195168783
-0.00152707030961
-0.00147262472266
-0.00136271726162
-0.00116253800792
-0.000792603326968
-0.000190269126369
-0.000215912699115
-0.000781637903857
-0.00112526509399
-0.00132369958523
-0.00144106504918
-0.00150411209592
-0.00153690235784
-0.0015520010295
-0.00155866053019
-0.00156253937674
-0.00156251836502
-0.00155863846642
-0.00155210870127
-0.00153725644069
-0.0015045386196
-0.00144138718686
-0.00132389633282
-0.00112545184411
-0.000781748560341
-0.000215709594473
-0.000227742776425
-0.000749237406041
-0.00106567752185
-0.00125987314784
-0.00138895044407
-0.00146311950685
-0.00150440863496
-0.00152725283055
-0.00153983275178
-0.00154620410626
-0.0015462159747
-0.00153988449119
-0.00152741528899
-0.00150470042831
-0.00146341279032
-0.00138914512478
-0.001259972554
-0.00106579297738
-0.000749298798321
-0.000227586888517
-0.000224206263091
-0.000693605955195
-0.000980516769313
-0.00117712048423
-0.0013044536919
-0.00138905280398
-0.00144135738158
-0.00147277051689
-0.00149109055634
-0.00149997154674
-0.00149999701438
-0.00149117006432
-0.00147292528513
-0.00144156641124
-0.0013892096009
-0.00130455173388
-0.00117715350238
-0.000980548989291
-0.00069360224455
-0.000224087617241
-0.000206670704549
-0.000612998904218
-0.000862699635326
-0.00104599456022
-0.00117717505664
-0.00125997870847
-0.00132386982816
-0.00136273801291
-0.00138482446543
-0.00139451233569
-0.00139454682901
-0.00138491987194
-0.00136288064088
-0.00132401374143
-0.0012600575681
-0.00117720256887
-0.00104599289895
-0.000862679881091
-0.000612955015123
-0.000206591379023
-0.000174213523545
-0.000502649020833
-0.000706814782343
-0.000862744995693
-0.00098061028585
-0.0010658177941
-0.00112543760194
-0.00116252510892
-0.00118157177961
-0.00118229516528
-0.0011823520381
-0.00118168530707
-0.00116268044582
-0.00112559471674
-0.00106593472655
-0.000980669225577
-0.000862753019739
-0.000706785539103
-0.000502599024067
-0.000174173392889
-0.000126213774297
-0.000355418260203
-0.000502688702104
-0.000613083212488
-0.000693730754901
-0.000749402464911
-0.000781843531329
-0.00079271965242
-0.000789875079041