/*--------------------------------*- C++ -*----------------------------------*\
| =========                 |                                                 |
| \\      /  F ield         | OpenFOAM: The Open Source CFD Toolbox           |
|  \\    /   O peration     | Version:  3.0.1                                 |
|   \\  /    A nd           | Web:      www.OpenFOAM.org                      |
|    \\/     M anipulation  |                                                 |
\*---------------------------------------------------------------------------*/
FoamFile
{
    version     2.0;
    format      ascii;
    class       volVectorField;
    location    "5.9";
    object      ddt0(rho,U);
}
// * * * * * * * * * * * * * * * * * * * * * * * * * * * * * * * * * * * * * //

dimensions      [1 -2 -2 0 0 0 0];

internalField   nonuniform List<vector> 
7968
(
(0.326947880958 0.326860782242 -0.316962848711)
(0.860143234423 0.320841259245 -0.284218273721)
(1.22606019479 0.276628074785 -0.216645005351)
(1.40319907439 0.199097735285 -0.108583779654)
(1.3191724179 0.1351016499 0.134010387413)
(1.08945897018 0.0399715710719 0.120775463633)
(0.823212563226 0.0335075759364 0.185316572117)
(0.551895646198 0.0506671398727 0.184681359395)
(0.290859030854 0.103550001903 0.146664294951)
(0.0887074924189 0.148389646327 0.109698384763)
(-0.0796715096393 0.148408360245 0.109808860351)
(-0.28196006301 0.103535936971 0.147010091472)
(-0.54336274115 0.0504502793079 0.185293618777)
(-0.815471801033 0.0330454042751 0.186120709369)
(-1.08260496101 0.039546663604 0.122166031183)
(-1.31318094748 0.134271096637 0.134864531166)
(-1.39887924312 0.19853203753 -0.107501311794)
(-1.22294996412 0.276143287614 -0.215595571951)
(-0.858506790425 0.320304380786 -0.283099677624)
(-0.326502363875 0.326121374478 -0.315937690535)
(0.320985832584 0.859815421652 -0.284086612794)
(0.956199477883 0.956104151763 -0.542195673604)
(1.31290319951 0.937541765683 -0.531135644585)
(1.47603023916 0.839555554794 -0.415492990298)
(1.44297705494 0.698670294818 -0.151633378029)
(1.17842709132 0.486675187879 -0.00296369129189)
(0.933575507468 0.345803913106 0.156395000691)
(0.646603490906 0.22830711715 0.291381237384)
(0.353210201457 0.178227680165 0.37675761894)
(0.110385278392 0.16898941479 0.405212888218)
(-0.1013677907 0.168622262883 0.4054867519)
(-0.344250726672 0.177116439015 0.377528155218)
(-0.637998817916 0.226681922531 0.292504117161)
(-0.925849839627 0.343975025262 0.157647302549)
(-1.17161749452 0.484329045633 -0.00190933765056)
(-1.43669601585 0.696857424326 -0.149856005424)
(-1.47162089699 0.837789702663 -0.414033166103)
(-1.30986497926 0.935990025507 -0.529712072864)
(-0.954765025337 0.954500667584 -0.540911967198)
(-0.320715061814 0.857883996479 -0.283238160874)
(0.276725374909 1.22520446966 -0.216531644737)
(0.937315756708 1.3128832887 -0.531017873467)
(1.25631307809 1.25703351892 -0.467889425309)
(1.37545733548 1.06564896172 -0.309679320868)
(1.33163968288 0.800332289631 -0.0570019358056)
(1.07038986349 0.447002450302 0.134471014323)
(0.870137248113 0.111598325697 0.288520005258)
(0.630951776213 -0.164671146049 0.43309563159)
(0.366734416687 -0.33418670863 0.542745280627)
(0.120597835356 -0.409044147802 0.593762106362)
(-0.111871228031 -0.409655091486 0.594013072194)
(-0.358110217255 -0.335774444733 0.543394163856)
(-0.622593121823 -0.16685411307 0.433999309844)
(-0.862861578282 0.109742146394 0.289870162118)
(-1.06406742632 0.443935422309 0.135317938786)
(-1.3257431315 0.797663195921 -0.0555745708301)
(-1.37093682483 1.0631222679 -0.308299837638)
(-1.25318744625 1.25469312187 -0.466469693559)
(-0.935781313498 1.31041792391 -0.529799308118)
(-0.276439037128 1.22233315889 -0.215823542204)
(0.199242761445 1.40258781259 -0.108736952034)
(0.839250022852 1.47664635712 -0.415178219411)
(1.06448524789 1.37708872152 -0.309347654485)
(1.09528472551 1.0976774758 -0.161125192625)
(0.998355351919 0.706752524705 0.0378854558854)
(0.740939722738 0.2004396676 0.179454555301)
(0.581107848084 -0.311959044975 0.284258303819)
(0.417809944256 -0.714787627152 0.344698297163)
(0.249048244828 -0.984274112723 0.402817866775)
(0.0838493661205 -1.11237300824 0.427977298018)
(-0.0757858147932 -1.11314945954 0.428073549555)
(-0.240806471047 -0.986428737057 0.403103246282)
(-0.409145766695 -0.717876132908 0.345747673516)
(-0.574180346398 -0.315784281352 0.289491846462)
(-0.73532346079 0.195778848964 0.180256100954)
(-0.992370216575 0.703392465257 0.0388928929196)
(-1.09039080631 1.09470655994 -0.160098501562)
(-1.06098200186 1.37437919942 -0.308195969163)
(-0.837311378105 1.47382792821 -0.414163480296)
(-0.198759558458 1.39936973807 -0.108214022495)
(0.135120657522 1.31869177475 0.133193234685)
(0.698787476641 1.44354948342 -0.150953301367)
(0.799262876123 1.33371984053 -0.056181959961)
(0.704200525446 1.00165069911 0.0384394920192)
(0.519564540856 0.523778120592 0.155724515575)
(0.264815873964 -0.0644699196956 0.167651089135)
(0.158983843236 -0.682032894009 0.169727362926)
(0.100542801074 -1.17767929407 0.202201613546)
(0.0541434983683 -1.51377257035 0.247635818935)
(0.0195274166708 -1.67672120152 0.267032557312)
(-0.0122568348324 -1.67741779896 0.26707116823)
(-0.0468770368609 -1.51595057358 0.24778941687)
(-0.0931861325458 -1.18132913285 0.202408669152)
(-0.152882920655 -0.68702870858 0.17013508673)
(-0.258301142296 -0.068784884485 0.16832734242)
(-0.512508445883 0.520198132207 0.156593441684)
(-0.698730814672 0.998733197983 0.0392433101489)
(-0.795342420242 1.33099706987 -0.0551861696276)
(-0.69645787469 1.44050514205 -0.1498993765)
(-0.134287652776 1.31547006557 0.133541062739)
(0.0411035000373 1.08910141903 0.120927462457)
(0.487317877411 1.17942219875 -0.00232379310037)
(0.446484514815 1.07279885071 0.135563707394)
(0.198700424891 0.744579506137 0.18041260668)
(-0.0683456146105 0.270668569287 0.168694672701)
(-0.341993378263 -0.335482842574 0.0915587621619)
(-0.375783445798 -0.936252394593 -0.0252977789116)
(-0.314777542007 -1.42983178723 -0.0688786857324)
(-0.200940900093 -1.76028152156 -0.0674439531231)
(-0.0655207804512 -1.92500514071 -0.0587536619899)
(0.0721966747768 -1.92554349432 -0.0585806072538)
(0.207554551889 -1.76218602408 -0.0671845442498)
(0.32135357622 -1.43272047147 -0.0688153733937)
(0.382341185709 -0.939582312036 -0.0257661442898)
(0.348846727321 -0.338013874023 0.09069688135)
(0.0756021697762 0.268284695914 0.169068941237)
(-0.192395383503 0.742778267389 0.180911447569)
(-0.442089844372 1.07075891162 0.136136623354)
(-0.484528433722 1.17700311723 -0.00164541346043)
(-0.0404197665205 1.08619038713 0.121577814676)
(0.0346681460299 0.822826439768 0.184597167807)
(0.347383592029 0.934060478589 0.157201389888)
(0.111832207729 0.872037621181 0.289982786122)
(-0.312199786747 0.585037229178 0.283015789403)
(-0.684309138867 0.164846081684 0.172526327181)
(-0.942307196869 -0.369047180845 -0.0232568220517)
(-0.902667980286 -0.895797470286 -0.209214883928)
(-0.709934194605 -1.346340874 -0.291667606523)
(-0.445668649201 -1.6649562081 -0.278744057841)
(-0.144276446067 -1.77599265966 -0.451584712418)
(0.150512379776 -1.77665434496 -0.451775707565)
(0.451904367052 -1.66663718802 -0.278299315873)
(0.716235813967 -1.34863682132 -0.291435188604)
(0.909436648987 -0.898143028053 -0.209519943749)
(0.949569141027 -0.370947871281 -0.0237934479073)
(0.692147988392 0.163644403249 0.172837771542)
(0.318339192595 0.583404461927 0.286251419227)
(-0.107880535983 0.870411599709 0.290815916076)
(-0.34457811812 0.931985383774 0.157943093317)
(-0.0337256057367 0.820248656539 0.184985251543)
(0.0524263513737 0.55113117373 0.183867731261)
(0.231310690587 0.64597928773 0.292069084154)
(-0.162223446266 0.63133876553 0.434830877265)
(-0.713033047384 0.420456489527 0.346955936567)
(-1.17909484978 0.104421629634 0.206775831049)
(-1.43541497659 -0.310262575529 -0.0655178028096)
(-1.3532768078 -0.70534102509 -0.290899942928)
(-1.05268902161 -1.04812425378 -0.479720534419)
(-0.668119415738 -1.31726632606 -0.542543316974)
(-0.229557420622 -1.42680515995 -0.602878569532)
(0.235155776792 -1.42734389767 -0.603115763337)
(0.673894507829 -1.31889620529 -0.543208183447)
(1.05901742572 -1.05004061875 -0.480896193189)
(1.36025375502 -0.706973678404 -0.290847654883)
(1.44269628595 -0.311407661507 -0.0655523714587)
(1.18628714058 0.103492865032 0.207222096134)
(0.718826423578 0.418689481717 0.347789572764)
(0.16647841207 0.629844397684 0.435574260319)
(-0.22860573922 0.644127420256 0.292890200988)
(-0.0516129777265 0.548847025234 0.18425137507)
(0.105478704623 0.289517466803 0.146023292135)
(0.181990563597 0.35121697532 0.377128569677)
(-0.330475450785 0.364913667936 0.54389981369)
(-0.980907492367 0.248187019574 0.40545780805)
(-1.51355429938 0.0547893532221 0.252592828656)
(-1.76523803164 -0.199470826913 -0.0643216313653)
(-1.67131676267 -0.443092216261 -0.279264923056)
(-1.32154836497 -0.664953970432 -0.544070877259)
(-0.829663348397 -0.826729990061 -0.678096878688)
(-0.282559652191 -0.895759564135 -0.746805221935)
(0.287142366028 -0.896202410061 -0.7472180802)
(0.834828187749 -0.827836894712 -0.679121407796)
(1.32765214602 -0.666307046043 -0.545378718585)
(1.67833855111 -0.444421895702 -0.27941347549)
(1.77227005255 -0.200238281781 -0.0641174788539)
(1.52013507363 0.0543794598632 0.253398713043)
(0.985930508717 0.247258450929 0.406045538699)
(0.33407812673 0.36368305175 0.544685428888)
(-0.179850547694 0.349545849136 0.377825966257)
(-0.10487828055 0.287365707089 0.146347147412)
(0.150167014783 0.0864201756717 0.109286949325)
(0.172763881338 0.106926421217 0.40538345555)
(-0.4049186968 0.116837215645 0.594275553782)
(-1.10832393095 0.0804693371233 0.429776536509)
(-1.6756532029 0.0174535111557 0.271268995461)
(-1.92842750831 -0.0657078738666 -0.05697980207)
(-1.78112289792 -0.142286590555 -0.451367095721)
(-1.43104260473 -0.225293686996 -0.603934279998)
(-0.898533700197 -0.277456941529 -0.747436682953)
(-0.30413012398 -0.298946888282 -0.823610545779)
(0.30797932919 -0.299073351992 -0.823983047166)
(0.903039150124 -0.277864957697 -0.748448127791)
(1.4366536547 -0.225976506383 -0.605247596079)
(1.78761331498 -0.143009335904 -0.452307095093)
(1.93517774235 -0.0661318587872 -0.0569804686065)
(1.68148622577 0.0172425947889 0.272448645223)
(1.1122164058 0.0798316495171 0.430664308176)
(0.407363551759 0.115700860596 0.594899262207)
(-0.171507039501 0.105376246402 0.405733230729)
(-0.149778714733 0.084391452889 0.109429070996)
(0.150140535992 -0.083268308486 0.109253879505)
(0.172115701631 -0.106361704512 0.40553128232)
(-0.40573268721 -0.117309650685 0.594177994808)
(-1.10883280528 -0.0811169989944 0.429142495466)
(-1.67570571262 -0.0163388458181 0.270601496853)
(-1.9278057214 0.0708204882193 -0.0567805383656)
(-1.7805587282 0.152187495328 -0.451597022171)
(-1.4305885246 0.239826121075 -0.603910379629)
(-0.89837198015 0.294144706377 -0.747309410175)
(-0.304058299126 0.316129952324 -0.82344946922)
(0.307718314506 0.316179073744 -0.823703538534)
(0.902674246014 0.294242677389 -0.748111936369)
(1.43600414301 0.239914471363 -0.605034892512)
(1.7867316014 0.152439563341 -0.452425129695)
(1.93417247526 0.0710893805762 -0.0570137884508)
(1.68082620115 -0.0164125781479 0.271995275611)
(1.11158913607 -0.0816840168396 0.430169975698)
(0.407079827354 -0.118367500889 0.594568498279)
(-0.17171209901 -0.107733099383 0.405465274728)
(-0.149948276412 -0.0849860572369 0.109182999895)
(0.105376206088 -0.286586913253 0.145940341566)
(0.180382716533 -0.350415966421 0.377385119254)
(-0.332083568432 -0.364960971849 0.543460654577)
(-0.982359582984 -0.24778870707 0.403678462994)
(-1.51333539375 -0.0531066473789 0.250706641328)
(-1.76322367166 0.204368016949 -0.0643778875732)
(-1.66937764133 0.452592152075 -0.277635862192)
(-1.32039628647 0.678472449321 -0.543467253413)
(-0.828997454973 0.842485224135 -0.677351190147)
(-0.282365587638 0.912658888669 -0.745833575325)
(0.286122413161 0.912949088679 -0.746078448589)
(0.833331149125 0.843158272301 -0.67814180701)
(1.3256314628 0.679352831885 -0.544690030267)
(1.67551906146 0.453887295379 -0.278049020393)
(1.76919851521 0.205423295589 -0.0640683341765)
(1.51762856911 -0.053049292529 0.252414929079)
(0.984251021871 -0.248390598576 0.404893207116)
(0.332750145997 -0.365888844521 0.543739025647)
(-0.180459655679 -0.351462046789 0.377118937892)
(-0.105372038007 -0.287796620251 0.145681321522)
(0.0523092724751 -0.548386983355 0.183676650698)
(0.229962622604 -0.644959654823 0.292062655307)
(-0.163197910269 -0.630666305975 0.433933509355)
(-0.713801646742 -0.417729770222 0.34599657793)
(-1.17822644183 -0.101639553132 0.204446996466)
(-1.43175009309 0.314944121414 -0.065913574763)
(-1.34955838861 0.713478877003 -0.28856821645)
(-1.05013813937 1.05888484545 -0.479260617616)
(-0.667056872216 1.33004943424 -0.541494884228)
(-0.229522232323 1.44094958152 -0.600402772802)
(0.233470876422 1.44135040806 -0.600690903379)
(0.67162462258 1.33105602132 -0.542252385335)
(1.05555262652 1.06011455245 -0.480329305855)
(1.35557394453 0.715055879955 -0.288027136183)
(1.43715541334 0.316041031922 -0.0646824830132)
(1.18171467613 -0.101890543969 0.20650930378)
(0.715316866995 -0.418996587932 0.346883365901)
(0.163819635595 -0.631563194084 0.434313859129)
(-0.230025035258 -0.64562264892 0.291867894321)
(-0.0523848005618 -0.548991641312 0.183376099461)
(0.0347934563698 -0.820383274174 0.184404435528)
(0.347388354855 -0.933157368193 0.156805834957)
(0.113786547306 -0.871823024334 0.289482112871)
(-0.311573721087 -0.58396060694 0.2896262891)
(-0.683388086656 -0.162920829885 0.170884299941)
(-0.937272094607 0.373350670811 -0.0241948418063)
(-0.897101927987 0.902382626475 -0.207192922792)
(-0.706554736457 1.35518797328 -0.287860386648)
(-0.444392532475 1.6748617375 -0.275371921027)
(-0.14447970645 1.78559734731 -0.448728275056)
(0.148890484673 1.78599689292 -0.448963951113)
(0.449526799733 1.67580946344 -0.275396827154)
(0.712435775483 1.35632221947 -0.287485647141)
(0.902923212573 0.903364841553 -0.206017217967)
(0.942039822175 0.373780120742 -0.0222727043237)
(0.685746180412 -0.163640501146 0.172854714256)
(0.31294050714 -0.584899777165 0.28794882439)
(-0.112441999736 -0.872514923038 0.289704613528)
(-0.347041312629 -0.933473283706 0.156823040216)
(-0.0347537364224 -0.820425281492 0.184217932823)
(0.0410256175799 -1.08712002327 0.119761129756)
(0.488103024662 -1.17884127928 -0.00311256225829)
(0.448429023446 -1.07302620307 0.134253421235)
(0.20052662682 -0.745264970902 0.179217811072)
(-0.064569833642 -0.268378834093 0.167545936455)
(-0.334820470813 0.339074333214 0.0902952002827)
(-0.368876294217 0.941770375246 -0.0237551672699)
(-0.309977333326 1.43639272684 -0.0655423571838)
(-0.198853692552 1.76757096651 -0.0636975035758)
(-0.0655521312953 1.93189735589 -0.0558190383119)
(0.0703024885795 1.93212080263 -0.0558748546513)
(0.20418050312 1.76819445809 -0.0637001035796)
(0.315715993185 1.43704110089 -0.0649545991792)
(0.374198096563 0.942091909134 -0.0223690480745)
(0.338897142719 0.338763687845 0.092144626869)
(0.0668744694209 -0.269499298219 0.169168504138)
(-0.199158264794 -0.745703597694 0.179723448418)
(-0.447334381269 -1.073499874 0.134546517426)
(-0.487492631609 -1.17888053692 -0.00297155734504)
(-0.0407213812705 -1.08667517274 0.119694542934)
(0.136370989224 -1.31683563054 0.132749874341)
(0.700546553959 -1.44293604921 -0.151895665001)
(0.802650469817 -1.3334360161 -0.057273191444)
(0.708714911385 -1.00066969955 0.0372878065126)
(0.525113956204 -0.520774540049 0.155088870205)
(0.272994049399 0.0685756022533 0.168283910653)
(0.167562918726 0.686951989052 0.17179706557)
(0.10603440048 1.18255475091 0.205695563748)
(0.0570108253176 1.5178505268 0.251934443648)
(0.0195628650902 1.68035842301 0.271609467821)
(-0.0147520646507 1.6804829674 0.271605270683)
(-0.0518233242551 1.51803379611 0.252110471398)
(-0.100703814022 1.18265969535 0.206303646225)
(-0.162833994237 0.686769938476 0.172863411133)
(-0.26946919709 0.0677957070952 0.169216926035)
(-0.522748914952 -0.521896588938 0.155835277003)
(-0.707074130863 -1.00128549327 0.0375401596544)
(-0.801317399344 -1.33368209344 -0.0571733768456)
(-0.699567165004 -1.44271527221 -0.151776134379)
(-0.135993123142 -1.31608052019 0.133069094714)
(0.200175044655 -1.4006744034 -0.110052805623)
(0.842099779529 -1.47603689681 -0.416418922689)
(1.069148665 -1.37686895321 -0.310360449892)
(1.10152211418 -1.09678421297 -0.161889956656)
(1.00579641954 -0.704597104023 0.0375415821485)
(0.749892748306 -0.196842488331 0.179857913225)
(0.588988674298 0.315029489366 0.287798344731)
(0.42272817692 0.717307578936 0.347231734694)
(0.251254668694 0.985848308023 0.405495506211)
(0.0835067153332 1.11277123093 0.430548904072)
(-0.0785602946799 1.112730618 0.430533273475)
(-0.246053586164 0.985748104602 0.405545309202)
(-0.417551370814 0.717059023855 0.34760500056)
(-0.58465325938 0.314707651527 0.288946201788)
(-0.746636741368 -0.197321801485 0.180171493006)
(-1.00328117388 -0.705177780736 0.0377843997951)
(-1.09958719691 -1.09690205828 -0.161840023257)
(-1.0675335554 -1.37662863573 -0.310263067656)
(-0.840826436745 -1.4753901688 -0.41608635816)
(-0.199623204411 -1.39974650669 -0.109502668103)
(0.277817990675 -1.22346302148 -0.21806314387)
(0.940845553223 -1.31249065831 -0.532457883078)
(1.26201473166 -1.25704161079 -0.468964971289)
(1.38295605275 -1.06518701437 -0.310203702802)
(1.34017149952 -0.799093408267 -0.0569123318931)
(1.07959656064 -0.445055657461 0.135152527612)
(0.878103241888 -0.10999200039 0.290414652957)
(0.636088030189 0.166284409358 0.435277946805)
(0.368994788796 0.335009151777 0.544746344572)
(0.120134072551 0.408980338737 0.595113315886)
(-0.11481916882 0.408911061533 0.595011565645)
(-0.36354380364 0.33485664793 0.544672030726)
(-0.630821554661 0.166219619768 0.435428786714)
(-0.873609452892 -0.110094993896 0.290835174031)
(-1.07607273855 -0.444882285556 0.135416674804)
(-1.33741465001 -0.798910345534 -0.0564861557427)
(-1.38091851406 -1.06455994632 -0.310028225868)
(-1.26033264965 -1.25614818478 -0.468767226098)
(-0.939543338488 -1.31139180863 -0.531992864578)
(-0.277289976281 -1.22234364126 -0.21737401607)
(0.321776093383 -0.858165145817 -0.285620220465)
(0.959473145193 -0.955577518344 -0.543851987841)
(1.31878655183 -0.937601537801 -0.532434462864)
(1.48395251383 -0.839395363253 -0.416089506225)
(1.45181648077 -0.698048712319 -0.151375866529)
(1.18767965929 -0.485653939285 -0.00195226222908)
(0.941418229404 -0.34459399265 0.158351188472)
(0.651767480405 -0.227296393154 0.293688691248)
(0.35565099628 -0.177829053701 0.37860195074)
(0.110141630607 -0.169080494433 0.406678624073)
(-0.104301633819 -0.169066897058 0.406641880021)
(-0.349710857214 -0.177710180965 0.378735701258)
(-0.646210582793 -0.226991213486 0.294281192023)
(-0.936771874221 -0.344200089277 0.159075704093)
(-1.18390231706 -0.48479191561 -0.00133318531583)
(-1.44875970711 -0.697327237405 -0.15044351679)
(-1.48192316131 -0.83828357101 -0.415347113646)
(-1.31720609633 -0.936390829768 -0.531729829799)
(-0.958350097497 -0.954382784326 -0.543066292804)
(-0.321365510057 -0.857234797127 -0.284788415355)
(0.327459203673 -0.325882002203 -0.318399849554)
(0.862651709144 -0.320322513313 -0.285700851071)
(1.23113693683 -0.276502143963 -0.218058717707)
(1.4104696734 -0.19901941538 -0.109365797948)
(1.32783749658 -0.134872305671 0.133654272018)
(1.09815142303 -0.0398905666114 0.121838909483)
(0.830731810065 -0.0332572460489 0.186933969597)
(0.556967538467 -0.0505974992676 0.186623994505)
(0.293400609812 -0.103555838608 0.148738029826)
(0.0885526429027 -0.148258855572 0.111981712697)
(-0.0825487213206 -0.148258330973 0.112008611256)
(-0.28734571684 -0.103518768396 0.149061193037)
(-0.551467978692 -0.0504766480837 0.187511697335)
(-0.82617672646 -0.0330375259269 0.187810540855)
(-1.09440310979 -0.0393600606349 0.122914128589)
(-1.32487277168 -0.13423402077 0.134848064884)
(-1.40879638622 -0.198301772551 -0.108194269936)
(-1.2299725625 -0.275802094541 -0.217098083957)
(-0.861939984663 -0.319713528369 -0.284804335624)
(-0.327260733873 -0.325509616166 -0.317650098147)
(0.409942298283 0.409889564999 -1.74166181925)
(1.21282405909 0.564529237259 -1.75735836474)
(1.44136963514 0.684251894571 -1.3598416117)
(1.38116363353 0.733872484492 -0.888760861714)
(1.13100512308 0.709659592422 -0.427820186888)
(0.829967740527 0.624528850368 -0.103759321212)
(0.504087150065 0.545434529834 0.0552095134181)
(0.236498617577 0.48359123619 0.0876673100889)
(0.0600278914934 0.467681285086 0.0273593887938)
(0.00311027812889 0.4749762883 -0.0545565119774)
(0.00687617801579 0.474791381624 -0.0540458523668)
(-0.0502906107002 0.467172610555 0.0288817764279)
(-0.227327706633 0.482814126642 0.0900928566462)
(-0.495831931887 0.544502312778 0.0581987331523)
(-0.822560625915 0.623597725285 -0.100405497371)
(-1.12444282342 0.708756811895 -0.424172312909)
(-1.37609787915 0.733232507644 -0.885131063427)
(-1.43795538264 0.68366251277 -1.35657905068)
(-1.21112667095 0.563749428505 -1.75411830895)
(-0.409613594824 0.408911986601 -1.73857531978)
(0.564906430401 1.21201389414 -1.75656687744)
(1.33141905538 1.33103568718 -1.50251032081)
(1.44764482664 1.44823608383 -1.00305429893)
(1.32086216432 1.48637393915 -0.559869206278)
(1.05374894368 1.42295002248 -0.165629780815)
(0.763413592795 1.27452368126 0.145357369439)
(0.490850199371 1.11654105085 0.373695839726)
(0.264633055246 0.977047540156 0.545009577075)
(0.107566216458 0.895543192608 0.637490801892)
(0.0270679107349 0.859050237895 0.659185580439)
(-0.0191515312554 0.85859280998 0.659802194804)
(-0.0998636792534 0.894320093031 0.639066282235)
(-0.257241906345 0.975276746895 0.547108338346)
(-0.484107110829 1.11497514645 0.37591234545)
(-0.757360453155 1.27235082877 0.147902162254)
(-1.04815912725 1.42088523713 -0.162589427277)
(-1.31625733482 1.48478400627 -0.556441068101)
(-1.44437381517 1.4468252851 -0.999564287253)
(-1.32958724592 1.32927727114 -1.49912410162)
(-0.564517133639 1.20959934749 -1.75415657811)
(0.684449590043 1.44053808556 -1.35897152751)
(1.44810826526 1.4478049414 -1.00280954067)
(1.54009266983 1.54109790541 -0.41324663985)
(1.35761083419 1.53930804924 0.0486835296011)
(1.05669789694 1.40229842946 0.413981858734)
(0.76183371221 1.15563769023 0.691900660919)
(0.509275232797 0.889520989839 0.902508850036)
(0.311215200683 0.607385089654 1.09851124347)
(0.168281840702 0.423666999559 1.23997686326)
(0.0554910811085 0.334654200431 1.30431199033)
(-0.0489957192426 0.334106946953 1.3048885041)
(-0.16185526614 0.422104409024 1.24108778674)
(-0.304522294312 0.605889324678 1.09927157046)
(-0.503705800807 0.8922962737 0.902153170172)
(-0.757264431172 1.15387670498 0.692797716448)
(-1.05182124421 1.4004870031 0.415986268671)
(-1.3532626678 1.53786415764 0.0514592777336)
(-1.53685741614 1.53972612541 -0.410128985507)
(-1.44610960181 1.44584255636 -0.999808029297)
(-0.683986383119 1.43737829995 -1.3569591104)
(0.733820911596 1.3807932777 -0.88771438248)
(1.48595838124 1.32186445487 -0.559010345984)
(1.53771259294 1.35977310042 0.0494959037709)
(1.27598587748 1.27897182804 0.465275781192)
(0.914247671374 1.02132520111 0.730956899209)
(0.616090172936 0.64966574312 0.878234891953)
(0.353553207245 0.239534588803 0.951348887252)
(0.17338055997 -0.135068056193 1.09081450628)
(0.103360296227 -0.399747740024 1.19784934369)
(0.0374873784077 -0.534468548765 1.2512503714)
(-0.0320341639422 -0.535175830519 1.25151061828)
(-0.0972331571791 -0.401765581997 1.19811739385)
(-0.162869911859 -0.137956296779 1.08944869732)
(-0.348607757127 0.236360699539 0.943638130436)
(-0.61624826361 0.647423703929 0.876781312868)
(-0.909914518807 1.0199277784 0.731691374239)
(-1.27160569518 1.27789991361 0.467024385961)
(-1.53412193558 1.35859148667 0.0518926281148)
(-1.48345189051 1.31996236808 -0.556463167734)
(-0.733102250482 1.37741351888 -0.885713807187)
(0.709413452005 1.13103106911 -0.426688516044)
(1.42258381902 1.05536453069 -0.163912017023)
(1.40052465568 1.05970893482 0.41628222643)
(1.01791881726 0.918002594888 0.732888021588)
(0.579301533659 0.58429154257 0.807380039635)
(0.237785798423 0.119985521713 0.777717903153)
(0.0382571332963 -0.395851027478 0.677432488347)
(-0.044818816101 -0.809254551929 0.631183891005)
(-0.0407829387709 -1.11442915117 0.627680517907)
(-0.0122547612275 -1.2713090333 0.630967269626)
(0.0166848053199 -1.27181904523 0.631013977997)
(0.045304876578 -1.11630463715 0.627440299188)
(0.0500922173832 -0.812856104968 0.629742102564)
(-0.032828246409 -0.404176642655 0.674211329557)
(-0.232514289297 0.116668611584 0.776755631428)
(-0.574062225048 0.582924700585 0.809237194311)
(-1.01319225799 0.917724256965 0.733486106125)
(-1.39641453341 1.05919824654 0.417746050807)
(-1.41940624813 1.053933795 -0.161855190216)
(-0.70827486601 1.12797975826 -0.424737995025)
(0.624775109909 0.829695294349 -0.103142838675)
(1.274772596 0.764887439466 0.148030230471)
(1.15394188356 0.764622099349 0.696293734943)
(0.646645055335 0.617142132368 0.883679994965)
(0.11544868916 0.243591122082 0.781124618033)
(-0.239152398941 -0.232389911392 0.505050002271)
(-0.385171486839 -0.746225040662 0.186602124596)
(-0.36069486245 -1.17983249392 -0.0333275839252)
(-0.237880748657 -1.48439192223 -0.14428475649)
(-0.0791436276427 -1.63279064902 -0.188283162643)
(0.0833600315069 -1.63332930835 -0.188279697987)
(0.241946997765 -1.48563176065 -0.144472604984)
(0.364981190648 -1.18182162551 -0.0345170688107)
(0.390113965658 -0.748924100862 0.184164109775)
(0.245378122473 -0.234238665731 0.50243369515)
(-0.10833951352 0.24310328431 0.77950660255)
(-0.640799390761 0.620555260252 0.882394746894)
(-1.14948516785 0.765347178886 0.696837396449)
(-1.27121649601 0.764268785523 0.149765400646)
(-0.623442228264 0.827221188051 -0.101057926592)
(0.546082617619 0.50328597281 0.0551745679879)
(1.11737603693 0.491480523612 0.377117802554)
(0.885723794098 0.511744486844 0.909501473763)
(0.237853443965 0.357669602328 0.96393292632)
(-0.396057359812 0.0443717517256 0.685751251183)
(-0.752076191699 -0.378204226946 0.19106819673)
(-0.83496844604 -0.828214110971 -0.321981217737)
(-0.697767136613 -1.20852337489 -0.674378332576)
(-0.435451839878 -1.46953678134 -0.852307592361)
(-0.142887884391 -1.61546793802 -0.853302789297)
(0.147169910916 -1.61575974937 -0.853214929347)
(0.439603581696 -1.47054219669 -0.85251020002)
(0.702262009907 -1.2096832206 -0.675558407567)
(0.840390861594 -0.828886325133 -0.324105496598)
(0.75914215427 -0.377930924292 0.188486568506)
(0.406396504773 0.0451658854782 0.68295685748)
(-0.23123293743 0.359191531759 0.958931728609)
(-0.883791760575 0.512886095739 0.909274872495)
(-1.11401120313 0.491398566872 0.378757911381)
(-0.54453366677 0.501218458361 0.05743142326)
(0.484954152252 0.234689157703 0.0868913135972)
(0.979485780757 0.263613982389 0.548182018164)
(0.608336421134 0.311981962825 1.10526971387)
(-0.13502815058 0.179084893491 1.10032103168)
(-0.811120156326 -0.0407142649436 0.64115241443)
(-1.18553161112 -0.356243824503 -0.0262413803086)
(-1.21500194849 -0.693323618852 -0.672333949299)
(-0.984106461728 -0.979853009867 -1.07469653184)
(-0.610660546948 -1.16509234139 -1.30221618874)
(-0.200888758527 -1.26741744274 -1.39201051193)
(0.205059564266 -1.26785598152 -1.39223294193)
(0.614896185408 -1.16597578746 -1.30284718637)
(0.988996328918 -0.980582620653 -1.07603504361)
(1.22100292235 -0.693267347656 -0.67403789578)
(1.19251907326 -0.35510967664 -0.0277700635982)
(0.819037417155 -0.039256669069 0.640028890338)
(0.141596249045 0.177958072511 1.09994945911)
(-0.604017083022 0.31312439292 1.10625146635)
(-0.976118607226 0.263712810288 0.550114955321)
(-0.483421283591 0.232601613575 0.0892190020849)
(0.46929043375 0.0573937302995 0.0263100562034)
(0.89847011738 0.104356331284 0.639947670807)
(0.426420175917 0.165633184247 1.24540474367)
(-0.398482116894 0.10238744304 1.20572210124)
(-1.11572202591 -0.040881737825 0.63713754306)
(-1.48923900799 -0.236759931449 -0.137526955978)
(-1.47565650135 -0.433551478707 -0.85141452027)
(-1.16891466447 -0.608080623209 -1.30426574991)
(-0.721137566011 -0.71847964987 -1.57693937918)
(-0.239509987749 -0.774516782261 -1.69929697174)
(0.243079933991 -0.774877997158 -1.69992353564)
(0.725152863917 -0.719218580122 -1.57849632748)
(1.17402339415 -0.608627382951 -1.30637179279)
(1.48196852976 -0.433277849035 -0.853097905884)
(1.49637713326 -0.235394447393 -0.138343528917)
(1.12297642254 -0.0387076563076 0.637410912189)
(0.404434267211 0.104145128589 1.20723989963)
(-0.422366037975 0.167144474079 1.24729228988)
(-0.895982413274 0.104489795236 0.64178245632)
(-0.468132812705 0.0551743389078 0.028148201381)
(0.476267103063 1.71696510606e-05 -0.0552556016088)
(0.861672381749 0.022062173753 0.660649253308)
(0.337682789907 0.0500977392623 1.30666596505)
(-0.532272592615 0.0328498398347 1.2568665143)
(-1.27149769388 -0.0155273271136 0.638684346388)
(-1.63671106318 -0.0804593673768 -0.183014820258)
(-1.62082333077 -0.142081248084 -0.852437215216)
(-1.27053234038 -0.198074109374 -1.39469898539)
(-0.776684238337 -0.235518939141 -1.70032549557)
(-0.258046188912 -0.253770480823 -1.83403796181)
(0.260989681606 -0.253914317695 -1.83494339094)
(0.780369671762 -0.235824946427 -1.70250333391)
(1.27557902226 -0.198198869836 -1.39743644368)
(1.62743736131 -0.141622332492 -0.854579899794)
(1.64398867451 -0.0790388514306 -0.183725840538)
(1.27838419792 -0.0133108871659 0.639901804146)
(0.537429739576 0.0349627801242 1.25936684457)
(-0.334907297615 0.0515050242551 1.3086890301)
(-0.860274270559 0.0220779776995 0.661856933424)
(-0.475698224433 -0.00210702978203 -0.0545328785283)
(0.475781494085 0.00304308562271 -0.0546138020408)
(0.860732353727 -0.0256764473697 0.660838865371)
(0.337028035873 -0.0564036049916 1.3060186573)
(-0.532898636358 -0.0391304624234 1.25539929364)
(-1.27117430524 0.0109758142545 0.63736051085)
(-1.63606361085 0.0803224721462 -0.183475406118)
(-1.6197904046 0.147468690575 -0.851784230838)
(-1.26988454727 0.208333117081 -1.39334732157)
(-0.776473849205 0.248410109372 -1.6987613918)
(-0.258095393017 0.267485854515 -1.83295577306)