/*--------------------------------*- C++ -*----------------------------------*\
| =========                 |                                                 |
| \\      /  F ield         | OpenFOAM: The Open Source CFD Toolbox           |
|  \\    /   O peration     | Version:  3.0.1                                 |
|   \\  /    A nd           | Web:      www.OpenFOAM.org                      |
|    \\/     M anipulation  |                                                 |
\*---------------------------------------------------------------------------*/
FoamFile
{
    version     2.0;
    format      ascii;
    class       volScalarField;
    location    "5.9";
    object      epsilon;
}
// * * * * * * * * * * * * * * * * * * * * * * * * * * * * * * * * * * * * * //

dimensions      [0 2 -3 0 0 0 0];

internalField   nonuniform List<scalar> 
7968
(
0.000150592091496
0.000193033428733
0.000227279632163
0.000247426654288
0.000255422945491
0.000255435705559
0.000250998494081
0.000244300696266
0.000237708034809
0.000232803638386
0.000232791309187
0.000237686060396
0.000244277194543
0.00025097961001
0.000255428360882
0.000255426870137
0.000247443226817
0.000227302688805
0.000193056749473
0.000150605242161
0.000193021606778
0.000358120844682
0.00047894377918
0.000547338492965
0.000573305412417
0.000571301754582
0.000554490088439
0.000531816798971
0.00051190323802
0.000500218047055
0.00050018096571
0.000511811090196
0.000531689964248
0.000554356969059
0.000571193202137
0.00057323638048
0.000547319521562
0.000478960767711
0.000358153802161
0.000193041319486
0.000227254506045
0.000478915347438
0.000662325129315
0.000767019993338
0.000808720759144
0.000807637104992
0.000783359353625
0.000750645364206
0.000722248178818
0.000705926230641
0.000705867191732
0.000722095940852
0.000750425795937
0.000783115053143
0.00080741916907
0.000808562333408
0.000766936695151
0.000662303559548
0.000478931855661
0.000227273989415
0.000247386328717
0.000547285251057
0.000766998305873
0.000892902066843
0.000942908057619
0.000940574690173
0.000910123164217
0.000871104049373
0.000839935551216
0.000824141001541
0.000824080115139
0.000839767104775
0.000870805777507
0.000909771550319
0.00094024612267
0.000942650839279
0.000892737671588
0.00076691713709
0.000547266764531
0.0002474006084
0.00025537176862
0.000573254322477
0.000808722010668
0.000942945221966
0.00099348191193
0.000988091715842
0.000979331229296
0.000958813291174
0.000935881312404
0.0009210535079
0.000920988178944
0.00093571280193
0.000958565643802
0.000979030747977
0.000987704898711
0.000993128369578
0.000942693398094
0.000808568966285
0.000573185832894
0.000255373412709
0.000255393933621
0.000571308398937
0.000807735169141
0.000940742893688
0.000988230142013
0.00101808759163
0.0010233934771
0.00100935017899
0.000988374973709
0.000973153271935
0.000973084620015
0.000988203824169
0.00100910850401
0.00102311188103
0.00101776643962
0.000987845753709
0.000940424770551
0.000807524215907
0.000571198590535
0.000255381724058
0.000250970945477
0.000554574627865
0.000783597215777
0.000910488744332
0.000979579695513
0.00102354194105
0.00103485423166
0.00102174155172
0.000999068198222
0.000981879659077
0.000981811237825
0.000998900706922
0.00102151044228
0.00103459497341
0.00102327267632
0.00097929574354
0.00091015594961
0.000783361953209
0.000554436970715
0.000250942874191
0.000244288508223
0.00053197439653
0.000751007667629
0.000871630575151
0.000959208388944
0.00100967271823
0.00102193231246
0.00100629783451
0.000979817613754
0.000959338785496
0.000959276785131
0.000979671981709
0.00100610597104
0.00102172619471
0.0010094698207
0.00095900314168
0.00087137422993
0.000750810394813
0.000531845376082
0.000244251558248
0.000237695719637
0.000512083352103
0.000722650811452
0.000840402144283
0.000936352234809
0.000988822225621
0.000999413383488
0.000979984216054
0.000947894574522
0.000922551396892
0.000922504777052
0.000947795801413
0.000979871013119
0.000999310443768
0.000988736057983
0.000936274532175
0.000840317982329
0.000722560504323
0.000512009374909
0.000237662963133
0.000232777286694
0.000500357068349
0.000706262642184
0.000824503848272
0.000921478153167
0.000973602181524
0.000982260404645
0.000959574476642
0.000922642750863
0.00089256845406
0.00089255007765
0.000922620578101
0.000959579380585
0.000982305300449
0.0009736798266
0.00092157000931
0.000824590545582
0.000706332620987
0.000500378998161
0.000232765635039
0.000232779245697
0.000500257818463
0.000706078547633
0.000824307939401
0.000921274639415
0.000973411192975
0.000982109877469
0.000959490242738
0.000922639039967
0.000892639846105
0.00089266259397
0.000922715814809
0.000959635286928
0.000982321364491
0.000973667374542
0.000921546312294
0.000824569306023
0.000706321280864
0.000500390995634
0.000232802892762
0.000237686543955
0.000511844098063
0.000722201615267
0.000839886197737
0.000935856764684
0.000988379019374
0.000999078846024
0.000979817851705
0.000947926224812
0.000922759523161
0.00092280186915
0.000948049074897
0.000980027948566
0.000999368001265
0.000988717412018
0.000936218929937
0.000840255354165
0.000722530801719
0.000512033663455
0.000237726173559
0.000244282387611
0.000531687698894
0.000750441180443
0.000870824171658
0.000958568083199
0.00100912772427
0.00102154375617
0.00100614015867
0.000979926716187
0.000959674957474
0.000959722514981
0.000980059754084
0.00100635866796
0.0010218351592
0.00100946266845
0.000958928799238
0.000871244454173
0.000750766860526
0.000531875856868
0.000244319859375
0.000250981845769
0.000554326669217
0.000783060271943
0.000909675958548
0.000978913433118
0.00102300224022
0.00103450008948
0.00102164466694
0.00099926020392
0.000982307867033
0.000982354680714
0.000999386669458
0.00102184112692
0.00103474739742
0.00102327553474
0.000979198767534
0.000909995095987
0.000783307449128
0.000554466854654
0.000251003810449
0.000255424951183
0.000571153746681
0.000807333559457
0.000940093830514
0.0009874892296
0.00101757055244
0.0010231037103
0.00100931772156
0.000988618889317
0.000973625856642
0.00097367053602
0.000988733937472
0.00100948199378
0.00102329164323
0.00101775809428
0.000987670637014
0.000940264965916
0.000807469724172
0.000571225829244
0.000255427506561
0.000255418842648
0.000573211220023
0.000808494193853
0.000942519065178
0.000992917292724
0.000987598107197
0.000979107832346
0.000958838875604
0.000936157422853
0.000921529300792
0.000921572721092
0.000936263616503
0.000958974425499
0.000979237896174
0.000987685755121
0.000992970367185
0.000942569487331
0.000808534449092
0.000573223807686
0.000255406581681
0.000247429151183
0.000547326369327
0.000766923475049
0.000892684999356
0.000942589232464
0.000940269305464
0.00090996741011
0.000871190688772
0.000840238070355
0.000824606159144
0.0008246485853
0.00084033774915
0.000871301559223
0.00091004884575
0.000940306988954
0.000942593353097
0.000892678590054
0.000766911233651
0.000547305017839
0.00024741006988
0.000227284384952
0.000478995254071
0.000662346532522
0.000766948713158
0.000808578248054
0.000807499848756
0.000783316412993
0.000750769871066
0.000722567734174
0.000706414335893
0.000706456319726
0.000722662093526
0.00075087135809
0.000783389637315
0.000807531595521
0.000808575437734
0.000766928045802
0.00066231911368
0.000478966370329
0.00022726670621
0.000193038233395
0.000358191890502
0.0004789996227
0.000547347703248
0.000573271185771
0.000571265408618
0.000554497526012
0.00053191749407
0.000512119716697
0.000500539947614
0.000500572137832
0.000512188873589
0.000531990457222
0.000554549273126
0.000571286640113
0.000573266549878
0.000547328314998
0.000478976429003
0.000358170547983
0.000193025435592
0.000150594838847
0.000193058399659
0.000227314045859
0.0002474604596
0.000255451215562
0.000255463605879
0.000251032803521
0.000244355078579
0.000237789641235
0.000232913866537
0.000232925365916
0.000237813843375
0.000244377776214
0.000251045147399
0.000255464725386
0.000255444039201
0.000247449030097
0.000227304194521
0.000193051263412
0.000150588016862
0.000192390014874
0.000309758481759
0.000409960955268
0.000477288773604
0.000513847879826
0.000527422348054
0.000526573978242
0.000518578620518
0.000509971781948
0.000504645326254
0.000504617803797
0.000509905309508
0.000518492003551
0.000526487179285
0.000527356834175
0.000513815652701
0.000477290937782
0.000409987377546
0.00030979183745
0.000192407806811
0.000309739143629
0.000392471987958
0.000478750967577
0.00053946527321
0.000574794318049
0.000590448010871
0.000593139851096
0.000588881458443
0.000582942462227
0.000578928212979
0.000578902403319
0.000582876847387
0.000588790773028
0.000593042380737
0.000590364365206
0.000574739287788
0.000539443498831
0.000478756571217
0.000392493268089
0.000309767032911
0.000409922127187
0.000478739927586
0.000566122725262
0.000629660333129
0.000667815703208
0.000685472261823
0.000689071750154
0.000684733368388
0.000677945429435
0.000673092717321
0.000673066246837
0.000677877514467
0.000684637335229
0.00068896361357
0.000685372232239
0.000667738953709
0.00062961385199
0.000566104050869
0.000478741615349
0.000409941459427
0.000477229491886
0.00053945052965
0.000629659673314
0.000696780107636
0.000738568642285
0.000759699386329
0.000766555687566
0.000766140192754
0.000762081937016
0.000758481564225
0.000758459561246
0.000762025527826
0.000766055520833
0.000766444205023
0.000759586784901
0.000738469745838
0.000696704907903
0.000629609505124
0.000539422003855
0.000477224578442
0.000513789085768
0.000574794628642
0.00066783181751
0.000738585295174
0.00078526324473
0.000814408276533
0.000832455643127
0.000839189573163
0.000838536776506
0.000836009425172
0.000835988828074
0.000838486536172
0.000839121135989
0.000832373853395
0.000814310912602
0.000785150634753
0.000738483513619
0.000667748626093
0.000574730866205
0.000513749294195
0.000527402318483
0.00059049094993
0.000685528558033
0.000759753512767
0.000814437378963
0.000857146075496
0.000884626406638
0.000897090803977
0.000898952712484
0.000897051783573
0.000897030709891
0.000898903604407
0.000897028919731
0.000884559160154
0.00085706832119
0.000814338907588
0.000759637046221
0.000685420616888
0.000590396692262
0.000527326593418
0.000526620716024
0.000593242754916
0.00068918164501
0.000766657192772
0.000832515387904
0.000884662793076
0.000918896977578
0.000934877153942
0.000937591271976
0.000935451305843
0.000935429846746
0.000937542103664
0.000934818694009
0.000918838582974
0.000884601015261
0.000832437436195
0.000766545022658
0.000689067248611
0.00059313376374
0.000526518714061
0.000518697084597
0.000589038275036
0.00068488698497
0.000766260806441
0.000839284642802
0.000897182084925
0.000934949043726
0.000952044983727
0.000954695141002
0.000951651130906
0.000951633060824
0.000954657491902
0.000952003266866
0.000934906925651
0.00089713989907
0.000839231997838
0.000766185970913
0.000684794682799
0.000588942805829
0.000518595895356
0.000510121983584
0.000583115775828
0.000678112290219
0.000762208388977
0.000838663361441
0.000899102657687
0.00093774693282
0.000954788944962
0.000955439860476
0.000950185801012
0.000950176827435
0.000955427109507
0.000954782270512
0.000937743780497
0.000899098891377
0.000838651215319
0.000762183311931
0.000678072415418
0.00058306868522
0.000510061582606
0.000504766247757
0.000579067860561
0.000673229361228
0.000758587934878
0.000836135850913
0.000897222405898
0.00093563877523
0.000951799976376
0.000950253296487
0.00094276787638
0.000942774660831
0.000950281423668
0.000951851019277
0.000935700827542
0.000897281830172
0.000836184986447
0.000758628492295
0.00067326735986
0.000579098417732
0.000504785728156
0.000504678969449
0.0005789759439
0.000673137732651
0.000758512745348
0.000836067057487
0.000897158378731
0.000935586890668
0.000951771651567
0.000950259764099
0.00094281025782
0.000942837397775
0.000950336999681
0.000951889550007
0.000935723246731
0.000897290114528
0.000836185316125
0.00075862475016
0.00067325967002
0.000579091423663
0.000504791623163
0.000509917363477
0.000582890480324
0.000677886240709
0.000762022861036
0.000838501950535
0.000898959994522
0.000937634695239
0.000954738468991
0.000955474066901
0.000950304503978
0.000950340318872
0.000955571650368
0.000954884356556
0.000937804483361
0.000899124028483
0.000838654328437
0.000762173695237
0.000678052216685
0.000583049410285
0.000510074513889
0.00051845792088
0.00058875356322
0.000684594867767
0.000766008498729
0.000839084963822
0.000897019734376
0.000934833498643
0.000952011161018
0.000954771601069
0.000951830841455
0.000951866895584
0.000954868747517
0.000952154222637
0.000934997956582
0.000897180555424
0.000839238578894
0.000766167988883
0.000684763818716
0.000588912976785
0.000518610389737
0.000526416346599
0.000592967825548
0.000688886369318
0.000766367242674
0.000832308165256
0.000884511684217
0.000918804796679
0.000934872738416
0.000937702493597
0.00093565827794
0.000935691312978
0.00093778996855
0.000934998851547
0.000918946482517
0.000884650618772
0.000832442516497
0.000766510969316
0.000689025929071
0.000593094338157
0.000526529281516
0.000527269066284
0.000590273033957
0.000685281602223
0.000759497130422
0.000814232175553
0.000857007296498
0.00088455375655
0.000897099090602
0.000899062046888
0.00089725540784
0.000897284766617
0.000899138390264
0.000897205450787
0.00088466989782
0.000857117865044
0.00081433442122
0.000759596206104
0.000685372997047
0.000590349601229
0.000527328689368
0.000513726821258
0.000574652221709
0.000667658370837
0.000738390899855
0.000785072856278
0.000814276442292
0.00083239155234
0.000839200363029
0.000838634995604
0.000836190311564
0.000836217550375
0.000838703924596
0.000839291919104
0.000832485791543
0.000814357934189
0.000785136433626
0.000738445032624
0.000667702653861
0.000574681261249
0.000513740647522
0.000477214223768
0.000539378260912
0.00062956205534
0.000696657047586
0.000738433460011
0.000759584651988
0.000766495432221
0.000766157601179
0.000762181092279
0.000758656641965
0.000758683201426
0.00076224641658
0.000766239728707
0.000766571912778
0.000759642164329
0.000738470582305
0.0006966797982
0.000629572523957
0.000539374523671
0.000477201985693
0.000409925220291
0.000478719780853
0.000566088372608
0.000629600060618
0.000667734305508
0.000685394927623
0.000689033359656
0.000684765206576
0.000678063775457
0.000673293059626
0.000673320277115
0.000678128168251
0.000684841316889
0.000689098861642
0.00068543788325
0.000667754262096
0.000629602987636
0.000566078613488
0.000478699153494
0.000409904158209
0.000309737703617
0.000392482989657
0.000478761776857
0.000539453133485
0.000574755506143
0.000590401389641
0.00059311849101
0.000588919510837
0.000583058176519
0.000579119065766
0.000579145427282
0.000583117994606
0.000588986315939
0.000593171240712
0.000590430435266
0.000574761889603
0.000539443600431
0.000478742446951
0.000392457547504
0.000309716021004
0.000192361586579
0.000309791670776
0.000410007528599
0.000477314173867
0.000513843494494
0.000527405376721
0.00052657832004
0.000518644889998
0.000510120102671
0.00050487237917
0.000504901305939
0.000510182961154
0.000518712994862
0.000526632002185
0.000527437299046
0.000513855400234
0.000477313278601
0.000410000071904
0.000309779697985
0.000192345840945
0.000244048173421
0.000429709323077
0.000589637153168
0.000698916514435
0.000760951198744
0.000787834942112
0.000794699165118
0.000795483372523
0.000798631250299
0.00080305561167
0.000803007446731
0.000798501445101
0.000795300843421
0.000794503380369
0.000787674716084
0.00076085782743
0.000698892924437
0.000589662833502
0.000429750394969
0.000244067883257
0.000429698352509
0.000515184403142
0.000620859551056
0.00070020204628
0.000750141187382
0.000775665782551
0.000785245310832
0.000787376817236
0.000787980648657
0.000788733466933
0.000788696338718
0.000787880389137
0.000787234291684
0.000785089221769
0.000775531264295
0.00075005419658
0.00070016850227
0.000620867528884
0.000515214363021
0.000429744315483
0.000589607224312
0.000620861749599
0.000700950892105
0.000764734956395
0.000806514383035
0.000828922463041
0.00083773022304
0.000838444690762
0.000836030437276
0.00083398841432
0.000833959164081
0.000835952329627
0.000838333964145
0.000837607123563
0.000828807513051
0.00080642841348
0.000764687010236
0.000700937077829
0.000620871291777
0.000589641908404
0.000698864099241
0.000700209547709
0.000764744560613
0.000819477502857
0.000858165471721
0.000882253734805
0.000897095246671
0.000902821774739
0.000902878604891
0.000901479353616
0.000901459923353
0.000902828547265
0.000902753750601
0.000897024545728
0.000882162714717
0.000858079195769
0.000819408614185
0.000764697360025
0.00070018044316
0.0006988560006
0.000760912813524
0.000750173857165
0.000806546265058
0.000858183170496
0.000899934637316
0.000933653882132
0.000955160237597
0.000965692687358
0.000968398760044
0.000967915301688
0.000967900709738
0.000968362901244
0.000965646467129
0.000955110318119
0.000933594647465
0.000899865608387
0.000858097662745
0.000806462612431
0.000750095530405
0.000760841259632
0.00078787931893
0.000775760925259
0.00082899629691
0.000882294053048
0.000933668329571
0.000974950055499
0.00100337081649
0.00101864960847
0.00102365583746
0.00102387543862
0.00102386142599
0.00102362294084
0.00101860999807
0.00100333228172
0.000974909650968
0.000933612790654
0.000882205778036
0.000828884810981
0.000775636076786
0.000787738663694
0.000794890538071
0.0007854333983
0.000837857486317
0.000897142205308
0.000955183896914
0.00100338919989
0.00103776797175
0.00105656711132
0.00106264460337
0.00106276773579
0.0010627532112
0.0010626122154
0.00105652924682
0.00103773370635
0.00100335973739
0.000955145995723
0.000897079795142
0.000837739665609
0.000785284298148
0.000794700283854
0.00079582998243
0.000787651101524
0.000838620801595
0.000902899173239
0.000965736940099
0.00101871172159
0.00105663783548
0.00107665175944
0.00108190335523
0.00108089666313
0.00108088760819
0.00108188468413
0.00107663121224
0.00105661735136
0.00101869579208
0.000965715435113
0.000902850162516
0.00083852513722
0.000787521827428
0.000795647637753
0.000799028032136
0.000788274899096
0.000836218400464
0.000902970127169
0.000968472957906
0.00102377831249
0.00106281258062
0.00108202512427
0.00108511640135
0.00108215331833
0.00108215563385
0.00108512697847
0.00108204369867
0.00106283029337
0.00102379367126
0.000968481023769
0.000902959840108
0.000836182885049
0.00078822224582
0.000798938297425
0.000803358472749
0.00078896038867
0.000834132523344
0.000901555208682
0.000968000821118
0.00102403326957
0.00106300066917
0.00108109804829
0.00108224393646
0.0010775979942
0.00107761435453
0.00108229254607
0.00108117161033
0.00106307966436
0.00102410200125
0.000968057964189
0.000901605625484
0.00083418736527
0.000789027058556
0.000803428478059
0.000803146542795
0.000788798017526
0.000834011466837
0.00090147280147
0.000967937264313
0.00102397792407
0.00106295510556
0.00108107502882
0.00108225239071
0.00107763503281
0.00107766529685
0.00108233706416
0.00108120166982
0.00106309624667
0.00102410395806
0.000968049224399
0.000901588496549
0.000834159615471
0.000788985523338
0.000803378354695
0.000798499974142
0.000787860820368
0.00083590743633
0.000902761810745
0.000968317584536
0.00102364707616
0.00106270910046
0.00108197669135
0.00108514567029
0.00108225444449
0.00108228996399
0.00108524334163
0.00108212084448
0.00106286903501
0.00102379417492
0.000968453780551
0.000902910977104
0.00083610625527
0.000788111659121
0.000798812057098
0.000795169120521
0.000787106754424
0.000838204458312
0.000902623924961
0.000965537384814
0.00101854983907
0.0010565150138
0.0010766046869
0.00108196068018
0.00108104905701
0.00108108264112
0.00108205333713
0.00107673969614
0.00105666247177
0.00101868695999
0.000965668308989
0.000902772394173
0.000838405778562
0.000787356793785
0.000795469822965
0.000794267920123
0.00078487797177
0.000837416106665
0.000896857734924
0.000954970854606
0.00100322493703
0.00103764945948
0.00105652689797
0.00106271031003
0.00106293325091
0.00106296228225
0.00106278990592
0.00105664032223
0.00103777072315
0.00100333755172
0.000955079753965
0.000896979657363
0.000837582920242
0.000785078094952
0.000794491244324
0.000787388347483
0.000775274792765
0.000828581819785
0.000881973689292
0.000933442857221
0.000974787065919
0.00100325510617
0.00101859697535
0.00102368927334
0.00102399280112
0.00102401845931
0.00102375697966
0.0010186890553
0.00100335059388
0.000974873468449
0.00093352605031
0.000882067361985
0.00082869487753
0.000775398748693
0.00078750654337
0.000760563140543
0.000749789706465
0.000806194129092
0.000857880275152
0.000899706989389
0.00093348127519
0.000955036037417
0.000965618687348
0.000968395166367
0.000967985601083
0.000968009955349
0.000968457227996
0.000965698602987
0.000955114333814
0.000933546925118
0.000899763082177
0.000857934139978
0.000806251211761
0.000749840097665
0.000760590492358
0.000698623336734
0.000699928304401
0.000764468372903
0.000819214295325
0.000857926941271
0.000882056751929
0.000896955493577
0.00090273703949
0.000902866697017
0.000901541507784
0.000901567481313
0.00090293046862
0.000902814525849
0.000897025567197
0.000882104738673
0.000857955455857
0.000819233349461
0.00076448056157
0.000699925999959
0.00069859731682
0.000589434845758
0.000620670017869
0.000700750018401
0.000764517758852
0.000806285360791
0.000828703032774
0.000837552905015
0.000838341072946
0.000836018889241
0.000834064517149
0.000834094060283
0.000836088241012
0.000838418975033
0.000837613035954
0.000828733482655
0.00080628971143
0.000764506781762
0.000700728790163
0.000620636136746
0.000589387944858
0.000429566048535
0.00051506258228
0.000620723408978
0.000700024942473
0.000749917313115
0.000775417449133
0.000785019172457
0.000787222745505
0.000787921022192
0.000788765154184
0.000788796480994
0.000787990232985
0.000787292847323
0.000785062732526
0.000775424883373
0.000749894760815
0.000699986625499
0.000620677769014
0.00051501250049
0.000429515531691
0.000243929579519
0.000429629855309
0.000589544260505
0.000698767026929
0.000760732741491
0.000787572485391
0.000794452938647
0.000795321052847
0.000798574172286
0.000803095298063
0.000803133710474
0.000798653814334
0.000795396535568
0.00079449686212
0.000787577922009
0.000760707181456
0.000698726966528
0.00058949873962
0.000429583931469
0.000243890521117
0.000315125676737
0.00059741743819
0.000839536271879
0.00100771095955
0.00111161017614
0.00117066811786
0.00121098990949
0.00125496306762
0.00130448533916
0.00133987925323
0.00133980994402
0.00130428407707
0.00125465506691
0.00121063084936
0.00117035811301
0.00111141959555
0.00100764524699
0.000839554354577
0.000597462685324
0.000315145247547
0.000597436405676
0.000687437260433
0.000830359986434
0.000943357817809
0.00101894656615
0.00106244531928
0.00108702409923
0.00110624779394
0.00112530068976
0.00113883974942
0.00113878741025
0.00112515036234
0.00110602581671
0.00108677875255
0.00106224160982
0.00101882949143
0.000943330513756
0.000830393442948
0.00068749348845
0.000597504528848
0.000839544897397
0.000830383270729
0.000915642991345
0.000987263599403
0.00103478802738
0.00106039010066
0.00107145837472
0.00107513184485
0.00107687009175
0.00107844076037
0.00107840368004
0.00107675656991
0.00107496817796
0.00107127914101
0.00106023566612
0.00103468551192
0.000987226943786
0.000915660402994
0.000830428523422
0.000839609069306
0.00100770306384
0.00094339446233
0.000987285361102
0.00102956493527
0.00106110491113
0.00108242061313
0.00109733334572
0.0011026146464
0.00110256487944
0.00110131242838
0.00110128872147
0.00110250097274
0.00110252681051
0.00109724076204
0.00108234931845
0.00106101760507
0.00102950534599
0.000987264272334
0.000943401293046
0.00100771662953
0.00111163365534
0.00101901447357
0.00103483940178
0.00106112622586
0.00109304304019
0.00112072701714
0.00113957783763
0.00114775318246
0.00114805391187
0.00114602744423
0.00114601145606
0.00114801296187
0.0011477002308
0.00113952415425
0.00112068403698
0.00109300025148
0.00106105465324
0.00103477130232
0.00101896057448
0.00111156169135
0.00117083123941
0.00106259715331
0.00106049209286
0.00108244485121
0.00112073026534
0.00115567800189
0.00118018757677
0.00119105211178
0.00119151921523
0.00118897420435
0.00118895730223
0.00119147650596
0.00119099749534
0.0011801385898
0.00115564716186
0.0011207043712
0.0010824052889
0.00106038674401
0.00106247563763
0.00117065393287
0.00121140037338
0.00108731197362
0.00107163168395
0.00109737848322
0.00113957630449
0.00118019651509
0.00120859086295
0.00122032745798
0.00121967010035
0.00121602989234
0.00121601127111
0.00121962409988
0.00122026480524
0.00120853315958
0.00118016409767
0.00113955566386
0.00109733239436
0.0010715099746
0.00108714970242
0.00121114803122
0.00125558553933
0.00110665254251
0.00107536613606
0.00110267139138
0.00114775325708
0.0011911109546
0.001220430452
0.00123101447664
0.00122789976376
0.00122234431497
0.00122233671224
0.00122787980939
0.00123098505405
0.00122038980012
0.00119109006996
0.00114774766331
0.00110264354593
0.00107527240581
0.00110652191377
0.00125537314169
0.00130506519711
0.00112569160014
0.0010771060623
0.00110263373534
0.00114809248983
0.00119165923457
0.00121990839035
0.00122807988688
0.00122164774277
0.00121374977619
0.0012137591508
0.00122167205409
0.00122811098454
0.00121992637621
0.0011916763941
0.00114811327777
0.0011026498923
0.00107709758667
0.00112568864348
0.0013050471116
0.00134018710968
0.00113907616889
0.00107856704491
0.00110136399356
0.00114610049596
0.00118917197335
0.00121636185186
0.00122262994647
0.0012138723173
0.001204358626
0.00120438356569
0.00121394093867
0.00122272991889
0.00121646275835
0.00118925438801
0.00114617175908
0.00110145101087
0.00107868330676
0.0011392586524
0.00134044475421
0.00133979844741
0.00113879780879
0.00107838296382
0.0011012418248
0.00114601198679
0.00118909323978
0.00121629593936
0.00122259553715
0.00121387511249
0.00120439073681
0.00120442754479
0.0012139778751
0.00122275256612
0.00121647386945
0.00118924319135
0.00114614313561
0.00110140478049
0.00107861410718
0.0011391514249
0.00134029092394
0.0013040321304
0.00112495027473
0.00107658670295
0.00110231163097
0.00114786758635
0.00119145981426
0.00121974174715
0.00122798922021
0.0012216528043
0.00121383151105
0.00121387271475
0.00122176762515
0.00122816350999
0.00121993586875
0.00119162916695
0.00114802159085
0.00110251398932
0.00107689828064
0.00112539544539
0.00130463558156
0.00125420479656
0.0011056405559
0.00107464370632
0.00110222318051
0.00114744463243
0.00119083833112
0.0012201974916
0.00123089197826
0.00122791382407
0.00122246822609
0.00122250677525
0.00122802232341
0.00123105504927
0.00122037175854
0.0011909890951
0.00114758767288
0.00110242289667
0.00107496020868
0.00110608171781
0.0012547748336
0.00121001252634
0.00108624256657
0.00107083396727
0.00109686844618
0.00113921593987
0.00117989335598
0.00120833087087
0.00122017974627
0.00121966931478
0.00121615665749
0.0012161889829
0.0012197595516
0.00122031103111
0.00120846487805
0.00118000784518
0.00113933347243
0.00109703936362
0.00107110357219
0.001086605078
0.00121044269216
0.00116965667055
0.00106162112073
0.00105971081507
0.00108193314786
0.00112034641634
0.00115536621542
0.00117991054291
0.00119085091758
0.00119143337804
0.00118899870677
0.00118902594374
0.00119150559152
0.00119094763553
0.00118000505419
0.00115544615798
0.00112043912419
0.00108206211001
0.00105990485409
0.00106186176784
0.00116989594452
0.00111071616702
0.00101819195308
0.00103411705844
0.00106053724808
0.00109261407502
0.00112037611888
0.00113926011553
0.00114747735643
0.00114786179881
0.00114593288846
0.00114595731486
0.00114792508891
0.0011475563689
0.00113933429358
0.00112044264766
0.00109268701778
0.00106062537121
0.00103423274612
0.00101831250296
0.00111078512546
0.00100700386189
0.000942737003121
0.00098665524576
0.00102897889259
0.00106058447821
0.00108199554797
0.00109694084656
0.00110227641008
0.00110231235234
0.00110115346097
0.00110118095257
0.00110238034078
0.00110235601196
0.00109700872495
0.00108204808847
0.00106062019998
0.0010290183246
0.000986701117365
0.000942765481127
0.00100696492805
0.000839012224945
0.000829882725457
0.000915118188118
0.000986705879791
0.0010342074432
0.00105981450601
0.00107092167269
0.00107468058825
0.00107652782216
0.00107817929399
0.00107821074392
0.0010766036841
0.0010747602225
0.00107097396991
0.00105983138629
0.00103420060799
0.000986693229279
0.000915102703344
0.000829848567389
0.00083892548355
0.000597049414376
0.000687071777912
0.000829928948335
0.000942822444186
0.00101829601368
0.0010617056061
0.00108625963136
0.00110553043608
0.00112465880128
0.00113828041805
0.00113831186922
0.00112472406733
0.00110558353383
0.00108627011243
0.00106166974176
0.00101822994168
0.000942748974737
0.000829856266157
0.000686996429173
0.000596952748687
0.000314884138097
0.000597096433389
0.000839101764489
0.00100711783645
0.00111082962807
0.00116971969953
0.00120995442086
0.00125392926468
0.00130346642497
0.00133889683778
0.00133892921923
0.00130351993901
0.00125394792452
0.00120991361134
0.00116962593709
0.00111070563881
0.0010069921806
0.000838984950175
0.000596994238218
0.000314807047975
0.000413247429012
0.000849387748334
0.00122762685075
0.00150853979229
0.00171186644453
0.0018651319128
0.0020056957019
0.00215652573113
0.0022974495038
0.00238561234926
0.00238553472229
0.00229726059391
0.00215621075126
0.00200527957637
0.00186474278721
0.00171163313553
0.00150848250705
0.00122766895162
0.000849458973658
0.000413271930703
0.000849456097379
0.000942448355384
0.00114923004151
0.00132749696594
0.00145920420864
0.00154925158969
0.0016171514925
0.00168120802332
0.00174022600172
0.00177750216487
0.0017774479471
0.00174006703304
0.00168095758079
0.00161686918567
0.00154903635011
0.00145912679295
0.00132755212204
0.00114935532975
0.000942572173296
0.000849556656872
0.00122768489293
0.00114927867227
0.00124554261634
0.00133440861443
0.00139320243728
0.0014251229288
0.00144137888854
0.00145233445206
0.00146268064959
0.00147133445473
0.00147128948719
0.00146254651586
0.00145211066681
0.00144113514083
0.00142493288518
0.00139311711502
0.00133444691379
0.00124566894754