/*--------------------------------*- C++ -*----------------------------------*\
| =========                 |                                                 |
| \\      /  F ield         | OpenFOAM: The Open Source CFD Toolbox           |
|  \\    /   O peration     | Version:  3.0.1                                 |
|   \\  /    A nd           | Web:      www.OpenFOAM.org                      |
|    \\/     M anipulation  |                                                 |
\*---------------------------------------------------------------------------*/
FoamFile
{
    version     2.0;
    format      ascii;
    class       volScalarField;
    location    "5.3";
    object      ddt0(epsilon);
}
// * * * * * * * * * * * * * * * * * * * * * * * * * * * * * * * * * * * * * //

dimensions      [0 2 -4 0 0 0 0];

internalField   nonuniform List<scalar> 
7968
(
-9.50787282979e-05
-0.000111309153598
-0.000124448916419
-0.000132832368582
-0.000137731000629
-0.00014029374647
-0.000141346702236
-0.000141624269467
-0.000141570148326
-0.000141466799859
-0.00014156444838
-0.000141751179521
-0.000141847258526
-0.000141597149848
-0.00014055759936
-0.000138000595255
-0.000133081058399
-0.000124651241455
-0.000111441769748
-9.51315999559e-05
-0.000111308451798
-0.000189036817354
-0.000247883390121
-0.000285616402474
-0.000307883111871
-0.000319327477662
-0.000323949283697
-0.000325123513977
-0.000325113001363
-0.000324993209411
-0.000325089498222
-0.00032535206335
-0.000325489504401
-0.000324430995082
-0.000319908945684
-0.000308559799879
-0.000286301452497
-0.00024848026678
-0.000189423143159
-0.000111444742271
-0.000124468575733
-0.000247951838266
-0.000342979463084
-0.000404565311752
-0.000441217203145
-0.000460225317521
-0.000468055336833
-0.000470198093069
-0.000470351713352
-0.000470298665671
-0.000470374296052
-0.000470541302002
-0.000470511971594
-0.000468531497631
-0.000460872809246
-0.00044200908747
-0.000405403728895
-0.000343717303735
-0.0002484315219
-0.000124655472761
-0.000132861976355
-0.000285733466555
-0.000404608975295
-0.000481039689563
-0.000525174735172
-0.000546441557043
-0.000553951873218
-0.000554765854338
-0.000553654694601
-0.000553239892117
-0.000553279493959
-0.000553734727565
-0.000554853111951
-0.000554314702122
-0.000547042060585
-0.000525952138113
-0.00048187468279
-0.000405352335034
-0.000286218533877
-0.000133068212441
-0.000137766866045
-0.000307971030057
-0.000441228558659
-0.000525120783885
-0.00057048931308
-0.00058933433772
-0.00059843863535
-0.000603171050211
-0.000604294823622
-0.000604513373148
-0.000604575325221
-0.00060443299968
-0.000603393249301
-0.000598810362169
-0.000589907664984
-0.000571274115343
-0.000525942926844
-0.000441942537654
-0.000308434510177
-0.000137978817181
-0.00014032548808
-0.000319368780637
-0.000460129166331
-0.000546225547275
-0.000589134599342
-0.000614880772799
-0.00062834155821
-0.000633052728577
-0.000633835042066
-0.000633776328581
-0.000633837459225
-0.000633959839387
-0.000633276470677
-0.000628717438786
-0.000615413795971
-0.000589976884729
-0.000547095318986
-0.000460852826716
-0.000319839993865
-0.000140539850338
-0.000141365650912
-0.00032389855711
-0.000467785124352
-0.000553479494266
-0.0005982136304
-0.000628200145776
-0.000641425958172
-0.000644682156761
-0.000644264092138
-0.000643589400336
-0.000643659840401
-0.000644393229128
-0.000644920134884
-0.000641862658678
-0.00062877099229
-0.000598882845177
-0.000554462102989
-0.000468575916503
-0.000324390525193
-0.000141582479192
-0.0001416203116
-0.000324944901277
-0.000469723286191
-0.000553979428881
-0.000602774617011
-0.000632726927444
-0.000644494310945
-0.00064591325698
-0.000644047655418
-0.000642534777092
-0.000642625990153
-0.000644205642019
-0.000646191626797
-0.00064500136995
-0.000633399662083
-0.00060351081723
-0.000555076071244
-0.000470618925896
-0.000325491983668
-0.000141840710495
-0.000141533982969
-0.000324800779103
-0.000469700433082
-0.000552750442553
-0.00060375608053
-0.000633353105598
-0.000643920008675
-0.000643882827328
-0.000640475594345
-0.000638042998877
-0.000638182597594
-0.000640714210513
-0.000644213223001
-0.000644492848048
-0.000634111403426
-0.000604573645664
-0.000553974797234
-0.000470689771209
-0.000325402806958
-0.00014175857764
-0.000141377818936
-0.000324557554627
-0.000469504892358
-0.000552227135015
-0.000603854966391
-0.00063317263563
-0.000643107854256
-0.000642193499607
-0.000637816060812
-0.000634722641583
-0.000634920718471
-0.000638142708455
-0.000642589182089
-0.00064372461347
-0.000633971132241
-0.000604709930251
-0.000553491944611
-0.0004705439746
-0.000325191351481
-0.000141605613067
-0.000141376417024
-0.00032454124866
-0.000469467566979
-0.000552169417798
-0.000603802850978
-0.000633110375727
-0.000643027518378
-0.000642088163024
-0.000637681006472
-0.000634562167154
-0.000634758601517
-0.000638003140011
-0.000642478993517
-0.000643639693612
-0.00063390299065
-0.000604650658157
-0.000553421131625
-0.000470495744074
-0.00032516789024
-0.000141602383596
-0.00014152911163
-0.000324749534267
-0.000469588744811
-0.0005525728658
-0.000603604892463
-0.000633176565563
-0.00064369964302
-0.000643606228658
-0.000640136401592
-0.000637659114861
-0.000637793293416
-0.000640363374747
-0.000643925010564
-0.000644260702623
-0.000633918007337
-0.000604399646695
-0.000553758090402
-0.000470543434775
-0.000325327876378
-0.000141747361283
-0.000141618300612
-0.00032487055078
-0.000469553959364
-0.000553677976617
-0.000602543263734
-0.000632461880359
-0.000644170001843
-0.000645520240572
-0.000643589082631
-0.000642035443294
-0.00064212263188
-0.000643738028872
-0.000645786776186
-0.000644660921816
-0.000633108025579
-0.000603239837492
-0.000554708154295
-0.000470393477703
-0.000325379683464
-0.000141829606701
-0.000141370426638
-0.000323824279065
-0.000467599987533
-0.000553142081472
-0.000597932980365
-0.000627881235878
-0.000641038469128
-0.000644221457772
-0.000643741522138
-0.000643032081145
-0.000643099723048
-0.000643863143913
-0.00064444584331
-0.000641451251535
-0.000628413196493
-0.000598547262934
-0.000554046845536
-0.000468319469597
-0.000324267500665
-0.000141576698113
-0.000140339837942
-0.000319326100629
-0.000459982669827
-0.000545919033489
-0.000588682873204
-0.000614521447164
-0.000627937567206
-0.000632573099505
-0.000633296054141
-0.000633206937256
-0.000633264471193
-0.00063340963348
-0.000632773927237
-0.000628278322957
-0.000614999170782
-0.000589433126722
-0.000546696555885
-0.00046062367164
-0.000319737596831
-0.00014054319281
-0.00013779435304
-0.000307981361612
-0.000441163772976
-0.000524905460207
-0.000570087764131
-0.000588796182008
-0.000598027276445
-0.000602671768685
-0.000603761651592
-0.000603958147945
-0.000604016311934
-0.00060388343032
-0.000602854566954
-0.000598349825015
-0.000589282800213
-0.000570775076223
-0.000525633029118
-0.000441796277745
-0.000308394512892
-0.000137997062072
-0.000132899489898
-0.000285801258133
-0.00040464521347
-0.00048095577566
-0.000524918390075
-0.000546014085986
-0.000553360828376
-0.000553947552762
-0.00055291708607
-0.000552501155241
-0.000552538141229
-0.000552967945457
-0.000553989116434
-0.000553651609111
-0.000546532590037
-0.000525605635775
-0.000481703197428
-0.000405314860047
-0.000286241194681
-0.000133095747002
-0.000124507273081
-0.000248060130462
-0.000343093601638
-0.000404603588563
-0.000441127694791
-0.000459996905136
-0.000467700112032
-0.000469739679228
-0.000469840779213
-0.000469756615595
-0.000469824068385
-0.000470003432712
-0.000470005383762
-0.000468114866598
-0.000460571866866
-0.00044184053135
-0.000405367266183
-0.000343775525139
-0.000248504007966
-0.000124685659997
-0.000111341729521
-0.000189138136722
-0.000248008841071
-0.000285708466594
-0.000307909804067
-0.000319272713999
-0.000323818113892
-0.00032492871838
-0.00032487496961
-0.000324731816161
-0.000324822675252
-0.000325096328706
-0.000325263659756
-0.000324257642523
-0.000319804608277
-0.000308525861729
-0.000286349228627
-0.00024856892555
-0.000189497850532
-0.000111471416238
-9.50907491212e-05
-0.000111343152024
-0.000124497494025
-0.000132883830899
-0.000137776193517
-0.000140326932472
-0.000141364960176
-0.000141628140358
-0.00014156241474
-0.00014144975716
-0.000141546589277
-0.00014174015398
-0.00014184616885
-0.000141608593505
-0.000140583042541
-0.000138038161214
-0.000133126183834
-0.000124694878897
-0.00011147279752
-9.51416967021e-05
-0.000109416389737
-0.00017906638623
-0.000233606779245
-0.000269550306265
-0.000291597888227
-0.000303845913634
-0.000309616207565
-0.000311697780351
-0.00031211371969
-0.000312087564894
-0.000312169776488
-0.000312315799651
-0.000311983112285
-0.000309953683026
-0.000304206492386
-0.00029195675428
-0.000269863543566
-0.000233838216357
-0.000179203457074
-0.00010951287083
-0.000179029665924
-0.000218287444182
-0.000265918863803
-0.000300138075008
-0.000322135022218
-0.000334897106336
-0.000341392330037
-0.000344186266413
-0.000345161305578
-0.000345437898425
-0.000345482800092
-0.00034527455163
-0.000344349980693
-0.000341590342302
-0.000335115631599
-0.000322370282557
-0.000300377499148
-0.000266155263035
-0.000218513484539
-0.000179222412882
-0.00023359057472
-0.000265891411193
-0.000318438506296
-0.000357869628357
-0.000383787949908
-0.00039899484438
-0.000406777237856
-0.000410105768777
-0.000411235121498
-0.000411559087047
-0.000411590910558
-0.000411312875405
-0.000410211009823
-0.00040691643569
-0.000399156476434
-0.000383972779872
-0.000358080215782
-0.000318683909461
-0.000266176848699
-0.000233852434345
-0.000269565357058
-0.00030009200063
-0.000357846164986
-0.000402061436087
-0.000431404200116
-0.000448698260905
-0.000457692607994
-0.0004613930966
-0.000462643658755
-0.00046305386525
-0.000463081176248
-0.00046270134811
-0.000461416352518
-0.000457788838518
-0.000448828396447
-0.000431560023043
-0.000402253131191
-0.000358095989381
-0.000300412497388
-0.000269852889074
-0.000291630638107
-0.000322066673576
-0.000383736375964
-0.000431375594708
-0.000463054465472
-0.000481961828844
-0.000493054171108
-0.000498801786085
-0.000501178902919
-0.000501992920283
-0.000502034086065
-0.000501279688456
-0.000498927953413
-0.000493192214409
-0.000482094797
-0.000463211438192
-0.000431570664221
-0.000383999613029
-0.000322413249029
-0.000291925196657
-0.000303867664369
-0.000334797675735
-0.000398904915194
-0.000448630088437
-0.000481934820875
-0.000504194688381
-0.000517715844494
-0.000524803827484
-0.000527909586349
-0.000529003735465
-0.000529063370638
-0.000528059253227
-0.000524991694239
-0.000517893143522
-0.000504351442898
-0.000482105227248
-0.000448853031479
-0.000399199526038
-0.000335174209424
-0.000304170616174
-0.000309598058276
-0.000341250822154
-0.000406636621557
-0.00045756932219
-0.00049302752188
-0.000517720112213
-0.000532829094673
-0.000540791848051
-0.000544280943903
-0.000545491349466
-0.000545575822919
-0.000544491219434
-0.00054102888543
-0.000533011772669
-0.000517905358879
-0.000493206066095
-0.00045782771636
-0.000406977554133
-0.000341664936971
-0.000309923517469
-0.00031161293294
-0.000343990548331
-0.000409903227938
-0.000461198464068
-0.000498744969429
-0.000524814702189
-0.000540846413132
-0.000549200547692
-0.000552786453506
-0.000553914563827
-0.000554002399651
-0.000553017119681
-0.000549477709914
-0.000540996351757
-0.000525010778488
-0.00049895296385
-0.00046146437883
-0.000410288913444
-0.000344443864886
-0.000311969887242
-0.000311942906882
-0.000344905625342
-0.000410979214605
-0.000462446460566
-0.000501082029987
-0.000527871402424
-0.000544275812945
-0.000552726778737
-0.0005560330119
-0.000557011618673
-0.000557100193985
-0.000556257809554
-0.000552991886847
-0.000544442323616
-0.000528089528666
-0.000501326742271
-0.000462760085444
-0.000411406578011
-0.000345392497109
-0.000312330833509
-0.000311820719613
-0.000345124026976
-0.000411250104108
-0.000462815852938
-0.00050183762928
-0.000528882061214
-0.000545371579915
-0.000553742775912
-0.000556904892257
-0.000557804679545
-0.000557900249842
-0.000557135843341
-0.000554015693309
-0.00054557298476
-0.000529129642105
-0.000502107617087
-0.000463149257946
-0.000411700082988
-0.000345630531756
-0.000312228423693
-0.000311809546758
-0.00034511912022
-0.000411238175598
-0.000462800536818
-0.000501824249397
-0.000528869495784
-0.000545358910038
-0.000553732629389
-0.000556897536709
-0.000557798992574
-0.000557895961095
-0.000557131136524
-0.000554007968757
-0.000545563825363
-0.000529118945108
-0.000502093384708
-0.000463130794829
-0.000411684470143
-0.00034562252145
-0.000312213828657
-0.000311909836291
-0.000344889379717
-0.000410942373491
-0.000462397304665
-0.000501041335459
-0.00052783436643
-0.000544235719018
-0.00055269009505
-0.000556000921611
-0.000556984092113
-0.000557077565055
-0.000556232936394
-0.000552960351554
-0.000544411009319
-0.000528054938107
-0.000501281522764
-0.00046269967167
-0.000411357521569
-0.000345365458041
-0.000312284985346
-0.000311567407753
-0.000343965952305
-0.000409843445593
-0.000461105017817
-0.000498677790187
-0.000524759762318
-0.000540792729699
-0.000549151285001
-0.000552738477344
-0.000553871012884
-0.00055396415388
-0.000552974205773
-0.000549426870241
-0.000540944406014
-0.000524950908765
-0.000498873283452
-0.000461348937454
-0.000410207606034
-0.000344400675989
-0.000311902823007
-0.000309553416187
-0.000341224694306
-0.00040656634791
-0.00045745774918
-0.000492939325149
-0.000517647483269
-0.0005327700427
-0.000540741735302
-0.000544234144651
-0.000545446396272
-0.000545535688872
-0.000544450879522
-0.000540977901969
-0.000532942799458
-0.000517818949214
-0.000493096558321
-0.000457685772308
-0.000406877737045
-0.000341613639971
-0.000309850731163
-0.000303838925056
-0.000334779726403
-0.000398836460257
-0.000448516194119
-0.000481808875771
-0.000504090659852
-0.000517623509852
-0.000524714024104
-0.000527819261103
-0.000528912925045
-0.000528975383308
-0.00052797174587
-0.000524896605144
-0.000517786459032
-0.000504227042518
-0.000481948904296
-0.00044870242039
-0.000399095926694
-0.000335126456451
-0.000304109896694
-0.000291631283741
-0.000322067115495
-0.000383684824105
-0.000431272565424
-0.000462912826735
-0.000481813331036
-0.000492921707203
-0.000498648573762
-0.000501033507408
-0.000501846634741
-0.000501888062486
-0.000501131484739
-0.000498764439337
-0.000493038353668
-0.000481917072054
-0.000463031840347
-0.000431427171068
-0.000383910786324
-0.000322383156275
-0.000291893407896
-0.000269594878463
-0.000300114538385
-0.000357824071334
-0.000401990449406
-0.000431286973742
-0.000448543754871
-0.000457488755983
-0.000461107835058
-0.000462433936293
-0.000462852952528
-0.000462878599834
-0.000462483844671
-0.000461134342906
-0.000457555397292
-0.000448639551017
-0.00043140381419
-0.000402142213282
-0.000358037645741
-0.000300405685747
-0.000269850479936
-0.000233638735472
-0.000265933337855
-0.000318450532281
-0.000357844403266
-0.000383721643656
-0.000398890261074
-0.000406638810796
-0.000409931453908
-0.000411055317315
-0.000411372184578
-0.000411401453808
-0.000411123577959
-0.000410018895038
-0.000406750894445
-0.000399019978004
-0.000383870919866
-0.000358019593769
-0.000318663950566
-0.000266192095426
-0.00023387196314
-0.000179077945041
-0.000218335590521
-0.000265957648747
-0.000300156851018
-0.000322125216473
-0.000334855655996
-0.000341321411603
-0.000344090306937
-0.000345048755625
-0.000345316067041
-0.000345358671106
-0.000345153851766
-0.000344238637341
-0.000341497676417
-0.00033504773774
-0.000322331956272
-0.000300368754066
-0.000266168458949
-0.000218539219021
-0.000179249372327
-0.000109438079548
-0.000179099592884
-0.000233650968789
-0.000269585707411
-0.000291605972787
-0.000303815215698
-0.000309544762169
-0.00031159064806
-0.000311980477765
-0.000311938936204
-0.000312018608177
-0.000312174176279
-0.000311860491413
-0.000309859524262
-0.000304148062894
-0.000291935646925
-0.000269870845877
-0.000233857149012
-0.00017921897238
-0.000109534266355
-0.000120280291125
-0.000226867749329
-0.000312501525693
-0.000370374676708
-0.000406944102217
-0.000428117313607
-0.000438842391741
-0.000443296405978
-0.00044462048342
-0.000444806047579
-0.000444850694871
-0.000444740871843
-0.000443485497122
-0.000439080128894
-0.000428371008394
-0.000407183334424
-0.000370560069939
-0.000312611974332
-0.000226933039559
-0.00012041637165
-0.000226794284683
-0.00026088029043
-0.000314043810833
-0.000354479340885
-0.000381906019069
-0.00039893677588
-0.000408496532581
-0.00041326654195
-0.000415336670049
-0.000416055475104
-0.000416090633839
-0.0004154305343
-0.000413403342792
-0.000408654841497
-0.0003990939524
-0.000382055622577
-0.000354625570916
-0.000314208293288
-0.000261088063283
-0.000226981901569
-0.000312436808165
-0.000313969661839
-0.000360589170652
-0.000399280135451
-0.000426546736814
-0.000443839533692
-0.000453684973791
-0.000458678786466
-0.000460945181707
-0.000461765693084
-0.000461792937912
-0.00046101713625
-0.000458783809115
-0.000453784435978
-0.000443937664478
-0.000426642633807
-0.000399399652845
-0.000360778532179
-0.000314267844765
-0.000312665101541
-0.000370345400934
-0.000354356508272
-0.000399219926367
-0.000438555017062
-0.000466949820028
-0.000485245822946
-0.000495738510505
-0.000501171426522
-0.000503803057057
-0.000504778771969
-0.000504808464346
-0.000503887643323
-0.000501315885658
-0.000495706257758
-0.000485334986299
-0.000467042654128
-0.000438684106704
-0.000399445395587
-0.000354721437276
-0.000370585544163
-0.000406927465611
-0.000381745876558
-0.000426437371375
-0.000466900695848
-0.000496570114518
-0.000516076811757
-0.000527647946315
-0.000534117039718
-0.000537374908734
-0.000538523419813
-0.000538561425412
-0.00053748609649
-0.000534685484298
-0.000528310207557
-0.000516232487845
-0.000496709820565
-0.000467073818416
-0.000426718428053
-0.000382171381118
-0.000407182961127
-0.000428068651
-0.000398738051246
-0.000443685597826
-0.000485154059387
-0.000516041900678
-0.00053651799664
-0.000549070203467
-0.000557195093008
-0.000561473734708
-0.000562804266527
-0.000562858262596
-0.000561639440947
-0.000558919232002
-0.000552201647582
-0.000538169160201
-0.000516262413926
-0.000485389493348
-0.000444037040482
-0.000399226166493
-0.000428362575067
-0.000438715902911
-0.000408251933838
-0.000453485060227
-0.000495561814045
-0.000527589943612
-0.000548024514568
-0.000561752422059
-0.000571588651513
-0.000576756427419
-0.000578183064964
-0.000578258761022
-0.000576993238953
-0.000574557083995
-0.000568160559686
-0.000553075058312
-0.000528375812042
-0.000495763189005
-0.000453903537235
-0.000408804693005
-0.000439077778761
-0.000443058441822
-0.00041296602243
-0.000458434165882
-0.000501023597662
-0.00053346526656
-0.000553931573318
-0.000568719991635
-0.000579430122553
-0.000584987744278
-0.000586393965586
-0.000586467536579
-0.000585242681557
-0.000583088073962
-0.000576892326922
-0.000561597509178
-0.00053522885426
-0.000501425128125
-0.000458925185494
-0.000413571871735
-0.000443493890236
-0.00044426315526
-0.000414975001823
-0.00046064198398
-0.000503579087608
-0.000536215652914
-0.000556913045019
-0.000572040044829
-0.000582967821161
-0.00058857741408
-0.000589912104842
-0.000589948316306
-0.000588750291067
-0.00058674957349
-0.000580714308217
-0.000565315301198
-0.000538431013429
-0.000504029867718
-0.000461180320457
-0.000415620895631
-0.000444756114282
-0.000444344918187
-0.000415637856436
-0.000461411787985
-0.000504498012721
-0.000537297985764
-0.000558140059151
-0.000573330174895
-0.000584269953978
-0.000589842532028
-0.000591126900413
-0.000591136180176
-0.000589961281411
-0.000588015273833
-0.000582048103386
-0.000566589126699
-0.000539546671103
-0.000504975483548
-0.000461976566441
-0.000416306490614
-0.000444868353691
-0.000444313112788
-0.00041563130222
-0.000461402990601
-0.000504488714558
-0.000537291452777
-0.000558139026712
-0.000573335813456
-0.000584287199009
-0.000589874493565
-0.000591169334996
-0.000591178012683
-0.000589993657281
-0.000588035920514
-0.000582059931912
-0.000566591064757
-0.000539540169187
-0.000504964587352
-0.000461965441765
-0.000416297599287
-0.000444833132379
-0.00044417354594
-0.00041495523003
-0.0004606148602
-0.000503550312537
-0.000536193072944
-0.000556904712581
-0.000572044695095
-0.000582999671103
-0.000588640132841
-0.000589995022891
-0.000590032513219
-0.000588816718761
-0.000586788018672
-0.00058073547991
-0.000565312689963
-0.000538407298205
-0.000503995603263
-0.000461144953384
-0.000415591774752
-0.000444651584833
-0.000442925806445
-0.000412935483106
-0.000458389572173
-0.000500975325198
-0.000533374550091
-0.000553731201453
-0.000568399000839
-0.000579060094803
-0.000584623391484
-0.000586049012465
-0.000586127335427
-0.00058488291995
-0.000582711827237
-0.000576572053899
-0.000561389606345
-0.000535130734018
-0.000501362560789
-0.000458865023977
-0.000413523938476
-0.000443334024009
-0.000438561089122
-0.000408214159012
-0.000453418153713
-0.000495417230441
-0.000527454277081
-0.000547629318952
-0.000561003095613
-0.000570644645658
-0.000575768473752
-0.000577206821041
-0.000577290826145
-0.000576020860141
-0.000573610462302
-0.000567385675781
-0.000552660094472
-0.00052821997886
-0.00049561551982
-0.0004538112696
-0.000408741167645
-0.000438883904025
-0.000427918348404
-0.00039869830126
-0.000443609256731
-0.00048504520988
-0.000515932265373
-0.000536249661287
-0.000548422993854
-0.000556251093372
-0.000560449232677
-0.000561784500498
-0.000561843939786
-0.000560624651459
-0.000557970661041
-0.000551534614327
-0.000537885797056
-0.000516128735555
-0.000485249085931
-0.000443929065969
-0.000399155678208
-0.000428164266085
-0.000406809022488
-0.000381713183008
-0.000426358951845
-0.000466783816248
-0.000496433086471
-0.000515942731654
-0.000527457957926
-0.000533835369553
-0.000537035670708
-0.00053818243595
-0.000538221553764
-0.000537148914593
-0.000534400092778
-0.000528095753981
-0.000516074453087
-0.000496537822087
-0.000466921690169
-0.00042660509018
-0.000382105176331
-0.000407011928729
-0.000370272923081
-0.000354337878627
-0.000399154297052
-0.000438448762027
-0.00046681508457
-0.000485088349931
-0.000495405576648
-0.000501056547146
-0.000503648284698
-0.000504611229065
-0.000504640029318
-0.000503727734625
-0.000501169364809
-0.000495418203782
-0.000485145631558
-0.000466873689385
-0.00043854101678
-0.000399343753672
-0.000354669016755
-0.000370459824619
-0.000312413317928
-0.000313970149502
-0.000360550544719
-0.000399205456775
-0.000426442553342
-0.00044371322609
-0.000453533020821
-0.0004585313963
-0.000460779625298
-0.000461592121952
-0.000461617590157
-0.000460845535438
-0.000458622613315
-0.000453607564188
-0.000443781393063
-0.000426505114573
-0.000399289551651
-0.000360705212777
-0.000314236472367
-0.000312593922609
-0.000226809877789
-0.000260895794249
-0.00031403625125
-0.000354445451706
-0.000381844402547
-0.000398848034543
-0.000408383769974
-0.000413132033221
-0.000415187150031
-0.00041589708516
-0.000415929917344
-0.00041527298345
-0.000413254722579
-0.0004085183456
-0.00039897638909
-0.000381962026862
-0.000354558605981
-0.000314169051612
-0.000261076175524
-0.000226965749558
-0.000120305470726
-0.000226866314222
-0.000312471715538
-0.000370301514161
-0.00040681316769
-0.000427920649929
-0.000438583414136
-0.000442986104658
-0.000444273564418
-0.000444436716198
-0.000444477334818
-0.000444381016291
-0.000443152388105
-0.000438785593579
-0.000428128141172
-0.000407000899767
-0.000370435113205
-0.000312535773898
-0.000226900358753
-0.000120443803319
-0.000126496923126
-0.000257073379242
-0.000363569191281
-0.000436891565481
-0.000484271559783
-0.000512511647687
-0.00052743343641
-0.000534042187998
-0.000536196002236
-0.000536559000641
-0.000536526337614
-0.000536121127444
-0.000533962359225
-0.000527360913235
-0.000512424708054
-0.000484154859903
-0.000436731718535
-0.000363377132249
-0.000256946446877
-0.000126672567583
-0.000256949756452
-0.000290664135464
-0.000349856955109
-0.000396118118669
-0.00042837398612
-0.000449057802265
-0.000461133045976
-0.000467453348544
-0.000470307797582
-0.000471315442879
-0.000471339781422
-0.000470379168132
-0.000467561006103
-0.000461245662856
-0.000449137636248
-0.000428404945198
-0.000396113111678
-0.000349863940549
-0.000290754049743
-0.000257066458545
-0.00036343187675
-0.000349741359123
-0.000396310606179
-0.000437021149231
-0.000466826278001
-0.000486542450712
-0.000498333361722
-0.000504799904774
-0.000507890050165
-0.000509067909516
-0.000509098151324
-0.000507973509424
-0.000504918283995
-0.000498452971375
-0.000486616898564
-0.000466863018848
-0.000437052341997
-0.000396403830153
-0.000349964436596
-0.000363527482943
-0.000436774974221
-0.000395929982692
-0.000436931871764
-0.000475882788139
-0.000505311100196
-0.000524746562905
-0.000536137419612
-0.000543817201408
-0.000547699025031
-0.000549009510236
-0.000549056979202
-0.000547838945858
-0.000544961239362
-0.000538426774931
-0.000525777429824
-0.00050541114716
-0.000475987118488
-0.000437121495385
-0.00039626730672
-0.000436864829197
-0.000484140102981
-0.000428134135686
-0.000466666899408
-0.000505239732338
-0.000533991755198
-0.00055258489119
-0.000564945082316
-0.000574531288482
-0.000579923540952
-0.00058134364488
-0.000581410079562
-0.000580141846918
-0.00057836634963
-0.000573122769296
-0.000559280526281
-0.000536293910517
-0.000505463521946
-0.000466980420259
-0.000428587772074
-0.000484272314013
-0.000512305452341
-0.000448768240578
-0.00048632282398
-0.000524617753768
-0.000551191867975
-0.000568878272298
-0.000582796842532
-0.000595438297739
-0.000602685170217
-0.00060417364386
-0.000604244064096
-0.000602950182939
-0.000602734572781
-0.000599871451384
-0.000586166067608
-0.000560420035154
-0.00052587940763
-0.000486775789476
-0.000449346386366
-0.000512542540807
-0.000527091234371
-0.00046078420244
-0.000498056620222
-0.00053498921203
-0.000559691111347
-0.000576950739474
-0.000592337210169
-0.000607549382132
-0.000616270875804
-0.000617743788637
-0.000617794945737
-0.000616510680113
-0.000617768764568
-0.000617645120722
-0.000604962387702
-0.000577518632312
-0.00053940432151
-0.000498654874782
-0.000461482872713
-0.000527484492336
-0.0005335345973
-0.000467036970759
-0.000504456049016
-0.000540311313127
-0.000563924987149
-0.000580737476193
-0.000597050083192
-0.00061346663709
-0.000622891908447
-0.000624250390776
-0.000624261686092
-0.00062300722858
-0.000625158184473
-0.000626736639862
-0.00061536993198
-0.000587222006521
-0.000547750645371
-0.000505156755417
-0.000467825178463
-0.000534072601839
-0.000535551368524
-0.000469824220015
-0.000507479079876
-0.000543050523498
-0.00056638664987
-0.000583112889976
-0.000599621001096
-0.000616291366985
-0.000625818735213
-0.000627022423782
-0.000626973312386
-0.000625787825049
-0.000628270191239
-0.000630429600152
-0.000619538219091
-0.000591371845586
-0.000551526530355
-0.000508246940317
-0.00047066389608
-0.000536175676759
-0.000535828948396
-0.00047077673253
-0.000508598639531
-0.000544276372365
-0.000567684169825
-0.000584449179603
-0.000600984068151
-0.000617636126353
-0.000627064870287
-0.000628140303466
-0.000628057896926
-0.000626979791581
-0.000629570796588
-0.000631815453875
-0.000620942149195
-0.00059273084914
-0.000552797719613
-0.000509398934935
-0.000471640082574
-0.000536488083619
-0.000535760436047
-0.000470764283395
-0.000508588558601
-0.000544269209929
-0.00056768591552
-0.000584464130863
-0.000601016447106
-0.000617685492829
-0.000627136447484
-0.000628224359982
-0.000628134196338
-0.000627040891508
-0.000629619960029
-0.000631848609451
-0.000620955478697
-0.000592727477375
-0.000552786524381
-0.000509386319735
-0.000471625615203
-0.000536416330511
-0.000535356281687
-0.000469787179144
-0.000507447532078
-0.000543027021555
-0.000566386372524
-0.000583149830409
-0.000599701459361
-0.000616415127878
-0.000625984553591
-0.000627207518141
-0.000627147480554
-0.000625944095773
-0.000628396906523
-0.000630512778661
-0.000619568059824
-0.000591356990646
-0.000551490502965
-0.000508206734398
-0.000470617812509
-0.000535964779992
-0.000533233645586
-0.000466975774351
-0.000504400806527
-0.000540156708052
-0.000563503420093
-0.000579998556559
-0.000596024917599
-0.000612270767331
-0.000621648326426
-0.000623025982566
-0.00062303879926
-0.000621771572388
-0.000623907900056
-0.000625578324148
-0.000614497867007
-0.000586737733943
-0.000547575108177
-0.000505085833704
-0.000467746540061
-0.000533741570758
-0.000526715840567
-0.000460697088517
-0.00049797439743
-0.000534722903268
-0.000558725544522
-0.000575060115789
-0.000589546967942
-0.000604188183005
-0.00061271547291
-0.00061420081976
-0.000614261997919
-0.000612984039376
-0.000614291100201
-0.000614558560733
-0.000602824536861
-0.000576458878175
-0.000539098677824
-0.000498551388787
-0.00046137050175
-0.000527062517556
-0.000511899944574
-0.000448659214971
-0.000486206621844
-0.000524385089824
-0.000550313820835
-0.00056683469948
-0.000579560894628
-0.000591373289149
-0.000598355515852
-0.000599848720047
-0.000599926909639
-0.000598643175502
-0.000598568820989
-0.000596403489926
-0.000583966628978
-0.000559487459576
-0.000525619101975
-0.000486629925494
-0.00044920596906
-0.000512076120604
-0.000483756846944
-0.000428011768478
-0.000466527486569
-0.000505080555525
-0.000533577180751
-0.000551382355211
-0.000562775936535
-0.000571688589637
-0.000576861052213
-0.000578279400208
-0.000578349215941
-0.000577088534399
-0.000575490519081
-0.000570876885203
-0.000558028082912
-0.000535747703079
-0.000505267838062
-0.000466806550997
-0.000428429173811
-0.000483818025404
-0.000436456998905
-0.000395806676338
-0.000436784779598
-0.000475711260336
-0.000505128887043
-0.00052446680527
-0.00053566818111
-0.000542832368899
-0.000546570709655
-0.000547872902186
-0.000547919962471
-0.000546708624542
-0.000543970318808
-0.00053787916359
-0.000525473735123
-0.000505193907361
-0.000475779210642
-0.000436936759544
-0.000396103854504
-0.000436470856416
-0.000363208960081
-0.000349632196893
-0.000396175053675