/*--------------------------------*- C++ -*----------------------------------*\
| =========                 |                                                 |
| \\      /  F ield         | OpenFOAM: The Open Source CFD Toolbox           |
|  \\    /   O peration     | Version:  3.0.1                                 |
|   \\  /    A nd           | Web:      www.OpenFOAM.org                      |
|    \\/     M anipulation  |                                                 |
\*---------------------------------------------------------------------------*/
FoamFile
{
    version     2.0;
    format      ascii;
    class       volScalarField;
    location    "5.3";
    object      epsilon;
}
// * * * * * * * * * * * * * * * * * * * * * * * * * * * * * * * * * * * * * //

dimensions      [0 2 -3 0 0 0 0];

internalField   nonuniform List<scalar> 
7968
(
0.00018827357035
0.000233556494667
0.000271307278956
0.000295847336141
0.00030997847919
0.000316477328384
0.000318007173149
0.000316538340491
0.000314014243242
0.000311808156655
0.000311691750803
0.000313801364984
0.000316300054404
0.000317784093499
0.000316303933353
0.000309878365507
0.000295825905229
0.000271347249515
0.000233611051146
0.00018830901716
0.000233594002471
0.000429830847755
0.000577357180028
0.00066787643713
0.000715104484727
0.000732250022792
0.000732106308726
0.000723901620858
0.000715152725285
0.000709825250595
0.000709554050671
0.000714447148483
0.000722939652078
0.000731080683223
0.000731303454057
0.00071432067457
0.000667298240129
0.00057702315071
0.00042969695762
0.000233568223704
0.000271433450133
0.000577458986882
0.000807211404566
0.000948369845663
0.00102224320295
0.00104943695166
0.00104943785091
0.00103789967115
0.00102600580625
0.00101900879724
0.00101853298977
0.0010247593411
0.00103621149906
0.00104766273295
0.00104777897186
0.00102079500801
0.000947195088285
0.000806401836424
0.0005770431791
0.000271303556194
0.000296013663905
0.000668079358129
0.000948477600559
0.0011186189748
0.00120416731902
0.00123158226596
0.00122668510593
0.00120967126359
0.00119471997347
0.00118652919178
0.00118582625468
0.00119288701387
0.0012072274182
0.0012242286411
0.00122935132292
0.00120215770695
0.00111685599601
0.000947132163982
0.000667284019605
0.000295725353271
0.000310175192758
0.000715311359133
0.0010223807713
0.00120416495868
0.00128787959596
0.00130780245416
0.0013181252728
0.00131465288245
0.00130591153698
0.00129950668741
0.00129878454891
0.00130409693274
0.00131235163541
0.00131587694374
0.00130538809025
0.00128565724468
0.00120203422308
0.00102058622667
0.00071413999519
0.00030971364924
0.000316688522662
0.000732444440895
0.00104948244774
0.00123133137928
0.00130743738594
0.0013569991586
0.00137576695865
0.00137356665155
0.00136392868615
0.00135641536649
0.00135550404212
0.00136168967067
0.00137085309608
0.00137332041557
0.00135497734996
0.0013054995602
0.0012292534735
0.00104752036716
0.000731083568734
0.000316097957733
0.000318208208038
0.000732226773151
0.0010492818487
0.00122601439654
0.00131762586549
0.0013754940761
0.00139403877211
0.0013881793
0.00137454104816
0.00136441308493
0.00136325661012
0.00137174135444
0.00138487604787
0.00139122752546
0.00137343451711
0.00131606082739
0.00122426310383
0.0010473954041
0.000730811828763
0.000317560302674
0.000316711485806
0.000723949621192
0.00103760478994
0.001208749282
0.00131400347789
0.00137316373758
0.00138807229089
0.00137630845446
0.0013569501843
0.0013432021533
0.00134179773362
0.0013535850573
0.00137234747959
0.00138478164214
0.00137089205531
0.00131248337226
0.00120726264064
0.00103585666741
0.000722583098458
0.000316060305814
0.000314156315054
0.000715196574885
0.00102577367483
0.00119399539382
0.00130544826842
0.0013638027759
0.00137482730916
0.00135742002268
0.00133208348912
0.00131370481695
0.00131205256984
0.00132817732429
0.00135287420227
0.0013710288291
0.00136122188796
0.00130380861464
0.00119250386612
0.00102407887014
0.000713885906265
0.000313522012223
0.000311930430655
0.000709934275886
0.0010189982
0.00118629423993
0.00129951556486
0.00135693525741
0.0013655495701
0.00134467195197
0.00131478607241
0.00129243677405
0.00129059183794
0.00131050913252
0.00133971011167
0.00136137922173
0.0013540873743
0.00129770898266
0.00118464392407
0.00101727040101
0.000708627629115
0.000311290210296
0.000311823336668
0.000709766531759
0.00101879207875
0.00118608183835
0.00129930856827
0.00135672966859
0.00136533268604
0.00134442155547
0.00131447167835
0.00129204988035
0.00129019337132
0.00131017431828
0.00133943959144
0.00136114159084
0.00135385850601
0.00129747156049
0.00118437688978
0.00101700159752
0.000708403826024
0.000311149570384
0.000313936415075
0.000714734871895
0.00102518367942
0.001193368257
0.00130485705579
0.00136322119224
0.00137422558102
0.0013567537942
0.00133130271155
0.00131280702879
0.00131113227539
0.00132735489316
0.00135216553834
0.00137038059488
0.00136058391085
0.00130313954363
0.00119173602775
0.00102333238734
0.000713289234242
0.000313235172386
0.000316438067245
0.000723245447084
0.0010366583404
0.00120768112232
0.00131303568992
0.00137220961386
0.00138708524671
0.00137523791238
0.00135578275529
0.0013419361833
0.00134051081462
0.00135237536187
0.00137122796052
0.00138373575739
0.00136986081316
0.00131140546165
0.00120600129813
0.00103470166991
0.000721702341324
0.000315707058506
0.000317926235654
0.000731377869495
0.00104808017514
0.00122457794045
0.00131631608484
0.00137421020432
0.00139271395937
0.0013867664619
0.00137303187578
0.00136283041229
0.00136165365843
0.00137018586298
0.0013834015648
0.0013898252249
0.00137204968372
0.00131461059964
0.00122260301533
0.00104595739829
0.000729763133844
0.000317195819519
0.00031644184558
0.000731579344548
0.00104819285377
0.00122971086509
0.00130556632235
0.00135538889846
0.00137419491037
0.00137191378272
0.00136219577617
0.00135462571899
0.00135369186473
0.00135989858859
0.00136911482043
0.00137163968815
0.0013532238447
0.00130341705308
0.00122737695904
0.00104596610597
0.000730000486012
0.000315772764647
0.000309995412091
0.000714538836269
0.00102119049752
0.00120260097949
0.00128593175056
0.00130557054006
0.00131631452909
0.00131277750651
0.00130397770567
0.00129752622981
0.00129677621204
0.00130208460786
0.00131035464745
0.0013139060185
0.00130292247651
0.00128343852397
0.00120017658039
0.00101910896756
0.000713151528983
0.000309463230361
0.000295917666894
0.000667522711548
0.000947569452832
0.00111735230991
0.00120250821791
0.00122954056297
0.00122431705817
0.00120710454276
0.00119210459222
0.00118388436918
0.00118313621941
0.0011901390814
0.00120445640679
0.0012215924309
0.00122701377779
0.00120017656727
0.00111526182644
0.000945926722619
0.000666514010574
0.000295568678962
0.000271406788236
0.000577165058805
0.000806684666724
0.000947551529841
0.00102108475017
0.00104794897019
0.00104767044534
0.00103592377429
0.00102388803565
0.00101678947646
0.00101626096509
0.00102249378208
0.00103400534178
0.00104561658831
0.00104598576819
0.0010193082833
0.000946062876889
0.000805608002376
0.000576560423135
0.000271232084553
0.000233617727416
0.000429769021106
0.000577200069733
0.000667541671318
0.000714523819808
0.000731432523942
0.000731093111551
0.000722727406443
0.000713848276156
0.000708426449018
0.000708109450356
0.000713020642852
0.000721580757373
0.000729848797549
0.000730249285646
0.000713488545957
0.00066674323051
0.000576674984903
0.000429507015727
0.000233566289284
0.000188291386819
0.000233581494493
0.00027132162575
0.000295821897075
0.000309882089097
0.000316296467886
0.000317751395572
0.000316213645685
0.000313628086379
0.000311368326727
0.000311221974236
0.000313351805359
0.000315891834548
0.00031743748239
0.000316033162312
0.000309697813654
0.000295731181406
0.000271307461235
0.0002336007498
0.000188314190192
0.00022702224749
0.00038545894149
0.000515592489259
0.000603613896044
0.000656985453413
0.000684550893262
0.000694888046988
0.000695357129185
0.000692172218504
0.000689411461679
0.000689192889935
0.000691606838663
0.00069458582242
0.000694049358055
0.000683751442104
0.000656299315388
0.000603092848591
0.000515261417351
0.000385314579918
0.000227056819935
0.000385561415596
0.000479662655242
0.000590808132341
0.000671600653392
0.000722991983712
0.000751364108066
0.000763984169168
0.000767254052287
0.000766515344516
0.000765235743596
0.000765090630143
0.000766132026187
0.000766721507883
0.00076339528605
0.000750786309843
0.000722457988369
0.000671127251338
0.000590389878654
0.000479259663593
0.000385123315522
0.000515812424715
0.00059093245339
0.00070894022901
0.000797909234436
0.000855354430474
0.000887184699747
0.000901223646973
0.000904815974062
0.000903978661356
0.000902538070143
0.000902355333192
0.000903495641281
0.000904147451275
0.000900489805393
0.000886453009966
0.000854637468372
0.000797202817759
0.000708240153609
0.000590207817311
0.000515004567982
0.000603918969927
0.000671814365254
0.000797995301386
0.0008949204875
0.000958170320829
0.000993739270097
0.00101012528848
0.00101507105596
0.00101527650561
0.00101426777254
0.00101405655395
0.00101471809955
0.0010142897883
0.00100926031679
0.000992890474462
0.000957322961231
0.000894039517518
0.000797065796921
0.000670807775332
0.000602779181354
0.000657343063361
0.000723249352671
0.000855470896747
0.000958186835036
0.00102618078711
0.00106696889202
0.00109111681101
0.00110180499381
0.00110459790673
0.00110445278742
0.00110422816182
0.00110401879694
0.00110102542483
0.0010902916371
0.00106613487549
0.00102532706193
0.000957251488472
0.000854413130756
0.000722036351715
0.000655919795931
0.000684908476182
0.000751611334942
0.000887265509578
0.000993687036666
0.00106690341625
0.00111832386186
0.00114913133365
0.00116351598699
0.00116783227742
0.0011680746698
0.00116781884789
0.00116718317246
0.00116264597315
0.00114822621155
0.00111751642888
0.00106614890062
0.000992822508261
0.000886198722584
0.000750304500202
0.000683314060041
0.000695196052086
0.000764181555741
0.000901225730797
0.00100996535236
0.00109100801909
0.00114909995732
0.00118399078934
0.00120012100577
0.00120468240149
0.00120469350875
0.00120439815386
0.00120394018155
0.00119909785068
0.0011829101495
0.00114820785123
0.00109030688813
0.00100921976234
0.000900229521501
0.00076287853421
0.0006935636113
0.000695605161445
0.000767398827201
0.000904759332376
0.00101486419941
0.00110168904333
0.00116353458313
0.00120023323781
0.00121634748021
0.00122003042878
0.00121935118671
0.00121900936743
0.00121918678209
0.00121513625252
0.0011989235926
0.00116250058549
0.00110096759677
0.00101421826489
0.00090384199128
0.000766150182129
0.000694017373545
0.000692388767824
0.00076663735404
0.00090392769812
0.00101511971288
0.0011045552572
0.00116797773084
0.00120497590101
0.00122024526557
0.00122270104713
0.00122067404157
0.00122025318234
0.00122168662583
0.00121885380919
0.00120346097529
0.001166793622
0.00110377454536
0.00101449022054
0.000903049533146
0.000765439310495
0.000690862125768
0.000689642196786
0.000765371589437
0.000902546233815
0.00101421530783
0.00110453721206
0.00116838799815
0.00120519210437
0.00121980743175
0.00122094666192
0.00121768810063
0.00121720274026
0.00121979515723
0.00121826034531
0.00120354617289
0.0011671066079
0.00110370212168
0.00101356513827
0.000901667480321
0.000764187193192
0.000688134903996
0.000689484623984
0.000765268796684
0.000902444848095
0.00101411660835
0.00110444197653
0.00116829269667
0.00120509023028
0.00121969380929
0.00122081182743
0.00121753377145
0.00121704862691
0.00121966030794
0.00121814443392
0.00120344021697
0.00116700502726
0.0011035976713
0.00101345227594
0.000901544301929
0.000764055074445
0.00068793479044
0.000691961205847
0.000766349283141
0.000903638877961
0.00101483606286
0.00110428707907
0.00116771640872
0.0012047036915
0.00121995143971
0.00122236974262
0.00122030968101
0.0012198906961
0.00122135438954
0.00121855194401
0.00120317675234
0.00116651418856
0.00110348128108
0.00101416878845
0.000902705086997
0.000765079170917
0.000690334765788
0.000694978072953
0.000766961165057
0.000904306445487
0.0010144079604
0.00110127232567
0.00116314590302
0.00119984938043
0.00121594675762
0.00121961265712
0.00121890665613
0.00121856434702
0.00121876037402
0.00121471492236
0.00119851446938
0.001162080391
0.00110051117115
0.00101370565263
0.000903312238661
0.000765616702227
0.000693263965421
0.000694467650813
0.000763652876037
0.000900653452118
0.00100936194112
0.00109046767593
0.00114861633332
0.0011835427263
0.00119967935124
0.00120422811183
0.00120422176536
0.00120392331902
0.00120347299159
0.00119863067802
0.00118242705126
0.00114768075716
0.00108971331056
0.00100854288458
0.000899566374013
0.000762241338989
0.00069269916041
0.000684183715099
0.000751061208604
0.000886634768409
0.00099299109119
0.00106622546173
0.00111773329628
0.00114860456376
0.00116301383881
0.00116733410332
0.00116756979692
0.00116730840642
0.00116666786056
0.00116211410986
0.00114765677651
0.00111686967165
0.00106539978225
0.000992037457776
0.000885463958096
0.000749636740986
0.000682449935758
0.000656716501484
0.000722739142033
0.000854845603211
0.000957460136006
0.00102539846653
0.00106622021876
0.00109045542644
0.00110117265072
0.00110398366904
0.00110383882509
0.00110360528382
0.00110337942058
0.00110035318473
0.00108957324633
0.0010653102908
0.00102445178817
0.000956417927489
0.000853670331239
0.000721401206335
0.000655154100557
0.00060346272959
0.000671399598569
0.000797436978655
0.000894233919377
0.000957385082728
0.000992889599023
0.0010092376289
0.00101420841548
0.00101444130224
0.00101343223943
0.00101320773478
0.00101384557241
0.00101337184805
0.00100828772161
0.000991938430959
0.000956422246663
0.000893228353429
0.00079637869511
0.000670264801092
0.000602191540038
0.000515548887179
0.000590631566187
0.000708483396569
0.000797308413902
0.000854630411392
0.00088636098574
0.000900321972723
0.000903859406879
0.000902983234265
0.000901508751675
0.000901305938927
0.000902443927058
0.000903103955057
0.000899478583306
0.000885505846405
0.000853780675427
0.000796466601715
0.000707651058126
0.000589784554991
0.000514629571808
0.000385475969381
0.000479460926097
0.00059045262312
0.000671096380342
0.000722345390356
0.000750590933799
0.000763106356591
0.000766290798025
0.000765480644101
0.000764147650254
0.000763976962619
0.000765027336724
0.000765651750873
0.000762390013411
0.000749875047193
0.000721669315468
0.0006704855157
0.000589908169425
0.000478951939238
0.000384964673962
0.000227037946762
0.000385295246917
0.000515288267553
0.000603175955982
0.000656396722651
0.000683805918043
0.000694003516609
0.000694347927154
0.000691051153897
0.000688204173411
0.000687948365465
0.000690388128608
0.000693434475251
0.000693003870852
0.00068284131306
0.000655550033924
0.000602510078631
0.000514835148165
0.000385067234236
0.000227056350593
0.000259483596044
0.000499389714927
0.000700492103179
0.000839736830579
0.000927050459194
0.000975238342476
0.000996929767181
0.00100321451807
0.00100298364003
0.0010015999642
0.0010012686092
0.00100207594266
0.00100189838133
0.00099539362677
0.000973653002965
0.000925557029934
0.000838461366554
0.000699545687073
0.000498878023545
0.000259519465207
0.000499577439053
0.000582386807803
0.000707293063194
0.000804467273969
0.000870952249504
0.000911727592065
0.000933636646017
0.000943376321329
0.000946642881819
0.000947283107035
0.000947127151369
0.000946213534952
0.000942751495044
0.000932896586809
0.000910942342155
0.000870165052009
0.000803697703875
0.000706531712351
0.000581572204955
0.000498532430281
0.000700845739493
0.000707474766987
0.00081111307923
0.000898950378991
0.000961333578476
0.00100059484952
0.00102227559671
0.00103237916468
0.0010359149679
0.00103662923973
0.00103647169612
0.00103548630162
0.00103176547978
0.00102155005451
0.000999800847937
0.00096047150583
0.00089799649714
0.000810035100687
0.000706191068035
0.000699039789968
0.000840227667544
0.000804779249153
0.000899077841489
0.000984078859233
0.00104629040358
0.00108667108737
0.00110990079041
0.00112209375113
0.00112667132245
0.00112776192804
0.00112759127212
0.00112621302965
0.00112144890233
0.00110914997659
0.00108583920428
0.00104535651011
0.000982977644268
0.00089774706519
0.000803115800656
0.000837845711171
0.000927640183263
0.000871343535284
0.000961532342468
0.00104635122482
0.00111052075098
0.00115480257369
0.00118181082948
0.00119591530185
0.00120160085636
0.00120309634275
0.00120290223703
0.00120107300203
0.00119512204854
0.0011809190518
0.0011539526638
0.00110959328155
0.00104520687181
0.000960059258911
0.000869413243778
0.000924808833938
0.000975855004734
0.000912138504286
0.0010008041969
0.00108672174359
0.00115479902669
0.0012032880032
0.00123392581092
0.0012501667247
0.00125679169227
0.00125855112038
0.00125831771729
0.00125612615071
0.00124902473745
0.00123254236468
0.00120216910407
0.00115389057051
0.00108562594042
0.000999296879675
0.000910073263699
0.000972763723689
0.000997497171744
0.000934017284742
0.00102245327366
0.00110991754084
0.00118181695726
0.00123407531802
0.00126756779376
0.00128525105444
0.00129226255853
0.00129397862822
0.00129370929167
0.00129143943413
0.00128364407
0.0012654223952
0.00123234901815
0.00118078530068
0.00110890396967
0.00102098635349
0.00093194054787
0.000994358603295
0.00100371302333
0.000943712708049
0.00103253267677
0.00112212468298
0.00119606517214
0.00125074921338
0.00128589661354
0.00130400793784
0.0013106320711
0.00131185131256
0.00131154554842
0.00130967601439
0.00130202639154
0.00128307345126
0.00124839653646
0.00119478659521
0.00112110523385
0.00103111723784
0.000941700832588
0.00100067587569
0.00100344566475
0.000946951626529
0.00103607861509
0.0011267637939
0.0012019538895
0.00125779564427
0.0012935020477
0.00131130417939
0.00131696465846
0.00131739204786
0.00131704754983
0.00131588097008
0.00130905197658
0.00129029595684
0.00125506994519
0.00120046570111
0.00112569773338
0.00103468681532
0.000945013521974
0.00100055483214
0.00100209140433
0.000947597764552
0.00103684253783
0.00112795364994
0.00120361890822
0.00125981898577
0.00129555588266
0.0013129125345
0.00131780349061
0.00131759921082
0.00131722451909
0.00131663046948
0.00131051283187
0.00129218842945
0.00125694468609
0.00120203188422
0.00112684474794
0.00103544604368
0.000945688837819
0.000999276454221
0.00100187544075
0.000947486885869
0.00103675423086
0.0011278817873
0.00120356134353
0.00125977315308
0.00129551707805
0.00131287163438
0.00131775316784
0.00131754199611
0.0013171704794
0.00131658647667
0.00131047410326
0.00129214896472
0.0012568955789
0.00120196708145
0.0011267610554
0.00103533707718
0.000945543810329
0.000999003965481
0.00100281884934
0.000946628734937
0.00103582099705
0.00112655413209
0.00120178747824
0.00125767011496
0.00129340347824
0.00131120900239
0.0013168544304
0.0013172726855
0.00131693893387
0.00131578325271
0.00130895762398
0.00129019235668
0.00125493150675
0.00120027866107
0.00112545703352
0.00103437749908
0.000944608736543
0.000999798988138
0.00100274035555
0.000943213069299
0.0010321256163
0.00112178796114
0.0011958037556
0.00125057765769
0.00128580807212
0.00130396459752
0.0013105936552
0.00131181058596
0.00131151050137
0.00130963729039
0.00130196603743
0.00128296155665
0.00124819633244
0.0011944906216
0.0011207233122
0.00103064025614
0.000941093823829
0.000999542923397
0.000996307871017
0.00093340360338
0.00102192811092
0.00110945865771
0.00118145052552
0.001233843246
0.00126747960984
0.00128526194168
0.00129230962163
0.00129403158011
0.00129376320061
0.00129147908043
0.00128363106454
0.00126529975552
0.0012320771595
0.00118037347285
0.00110839298517
0.00102037957213
0.000931205496302
0.000992995990625
0.000974609708135
0.000911485302184
0.00100020168249
0.00108614488557
0.00115429981916
0.0012029095879
0.00123369264326
0.00125004445206
0.00125671790767
0.00125848786198
0.00125825194663
0.00125604103678
0.00124887783177
0.00123227195347
0.00120174147984
0.00115333449171
0.00108497971162
0.000998600015259
0.000909287050458
0.000971334018187
0.000926493835876
0.000870717472283
0.000960896240653
0.00104569120809
0.00110987595814
0.00115423312123
0.00118132722676
0.00119550404026
0.00120122134402
0.00120272129339
0.0012025196606
0.00120067180212
0.00119467373404
0.0011803879399
0.00115332187636
0.00110887710978
0.00104446033058
0.000959314107298
0.000868644127801
0.000923468916011
0.000839307005364
0.000804229544685
0.000898446064723
0.000983367491516
0.00104553727901
0.00108591242387
0.00110918796589
0.00112140620145
0.00112597650854
0.00112705377566
0.00112687075305
0.00112548279295
0.00112070404661
0.00110838094759
0.00108499672704
0.00104450705524
0.000982157235628
0.000896990113511
0.000802417180408
0.000836732194757
0.000700221367681
0.000707013976436
0.000810502683854
0.000898205556014
0.00096049075141
0.000999685332759
0.00102132252676
0.00103139098547
0.00103488265482
0.00103556069364
0.00103538341884
0.00103439838473
0.00103069025674
0.00102049174425
0.00099877180684
0.000959500616136
0.00089711802785
0.000809286160881
0.00070558492959
0.000698244603575
0.000499282367735
0.000581990255271
0.000706685783466
0.000803673511314
0.000869997951717
0.000910638252949
0.000932438154202
0.000942088203186
0.000945272967802
0.000945853025149
0.000945667605007
0.000944762216448
0.000941337169645
0.000931547395679
0.000909690622554
0.000869045180666
0.000802742663035
0.000705774559584
0.000581043312078
0.000498120320875
0.000259497100893
0.000498950824426
0.000699737914999
0.000838739404793
0.000925818114829
0.000973780292691
0.000995274965359
0.00100139268394
0.00100101293307
0.000999521633018
0.00099914143596
0.000999973435514
0.000999878079256
0.000993513277249
0.00097196244468
0.000924095491819
0.000837250724359
0.000698609594651
0.0004983162352
0.000259514547928
0.000284344440457
0.000591912545151
0.000850712830426
0.00103200874226
0.00114888502264
0.00121712760567
0.00125211049132
0.00126716994507
0.00127265787855
0.00127426549542
0.00127387371811
0.00127153826943
0.00126548091568
0.00125003294041
0.00121486045227
0.00114664806253
0.0010300279396
0.000849192360801
0.000591049993497
0.000284403739699
0.000592234828031
0.00067040125568
0.000812448733807
0.000926576108011
0.00100753005636
0.00105981342885
0.00109034354845
0.00110608658579
0.00111314613527
0.0011156501025
0.00111549203179
0.00111269710324
0.00110541532427
0.00108952107715
0.00105891249373
0.00100659918412
0.00092562762552
0.000811448212058
0.000669220094498
0.000590475525577
0.000851277372123
0.000812710312129
0.000915793809971
0.00100895972127
0.00107817987811
0.00112422088366
0.00115188407126
0.00116648765387
0.00117300178306
0.00117519003118
0.0011750280476
0.00117255523879
0.00116584334304
0.00115112303114
0.00112337398052
0.00107722610363
0.00100784392586
0.000914438518159
0.000810932843173
0.000848322436078
0.00103278575097
0.000927014451649
0.00100913720325
0.00109164235314
0.0011554967227
0.00119946746277
0.00122715819834
0.00124193822241
0.00124842105437
0.00125048115954
0.00125026457462
0.00124782271359
0.00124099932709
0.00122606947702
0.00119846774299
0.00115446708627
0.00109036408527
0.0010074875164
0.000924767110081
0.00102892364521
0.00114984973097
0.00100808073971
0.00107847021135
0.00115559870613
0.00121792211095
0.00126302696739
0.00129122432153
0.00130627594934
0.00131271695552
0.0013146314502
0.00131431714131
0.00131178669593
0.0013045965771
0.00128905016863
0.00126111953348
0.0012165966284
0.00115424960435
0.0010766358118
0.00100549729486
0.00114525092839
0.00121819409694
0.00106040793364
0.00112455914024
0.00119959956589
0.00126323006513
0.00130945168867
0.00133863493606
0.00135398228727
0.00136024394787
0.00136190057642
0.00136146550062
0.00135884922021
0.00135121485238
0.00133471508919
0.00130575461363
0.00126088078684
0.00119813674209
0.00112263963751
0.00105763501652
0.00121314992852
0.00125314986027
0.00109091486808
0.00115221693221
0.00122743501386
0.00129208084897
0.00133960005107
0.00136954481387
0.00138487040783
0.00139074801575
0.00139203737939
0.00139152063939
0.00138894197707
0.00138101547158
0.0013637634665
0.00133386580693
0.00128822988406
0.00122555802054
0.00115028687662
0.00108810782119
0.00124802801673
0.00126810502433
0.00110660004658
0.00116680400128
0.00124253575787
0.00130802696859
0.00135638978516
0.00138666932885
0.00140157122188
0.00140679146354
0.00140759860629
0.00140704674516
0.00140480513149
0.0013970900224
0.00137958391186
0.00134913640897
0.00130297272377
0.001240131141
0.00116489552562
0.0011038866913
0.00126321408503
0.00127347860373
0.00111360494773
0.00117334010477
0.00124930326809
0.00131515341986
0.00136378186352
0.00139394195098
0.00140828150591
0.00141268156548
0.00141292137182
0.00141237232424
0.00141066271177
0.00140355167127
0.00138632733378
0.00135584782857
0.00130953674354
0.00124661516293
0.00117144184508
0.0011110223578
0.00126894611695
0.00127505255849
0.00111609073709
0.00117559152331
0.00125155974292
0.00131746093289
0.00136606385113
0.00139600885079
0.00140991189643
0.00141372242349
0.00141355313247
0.00141299817964
0.00141167548188
0.0014050749966
0.00138822555044
0.00135792338064
0.00131167246176
0.00124877183128
0.00117368114731
0.00111357578203
0.00127074065118
0.00127479142492
0.00111597821316
0.00117551449752
0.00125151152345
0.00131744358655
0.00136607550375
0.00139604409848
0.00140995066485
0.0014137504988
0.00141357461281
0.00141302343968
0.0014117131532
0.00140511465501
0.00138825566434
0.001357930213
0.00131164742226
0.00124871164519
0.00117358086662
0.00111342078154
0.00127040054345
0.00127268030825
0.00111326252091
0.00117310672342
0.0012491574749
0.00131510412405
0.0013638330431
0.00139406810424
0.00140842804773
0.00141280713958
0.00141303777293
0.00141250644654
0.00141080792057
0.00140369651448
0.00138643711758
0.0013558770805
0.0013094652144
0.00124643885936
0.00117115277261
0.00111058249729
0.00126797665211
0.00126682516622
0.0011060606066
0.00116642767949
0.00124230555274
0.00130797384557
0.00135654391997
0.00138700381439
0.00140199121547
0.00140721597998
0.00140801623813
0.00140747247842
0.00140522802035
0.00139748003231
0.00137986866336
0.00134924166952
0.00130288118753
0.00123985529905
0.00116444599377
0.00110322027899
0.00126172610162
0.00125154776186
0.0010902471197
0.00115172494318
0.00122711285798
0.00129199469265
0.00133982385181
0.00137006088874
0.0013855630022
0.00139148920199
0.00139277873504
0.0013922610151
0.00138966483903
0.001381660313
0.00136421181406
0.00133402898897
0.00128808871727
0.00122517517597
0.00114970943962
0.0010872957128
0.00124620101032
0.00121648691669
0.00105969120989
0.00112397552104
0.00119911233111
0.00126297218458
0.00130953111951
0.00133904380195
0.00135460512021
0.00136094142645
0.00136260714933
0.0013621675004
0.0013595261177
0.00135179374171
0.00133506363832
0.001305765003
0.00126056050494
0.00119758423451
0.00112195819433
0.00105675892
0.00121119850033
0.001148251086
0.00100738431244
0.00107782926253
0.00115498081504
0.00121740190617
0.00126273138732
0.00129120018231
0.0013064287203
0.00131293386922
0.00131485378337
0.00131452905741
0.00131197403193
0.00130470153587
0.0012889611478
0.00126075437728
0.0012160133587
0.00115355032201
0.00107588108812
0.00100463033793
0.00114339214944
0.00103146122259
0.00092637861783
0.00100846148461
0.00109091677306
0.00115476283504
0.00119877419975
0.00122660271508
0.00124143786108
0.0012479325736
0.00124998266551
0.00124975221552
0.00124729531118
0.00124043555729
0.00122542639555
0.00119768803177
0.00115363854379
0.00108952941207
0.00100667799756
0.000923954696938
0.00102733633782
0.000850322017724
0.000812134141223
0.000915082226548
0.00100812330204
0.00107726110442
0.00112325281486
0.00115088947057
0.00116545100133
0.00117192006184
0.00117407268761
0.00117388867782
0.00117141193983
0.00116470950194
0.00115000909687
0.00112227472994
0.00107616884092
0.00100686326969
0.000913573245952
0.000810183156691
0.000847134172669
0.000591721673247
0.000669837124218
0.000811648930102
0.000925572685943
0.0010063537743
0.00105849118513
0.00108890354205
0.0011045483489
0.00111151999266
0.00111396287264
0.00111376986336
0.00111097527671
0.00110372453397
0.00108789885836
0.00105739536651
0.00100522653975
0.000924434508446
0.000810470979093
0.00066849329878
0.000589803047703
0.000284376322994
0.000591176283453
0.000849509002429
0.00103045080394
0.00114697945829
0.00121489335937
0.00124960489827
0.00126445905804
0.00126978024956
0.00127127368401
0.00127081499076
0.00126848145007
0.00126249457916
0.00124721666322
0.00121230975109
0.00114443316758
0.00102818191477
0.000847744167079
0.000590152079596
0.000284411756015
0.000306359349218
0.000681185495832
0.000994757937782
0.00121639874143
0.00136377441745
0.00145509690703
0.00150736794707
0.0015349948
0.00154904170498
0.00155510705548
0.00155481364144
0.0015481668184
0.00153364498054
0.00150558309518
0.0014529699198
0.00136156228462
0.00121443595416
0.000993295446122
0.00068037415856
0.000306458143143
0.000681714090016
0.000751017663889
0.000909043427432
0.00103864890664
0.00113244155352
0.00119486770097
0.00123310199976
0.00125430798224
0.00126487068745
0.0012690846851
0.00126895530416
0.00126450685992
0.00125378835982
0.00123249314701
0.00119423390988
0.00113180070018
0.00103798045117
0.000908249371888
0.000749833931698
0.000679450192379
0.000995664599462
0.000909401103917
0.00101390171871
0.0011130584948
0.00118826961099
0.00123946813764
0.00127134638858
0.0012889865031
0.00129750896651
0.00130070558899
0.0013005280715
0.00129702151748
0.00128823007386
0.00127045559988
0.00123871170208
0.00118755516333
0.00111217435206
0.00101269770939
0.000907550399017
0.000991863157622
0.00121764914287
0.00103922625825
0.00111328121229
0.00119530249102
0.00126063617829
0.00130648084141
0.00133579514174
0.00135162961587
0.00135888382445
0.00136134219417
0.00136100211633
0.00135788594975
0.00134987916268
0.00133357330399
0.00130459648195
0.0012593095111
0.00119421045565
0.00111175259263
0.0010368626556
0.00121254584829
0.00136534697991
0.00113315002146
0.00118864014986
0.00126079041681
0.00132157959229
0.0013654278522
0.00139281839698
0.00140727553554
0.00141340696611
0.00141516170113
0.00141461358995