/*--------------------------------*- C++ -*----------------------------------*\
| =========                 |                                                 |
| \\      /  F ield         | OpenFOAM: The Open Source CFD Toolbox           |
|  \\    /   O peration     | Version:  3.0.1                                 |
|   \\  /    A nd           | Web:      www.OpenFOAM.org                      |
|    \\/     M anipulation  |                                                 |
\*---------------------------------------------------------------------------*/
FoamFile
{
    version     2.0;
    format      ascii;
    class       surfaceVectorField;
    location    "5.3";
    object      Uf;
}
// * * * * * * * * * * * * * * * * * * * * * * * * * * * * * * * * * * * * * //

dimensions      [0 1 -1 0 0 0 0];

internalField   nonuniform List<vector> 
22672
(
(0.00150496645673 0.000383070663531 -0.0012242213717)
(0.00040284577116 0.00146882711368 -0.00122550588244)
(0.000986447933405 0.000965370713999 -0.00297380486044)
(0.00376575577842 2.26100144561e-05 -0.00122267081754)
(0.00225980121202 0.00101224006938 -0.00218429444061)
(0.00310591454302 0.000935365727947 -0.00327304013512)
(0.00604878422496 -5.88077193028e-05 -0.00105557673442)
(0.00506687482654 0.000973029639004 -0.00246099612508)
(0.00565066720118 0.00106489966875 -0.00325606820387)
(0.00775442320505 0.000104626184447 -0.000815234844924)
(0.00729839952523 0.00130324897749 -0.00235958585969)
(0.00766036182217 0.00139369872292 -0.00300889661969)
(0.00853049154106 0.000469075567183 -0.000592733814143)
(0.00869651839735 0.00194959948313 -0.00217011816679)
(0.00890029011451 0.00188914512611 -0.00272567559689)
(0.00825452271313 0.000875752749767 -0.000430344866262)
(0.00892678432836 0.00275364314066 -0.00197873268133)
(0.00902213357729 0.00246750097735 -0.00247768208868)
(0.00709888102192 0.00125268027809 -0.00032600075062)
(0.00816627302828 0.00346257966529 -0.00184720568219)
(0.00823028421131 0.00293445517875 -0.00230694665192)
(0.00519317033755 0.00158601477753 -0.000264177106195)
(0.00650475689042 0.00409627911248 -0.00175641906165)
(0.00655334664189 0.00337256107863 -0.00219057885926)
(0.00280199390271 0.00179674810413 -0.000243110664253)
(0.00420530562015 0.00454330314485 -0.0017228632126)
(0.00423806174815 0.00368172947304 -0.00215213957757)
(0.000184545649228 0.00186863191191 -0.000238940609183)
(0.00156319618717 0.00476984751948 -0.00171955196661)
(0.00157582680827 0.00383802017402 -0.0021524149834)
(-0.00243874878585 0.00180019820538 -0.000240265529673)
(-0.00119091056795 0.00477341640523 -0.00171816416048)
(-0.00120017861944 0.00384060109913 -0.00215014058265)
(-0.00484698697377 0.00159163700537 -0.000257999262665)
(-0.00384650019477 0.00455281992664 -0.00171823312077)
(-0.00387524255507 0.00368870314549 -0.00214460281405)
(-0.00677874405375 0.00125885247748 -0.000316079152335)
(-0.00617028948956 0.00410876932364 -0.00174842738883)
(-0.00621395336865 0.00338189437044 -0.0021770348508)
(-0.00796694290554 0.000880306988139 -0.000417449985179)
(-0.00786391852932 0.00347533191941 -0.00183622178652)
(-0.00792262237208 0.00294436790727 -0.00228715595435)
(-0.00827877521739 0.000473618789617 -0.000577546839337)
(-0.00865913925857 0.00276569053138 -0.00196650513326)
(-0.0087493789719 0.00247589968156 -0.00245388014164)
(-0.00754549614488 0.000111413830496 -0.000798788369878)
(-0.00846947587648 0.00196546579138 -0.00215740524999)
(-0.00866949935637 0.00190246143122 -0.00269876497968)
(-0.00588631389897 -4.95115491338e-05 -0.00103939268644)
(-0.00711513713002 0.0013228343902 -0.00234753669674)
(-0.00747610894762 0.00140939507434 -0.00298203504444)
(-0.00365407452882 3.54911971031e-05 -0.00120714408446)
(-0.00493217982281 0.000998055722869 -0.00245048013981)
(-0.00551716564854 0.00108442261652 -0.00323031327858)
(-0.0014473245926 0.000400190312661 -0.00120926218893)
(-0.00217313495849 0.00104163511097 -0.00217337973812)
(-0.00302441258016 0.000957158075564 -0.00324840625629)
(-0.000368663057156 0.00150215216586 -0.00120880587249)
(-0.00095721366043 0.000988433046415 -0.00294949367742)
(0.00104488088541 0.0022090643984 -0.00218557895134)
(4.20932216283e-05 0.00370112641099 -0.00123005530464)
(0.000953470284511 0.0030535301898 -0.00327719056213)
(0.00366611612032 0.00209137572058 -0.00342261974815)
(0.00213945842444 0.00360669111082 -0.00342466985448)
(0.00319321441309 0.00314528706977 -0.00521569596567)
(0.00638986365561 0.00248915024696 -0.00376500525034)
(0.00550213477409 0.00403548847671 -0.00413290595128)
(0.00594449754675 0.00360533635997 -0.00578621503869)
(0.00834332198136 0.00334501428528 -0.00371446918156)
(0.00809681714506 0.00504207365175 -0.00409281339214)
(0.00803934323968 0.0044969362485 -0.00569229024355)
(0.00919193466453 0.00448272590891 -0.00355611703398)
(0.00963140885475 0.00649006160827 -0.00383678333262)
(0.0092377945039 0.00570051917695 -0.00538908135198)
(0.00889691633417 0.00563609133737 -0.00339559349726)
(0.00987926996231 0.00809612576335 -0.00355042243409)
(0.00935172374863 0.00699220291605 -0.00504747105731)
(0.00758119456621 0.00664064599696 -0.00327762399321)
(0.0089525359381 0.00954515646691 -0.00332741132613)
(0.00845075104162 0.00814478561387 -0.00476686290808)
(0.00550958283716 0.00742021241163 -0.00321510516805)
(0.0070732945945 0.010747378267 -0.00319191189251)
(0.00668797094841 0.00909948802748 -0.00457949720851)
(0.002959862689 0.00790340912202 -0.00319930451496)
(0.00454348137097 0.0115891624239 -0.0031452404112)
(0.00431233894006 0.009766014789 -0.00449615145527)
(0.00018801998887 0.00806862162101 -0.00319877551791)
(0.00167752850975 0.0120182570272 -0.00314343503896)
(0.00160203500901 0.0101058189975 -0.00447658203805)
(-0.00259087346108 0.00791341325766 -0.00319613175157)
(-0.00129472648206 0.0120262300745 -0.00314127275635)
(-0.00121807954573 0.0101128352332 -0.00447393832231)
(-0.00516081373163 0.00743720175745 -0.00320866124693)
(-0.00417762381061 0.0116104889213 -0.00313865443442)
(-0.00394325992954 0.00978499052386 -0.004487749158)
(-0.00726197864928 0.00666037286413 -0.00326857002301)
(-0.00673689788492 0.0107755580257 -0.00318209470325)
(-0.00634562462123 0.0091252280301 -0.0045656455201)
(-0.00861196693422 0.00565679714818 -0.0033852769346)
(-0.00865147799085 0.00957407856112 -0.00331600473312)
(-0.00814245831943 0.008172444051 -0.00474878010486)
(-0.00894565385693 0.00450663050185 -0.00354636354392)
(-0.00961400922526 0.00812639043735 -0.00353878663376)
(-0.00908030301528 0.00702220701729 -0.00502703361412)
(-0.00813866663619 0.00337464131903 -0.00370615357685)
(-0.00940570155418 0.0065267105854 -0.00382646165952)
(-0.00900858684033 0.00573689509477 -0.00536825106957)
(-0.00623112634301 0.00252584155113 -0.00375862415011)
(-0.00791394564134 0.00508702546676 -0.00408359010497)
(-0.00785631414763 0.00454112759216 -0.00567174945325)
(-0.00355529840357 0.00213459301922 -0.00341671579346)
(-0.00536734230472 0.00408995020182 -0.004125440718)
(-0.00581221561788 0.00365760058966 -0.00576774145193)
(-0.000984907588787 0.00225619177582 -0.00217292342168)
(-0.00205038161961 0.00366725173205 -0.00341559968869)
(-0.00310959278269 0.00320189405789 -0.00519603042517)
(-4.43416220285e-06 0.00376213961216 -0.00120857755796)
(-0.000921812268927 0.00310901023123 -0.00324491353218)
(0.00100587534116 0.00499502093755 -0.00246914620778)
(-3.92211128685e-05 0.00596747518454 -0.00106762019744)
(0.00108268809468 0.00557574456592 -0.00327223317682)
(0.0040930929971 0.00543404887316 -0.00413495605761)
(0.00253604727224 0.00631206127282 -0.00377127784299)
(0.00365184695365 0.00587452783606 -0.00579259591336)
(0.00728045342428 0.00645613565505 -0.00446071409308)
(0.00652198278276 0.00720538904111 -0.0044625989715)
(0.00675643868239 0.00668936041877 -0.00635726810241)
(0.00950524187321 0.00802673057005 -0.0042151275432)
(0.00954431688465 0.00880227256553 -0.00415951307381)
(0.00904746840271 0.00807465641207 -0.00598499337953)
(0.010415617616 0.00989931626313 -0.00383108873272)
(0.0112507690887 0.0108874923801 -0.00357107816355)
(0.0102843904654 0.00983985411918 -0.00530781214373)
(0.0100023552378 0.0117506077852 -0.00348224026296)
(0.0114396458688 0.0131114331393 -0.00297794384474)
(0.010321002294 0.01170419343 -0.00460205101287)
(0.00845492053934 0.0133482735306 -0.00324169922542)
(0.0102643618787 0.0151200137702 -0.00251782502296)
(0.00923584174549 0.0133904372883 -0.004027429711)
(0.00609589185384 0.0145691017465 -0.00312204713566)
(0.00803188999141 0.0167557516509 -0.00223837941144)
(0.00724625682745 0.0147643539593 -0.00364935353198)
(0.00325306409202 0.015327952246 -0.0030893709352)
(0.00511610385866 0.0178950502975 -0.0021295927476)
(0.00464280000466 0.0157219277769 -0.00346307123339)
(0.000195172480623 0.0155897789815 -0.00308593227741)
(0.00187169500659 0.0184763935805 -0.00210833073582)
(0.00171525487947 0.0162137726698 -0.00340025873591)
(-0.00287219548267 0.0153465874933 -0.0030837954392)
(-0.00147112275555 0.0184887701584 -0.00210396465343)
(-0.00131781981567 0.0162255419043 -0.00339518862938)
(-0.00574112846254 0.0146005510615 -0.00311208789074)
(-0.00473866967535 0.0179279960631 -0.00211744013751)
(-0.00426481333893 0.0157535182436 -0.00344859293755)
(-0.00813482893244 0.0133844962892 -0.00322952941336)
(-0.00769232892047 0.0167980381548 -0.00222218507488)
(-0.00690110441194 0.0148062199625 -0.00362879978128)
(-0.00971835286958 0.0117881666241 -0.00346951443228)
(-0.00996432231016 0.0151616608216 -0.00250143477775)
(-0.00892772595136 0.0134342618322 -0.00400407866222)
(-0.0101686228302 0.00994132227191 -0.00381888474937)
(-0.0111744007735 0.0131532566812 -0.00296212019162)
(-0.0100494764991 0.0117501130921 -0.00457661596629)
(-0.0092977510352 0.00807740384119 -0.00420389818764)
(-0.0110207931613 0.0109363966713 -0.00355540861824)
(-0.0100520771401 0.00989307743232 -0.0052805768205)
(-0.00711781320333 0.0065174493895 -0.00445040667286)
(-0.00935486840769 0.0088630936703 -0.00414342449876)
(-0.00885964918643 0.0081387296305 -0.00595602523566)
(-0.00397890712553 0.00550428948726 -0.00412432461322)
(-0.00638086378194 0.00727896668141 -0.00444681204694)
(-0.00661957651732 0.00676465264615 -0.00632794420572)
(-0.000943477307657 0.00506790180066 -0.00245125382496)
(-0.0024419515379 0.00639333700863 -0.00375386901518)
(-0.00356418349277 0.00595645573053 -0.00576154215624)
(8.00097908149e-05 0.0060464641047 -0.00103831475039)
(-0.0010486467422 0.00565607390365 -0.00322782370364)
(0.00133473981975 0.00721252060108 -0.00236975183265)
(0.000124100209541 0.00766099961126 -0.000828074839631)
(0.00141114214112 0.00756958247387 -0.00302827091148)
(0.00509793884155 0.00801412547393 -0.00409892075687)
(0.00339112183688 0.00825415191115 -0.00372260823533)
(0.00454204973313 0.00795283320327 -0.00570529550752)
(0.00887526213331 0.0094642419888 -0.00416139795223)
(0.00809189098597 0.00941928510853 -0.00422001392936)
(0.00814004069489 0.00896395049452 -0.00599122452853)
(0.0114382229914 0.0115356110529 -0.00351546369416)
(0.0116143727735 0.0113561220136 -0.00351635435195)
(0.0107275157241 0.0106465911545 -0.00511681483868)
(0.0123931798981 0.0139187549959 -0.00271793327557)
(0.0135180876995 0.0137982803582 -0.00245537312362)
(0.0120356325706 0.0127499937724 -0.00386574936263)
(0.0117713726234 0.0162458882644 -0.00201352860474)
(0.01360287587 0.016356783597 -0.00141584611343)
(0.0119379133339 0.0149467605056 -0.00262354810937)
(0.00985443611585 0.0182462152882 -0.00151450520898)
(0.0120932281411 0.0186527721395 -0.000592146393581)
(0.0105674907795 0.0169319368387 -0.00161582762083)
(0.00704052663773 0.0197647330396 -0.00124592502339)
(0.00938599905811 0.0205168875116 -5.90161729859e-05)
(0.00820837928865 0.0185394844625 -0.000947233354473)
(0.00372686125856 0.020704175339 -0.00114855254821)
(0.00593583170403 0.021815059 0.000193849024168)
(0.00521441130167 0.0196568537092 -0.000606351956483)
(0.000205966498415 0.0210284372916 -0.00112636311184)
(0.00215248885563 0.0224787944521 0.000276971286199)
(0.0019098433413 0.0202302014354 -0.000481516838231)
(-0.0033280493842 0.0207304670613 -0.00113760935174)
(-0.00172625658686 0.0224949301058 0.000285474342355)
(-0.00149278866013 0.0202462019927 -0.000472157095362)
(-0.00667715048829 0.0198080206015 -0.00122753732165)
(-0.00554280970614 0.0218575535601 0.000216465082864)
(-0.00482451189923 0.0196995838337 -0.000580471514911)
(-0.00953396801958 0.0182936123237 -0.00149409043927)
(-0.00904451628239 0.020568920768 -3.15704222313e-05)
(-0.00786143206529 0.0185944140146 -0.000914081658176)
(-0.0114881091116 0.0162915248851 -0.00199404053709)
(-0.0117977017636 0.018699334542 -0.000568433628914)
(-0.0102623041773 0.0169856498252 -0.00158354987556)
(-0.0121426180913 0.013966875241 -0.0026986440605)
(-0.0133389429153 0.0163991005584 -0.00139590777724)
(-0.0116668513284 0.0149982945963 -0.00259135236344)
(-0.0112225591623 0.0115935271624 -0.00349493492937)
(-0.0132815640932 0.0138454090783 -0.00243407893094)
(-0.011797841415 0.012806615923 -0.00382908937494)
(-0.00870292341784 0.00953572371274 -0.00413982987285)
(-0.0114137361614 0.0114170268075 -0.0034905554577)
(-0.0105302439446 0.0107156151988 -0.00507358883493)
(-0.00497558529082 0.00809683595236 -0.0040763564489)
(-0.00794018253886 0.00949563942231 -0.00419180369885)
(-0.00799364301781 0.00904689066942 -0.00594403504914)
(-0.00126723246632 0.00729778406315 -0.00234092994061)
(-0.00328978358301 0.00833976800226 -0.00369219959588)
(-0.004446847969 0.00804458533146 -0.00565481493294)
(-8.01436156717e-05 0.00774406687787 -0.000788946702554)
(-0.00137307876039 0.00765998724026 -0.00296486029651)
(0.00198168011905 0.00860097672629 -0.00218093124231)
(0.000489422523276 0.00842927444581 -0.000607719900569)
(0.00190672922198 0.00880038728311 -0.00274995963456)
(0.00654612866126 0.00953993411968 -0.00384370140782)
(0.00453027460127 0.00909452917833 -0.003565964165)
(0.00574559673599 0.00914109748158 -0.00540482997914)
(0.010960676132 0.0111639495591 -0.00357497032909)
(0.00996700257374 0.0103232289132 -0.00383784407112)
(0.00990547758093 0.0101912953541 -0.00531849517457)
(0.0138784740606 0.0134356417492 -0.00245626378141)
(0.0140002463013 0.0123074182285 -0.00271859330637)
(0.0128304885659 0.0119473296625 -0.00386909790861)
(0.014860975999 0.0160240329529 -0.00115328596148)
(0.0161060325111 0.0147806133292 -0.00115015359614)
(0.0142143470129 0.0141293932111 -0.00196483892476)
(0.013985659206 0.0185365642491 5.53609772989e-06)
(0.0160424210418 0.0173374281572 0.000379758343017)
(0.0139504826803 0.0164045719175 -0.000105332169621)
(0.0116236490622 0.0206886752014 0.000863342642414)
(0.0141576692462 0.0196197970877 0.00159591244582)
(0.0122444464425 0.0184613868701 0.00139498044539)
(0.00825967446248 0.022326748106 0.00138075787457)
(0.0109221227306 0.0214769526042 0.00240774774783)
(0.00944911172162 0.0201298438416 0.002403904362)
(0.00435176216744 0.0233461165492 0.00161937285858)
(0.00686974228007 0.0227731226288 0.0028248080963)
(0.00597186203878 0.0212962379686 0.00294984280743)
(0.000220783808462 0.0237008308238 0.00168880874039)
(0.00247356666666 0.0234391682923 0.00297682976855)
(0.00217189640545 0.0218987495529 0.00317059742084)
(-0.00392931247182 0.0233783167416 0.00163954877696)
(-0.00201712684736 0.0234578903506 0.00299103226975)
(-0.00172906348009 0.0219184411226 0.00318712721978)
(-0.00788719703552 0.0223780297609 0.00141243198228)
(-0.00646057848381 0.0228227247711 0.00286155669206)
(-0.00556796829723 0.0213485651364 0.00299270265948)
(-0.0113070622726 0.0207403048353 0.000894086388126)
(-0.0105838131956 0.0215354502978 0.00244731044157)
(-0.00910467264185 0.0201945253659 0.00245332334256)
(-0.0137081689695 0.0185806370065 2.96991309425e-05)
(-0.0138727543219 0.019665917162 0.00162195766816)
(-0.0119499003315 0.0185185663907 0.00143451034061)
(-0.0146089878912 0.0160661291523 -0.00113134264768)
(-0.0157833812981 0.0173741600752 0.000396739113097)
(-0.0136859520662 0.0164538499838 -7.4255755835e-05)
(-0.0136528754881 0.0134859560605 -0.00242969945928)
(-0.0158631137455 0.0148173003518 -0.00113112528773)
(-0.0139724962222 0.0141783508235 -0.00192802105148)
(-0.0107755227369 0.0112293535554 -0.00354252928371)
(-0.0137856391231 0.0123567442957 -0.0026884204935)
(-0.0126216284717 0.0120076694703 -0.00381709140459)
(-0.00641369237167 0.00961840331135 -0.00380764684583)
(-0.00980204731428 0.0103888009036 -0.00379982427777)
(-0.00974679018468 0.0102669421341 -0.00525501906021)
(-0.00190907994177 0.00868334844106 -0.00214021635782)
(-0.00442061723846 0.00916968116146 -0.00352491534444)
(-0.00564154644082 0.00922670358042 -0.00533456109533)
(-0.000442077233202 0.00850313177484 -0.000560698453041)
(-0.00186501145313 0.00888564177329 -0.0026681729486)
(0.00278753516879 0.00882529871211 -0.00199275282326)
(0.000896806834698 0.00814811303971 -0.000447307113936)
(0.0024864890699 0.00891767345059 -0.00250637706279)
(0.00815603442887 0.00978227080343 -0.0035601068283)
(0.00568640764618 0.00879429338417 -0.00340835623614)
(0.00703944104884 0.00924902683424 -0.00506826659493)
(0.0131898545956 0.0113489930311 -0.0029814670484)
(0.0118234930963 0.00990425438161 -0.00348952385542)
(0.0117737227347 0.0102219510362 -0.00461484891191)
(0.0164409075298 0.0135193380107 -0.00141248312109)
(0.0163336829759 0.0116799122867 -0.0020102682664)
(0.0150313121896 0.0118451006272 -0.0026235506041)
(0.0174183550934 0.0159627126277 0.000382890708365)
(0.0186219878392 0.0139002113197 1.72408784293e-05)
(0.0164905797562 0.0138631128171 -9.70496313351e-05)
(0.0162549587609 0.0182993454562 0.0019701346911)
(0.0183793335866 0.0161712175937 0.00197685916615)
(0.0160449137786 0.015959483143 0.00232960266647)
(0.013423468901 0.0202955936147 0.00314031755124)
(0.0161327225148 0.0181899221229 0.00351439039398)
(0.0139999418833 0.0178546864512 0.00426136096262)
(0.00949186777718 0.0218181526949 0.00385179796957)
(0.0123828786712 0.0198497566953 0.00455107606132)
(0.0107507764119 0.0193998945912 0.00555879385985)
(0.00497891373496 0.0227662076793 0.00418226500628)
(0.00774739097804 0.0210223911332 0.0050900727936)
(0.00676455677115 0.0204824396194 0.00626368286188)
(0.000235614254752 0.0230981471268 0.00427905329791)
(0.00277302074331 0.0216331224813 0.00528888250906)
(0.00244591963022 0.0210450077968 0.00654934243373)
(-0.00453384752839 0.0228024054367 0.00421304018486)
(-0.00228619821761 0.0216527883074 0.00530920511168)
(-0.00197490479912 0.0210673727211 0.00657455993371)
(-0.00911483695539 0.0218752110158 0.00389643515135)
(-0.00732358933603 0.0210756353582 0.00514165008317)
(-0.00634751382907 0.0205422637882 0.0063280732539)
(-0.0131173800066 0.0203492054623 0.0031751817216)
(-0.0120532167874 0.0199118785723 0.00459980873385)
(-0.0104150955944 0.019472163934 0.00562610716196)
(-0.0159876107202 0.0183390093668 0.00198899765031)
(-0.0158634209246 0.0182356841165 0.00353441599134)
(-0.0137228487145 0.0179131009141 0.00430045386055)
(-0.0171673818075 0.0159952657141 0.000396956473049)
(-0.0181280488195 0.0162036974245 0.00198347479049)
(-0.0157919237207 0.0160043594574 0.00235022099223)
(-0.0162045947287 0.0135563868568 -0.00138984632196)
(-0.0183745978188 0.013929098445 2.66545587044e-05)
(-0.0162477136901 0.0139026248432 -7.46019070501e-05)
(-0.0129893084389 0.0113993122386 -0.00294571548756)
(-0.0161054614338 0.0117171606447 -0.00198329105834)
(-0.0148101631019 0.0118913400462 -0.002575725027)
(-0.00801142878274 0.00984488377368 -0.00351709277638)
(-0.0116449505014 0.00995503378731 -0.00344737937748)
(-0.0116007921887 0.0102818806323 -0.00454414262543)
(-0.00270847761831 0.00889201536983 -0.00194539743965)
(-0.00556842358753 0.00885361997384 -0.00336118746319)
(-0.00692541123148 0.00931752630357 -0.00498692943399)
(-0.000847108711554 0.00820761922096 -0.000396445965548)
(-0.00243902947593 0.00898536257548 -0.00241299564705)
(0.00349805447878 0.0080598711204 -0.00186291052682)
(0.00127392929448 0.00698831022872 -0.000344218394106)
(0.00295410850129 0.00812180697908 -0.00233825395627)
(0.00960956655101 0.00884962557567 -0.00333777326327)
(0.00669259534059 0.00747287581815 -0.00329177612789)
(0.00819432046429 0.00834273662904 -0.00479009689929)
(0.0152049274336 0.0101661416126 -0.00251832507342)
(0.0134250320218 0.00834829382817 -0.00324884404002)
(0.0134645426037 0.00912952796654 -0.00403940321997)
(0.0187422497867 0.0120007414979 -0.000580544266876)
(0.0183394003868 0.00975037809222 -0.00150709006541)
(0.0170211020006 0.0104651441955 -0.00160779172479)
(0.0197032356639 0.0140694252681 0.00161120933621)
(0.02077807788 0.0115223636837 0.000884331940273)
(0.0185490508379 0.0121462347344 0.00141685767929)
(0.0182737458883 0.0160465569953 0.00352111486903)
(0.0203782535637 0.0133227750197 0.00316126418244)
(0.0179398709701 0.0139047264376 0.0042779285406)
(0.0150180585129 0.0177514350472 0.00492514890407)
(0.0178377532581 0.0149169068936 0.0049366104019)
(0.0155984641589 0.0155052014772 0.00652870008323)
(0.0105747242067 0.0190697947972 0.00578935088536)
(0.0136402410026 0.0162418218431 0.00616786643798)
(0.0119385309484 0.0168306851657 0.00805126860028)
(0.00552600779739 0.0198910927777 0.00619669029639)
(0.00849757402557 0.0171855006316 0.00677627818894)
(0.00748654262153 0.0177722372133 0.00888560821845)
(0.000250017497873 0.0201766936548 0.00631903432283)
(0.00303129315078 0.0176787701606 0.00689982050788)
(0.00269674979567 0.0182627748236 0.00923034488761)
(-0.00505889728192 0.0199259135904 0.00623781500999)
(-0.00251761189671 0.0176957679912 0.00692007447316)
(-0.002194497596 0.0182849175956 0.00926593700349)
(-0.0101950945725 0.0191268463338 0.00584502366568)
(-0.00806143833154 0.0172354192607 0.00682335447393)
(-0.0070542073269 0.0178324560023 0.00897641369517)
(-0.0147254775629 0.0178056857698 0.0049590430036)
(-0.0133176118988 0.0163015740073 0.00622546644954)
(-0.0116125708884 0.0169048497853 0.00814068529441)
(-0.0180198501227 0.0160850190062 0.00352889313152)
(-0.0175843680152 0.0149623741339 0.0049487441742)
(-0.0153407808917 0.0155638760981 0.00656767693185)
(-0.0194559481579 0.0140981477976 0.00161317287614)
(-0.0201358956854 0.013354664224 0.00315700352238)
(-0.0177002011422 0.0139480634024 0.00428512126483)
(-0.0184989907394 0.0120301668712 -0.000566790177678)
(-0.0205295796293 0.0115482466249 0.000883803611483)
(-0.0183086093581 0.012181318106 0.00142387869843)
(-0.0149914325763 0.0102045855196 -0.00248495494826)
(-0.0181021106725 0.0097810260677 -0.00148541940635)
(-0.0167916967263 0.0105020995825 -0.00157144662555)
(-0.00945445825112 0.00889761730972 -0.00329147406429)
(-0.0132372817946 0.00838695242718 -0.00320617999164)
(-0.0132798037702 0.00917529770692 -0.0039689250941)
(-0.00341496090561 0.00811218925859 -0.00181223598909)
(-0.00656949272906 0.00751733120316 -0.00324180214932)
(-0.00807249972921 0.00839454203308 -0.00470325081614)
(-0.00122387687004 0.00703381311049 -0.000292894385928)
(-0.00290464420087 0.00817374960176 -0.00224118690396)
(0.0041318755194 0.0063937219557 -0.00177308399517)
(0.00160668143743 0.00507967054834 -0.000283107984618)
(0.00339191863613 0.00644141079513 -0.00222323716669)
(0.0108131706605 0.00696255455804 -0.00320284690464)
(0.00747073183587 0.00539609314477 -0.00323018560198)
(0.00914874590172 0.00657413628306 -0.00460451403927)
(0.0168435979609 0.00792053606811 -0.00223760903201)
(0.0146448227143 0.0059794728747 -0.00313032415546)
(0.0148394751361 0.00713006124865 -0.00366160860186)
(0.0206100451241 0.00927423133875 -4.22138582607e-05)
(0.0198575064071 0.00691934632313 -0.00123875194571)
(0.0186301137449 0.00809024556257 -0.000935418468641)
(0.0215638232169 0.0108095230326 0.0024343867865)
(0.02241533069 0.00813362999928 0.00140397330432)
(0.0202185990779 0.00932981395116 0.00243495216126)
(0.0199363196774 0.0122684204522 0.00457675971531)
(0.021899219084 0.00935905439599 0.0038789953244)
(0.0194868051722 0.0106302030118 0.00559122160771)
(0.016345356529 0.013523259337 0.00617932793581)
(0.0191531494451 0.010434398307 0.00581116018925)
(0.0169251386368 0.0118153740463 0.00807347151004)
(0.0114714756527 0.0145001435302 0.00715479374156)
(0.0146165559682 0.0113251516789 0.00715442629685)
(0.0129326424531 0.0128055316128 0.00979055411223)
(0.00596463594268 0.0151440574478 0.00747940840043)
(0.00910757721726 0.0119639357085 0.00759998138097)
(0.00809796898079 0.0135207701477 0.010728410894)
(0.000260625925214 0.0153898385196 0.0075008606582)
(0.00323721637621 0.0123214497013 0.00767039811858)
(0.00291517747243 0.0139142100612 0.0110613387479)
(-0.00548271530208 0.015178990877 0.0075056139371)
(-0.00270315181264 0.0123357562551 0.00768979092212)
(-0.00238191059526 0.0139331318962 0.0111033614084)
(-0.0110849799123 0.0145530765396 0.0072037972578)
(-0.00865843150764 0.0120037198394 0.00764378359967)
(-0.00764796195651 0.0135736277516 0.0108339707974)
(-0.0160623312859 0.0135723725352 0.00621516762014)
(-0.0143001500412 0.0113717455212 0.00720063655446)
(-0.0126090266355 0.0128689269197 0.00990718343728)
(-0.0196940997119 0.0123062196406 0.00457685456506)
(-0.0189089337679 0.0104751360963 0.00582274820698)
(-0.0166816619109 0.0118689376251 0.00811900552422)
(-0.0213221557996 0.0108375430387 0.00242763425772)
(-0.0216638082951 0.00938911562099 0.00387042407196)
(-0.0192582725005 0.010670145979 0.00559359793512)
(-0.0203642472039 0.00930092610984 -3.48256171907e-05)
(-0.0221676339274 0.00815827254562 0.00139892056647)
(-0.0199822153664 0.00936179883521 0.00243205143995)
(-0.0166240065846 0.00795161306212 -0.00220664444973)
(-0.0196165038267 0.00694662426039 -0.00121879329648)
(-0.0183972982691 0.00812240448113 -0.000905861618144)
(-0.0106535861264 0.00699827577349 -0.00315650807666)
(-0.0144539079684 0.00600956566131 -0.00308783465652)
(-0.0146495370725 0.0071653349509 -0.00359306664596)
(-0.0040474836006 0.00643213800069 -0.00172246054616)
(-0.00734647040509 0.00542875760136 -0.00318049488071)
(-0.00902432958817 0.00661155218906 -0.00451757247041)
(-0.00155697735404 0.00511354751839 -0.000232872218418)
(-0.0033419257567 0.00647845263463 -0.00212725062532)
(0.0045767002448 0.00409113342783 -0.00174020959142)
(0.0018158296709 0.00268822009128 -0.000262366465959)
(0.00369920588877 0.00412390669431 -0.00218524992879)
(0.0116513372653 0.00442616873663 -0.00315766285281)
(0.00794954022327 0.0028444734503 -0.00321516009782)
(0.00981118770813 0.00419438207624 -0.0045230176791)
(0.0179784490852 0.00499199808838 -0.00213146706916)
(0.0153973248968 0.00313115134917 -0.00310020074318)
(0.0157919943029 0.00451830760973 -0.0034787913433)
(0.0219032538359 0.00580295712809 0.000207435216871)
(0.0207889854061 0.00359448865536 -0.00114581035187)
(0.0197410349823 0.0050813510349 -0.000599948894239)
(0.0228535267256 0.00672645669077 0.00284858184222)
(0.0234252449959 0.00420804004279 0.00163537696349)
(0.0213771707052 0.0058295098215 0.00297531522571)
(0.0211013893139 0.00759215716396 0.00511339579834)
(0.0228360562511 0.00482162056171 0.00419906806873)
(0.0205602520454 0.00661131642924 0.00628957096777)
(0.0172833208209 0.00833194908425 0.00678625855028)
(0.0199638857479 0.005355054113 0.00620546289454)
(0.0178581507972 0.0073203408843 0.00889741575959)
(0.0121084503413 0.00893707393556 0.00759961393625)
(0.0152538042717 0.00578448383093 0.0074698011802)
(0.0136449619461 0.00792073641082 0.010715545866)
(0.00631467970006 0.00934227186537 0.00779097109912)
(0.00951256916029 0.00613135000716 0.00778246155359)
(0.00855541060022 0.00837383048327 0.0116263681873)
(0.000269256492259 0.00948436242514 0.0078593283825)
(0.00337121596228 0.00631994756258 0.00792160907583)
(0.00307078286159 0.00860664802473 0.0120469399866)
(-0.00581791900531 0.00936270200189 0.00782796058469)
(-0.00282209644485 0.00632806655521 0.00794336381635)
(-0.00251302813039 0.00861847743829 0.0120948802729)
(-0.0117198940304 0.00897381819932 0.00764062289633)
(-0.00904995554614 0.00615388716893 0.00783703822815)
(-0.00808524895521 0.00840614137041 0.0117518207926)
(-0.0170029647126 0.00837145891165 0.0068082171413)
(-0.014936702786 0.00581514019538 0.00750694474796)
(-0.0133190211007 0.0079653748652 0.0108396852065)
(-0.0208656436414 0.00762365519116 0.00511631771388)
(-0.0197206266053 0.00538057999129 0.00622371795849)
(-0.0176187357381 0.00736019039537 0.00895723870026)
(-0.022615633666 0.00675169092726 0.00284171038071)
(-0.0226035642129 0.00484299421987 0.00419367904291)
(-0.0203375373597 0.00664292384458 0.00629610802856)
(-0.0216572216172 0.00582685028389 0.000214952887179)
(-0.0231781678913 0.00422701731156 0.00163139026879)
(-0.0211432206735 0.00585596685753 0.00297283125979)
(-0.0177578523621 0.00501732898295 -0.00209998350327)
(-0.0205473454284 0.00361596230984 -0.00112473580488)
(-0.0195080015954 0.00510789248588 -0.00056872904438)
(-0.0114914271223 0.00445274294213 -0.00311182146057)
(-0.015206344874 0.00315328762215 -0.00305715292546)
(-0.01560165039 0.0045449889815 -0.00341017981273)
(-0.0044929100847 0.00411911345879 -0.00169090655297)
(-0.00782587097956 0.00286788641696 -0.00316628462653)
(-0.00968740584485 0.00422125689891 -0.00443768928335)
(-0.00176690202273 0.00271268811208 -0.000213293356527)
(-0.00365020704744 0.00415046265136 -0.00209208290261)
(0.00479950689858 0.00144957713387 -0.00173731697236)
(0.00188586988865 7.42312669303e-05 -0.00025847614669)
(0.00385269250461 0.00146247937604 -0.00218551666628)
(0.0120733139884 0.00155916721818 -0.0031576979882)
(0.00810947750104 7.57425588064e-05 -0.00321533212751)
(0.0101444594698 0.00148437176675 -0.00450507485212)
(0.0185495479575 0.00174383092277 -0.00211454402589)
(0.0156507331163 7.60127999216e-05 -0.00309965302872)
(0.0162743546116 0.00158940203313 -0.00342109464495)
(0.0225546765323 0.00201164962769 0.000282131394746)
(0.0211017658161 7.65241331139e-05 -0.00112955201811)
(0.020301581816 0.00177259819388 -0.000487163851476)
(0.0235049822387 0.00231744560537 0.00298586318999)
(0.0237660097163 7.81581498811e-05 0.00169346388366)
(0.0219639722976 0.00202105961161 0.00317957673599)
(0.0216973953723 0.00260083820929 0.00529113516493)