/*--------------------------------*- C++ -*----------------------------------*\
| =========                 |                                                 |
| \\      /  F ield         | OpenFOAM: The Open Source CFD Toolbox           |
|  \\    /   O peration     | Version:  3.0.1                                 |
|   \\  /    A nd           | Web:      www.OpenFOAM.org                      |
|    \\/     M anipulation  |                                                 |
\*---------------------------------------------------------------------------*/
FoamFile
{
    version     2.0;
    format      ascii;
    class       surfaceVectorField;
    location    "2.9";
    object      ddt0(Uf);
}
// * * * * * * * * * * * * * * * * * * * * * * * * * * * * * * * * * * * * * //

dimensions      [0 1 -2 0 0 0 0];

internalField   nonuniform List<vector> 
45932
(
(0.000703432427703 -2.59561459511e-05 -0.000128089484157)
(0.000312341764023 0.000143006223782 -0.000287003888753)
(0.000453180433691 0.000132885337836 -0.000494670814945)
(0.00123474991532 -3.24230740826e-06 -5.78080462759e-05)
(0.00106133496828 0.000162805820516 -0.000352423537757)
(0.0011784034071 0.000215349375361 -0.000428492278566)
(0.00118724930489 0.000116174562302 -2.3560439239e-06)
(0.0014178391512 0.000419221916562 -0.000347404382256)
(0.00148181162893 0.000420185385103 -0.000395542897182)
(0.000542282496659 0.000230789664315 2.84442160484e-05)
(0.00101871403501 0.000661791828034 -0.000303619459866)
(0.00105466023846 0.000594272132727 -0.000339407852876)
(-0.000424243472115 0.000287619624675 3.59248789399e-05)
(0.000125929730381 0.000823241554617 -0.000294787132161)
(0.000128867136562 0.000711463496089 -0.000340088638661)
(-0.00145989143292 0.000256783739362 4.00625308437e-05)
(-0.000956251046597 0.000845686706076 -0.000284110225674)
(-0.000984585732177 0.000721591390741 -0.000327968861332)
(-0.00229423506715 0.000155584561205 3.87877513258e-05)
(-0.00199025651371 0.000718516093377 -0.000270439108464)
(-0.00204426425124 0.000620289313962 -0.00030142460991)
(-0.00272498855454 3.1418950423e-05 3.1971918048e-05)
(-0.00264353840378 0.000494578326958 -0.000260277396059)
(-0.00270420611871 0.000453645122073 -0.000279234883144)
(-0.00268154290197 -8.07968097813e-05 2.37987195646e-05)
(-0.00282578392696 0.000213295733553 -0.000226414355282)
(-0.0029007893434 0.000249993278389 -0.00023500627765)
(-0.00229343650878 -0.00013595791865 1.71970191915e-05)
(-0.00251450325336 -1.81398512698e-05 -0.000170780246475)
(-0.00258988714409 6.51428571283e-05 -0.000175889470313)
(-0.00180872983531 -0.000128102663509 1.15496334167e-05)
(-0.00203465935578 -0.000126390038369 -0.000110100555661)
(-0.00210195158836 -2.40023269194e-05 -0.000115975893798)
(-0.00139413728414 -9.85765385704e-05 7.02687016021e-06)
(-0.0015708430139 -0.00013847123968 -6.16835704656e-05)
(-0.00162139680311 -5.3371216274e-05 -6.89074480496e-05)
(-0.0011026249214 -6.55876537438e-05 4.50540992822e-06)
(-0.00121890182085 -0.000109750530473 -3.06625054503e-05)
(-0.00125266880843 -5.02380303352e-05 -3.61606897436e-05)
(-0.000927852805144 -3.81092335508e-05 2.68419549436e-06)
(-0.000995932602815 -7.08548948265e-05 -1.3259482763e-05)
(-0.00101651330375 -3.4908865138e-05 -1.67383122556e-05)
(-0.000839889021819 -1.90106931977e-05 7.10899463125e-07)
(-0.00087489952833 -3.77304711018e-05 -5.12033745345e-06)
(-0.000886753844911 -1.93824167104e-05 -6.48341573214e-06)
(-0.000802618901671 -7.50553660318e-06 -2.72260969311e-06)
(-0.000819753459856 -1.50849746586e-05 -3.10282837338e-06)
(-0.000827106993096 -8.00384614656e-06 -3.78187509422e-06)
(-0.0007798284186 -1.46474526637e-06 -9.08774059793e-06)
(-0.000794065642355 -2.9018796725e-06 -6.10954471913e-06)
(-0.000799767721339 -1.44432917787e-06 -8.70290631187e-06)
(-0.000735302871708 9.63269816973e-07 -1.93251705608e-05)
(-0.000762513693319 2.05308339035e-06 -1.42834495679e-05)
(-0.000768151785982 1.16900130388e-06 -2.44845969099e-05)
(-0.000641582912365 1.21707161484e-06 -3.25844897076e-05)
(-0.000693988242378 2.86690154549e-06 -2.67058026919e-05)
(-0.000700192747774 1.36117577411e-06 -4.98441356978e-05)
(-0.000485890328912 1.27317691919e-06 -4.83085808509e-05)
(-0.000568665873468 1.37930120574e-06 -4.10398023163e-05)
(-0.000576286637664 6.33669002888e-07 -7.92949953807e-05)
(-0.000288414123517 1.12612438528e-06 -5.88414483109e-05)
(-0.000391304271734 1.58507101485e-06 -5.89852568649e-05)
(-0.000396517335607 6.05533194619e-08 -0.000100363926037)
(-5.80842104763e-05 8.15046182304e-07 -5.98467782998e-05)
(-0.000176807847336 -5.80944129548e-07 -6.1713581986e-05)
(-0.000177375724587 -3.82872975515e-08 -0.000114623584321)
(0.000168260303855 1.08737474355e-06 -5.51260280832e-05)
(5.17167965078e-05 -5.54768965434e-07 -5.91876479978e-05)
(5.36585173637e-05 2.46195324906e-07 -0.000112677730982)
(0.000365297359828 1.33111756961e-06 -4.58186441145e-05)
(0.000262665958715 7.75386472968e-09 -5.10656162148e-05)
(0.000267008896284 7.05184446092e-07 -9.86129523466e-05)
(0.000518563803332 1.06598717457e-06 -3.43990208917e-05)
(0.000436724885486 4.10392126815e-07 -3.99028937403e-05)
(0.000442668462399 9.33479904712e-07 -7.71490815863e-05)
(0.000626765172073 4.50200795124e-08 -2.35479527839e-05)
(0.000566309108896 -3.10306217416e-07 -2.83722209551e-05)
(0.000572708676114 4.79069549388e-07 -5.39055012038e-05)
(0.000698378753583 -1.27886736798e-06 -1.49601766473e-05)
(0.000655253896042 -2.28988700469e-06 -1.8784984389e-05)
(0.0006609264129 -4.03898048364e-07 -3.36394118377e-05)
(0.000750366552795 -2.65916858299e-06 -1.020718492e-05)
(0.000716461248447 -4.06839518034e-06 -1.24211504325e-05)
(0.000720381604661 -1.49281388061e-06 -2.20559503906e-05)
(0.000797650920607 -4.14372816082e-06 -9.60180469682e-06)
(0.000766323603051 -6.62223161865e-06 -1.11590374876e-05)
(0.00076820778286 -2.86709133439e-06 -1.71562864449e-05)
(0.000853151565446 -5.37941134349e-06 -1.0895027498e-05)
(0.00081890743383 -9.03254908073e-06 -1.28676292509e-05)
(0.000819557837294 -4.00082625331e-06 -1.8854332795e-05)
(0.000917552487547 -6.03755419412e-06 -1.11754426269e-05)
(0.000880659401908 -1.06486831026e-05 -1.48442273769e-05)
(0.000881210126159 -4.74522367957e-06 -2.16836779769e-05)
(0.000979265506528 -5.95952371587e-06 -7.96263346369e-06)
(0.000945690259249 -1.10466015494e-05 -1.3915731523e-05)
(0.000947197178717 -4.89253990554e-06 -1.99359349014e-05)
(0.00101713464957 -5.26816064182e-06 -4.22008454761e-07)
(0.000997427341641 -9.95693135907e-06 -7.89115393564e-06)
(0.00100045286848 -4.18379621861e-06 -9.09877399798e-06)
(0.00101421640778 -4.3069403319e-06 1.06225113466e-05)
(0.00101651410417 -8.1034129721e-06 2.45516177012e-06)
(0.00102097952902 -3.27065760516e-06 9.44402589358e-06)
(0.000959700451044 -3.29315302202e-06 2.36281827003e-05)
(0.000988855200933 -6.01133453828e-06 1.57028234291e-05)
(0.000994247708712 -2.26110561468e-06 3.31464423764e-05)
(0.000850114141994 -2.27232203063e-06 3.70014161403e-05)
(0.000907320893188 -4.01438132619e-06 2.99100190461e-05)
(0.00091295748706 -1.36052568387e-06 5.86644937977e-05)
(0.000687419208398 -1.31357528443e-06 4.89939237919e-05)
(0.00077067978542 -1.96307516955e-06 4.3717134351e-05)
(0.000775791290922 -3.97453814395e-07 8.31308103109e-05)
(0.000481910968674 -8.59644059207e-07 5.9207067193e-05)
(0.000588301684423 -2.32995341736e-07 5.50271747602e-05)
(0.000592846498974 4.52548268513e-07 0.000102779585012)
(0.000249527783712 -7.17034201694e-07 6.37021896319e-05)
(0.000383704818826 -6.80433445807e-07 6.54679546736e-05)
(0.000385719734351 7.43733389234e-07 0.000116684672763)
(0.000139457655338 -1.25728694228e-06 6.47367882433e-05)
(0.000139127524953 5.66478026003e-07 0.000125899926609)
(0.000671072298423 0.00035481702577 -0.000511337942352)
(0.000277341418016 0.000553028226186 -0.000424681721252)
(0.000417630875252 0.00046454038502 -0.000745621320217)
(0.00127727293009 0.000618660504322 -0.000642019873737)
(0.00115616703569 0.00079320464773 -0.000674427851604)
(0.00119902718576 0.000725647204553 -0.000933632901273)
(0.00124170656468 0.00101147752226 -0.000648667798198)
(0.00152634809016 0.00136102441172 -0.00068636960099)
(0.00147181564145 0.00119795818176 -0.000924206452396)
(0.000577310918073 0.00130960282587 -0.000626850808075)
(0.00109407492103 0.00182883672501 -0.000627242813318)
(0.00103613663371 0.00158708744526 -0.000835073091996)
(-0.000410144821448 0.00144045787567 -0.000614822236775)
(0.000162973646152 0.00211981400952 -0.000609662812257)
(0.00012657382717 0.00182450184407 -0.000803093919935)
(-0.00146453547639 0.00136251256952 -0.000594611864982)
(-0.000959273508242 0.00215260511875 -0.000591573329774)
(-0.000965566235071 0.00184533767462 -0.000779976389736)
(-0.00232847166395 0.00110251047136 -0.000569504255849)
(-0.00202567932034 0.00191069514611 -0.000569683288997)
(-0.00199751785018 0.00163771141983 -0.000760436523902)
(-0.00277069835031 0.000708175958357 -0.000518663669389)
(-0.00273042446329 0.00146780879491 -0.00055801207338)
(-0.00267068068981 0.00126759299189 -0.000752284803597)
(-0.00270418547778 0.000289224877077 -0.000420993321322)
(-0.00290569236798 0.000868743502195 -0.000509977244114)
(-0.0028503646766 0.000774747145314 -0.000688813041836)
(-0.00228934899119 -6.09671429138e-07 -0.000298077821328)
(-0.00257228401537 0.000329557614323 -0.000410469674908)
(-0.00255358343693 0.000329302670909 -0.000555202665817)
(-0.0017921411724 -0.000125068370116 -0.000183333759544)
(-0.00204625096067 9.44033469263e-06 -0.000279034928104)
(-0.00206488183502 5.78535013408e-05 -0.000384555143659)
(-0.00137546725615 -0.000142447088041 -9.93729460761e-05)
(-0.00155412624893 -0.000117068637954 -0.000161915699352)
(-0.00159057446559 -5.95552680218e-05 -0.00022993382571)
(-0.00108929265478 -0.000111670684884 -4.84273981415e-05)
(-0.00119402585827 -0.00013056477504 -8.31683466685e-05)
(-0.00123167832604 -8.32116132602e-05 -0.00012254562841)
(-0.000922441382722 -6.97020924964e-05 -2.10640157108e-05)
(-0.000974077505713 -9.66611508703e-05 -3.79945275809e-05)
(-0.00100540933318 -6.44029843867e-05 -5.79482613693e-05)
(-0.000841552858202 -3.44429519213e-05 -8.93406528996e-06)
(-0.000860590980565 -5.4556985045e-05 -1.50527093296e-05)
(-0.000884416271479 -3.56029631137e-05 -2.39723523158e-05)
(-0.000809432917267 -1.13897779878e-05 -6.4897633994e-06)
(-0.000813273670647 -2.14693203658e-05 -6.21418113874e-06)
(-0.00083129464777 -1.19686630061e-05 -1.00275149401e-05)
(-0.000789672716078 3.47852895095e-07 -1.13052536891e-05)
(-0.000793803320011 -2.22625059178e-06 -6.85651065009e-06)
(-0.000808428552084 1.85602969216e-06 -1.08803665319e-05)
(-0.000746960899559 4.048730235e-06 -2.16640816989e-05)
(-0.000766310466195 5.36731164089e-06 -1.49548448869e-05)
(-0.000779388988465 6.63157470549e-06 -2.49477002599e-05)
(-0.000653696119998 3.11055825886e-06 -3.51611153006e-05)
(-0.000699886685597 5.54478164086e-06 -2.80477758225e-05)
(-0.000712155092279 5.49684456177e-06 -4.95305690877e-05)
(-0.000496405388238 -3.0821359047e-07 -5.17164783303e-05)
(-0.000575446113294 2.18427827971e-06 -4.26223012305e-05)
(-0.000587555764004 2.28193640976e-06 -7.96188528795e-05)
(-0.000299695903277 -1.04180757536e-06 -6.185739054e-05)
(-0.000396390595824 -7.1753992397e-06 -5.86686423925e-05)
(-0.00040653584689 -6.72809171427e-07 -8.97314268951e-05)
(-6.80317186542e-05 1.99541337963e-07 -6.1054451684e-05)
(-0.00018067608682 7.14374533591e-07 -6.40988323581e-05)
(-0.000186259576447 -1.17173267298e-06 -0.0001172597957)
(0.000158343322187 1.46047652532e-07 -5.51272361294e-05)
(4.72172058995e-05 -3.82957750853e-07 -6.00632003203e-05)
(4.53725978183e-05 -1.06133325515e-06 -0.00011350818894)
(0.00035468733235 4.64605061428e-07 -4.51498658406e-05)
(0.000258109579973 -2.54300226933e-07 -5.0774974015e-05)
(0.000258525532474 -3.28657441486e-07 -9.80815488155e-05)
(0.000507431495404 1.05699935505e-07 -3.38760938038e-05)
(0.000431392212605 6.20062603638e-08 -3.93524516175e-05)
(0.000433194800975 2.27220443409e-07 -7.6211176633e-05)
(0.000614939531773 -1.83439442746e-06 -2.36092525603e-05)
(0.000559771973606 -7.27842900545e-07 -2.81206711284e-05)
(0.000562096549387 -3.88017914087e-07 -5.35324966383e-05)
(0.000686405085034 -4.41433738332e-06 -1.62459581742e-05)
(0.00064816756226 -3.9446828016e-06 -1.8825491475e-05)
(0.000649746688603 -2.3308639434e-06 -3.4281522027e-05)
(0.000738162553433 -7.23488055718e-06 -1.33730030001e-05)
(0.000709276632986 -6.24297818902e-06 -1.39855090243e-05)
(0.000709115530465 -4.56821818074e-06 -2.39163523403e-05)
(0.000786828279497 -1.03870549105e-05 -1.44248620417e-05)
(0.000759280619565 -1.01409997252e-05 -1.39686506922e-05)
(0.000757546462617 -7.34067360011e-06 -2.10318077832e-05)
(0.000843904479185 -1.28089134809e-05 -1.68168291299e-05)
(0.000812805536796 -1.33160649471e-05 -1.66107421128e-05)
(0.000810365710587 -9.62048175476e-06 -2.44718586645e-05)
(0.000910341119175 -1.39369824608e-05 -1.7584516273e-05)
(0.000876048785129 -1.5279020702e-05 -1.92160045725e-05)
(0.000874124737897 -1.10550574659e-05 -2.88013218524e-05)
(0.000973903786715 -1.34439885949e-05 -1.38442519949e-05)
(0.000942896523774 -1.54532583987e-05 -1.83508991398e-05)
(0.000942714014833 -1.11656711036e-05 -2.75851146357e-05)
(0.00101322535082 -1.16751988249e-05 -5.01398371076e-06)
(0.000996194033874 -1.37733097031e-05 -1.14785735667e-05)
(0.000998236287316 -9.63356214275e-06 -1.60549678548e-05)
(0.00101149974411 -9.34415190644e-06 7.53547385263e-06)
(0.00101625395124 -1.11843031561e-05 -1.34356100655e-07)
(0.00102021560724 -7.58308170277e-06 3.72931798055e-06)
(0.000957703128567 -6.91387149285e-06 2.19846597748e-05)
(0.000989089158969 -8.2232473619e-06 1.41934865142e-05)
(0.00099431853689 -5.32941577291e-06 2.8883500495e-05)
(0.000848666256069 -4.53312466105e-06 3.66257372567e-05)
(0.000907849153551 -5.37444474517e-06 2.92949033604e-05)
(0.000913470629502 -3.22526738469e-06 5.56215650606e-05)
(0.000686759369108 -2.26772488331e-06 4.97503853193e-05)
(0.000771287311825 -2.56027967524e-06 4.38851723772e-05)
(0.000776485537331 -1.17629858943e-06 8.12468475503e-05)
(0.000480801105385 -7.56412919482e-07 6.12880622408e-05)
(0.000588628180126 -4.68990312261e-08 5.57880786724e-05)
(0.0005929861151 7.51054975047e-07 0.000102456919394)
(0.000250193525637 -2.33248327045e-06 6.6502553285e-05)
(0.000382560135729 1.79575869229e-06 6.64921275563e-05)
(0.000384975326756 1.05009232919e-06 0.000112516315148)
(0.000138156871251 -7.13877081055e-06 7.00550411542e-05)
(0.000138284807135 3.14618044788e-07 0.000130754884801)
(0.000755163379775 0.000972847345749 -0.000587771630504)
(0.000339717712374 0.000974034968733 -0.000435315539001)
(0.000471432297893 0.000902780601778 -0.00079862965538)
(0.00143838677218 0.00150593334114 -0.000718777578857)
(0.00138882520114 0.00144220587146 -0.000683863826422)
(0.00134945464313 0.00133471279995 -0.000990742194301)
(0.00137299409534 0.00212833062362 -0.00066494461611)
(0.0017521058914 0.00223750502801 -0.000583306837774)
(0.0015897846666 0.00199213615934 -0.000843988754403)
(0.000653252459422 0.00256885781478 -0.0006100548175)
(0.00124234460207 0.00284678289695 -0.000452012021079)
(0.00110282082552 0.00251116222629 -0.000658345177837)
(-0.00038914142668 0.00275287323139 -0.000586413905256)
(0.000228977369979 0.00321887330141 -0.000406035083065)
(0.000159031845363 0.00282192167711 -0.000578186447675)
(-0.0014985228852 0.00262904112099 -0.000566644753789)
(-0.000981261186367 0.00325671561334 -0.000383291736376)
(-0.000965015765385 0.00284858100408 -0.000549768616315)
(-0.00241441017079 0.00222472674361 -0.000558191106528)
(-0.00212602906918 0.00293332223658 -0.00038169954662)
(-0.00202096569463 0.00256556260521 -0.000565003803051)
(-0.00289105389667 0.00159860134019 -0.000549325648105)
(-0.00290276504629 0.00233831374084 -0.000423581878574)
(-0.0027271085549 0.00205178060942 -0.000632423498267)
(-0.00281874133967 0.000895218549263 -0.0004994535977)
(-0.00310051209056 0.0015119773187 -0.00046118557956)
(-0.00291732870352 0.00135952681782 -0.000679539230832)
(-0.00235693553579 0.000336901576356 -0.000391426781684)
(-0.00273150697735 0.000729534928915 -0.000438537245269)
(-0.00261363936336 0.000691959149556 -0.000630977598161)
(-0.0018030910802 1.9680526127e-05 -0.000257616867912)
(-0.00212552664511 0.000210585126943 -0.000330846101873)
(-0.00208576686895 0.000233586974785 -0.000478176774775)
(-0.0013534592825 -0.000101714198405 -0.000145711099944)
(-0.00156642267442 -3.8804662901e-05 -0.000205071132712)
(-0.00157721549302 7.01534463453e-07 -0.00030325199617)
(-0.00105637717029 -0.000112218104798 -7.27354761079e-05)
(-0.00117205716981 -0.000112320204004 -0.00010992366253)
(-0.00120300183194 -7.56744089476e-05 -0.000167033524097)
(-0.00089218039929 -7.93510028122e-05 -3.19832211997e-05)
(-0.000943019361194 -9.8035104852e-05 -5.16812125363e-05)
(-0.000975337418541 -7.23248850389e-05 -8.10307630442e-05)
(-0.000819631762055 -4.07629543627e-05 -1.23328251784e-05)
(-0.00083355982461 -5.82635133997e-05 -2.02247161109e-05)
(-0.00086046358244 -4.22492999879e-05 -3.29032201437e-05)
(-0.000796554571949 -1.23805196635e-05 -6.58092838942e-06)
(-0.000794856649426 -2.19327871033e-05 -6.87450436824e-06)
(-0.000815862167495 -1.29242613084e-05 -1.1410338602e-05)
(-0.000783954145741 2.40112608717e-06 -1.05061018479e-05)
(-0.000783927547125 3.44122835985e-07 -5.86336909376e-06)
(-0.000800820114019 5.02411112843e-06 -9.17931526561e-06)
(-0.000745527417386 6.46757107108e-06 -2.13385390105e-05)
(-0.000762631439933 8.77484236583e-06 -1.39843119342e-05)
(-0.000777374697009 1.10159475168e-05 -2.28815407191e-05)
(-0.000654431872915 4.44694474716e-06 -3.55089617524e-05)
(-0.000699633004176 7.88389187826e-06 -2.80396806812e-05)
(-0.000713055353384 8.91066524719e-06 -4.80878528663e-05)
(-0.000500342187316 -1.28470190699e-06 -4.95744652927e-05)
(-0.000577210463485 3.23406260398e-06 -4.31797544281e-05)
(-0.000589244436215 3.72190223693e-06 -7.82406914134e-05)
(-0.000295066349301 -4.33273269004e-06 -6.09100842107e-05)
(-0.000396875118499 -2.78928746504e-06 -5.59964692186e-05)
(-0.000407190093832 -1.22005604556e-06 -0.000107136065304)
(-6.82112171932e-05 -1.71476163391e-06 -6.31075809943e-05)
(-0.000178373580703 -7.84573947012e-06 -6.37022221505e-05)
(-0.000185807048069 -2.51672539516e-06 -0.00010497396478)
(0.00015874624069 -8.66609724211e-08 -5.57109382059e-05)
(4.89257394572e-05 6.38227089764e-07 -6.26055804553e-05)
(4.60156363583e-05 -2.32660252718e-06 -0.000114624426638)
(0.000354985233906 -2.45428191255e-07 -4.4977559792e-05)
(0.000258737246798 -6.359462101e-07 -5.1466389838e-05)
(0.000259080914402 -1.50704610361e-06 -9.78876449922e-05)
(0.0005070175963 -3.94756596203e-07 -3.35970289421e-05)
(0.000431751648966 -5.68626210603e-07 -3.95226686774e-05)
(0.000433013457881 -8.18267168705e-07 -7.55535429182e-05)
(0.000613081872703 -2.49464418524e-06 -2.33369100431e-05)
(0.000558899371721 -7.91692383325e-07 -2.84884075969e-05)
(0.000560744519016 -1.15533754953e-06 -5.31467843066e-05)
(0.000684480609975 -5.77449595504e-06 -1.65650423251e-05)
(0.000646513350169 -4.98362956643e-06 -1.87469466365e-05)
(0.000647556921854 -3.66965800835e-06 -3.48482989595e-05)
(0.000736188962245 -9.18903103684e-06 -1.45811567163e-05)
(0.00070742702695 -8.35327504965e-06 -1.47558504732e-05)
(0.000706504710303 -6.40627488266e-06 -2.39413084741e-05)
(0.000784795744083 -1.27762402601e-05 -1.61545307633e-05)
(0.000757302709046 -1.23015397535e-05 -1.51228367115e-05)
(0.000754881444319 -9.68987891998e-06 -2.23450782659e-05)
(0.000842512877759 -1.53379368312e-05 -1.90099175554e-05)
(0.000811378805018 -1.55024711732e-05 -1.81990273967e-05)
(0.000808242499723 -1.23531800528e-05 -2.68720925651e-05)
(0.00090988990072 -1.63020713166e-05 -1.99823874393e-05)
(0.000875547602086 -1.73649994968e-05 -2.10429999754e-05)
(0.000872968523586 -1.38723255073e-05 -3.17969744375e-05)
(0.000974409724942 -1.53699006127e-05 -1.59852207116e-05)
(0.00094353364118 -1.72130940294e-05 -2.01538878628e-05)
(0.000942834162041 -1.36620159575e-05 -3.0691228796e-05)
(0.00101421843223 -1.30388469575e-05 -6.59894595658e-06)
(0.00099767326728 -1.52182885354e-05 -1.28309630353e-05)
(0.000999330223208 -1.16889458926e-05 -1.86510491388e-05)
(0.00101263510005 -1.00607037914e-05 6.52365656091e-06)
(0.00101809657253 -1.22822735536e-05 -9.93728704209e-07)
(0.00102172994968 -9.01092471761e-06 1.6934926578e-06)
(0.000958860650302 -6.97493902231e-06 2.15037300998e-05)
(0.000990938451591 -8.97684288024e-06 1.3793919849e-05)
(0.000995884461508 -6.05575627132e-06 2.74310907611e-05)
(0.000849761325417 -4.01790122705e-06 3.6554338481e-05)
(0.000909565008645 -5.8342733272e-06 2.92961081607e-05)
(0.000914898475594 -3.29333426989e-06 5.47670008928e-05)
(0.000687975539695 -1.36005792271e-06 4.99228657303e-05)
(0.000772747550322 -2.88883669806e-06 4.41255789762e-05)
(0.000777685844444 -7.46092635726e-07 8.09294620061e-05)
(0.000482567777094 6.54118902538e-07 6.09921439879e-05)
(0.000589627149983 -6.41311718577e-07 5.61627120413e-05)
(0.000593307144782 1.29897271293e-06 0.000102975803679)
(0.00024496535064 1.01506649117e-06 7.00446154256e-05)
(0.000382641480777 7.48388671943e-07 6.59323613568e-05)
(0.000384394553581 1.46441419166e-06 0.000119560303032)
(0.000137871795447 7.74770258108e-06 7.1561683173e-05)
(0.000137705451665 2.00494018066e-06 0.000107403679759)
(0.000961546370958 0.00143771276903 -0.000531407734919)
(0.000480495859556 0.00127791675952 -0.000417718205502)
(0.000608577309208 0.00124924806478 -0.000784691632054)
(0.00174263196712 0.00215281766878 -0.000548393085339)
(0.00173921148613 0.00187972751137 -0.000562534686482)
(0.00162373681973 0.00176804246306 -0.000828204626848)
(0.00161159553163 0.00291118787529 -0.000370374242744)
(0.00208343220086 0.00278545956709 -0.000298305627634)
(0.00182303147025 0.00251410678889 -0.000482675350035)
(0.00079120311484 0.00343192876177 -0.000247992286645)
(0.00147228795301 0.00342862310742 -5.77189637828e-05)
(0.00125063176844 0.00307558099285 -0.000171987353047)
(-0.000364580282864 0.00364932190244 -0.000202912914186)
(0.000330000755651 0.00383348123298 4.35760734341e-05)
(0.000223087646356 0.00341621280503 -3.71586296434e-05)
(-0.00158677569814 0.00349453451187 -0.000198346529207)
(-0.0010338437479 0.00387364931936 6.74963973633e-05)
(-0.000987900453838 0.00344451395748 -6.33168454693e-06)
(-0.00259537744779 0.0029990164998 -0.000247090318666)
(-0.00230300431722 0.00351089872817 1.54224482346e-05)
(-0.00211819492665 0.00312497431732 -7.37395458277e-05)
(-0.00313947779437 0.00222688910468 -0.000335441810029)
(-0.00316509382119 0.00285925897454 -0.000122535308149)
(-0.0028831416723 0.00254468015649 -0.000249247223597)
(-0.00306600258968 0.00134126552723 -0.000400269227129)
(-0.00340210424061 0.00192632227049 -0.000281455356585)
(-0.00310421123358 0.00174881643167 -0.000451300835402)
(-0.00252796424888 0.000607813708369 -0.000377956565458)
(-0.00298793931333 0.0010192265822 -0.000378548243467)
(-0.00277948048476 0.000956404499118 -0.000558841245402)
(-0.00188165840391 0.000156510168062 -0.000278300366672)
(-0.00227908067104 0.000380078586561 -0.000336184695398)
(-0.00218298772119 0.0003806249639 -0.000492764941554)
(-0.00136428123663 -4.65960124785e-05 -0.000169283695298)
(-0.00162367055356 4.28565356111e-05 -0.00022780960527)
(-0.00160688571864 6.62659838244e-05 -0.000340519104259)
(-0.00103465641321 -9.55294680472e-05 -8.88693989582e-05)
(-0.00117088125364 -7.91983887512e-05 -0.000128607854314)
(-0.00119142690533 -5.37907900069e-05 -0.000198177649461)
(-0.000863151995525 -7.5696023255e-05 -3.99227074476e-05)
(-0.000918837840059 -8.52808851795e-05 -6.22985773951e-05)
(-0.000948629484996 -6.66894472919e-05 -9.88117873524e-05)
(-0.000795436887147 -3.95347481382e-05 -1.47663953008e-05)
(-0.000807647778786 -5.28904112688e-05 -2.43591627917e-05)
(-0.000834514170608 -4.01696711404e-05 -3.95697452127e-05)
(-0.000781334134286 -1.02207198592e-05 -6.15694507258e-06)
(-0.000775747073473 -1.82132132264e-05 -6.97907961466e-06)
(-0.00079741616311 -9.82619715154e-06 -1.11132938657e-05)
(-0.000776912783421 5.30520592255e-06 -9.34157918007e-06)
(-0.000773424464412 3.86827454888e-06 -4.47065359744e-06)
(-0.000790984176191 9.28539014158e-06 -6.05211243986e-06)
(-0.000743870632441 8.92156706316e-06 -2.06854536049e-05)
(-0.00075893126621 1.17199311755e-05 -1.27526749019e-05)
(-0.000774198170919 1.51590558366e-05 -1.973430878e-05)
(-0.000655065948768 5.78999533893e-06 -3.57104733568e-05)
(-0.000699715393586 9.76223826437e-06 -2.77300318555e-05)
(-0.000713505720986 1.18247365154e-05 -4.64854453621e-05)
(-0.000501951953692 4.21692126559e-07 -4.96017583539e-05)
(-0.00057860586917 3.98171834675e-06 -4.37743366328e-05)
(-0.000590601627597 5.03679154983e-06 -7.74488996956e-05)
(-0.000296343164196 -4.50267757772e-06 -5.87886071584e-05)
(-0.000398149952606 -1.58811503527e-06 -5.60976776968e-05)
(-0.000407667058576 -8.95551010465e-07 -0.000104110138405)
(-6.28131028547e-05 -5.59330951224e-06 -6.32002216115e-05)
(-0.000177801146486 -5.08965043632e-06 -6.17263921205e-05)
(-0.000184830414738 -3.67079767146e-06 -0.000119616890657)
(0.000159104341348 -2.6533042367e-06 -5.83610320874e-05)
(5.1423242725e-05 -9.76957479734e-06 -6.24582868621e-05)
(4.76901338696e-05 -3.95054209953e-06 -0.000100665317724)
(0.000355955375394 -6.8488812611e-07 -4.60114987235e-05)
(0.000260611601033 -7.83672306461e-07 -5.37590184126e-05)
(0.000260626254655 -2.76678290287e-06 -9.842091448e-05)
(0.000507611980026 -2.07857214056e-06 -3.44140473322e-05)
(0.000431755922678 -8.07628944933e-07 -4.1068963298e-05)
(0.000434003066373 -2.10578768747e-06 -7.57546362824e-05)
(0.000611590533841 -4.66794066152e-06 -2.38984441903e-05)
(0.000558130259093 -6.24981519115e-06 -2.84054256552e-05)
(0.000560556209353 -3.12824025492e-06 -4.6710294557e-05)
(0.000683268948176 -7.50038612033e-06 -1.69377547846e-05)
(0.000645486277079 -6.73440165519e-06 -1.89950780315e-05)
(0.000646457582374 -5.23673470747e-06 -3.42788825695e-05)
(0.000734644503052 -1.10782340699e-05 -1.52975304684e-05)
(0.000705926972506 -9.93771820881e-06 -1.53812598016e-05)
(0.000705111803664 -8.19158737646e-06 -2.43029206561e-05)
(0.000783541474626 -1.4559157731e-05 -1.71673333449e-05)
(0.000755802241225 -1.36241655288e-05 -1.59827079913e-05)
(0.000753467627496 -1.15445295569e-05 -2.33275049756e-05)
(0.000841914920497 -1.69714524937e-05 -2.02321098166e-05)
(0.000810414100564 -1.6623842139e-05 -1.92978289969e-05)
(0.000807329813535 -1.42611339199e-05 -2.826135389e-05)
(0.000910213483566 -1.76735233772e-05 -2.12145003989e-05)
(0.000875490873052 -1.81748961594e-05 -2.22325699819e-05)
(0.000872970910737 -1.56440251269e-05 -3.35282887079e-05)
(0.000975661423741 -1.64798879712e-05 -1.69996301866e-05)
(0.000944514576304 -1.7743417403e-05 -2.12500932908e-05)
(0.000943935254587 -1.5144280732e-05 -3.23802659914e-05)
(0.00101592155751 -1.39369304421e-05 -7.22574578294e-06)
(0.000999383578668 -1.55963460334e-05 -1.35912739389e-05)
(0.00100121041331 -1.29641241705e-05 -1.99417697965e-05)
(0.00101444039429 -1.07705083525e-05 6.27653458393e-06)
(0.0010201030758 -1.2571669023e-05 -1.3951251472e-06)
(0.00102390036266 -1.00212921392e-05 8.32787214041e-07)
(0.000960603119691 -7.52925941444e-06 2.158629791e-05)
(0.00099291112176 -9.23710257634e-06 1.37082473399e-05)
(0.000997999591624 -6.82597885741e-06 2.69649972109e-05)
(0.00085126850468 -4.51769328331e-06 3.68673486559e-05)
(0.000911333887507 -6.11169702466e-06 2.9477009272e-05)
(0.000916747503136 -3.84947872141e-06 5.46942578407e-05)
(0.000689237655109 -2.01366475892e-06 5.03654252872e-05)
(0.000774162282658 -3.31538144308e-06 4.44436882323e-05)
(0.000779123804309 -1.24434001836e-06 8.11384971312e-05)
(0.00048268330137 -5.31318365547e-07 6.11029294102e-05)
(0.00059040942339 -1.30889084584e-06 5.65603604698e-05)
(0.000593853341465 6.40141046647e-07 0.000103611301644)
(0.000245593071765 3.15002836909e-06 6.74494291042e-05)
(0.000384466287299 -1.02444231364e-06 6.59085508582e-05)
(0.000384792996949 6.62471180002e-07 0.000120025704908)
(0.000139598316705 5.2008455503e-06 6.8196991192e-05)
(0.000138108919392 3.51668528543e-06 0.000125154274604)
(0.00124643944376 0.00170610477006 -0.000448845157065)
(0.000665593515122 0.00141706195002 -0.00040225011135)
(0.000796244946721 0.00146265990578 -0.000762406401565)
(0.00213068951255 0.0024865818651 -0.000312447228777)
(0.00213815304754 0.002038260291 -0.000416437453961)
(0.00196219919627 0.00198186649442 -0.000600815930707)
(0.00191761582973 0.0032728148185 1.43496513268e-05)
(0.00245779127799 0.00293871939767 1.28044157978e-05)
(0.00212051160826 0.00272786598085 -4.70102207538e-05)
(0.000977133959749 0.00380330921768 0.000233849396296)
(0.00173876105182 0.00351145799928 0.000352448361444)
(0.00145458671964 0.00326475948531 0.000386960023867)
(-0.000339067548434 0.00403191454913 0.000313985384983)
(0.000447980121699 0.00390650954324 0.000507393482356)
(0.000313737327122 0.00360829056936 0.00058446763661)
(-0.00171920935597 0.00386232444253 0.000281265374805)
(-0.00110044762685 0.00394982007783 0.000528800865848)
(-0.00103617726934 0.00363726467391 0.000613209724325)
(-0.00283485099558 0.0033382719548 0.000139977458752)
(-0.0025127398808 0.00359241710885 0.000420131774136)
(-0.00227078567706 0.00330483095955 0.000475656315093)
(-0.0034575297614 0.00252775257278 -6.85488547045e-05)
(-0.00345537398879 0.00297294650887 0.000194792094576)
(-0.00309547673962 0.00272213501349 0.00019716453028)
(-0.00339129144936 0.00158511820005 -0.000259734372922)
(-0.00374678710767 0.00206211385963 -8.33252992145e-05)
(-0.00335486415617 0.00191588728414 -0.00016920937477)
(-0.00277282224203 0.000782748308837 -0.000336776373406)
(-0.00329218352645 0.00115126667391 -0.000299403193999)
(-0.00300949453056 0.00110025718878 -0.000441442803309)
(-0.00201267499308 0.000263698139021 -0.000285693933996)
(-0.00247883705051 0.000480841238414 -0.000329120910403)
(-0.00233455991831 0.000479556918391 -0.000480966571485)
(-0.00140789015164 1.18710464736e-05 -0.000187133764287)
(-0.0017130721134 0.000106716420451 -0.000245016273763)
(-0.00167237126971 0.000124243180654 -0.000366421193095)