/*--------------------------------*- C++ -*----------------------------------*\
| =========                 |                                                 |
| \\      /  F ield         | OpenFOAM: The Open Source CFD Toolbox           |
|  \\    /   O peration     | Version:  3.0.1                                 |
|   \\  /    A nd           | Web:      www.OpenFOAM.org                      |
|    \\/     M anipulation  |                                                 |
\*---------------------------------------------------------------------------*/
FoamFile
{
    version     2.0;
    format      ascii;
    class       volScalarField;
    location    "2.9";
    object      epsilon;
}
// * * * * * * * * * * * * * * * * * * * * * * * * * * * * * * * * * * * * * //

dimensions      [0 2 -3 0 0 0 0];

internalField   nonuniform List<scalar> 
15984
(
0.00100897474943
0.00116900843557
0.00123930515409
0.00125633217553
0.00125590419866
0.00125706903
0.00126254496928
0.00126671774305
0.00126425616549
0.00125480773642
0.00124494974062
0.00123623096501
0.00122866484545
0.00122311336848
0.0012193275045
0.00121687771657
0.00121534247178
0.00121447380713
0.00121399905537
0.00121374486031
0.00121361542432
0.00121355316253
0.00121352893808
0.00121352563465
0.001213537492
0.00121354211622
0.00121354174506
0.0012135341811
0.00121352681347
0.00121350484761
0.00121346328097
0.00121340479288
0.00121334788249
0.00121324081768
0.00121293361258
0.00121169563908
0.00120659950878
0.00118764980766
0.00112795706937
0.000987208050312
0.00149288453321
0.00225993243442
0.00259469709708
0.00267710249486
0.00268486206007
0.00269003883568
0.0027201858345
0.00277317632378
0.00281189216506
0.00280925849711
0.00277707778261
0.00274359273472
0.00271800634185
0.00269996790081
0.00268836702219
0.00268118395756
0.00267678064835
0.00267413828089
0.00267274448639
0.00267202017961
0.00267163542664
0.00267144634083
0.00267135350541
0.00267131907101
0.00267130952213
0.00267131367824
0.00267131684688
0.00267131768867
0.00267136160849
0.00267139188048
0.0026713783251
0.00267132143062
0.00267119778967
0.00267062047243
0.00266801547723
0.00265702503017
0.0026164747688
0.00248827857421
0.00214620083267
0.00141822248312
0.0017178233516
0.00306731262062
0.00364993780875
0.00380087380516
0.00382203645343
0.00383785612244
0.00390022160255
0.00401280600096
0.00410528190374
0.00411957106346
0.00407631946715
0.00402133430838
0.00397808855467
0.00394900974902
0.00393069423182
0.00391967090567
0.0039130929641
0.00390917578142
0.0039069462352
0.00390579741827
0.00390518425507
0.00390485685261
0.00390470627367
0.00390465459013
0.00390463771078
0.00390464913358
0.00390466960254
0.00390476959818
0.00390489864105
0.00390498385439
0.00390501649659
0.00390497986725
0.00390466762006
0.00390319271734
0.00389683705141
0.0038719678528
0.00378724069044
0.00353947516033
0.0029183726397
0.00161089511521
0.00182843490915
0.00355962966578
0.00429759435388
0.00447738458262
0.00450035508612
0.00452922961808
0.00463661121856
0.00483442497244
0.00501489178529
0.0050718916898
0.0050283647144
0.00495997265444
0.00490201487074
0.00486317043965
0.00483912492079
0.00482481405005
0.00481646559308
0.00481157804876
0.0048087148906
0.004807183022
0.00480636461755
0.00480591787179
0.00480568051439
0.00480560454163
0.00480558777101
0.00480561244515
0.00480575608838
0.00480597710053
0.00480618905462
0.00480635226351
0.00480645980078
0.00480638547782
0.00480581053093
0.00480320269351
0.00479245684649
0.00475269085345
0.00462471744256
0.00427056499487
0.00342422469713
0.00170110688281
0.00188571000402
0.00382333550046
0.00462683376796
0.00485538396495
0.00491421196885
0.00496315713447
0.00509350435039
0.00531899820286
0.00561689876046
0.00574291280829
0.00571092124419
0.00563247753175
0.00556254034822
0.00551462402105
0.00548540230287
0.00546816344809
0.00545825667354
0.00545256882936
0.0054492562876
0.00544739297554
0.00544640153717
0.00544586041034
0.0054455647883
0.00544544028074
0.00544542122776
0.0054454911088
0.00544577908947
0.005446071619
0.0054463607751
0.00544660216082
0.00544673005947
0.00544659939538
0.0054457292078
0.00544190286517
0.00542668613986
0.00537267043069
0.00520604867524
0.00476364428535
0.00374613448695
0.00174546511203
0.00191500557911
0.00393405515467
0.00478385724056
0.00508238242604
0.00514699016523
0.00520926392449
0.00537847910476
0.00565839247005
0.00598847980939
0.00619873471183
0.00618688792093
0.0061023138805
0.0060219725937
0.00596585327081
0.0059317689745
0.00591205151044
0.00590076257607
0.00589439971738
0.00589074320079
0.0058886351007
0.00588750713392
0.00588689257383
0.00588655816444
0.00588641099161
0.00588638716647
0.00588650833782
0.00588686923727
0.00588721501864
0.00588757196445
0.00588785580117
0.0058879946894
0.00588780559299
0.00588664113704
0.00588164945119
0.00586233240322
0.0057958501893
0.00559714878818
0.00508580026273
0.00394470068281
0.00176782634358
0.00192877468627
0.00395619981826
0.00486426144474
0.00516864549669
0.00522569688943
0.00529811218246
0.00550917051252
0.00585218568728
0.00620117590817
0.00649429768587
0.00650585998807
0.00641828205443
0.00632928294338
0.0062663680931
0.00622807578716
0.00620620169378
0.00619381400555
0.00618689617557
0.00618295366529
0.00618069075034
0.00617945971273
0.00617878666848
0.00617842777749
0.00617826907914
0.00617824697791
0.00617838668526
0.0061787815888
0.00617916809038
0.00617957165749
0.00617988651303
0.00618003376288
0.00617978980373
0.00617836349951
0.00617236518259
0.00614962503742
0.00607310739831
0.00584963536479
0.00528768677451
0.00406212276432
0.00177902564531
0.00193498764197
0.00394183511222
0.00488051321919
0.00517581329861
0.00521905559329
0.00529893341063
0.00554885182582
0.00594808988448
0.00634060067168
0.00667602599009
0.00670818975346
0.00661951288474
0.0065241073435
0.00645585635825
0.00641426643467
0.00639061682419
0.00637747750589
0.00637011773283
0.00636596892816
0.0063635875395
0.00636228558141
0.00636157419213
0.00636119775764
0.00636103746194
0.00636101930742
0.00636114623042
0.00636155908748
0.0063619734142
0.00636240594263
0.00636274587868
0.00636289794653
0.00636260840485
0.00636097327714
0.00635419476667
0.0063288687567
0.00624497780441
0.00600389234199
0.00540745696981
0.00412786873226
0.00178445652763
0.00193815834143
0.00392401520487
0.00487292085927
0.00515770278441
0.00518620264855
0.00527106893927
0.00555185316721
0.00599102319831
0.00642248755852
0.00677882972207
0.00682524169961
0.00673626065585
0.00663666277531
0.00656477934407
0.00652094420887
0.00649608327548
0.00648241174703
0.0064747847163
0.00647050043492
0.00646804733186
0.00646670226692
0.00646596213155
0.00646558091418
0.00646541795687
0.00646540458874
0.00646551801448
0.00646592793179
0.00646635900334
0.0064668090002
0.00646716490146
0.00646731956517
0.00646699789388
0.00646521938223
0.00645791776406
0.00643088734345
0.00634223320295
0.00609004653365
0.00547258643554
0.00416175707181
0.00178693169968
0.00193979425154
0.00391476961611
0.00486523210882
0.00514383871335
0.00516203592529
0.00524958087884
0.00554837470769
0.0060073782395
0.00645857390144
0.00682519641819
0.0068784506867
0.00678933085446
0.00668764534099
0.00661393111386
0.00656897282122
0.00654351610098
0.00652955310195
0.00652181485153
0.00651746696988
0.00651498010454
0.00651361591884
0.00651286000865
0.00651247572834
0.00651231241274
0.00651230139658
0.00651240628938
0.00651280953401
0.00651324704007
0.00651370526227
0.00651407012094
0.00651422466038
0.00651388627342
0.00651203507616
0.00650447277122
0.00647660248705
0.00638563050302
0.00612812575768
0.00550081226113
0.00417586251701
0.00178787328843
0.00193988559076
0.00391532040865
0.00486575673246
0.0051444654449
0.00516288885887
0.00525039124785
0.00554895200508
0.00600779169994
0.00645880779904
0.00682539483687
0.00687842156826
0.00678924702955
0.00668757260512
0.00661388054389
0.0065689352803
0.0065434896051
0.0065295375827
0.00652180385762
0.00651745767682
0.00651497315861
0.0065136100916
0.00651285250764
0.00651246769579
0.00651230375526
0.00651229170189
0.00651239563224
0.00651279727595
0.00651323444077
0.00651369243316
0.00651405676532
0.00651421034214
0.00651387128571
0.00651201980387
0.00650445720596
0.00647658680038
0.00638561498605
0.00612811070555
0.00550079907402
0.00417585248916
0.00178787296453
0.00193840079721
0.00392556765639
0.00487441693948
0.00515946322182
0.00518840930128
0.00527319269749
0.00555343954337
0.00599217495131
0.00642315382226
0.00677937655486
0.00682514766732
0.00673601733098
0.0066364512967
0.00656462723891
0.00652083402656
0.00649600042208
0.00648235874592
0.00647474934767
0.00647047311521
0.00646802687809
0.00646668385158
0.0064659390124
0.00646555616533
0.00646539138758
0.00646537560739
0.00646548535985
0.00646589161924
0.0064663217657
0.00646677065712
0.00646712559669
0.00646727749858
0.00646695380633
0.00646517424758
0.0064578720751
0.00643084139376
0.00634218756478
0.00609000206218
0.0054725466568
0.0041617271944
0.00178693004423
0.00193530431187
0.0039441678351
0.0048828180318
0.00517853728845
0.00522222953001
0.00530196286726
0.00555123417786
0.00594979515585
0.00634165008252
0.00667673795152
0.00670797349544
0.00661909982881
0.00652375963695
0.00645561025347
0.00641409293629
0.00639047761539
0.00637738551692
0.00637005198944
0.00636592042304
0.0063635496323
0.00636224750407
0.00636153459135
0.00636115580045
0.0063609929275
0.00636097111186
0.00636109147193
0.00636149926827
0.00636191233919
0.00636234312974
0.00636268092534
0.0063628294316
0.00636253632176
0.00636089998008
0.0063541204299
0.00632879395468
0.00624490335428
0.00600381918731
0.00540739116255
0.00412781909824
0.00178445228231
0.00192906218003
0.00395891372355
0.00486707054558
0.00517200511033
0.00522945870118
0.00530167044317
0.0055120371262
0.00585424144798
0.00620376456721
0.00649492452064
0.00650545230159
0.00641769749744
0.00632881495228
0.00626603581854
0.0062278379767
0.00620601722047
0.00619369286913
0.00618680138971
0.00618288090722
0.00618063350391
0.00617940259238
0.00617873055444
0.0061783687878
0.00617820759755
0.00617818092711
0.00617831106671
0.0061787019819
0.00617908634647
0.0061794868777
0.00617979981095
0.00617994381048
0.00617969507949
0.00617826646272
0.00617226701299
0.00614952593029
0.00607300866129
0.00584953772423
0.00528759927051
0.00406205604119
0.00177901802964
0.00191516414207
0.00393664783794
0.00478694905174
0.00508594491586
0.00515091406118
0.00521294655799
0.00538148586014
0.00566052127324
0.00599082500358
0.00619900077713
0.00618623817689
0.00610157366087
0.0060214039611
0.00596545023215
0.00593147432026
0.00591185353058
0.00590061371978
0.00589427872564
0.00589064558762
0.00588855778343
0.0058874371849
0.00588682344385
0.00588648637422
0.00588633720182
0.00588630907867
0.00588642146557
0.00588677675334
0.00588712057508
0.00588747363797
0.00588775508115
0.00588789020627
0.00588769773563
0.00588653141423
0.00588153817278
0.00586221971217
0.00579573679892
0.00559703588145
0.00508569912081
0.00394462441821
0.00176781524074
0.00188567194037
0.00382535766293
0.00463144447746
0.00485894418385
0.00491812540602
0.00496678769969
0.00509648438609
0.00532237018287
0.00561837997587
0.00574266628998
0.00571002185832
0.00563163596125
0.00556191664621
0.00551417295102
0.00548507741841
0.00546796189737
0.00545809466031
0.00545243396322
0.00544914871413
0.00544730506353
0.00544632435509
0.0054457854902
0.00544548823202
0.00544536191017
0.00544533931266
0.0054454057876
0.00544568761227
0.00544597764235
0.00544626380946
0.00544650165753
0.00544662578091
0.00544649264515
0.00544562004601
0.00544179371278
0.00542657521609
0.00537255745323
0.00520593458718
0.00476354291697
0.00374605780811
0.0017454518914
0.00182819438687
0.0035607808722
0.00430087510585
0.00448220686871
0.00450576089397
0.00453413239034
0.00464064721836
0.00483672023013
0.00501537738616
0.00507117351046
0.00502733398458
0.00495909320754
0.00490137064255
0.0048627075521
0.0048388484809
0.0048246191601
0.00481631349085
0.00481145252823
0.00480861171989
0.00480709993092
0.00480629176782
0.00480584734279
0.00480560914291
0.00480553188445
0.00480551167877
0.00480553475787
0.0048056777596
0.00480589694112
0.00480610786053
0.00480626712223
0.00480637224992
0.0048062955876
0.00480571918611
0.00480311148281
0.00479236355976
0.00475259536612
0.00462461941076
0.00427047868789
0.00342416023257
0.00170109478686
0.00171743454366
0.0030676449795
0.00365169365282
0.00380386990502
0.00382549542036
0.00384094240886
0.00390254857979
0.00401382574414
0.00410501473413
0.00411863631952
0.0040753226662
0.00402053349507
0.00397750656773
0.00394864246826
0.00393045443721
0.0039195092439
0.00391296857088
0.00390907363151
0.00390686771219
0.0039057354713
0.00390512787526
0.00390480285979
0.00390465182176
0.00390459931348
0.00390457981379
0.00390458956606
0.00390461037959
0.00390471358643
0.00390484147316
0.00390492545915
0.00390495685832
0.00390491997687
0.00390460765737
0.00390313320426
0.0038967764944
0.00387190496305
0.00378717408847
0.00353941811884
0.00291833507217
0.00161089096465
0.00149249734884
0.00225976315513
0.0025953208319
0.00267847236651
0.00268652844076
0.0026914723092
0.00272112868477
0.00277335081395
0.00281138361685
0.00280846838941
0.00277634101378
0.00274300639046
0.00271760304039
0.00269971698017
0.00268820993853
0.0026810754196
0.00267669765038
0.00267407892893
0.00267270337213
0.00267198972187
0.0026716105562
0.00267142095857
0.00267132746054
0.00267129220849
0.00267128145363
0.00267128443848
0.00267128771437
0.00267128980249
0.00267133417947
0.00267136383096
0.00267135046091
0.00267129294501
0.00267116954657
0.00267059334069
0.00266798803436
0.00265699685223
0.00261644344392
0.00248825053071
0.00214618820395
0.00141822170918
0.00100883526764
0.00116881698993
0.0012392523679
0.00125646940088
0.00125614932119
0.00125723183453
0.00126255675846
0.00126654809314
0.00126396514794
0.00125449566532
0.0012446842572
0.00123602920082
0.00122853120699
0.00122303142623
0.00121927715124
0.00121684460896
0.00121532613211
0.00121447108479
0.00121400500554
0.00121375665834
0.00121362821985
0.00121356465439
0.00121354010615
0.00121353636661
0.00121354766157
0.00121355203303
0.00121355251287
0.00121354401643
0.00121353390156
0.00121351122393
0.00121346880895
0.00121340789152
0.00121334826614
0.00121324204735
0.00121293501523
0.00121169690033
0.00120659916625
0.0011876495663
0.00112795724026
0.000987214309321
0.00143959009377
0.00216769294407
0.00250200452355
0.00260014336181
0.00261691658543
0.00262590444194
0.00265408284963
0.00269819283893
0.00273317187397
0.00274140767389
0.00273003523291
0.00271349816452
0.00270051613772
0.00269156891001
0.00268464353351
0.00267976304628
0.00267651782672
0.00267443134762
0.0026731587989
0.00267239558845
0.00267194876248
0.00267168717217
0.00267154787229
0.0026715013664
0.00267150702463
0.0026715533117
0.00267163452029
0.00267169749784
0.00267173751631
0.00267176193994
0.0026717414546
0.00267166358347
0.00267146873756
0.00267081792212
0.00266813148507
0.00265705621753
0.00261641631562
0.00248820084829
0.00214621316282
0.00141837608746
0.00185027837524
0.00244444726944
0.0027578734345
0.00285950580372
0.00288152711633
0.00289161891545
0.00291698031503
0.00295869259914
0.00299507241714
0.00300765918572
0.00300088974939
0.00298828205102
0.0029769913554
0.00296903072881
0.00296359940054
0.00296008197854
0.00295786895293
0.0029565026278
0.00295570474595
0.00295524397285
0.00295496873722
0.00295480332805
0.00295470503023
0.00295465135822
0.00295462200409
0.00295461493052
0.00295462222881
0.00295464024045
0.00295466398348
0.00295468323196
0.00295468750202
0.0029546663047
0.00295454135206
0.00295391073186
0.00295100614858
0.00293899970034
0.00289595805114
0.00276476386408
0.00243367359529
0.00183606660188
0.00231317624397
0.00289445665218
0.00325919713351
0.00338193656506
0.00341012351061
0.00342626692542
0.00346557278524
0.00353030073431
0.00359012126885
0.00361641020719
0.00361320907534
0.00359929745975
0.00358556918689
0.00357555844197
0.00356894645793
0.00356481097948
0.00356228625879
0.00356076289095
0.00355987152893
0.00355937401537
0.00355908209252
0.00355890375652
0.00355879621149
0.00355873479204
0.00355869421047
0.00355866963721
0.00355865828182
0.00355866853014
0.00355868372059
0.00355869312734
0.00355869131354
0.00355865327787
0.00355843252085
0.00355736707674
0.00355271749773
0.00353469887655
0.00347421084418
0.00330145378562
0.00289426747825
0.00227452419508
0.00255917699056
0.00321524085495
0.00363426781609
0.00378081074453
0.00381747612311
0.00384107718444
0.00389544655776
0.00398441669929
0.00407102462051
0.00411301309036
0.00411279009414
0.00409646676827
0.00407957782827
0.00406702250457
0.00405895446278
0.00405402340834
0.00405108819808
0.00404935465468
0.00404833759041
0.004047772793
0.004047449893
0.00404725309581
0.00404712858627
0.00404705646328
0.00404700885259
0.00404697717816
0.004046974346
0.00404699036574
0.004047008481
0.0040470216832
0.00404702223309
0.00404695505517
0.00404660233006
0.00404498254861
0.00403824013436
0.00401338800906
0.00393405707921
0.00371825401698
0.00323120814928
0.00250374847985
0.00269237199016
0.00341212213416
0.00387433696471
0.00405463048734
0.00410831900828
0.00414090077978
0.0042048240376
0.00430374166327
0.00441660277954
0.00447747257951
0.00448132995515
0.00446245620483
0.00444214177552
0.00442702503374
0.00441745578851
0.00441171616818
0.00440836713799
0.00440643022488
0.00440530560173
0.00440467122316
0.00440431703488
0.00440410417487
0.00440396744462
0.0044038822305
0.00440382879057
0.00440379808549
0.00440381273469
0.00440383546356
0.00440386223519
0.00440388504459
0.00440388213251
0.00440378158679
0.00440328331011
0.00440107310341
0.00439219675066
0.00436069125446
0.00426386038191
0.00400985183853
0.00345422276933
0.00262939269349
0.00276162707717
0.00351727762201
0.00401775828217
0.00423188636725
0.00429686398956
0.00433714221271
0.0044135441572
0.00452627454268
0.00464796590158
0.0047293811103
0.00473884779229
0.00471803453711
0.00469444987265
0.0046769022626
0.00466587411618
0.00465938107964
0.00465564374899
0.00465352071335
0.00465230521127
0.00465161359164
0.00465123180674
0.00465100521439
0.00465086017804
0.00465076674935
0.00465070832153
0.00465068112835
0.00465070672366
0.0046507357703
0.00465077254694
0.00465080085253
0.0046507934096
0.00465066020611
0.00465001939837
0.00464724783638
0.00463641318674
0.00459903275884
0.00448737160117
0.00420237468707
0.00359382072776
0.00269944473896
0.00279388178373
0.00356319850273
0.00409612048758
0.00432890000301
0.00439920846307
0.00444591417801
0.00453663641335
0.00466612606445
0.00479344809738
0.00489419793852
0.00491008677024
0.00488817193664
0.00486181910303
0.00484214250034
0.00482981744189
0.00482265390398
0.00481858537472
0.00481630093214
0.00481500740794
0.00481427386417
0.00481386935927
0.00481363100225
0.00481347976169
0.00481338159466
0.00481332055616
0.00481329364923
0.00481332360566
0.00481335779115
0.00481340194289
0.00481343407761
0.00481342290263
0.00481326071836
0.0048124942201
0.00480923948018
0.00479676765921
0.00475462883925
0.00463137016931
0.00432310672606
0.00367690712221
0.0027379955917
0.00280664550164
0.00357705531422
0.00412956065153
0.00437078478088
0.00444170168886
0.00449332620126
0.00459832856924
0.00474514111787
0.0048835878053
0.00499578209901
0.00501747666998
0.00499512783959
0.00496669963387
0.0049453275021
0.0049319650535
0.00492425313192
0.00491993190655
0.00491751841481
0.00491616397811
0.00491539851384
0.00491497703651
0.00491472932438
0.00491457336405
0.00491447261672
0.00491441087639
0.00491438036165
0.00491441101636
0.00491444862286
0.00491449726291
0.00491453268225
0.00491451870117
0.00491433336851
0.00491346745592
0.00490983850292
0.00489612747932
0.00485047687101
0.00471890440837
0.00439455327372
0.00372363418612
0.00275843448301
0.00281083704597
0.00357805270144
0.00413934369709
0.00438291603617
0.00445171082201
0.00450659238804
0.00462355966696
0.00478461104529
0.00493402096578
0.00505294026694
0.00507886338438
0.00505642916644
0.00502664577691
0.00500410777945
0.00499003029764
0.00498193672245
0.00497743968115
0.0049749405093
0.00497354452175
0.00497275823091
0.00497232534993
0.00497207069795
0.0049719116132
0.00497180934427
0.00497174785158
0.00497171389099
0.00497174209479
0.00497178155589
0.00497183265277
0.00497187044361
0.00497185459705
0.00497165330888
0.00497071947731
0.00496683930046
0.00495230995179
0.00490438359432
0.00476754366017
0.00443329395806
0.00374782006453
0.00276853621456
0.00281199891393
0.00357664240968
0.00414064833121
0.00438429092802
0.0044508203579
0.00450734091441
0.00463140736317
0.00480034314231
0.00495606529373
0.00507841655086
0.00510649070578
0.00508405251702
0.00505359887453
0.00503047000262
0.00501603218657
0.00500774630795
0.00500315776765
0.00500061787967
0.00499920137117
0.00499840486607
0.00499796614909
0.00499770751102
0.00499754658023
0.00499744359573
0.00499738225927
0.00499734628009
0.00499737210418
0.00499741220934
0.00499746440475
0.00499750356854
0.0049974866525
0.00499727718964
0.0049963090711
0.00499230359514
0.00497737046502
0.00492833456455
0.00478896357552
0.00445004992359
0.00375792342331
0.00277262316684
0.00281210891617
0.00357685850265
0.00414083179682
0.00438446074201
0.0044510079828
0.00450750705436
0.00463151893957
0.00480040903018
0.0049561025045
0.00507845576893
0.00510647603695
0.00508402409732
0.00505357467078
0.0050304528019
0.00501601913523
0.00500773625197
0.00500315046935
0.00500061214764
0.00499919642351
0.00499840047791
0.00499796180615
0.0049977027217
0.00499754142785
0.0049974381571
0.00499737656714
0.00499734034222
0.00499736584122
0.00499740595474
0.00499745816396
0.00499749731158
0.00499748021539
0.00499727056841
0.00499630232849
0.00499229675732
0.00497736360713
0.00492832783043
0.00478895716714
0.00445004424103
0.00375791880174
0.00277262057123
0.00281113809548
0.00357866201813
0.00413985917256
0.00438338395095
0.00445218894269
0.00450702050844
0.00462386955942
0.00478480474791
0.00493414152304
0.00505305104013
0.0050788191445
0.00505634601153
0.0050265747457
0.00500405593165
0.00498999131256
0.00498190608999
0.00497741701732
0.0049749227021
0.0049735293689
0.00497274470181
0.00497231178918
0.00497205594211
0.00497189582274
0.00497179271982
0.00497173052176
0.00497169577312
0.00497172313924
0.0049717626414
0.00497181374272
0.00497185154212
0.00497183521452
0.00497163338909
0.00497069919359
0.00496681876483
0.00495228934909
0.00490436330887
0.00476752429878
0.00443327669467
0.00374780615765
0.00276852825604
0.00280706588917
0.00357796991178
0.00413034041533
0.004371472775
0.00444236575969
0.00449392196008
0.00459877790335
0.00474544431753
0.00488382146094
0.00499592733419
0.00501738946332
0.00499498837652
0.00496658264889
0.00494524178304
0.00493190086656
0.00492420162435
0.00491989290223
0.00491748674283
0.00491613698064
0.00491537408251
0.00491495240534
0.00491470341603
0.00491454598113
0.00491444397211
0.00491438118473
0.00491434927241
0.00491437881197
0.0049144164845
0.00491446509741
0.00491450048129
0.00491448586733
0.00491429968026
0.00491343324852
0.00490980387566
0.00489609270674
0.00485044254472
0.00471887148726
0.00439452392016
0.00372361074279
0.00275842072643
0.00279431889782
0.00356428005683
0.00409709198222
0.004329738347
0.00440000419572
0.00444662722239
0.00453719110017
0.00466653906872
0.00479397308215
0.00489432942073
0.00490994063699
0.0048879764108
0.00486165948684
0.00484202453932
0.00482972826385
0.00482258329034
0.00481853056058
0.00481625445321
0.00481496687034
0.0048142369539
0.00481383245714
0.00481359297287
0.00481344001606
0.00481334039483
0.00481327805559
0.00481324920697
0.0048132781554
0.0048133123417
0.00481335633456
0.0048133884836
0.00481337669481
0.00481321347933
0.00481244624432
0.00480919095864
0.00479671883337
0.00475458052404
0.00463132363343
0.00432306539272
0.00367687441933
0.00273797574974
0.00276197672606
0.00351836472422
0.00401891039276
0.00423287437836
0.00429780667011
0.00433799923258
0.0044142385344
0.00452681007408
0.00464854620298
0.00472943554345
0.00473863243285
0.0047177887793
0.00469425370624
0.00467675595986
0.00466576266522
0.00465929614603
0.00465557415655
0.00465345985118
0.00465225092086
0.00465156396875
0.00465118299228
0.00465095542587
0.00465080861903
0.00465071372776
0.00465065393655
0.00465062497998
0.00465064940451
0.00465067848388
0.00465071500085
0.00465074325077
0.00465073517682
0.00465060112642
0.00464995956405
0.00464718734528
0.00463635218381
0.00459897199309
0.00448731277956
0.0042023225258
0.00359378010441
0.00269941930144
0.00269256170898
0.0034130724584
0.00387586894065
0.00405583697962
0.00410950375249
0.00414199024614
0.00420574098914
0.00430455179503
0.00441705636939
0.00447741058736
0.00448104815913
0.00446217367484
0.00444192001944
0.00442685783455
0.00441732964281
0.00441162131907
0.00440828677543
0.00440635863904
0.00440524115187
0.00440461160845
0.00440425872344
0.00440404509498
0.00440390675204
0.00440382016842
0.00440376537453
0.00440373366924
0.00440374723376
0.00440377000646
0.00440379670049
0.00440381922826
0.00440381572275
0.00440371451248
0.00440321538136
0.00440100466547
0.00439212754534
0.00436062183465
0.00426379260807
0.00400979171304
0.00345417639551
0.00262936353545
0.0025591947858
0.00321593769228
0.00363561502508
0.00378242354377
0.00381915270741
0.00384261854405
0.00389674875619
0.00398522966864
0.00407127996908
0.0041128334885
0.0041124640123
0.00409616544549
0.0040793452105
0.00406684696835
0.00405882813906
0.00405392487394
0.00405100419395
0.00404927927493
0.00404826895138
0.00404770875268
0.00404738708716
0.00404718967558
0.00404706377298
0.00404699035244
0.00404694140618
0.0040469090625
0.00404690599335
0.00404692215304
0.00404694050265
0.00404695339704
0.00404695354254
0.0040468857853
0.00404653235935
0.00404491203208
0.00403816857979
0.00401331580152
0.00393398581248
0.00371819035739
0.00323115960733
0.00250371902692
0.00231307382287
0.00289487805456
0.00326018287084
0.00338326926158
0.00341157192259
0.00342758464649
0.00346661978815
0.00353086111769
0.00359016989065
0.00361614269041
0.00361286673521
0.00359899842984
0.00358534033327
0.00357539459268
0.00356882642008
0.00356471746227
0.00356220649863
0.00356069112365
0.00355980672428
0.00355931287187
0.00355902181839
0.00355884291338
0.00355873424718
0.00355867180276
0.00355863002894
0.00355860466423
0.00355859348143
0.00355860422184
0.00355861964905
0.00355862907498
0.00355862708937
0.00355858875824
0.00355836755285
0.00355730159956
0.00355265095235
0.0035346311307
0.00347414286935
0.00330139213918
0.00289422123381
0.00227449842574
0.00185015459483
0.00244465218232
0.00275850774981
0.00286046609082
0.00288260993261
0.00289258138398
0.00291768103516
0.0029589715949
0.00299494874999
0.00300733405396
0.00300054724467
0.00298799741554
0.00297678256857
0.00296888522561
0.00296349404011
0.00296000029592
0.00295779981237
0.00295644187825
0.00295565021377
0.0029551922114
0.00295491778524
0.00295475179811
0.00295465265381
0.00295459830438
0.00295456839066
0.00295456019734
0.00295456731537
0.00295458567505
0.00295460956665
0.00295462905453
0.00295463336524
0.00295461208541
0.00295448676482
0.00295385586465
0.00295095017183
0.0029389421094
0.00289589874688
0.00276470793647
0.00243363118706
0.00183604562098
0.00143944503336
0.0021677700201
0.00250250799457
0.00260109229671
0.002618076911
0.00262690420624
0.00265471977015
0.00269830757881
0.00273284168396
0.0027408912827
0.00272954359528
0.00271311033218
0.00270024646092
0.00269138946656
0.00268452031667
0.00267967660016
0.00267645130196
0.00267437803157
0.00267311333789
0.00267235284511
0.0026719053172
0.00267164098894
0.00267149895262
0.00267144965275
0.00267145318689
0.00267149713347
0.00267157619601
0.00267164066882
0.00267168147555
0.00267170795853
0.00267168794623
0.0026716110527
0.00267141505424
0.00267076374293
0.00266807548364
0.00265699636437
0.00261635100087
0.00248813470567
0.00214615973466
0.00141836036439
0.00162911338643
0.00289530879679
0.0034824163689
0.00367160910863
0.00371534499693
0.00373713125743
0.00378737999385
0.00386800546412
0.00394046807232
0.00397237697957
0.00396990254076
0.00395443026369
0.00393849419846
0.00392823607336
0.00392058939496
0.00391496363924
0.00391113790226
0.00390865323879
0.00390707975326
0.00390610193285
0.00390550813843
0.00390516040956
0.00390498086102
0.00390492028449
0.00390494745612
0.00390502980224
0.00390516402091
0.00390528974205
0.00390537029514
0.00390542130923
0.00390540595739
0.00390528370808
0.00390486414629
0.0039032874285
0.00389680721236
0.00387181156929
0.00378695753587
0.00353921933673
0.00291835053744
0.00161115144978
0.00226743968214
0.00288365638937
0.00327498157559
0.00342071470377
0.00346071517547
0.00347774392686
0.00350706787254
0.0035512971118
0.00358959759092
0.00360442913262
0.00359996947432
0.00358895070634
0.00357869410699
0.00357164912455
0.00356685518615
0.00356370046924
0.00356169549744
0.00356044745602
0.00355968584325
0.00355922222203
0.00355893679128
0.00355875910114
0.00355865337275
0.00355859916655
0.00355858365696
0.00355860014783
0.00355864030469
0.00355869493728
0.00355874358371
0.00355878417789
0.00355880418266
0.00355877347428
0.00355854662698
0.00355747055931
0.00355280569873
0.00353477054991
0.00347426632434
0.00330151222214
0.00289435764583
0.00227467772403
0.00291593243066
0.00327601038849
0.00363830976953
0.00378210077721
0.00382400708393
0.00384552747887
0.00388376358403
0.00394217840487
0.00399657065734
0.00402360018375
0.00402514906878
0.0040161470707
0.0040062306139
0.0039987294844
0.00399370959566
0.00399053156755
0.00398857524975
0.00398738576848
0.00398667087474
0.00398624335792
0.00398598019674
0.00398581394436
0.00398571056476
0.00398565274882
0.00398562724433
0.00398562731597
0.0039856480586
0.00398568184054
0.00398571458283
0.00398574101152
0.0039857500551
0.00398569644916
0.00398537622035
0.00398390947863
0.00397787435754
0.00395590289492
0.00388658520612
0.00370092161705
0.00329883599515
0.00290450237832
0.00328449594559
0.00358642060716
0.00395515635587