/*--------------------------------*- C++ -*----------------------------------*\
| =========                 |                                                 |
| \\      /  F ield         | OpenFOAM: The Open Source CFD Toolbox           |
|  \\    /   O peration     | Version:  3.0.1                                 |
|   \\  /    A nd           | Web:      www.OpenFOAM.org                      |
|    \\/     M anipulation  |                                                 |
\*---------------------------------------------------------------------------*/
FoamFile
{
    version     2.0;
    format      ascii;
    class       volVectorField;
    location    "5.6";
    object      U_0;
}
// * * * * * * * * * * * * * * * * * * * * * * * * * * * * * * * * * * * * * //

dimensions      [0 1 -1 0 0 0 0];

internalField   nonuniform List<vector> 
7968
(
(0.000665647866395 0.000641947878125 -0.00117311385495)
(0.00249592297586 0.000114731584186 -0.00127454518186)
(0.00508450548425 -9.9998014509e-05 -0.00118170289272)
(0.00718437322985 -5.92284841826e-05 -0.000931336114674)
(0.00855319782394 0.000224650006887 -0.000678427116032)
(0.00874741749722 0.000678161810983 -0.000461086879774)
(0.00804432198931 0.00104547056086 -0.000335747807027)
(0.00643787731194 0.00143772203338 -0.000242116049446)
(0.00418339125156 0.00172279069766 -0.000205187601796)
(0.00157841567747 0.00186765328826 -0.000198226094498)
(-0.00114247676675 0.00186984137292 -0.000196845126461)
(-0.00376084829818 0.00172859407596 -0.000200502929811)
(-0.00604002535529 0.00144524104412 -0.000233339008025)
(-0.00768100997661 0.00105313190356 -0.000322264540596)
(-0.00842301169779 0.000681933611519 -0.000445115341755)
(-0.00827629808542 0.000232619957042 -0.0006584798266)
(-0.00696130744814 -5.01744860223e-05 -0.000910783074035)
(-0.00492165530838 -8.73916354926e-05 -0.00116107083163)
(-0.00239523863596 0.000130542707245 -0.00125455139429)
(-0.000628760418685 0.000661683361327 -0.00115357611634)
(0.000136958837112 0.00243365817661 -0.00127668230471)
(0.00211440373774 0.00205640755415 -0.00317352855856)
(0.00526753556356 0.00220310058026 -0.00383628712835)
(0.0077212564995 0.00285720267055 -0.00385965626182)
(0.00920114711652 0.00392062938392 -0.0036973531573)
(0.0094553569416 0.00513635251015 -0.00349552549)
(0.00860721193048 0.00621917421402 -0.00333407541942)
(0.00683674230887 0.00713176162715 -0.00322599162166)
(0.00441788398241 0.00777133431925 -0.00318454382457)
(0.0016575931141 0.00809593873957 -0.00318091238812)
(-0.00121257804256 0.00810162551714 -0.00317912284788)
(-0.00398842443935 0.00778659812817 -0.00317863444354)
(-0.00643579928801 0.007152173284 -0.00321603158563)
(-0.00824376732728 0.00624038836323 -0.00332100384629)
(-0.00913253784502 0.00515909521631 -0.00348106177317)
(-0.00892704303032 0.00394960212988 -0.00368315594678)
(-0.00750074485853 0.0028929867936 -0.00384583212928)
(-0.00510713590255 0.00224669944568 -0.00382452348634)
(-0.0020121078445 0.00210452777158 -0.00316082806671)
(-9.58645533009e-05 0.00248260273594 -0.00125393972577)
(-7.64967227529e-05 0.00499433411203 -0.00119357677192)
(0.00226083019874 0.00518132198421 -0.00384040932134)
(0.00596983586327 0.00588598004237 -0.0046162329092)
(0.00879232536159 0.00722101755806 -0.00447448745267)
(0.0104157535642 0.00901135308372 -0.00407052267727)
(0.0106382081721 0.0109400395914 -0.00364959792582)
(0.00959263999588 0.0126749976359 -0.00332844893943)
(0.00754962924483 0.014094586863 -0.00313849400326)
(0.00484225913717 0.0150889824818 -0.00307026304983)
(0.00180168508668 0.0155983471246 -0.00306315047564)
(-0.00134222948884 0.0156088973229 -0.00306003884826)
(-0.00440326321748 0.0151171351409 -0.00306109676474)
(-0.00714560831494 0.0141316146599 -0.00312526680029)
(-0.00922916712947 0.0127128809009 -0.00331314442725)
(-0.0103155378977 0.0109798903101 -0.00363298047496)
(-0.0101385733329 0.00905944292975 -0.00405328251907)
(-0.00856732846905 0.00727983783182 -0.00445662877976)
(-0.00580539762526 0.00595600678937 -0.00459873187316)
(-0.00215537853854 0.00525747440146 -0.00382241434265)
(0.000119983010189 0.00506742465198 -0.00116535867546)
(-3.67443597236e-05 0.0070745079221 -0.000943253851409)
(0.0029130169444 0.00761378758359 -0.00386858346133)
(0.00730322701447 0.00868697528788 -0.00447894493056)
(0.0105957097604 0.0104926472185 -0.00396147859614)
(0.0123993812688 0.0127874416067 -0.00312766239103)
(0.0125239180383 0.0151992474057 -0.00231442105452)
(0.0111749653988 0.0173695680523 -0.00168729749757)
(0.00870531609255 0.0191322309667 -0.00130329960159)
(0.00553118654704 0.0203594310954 -0.0011460721786)
(0.00203495784913 0.0209861827318 -0.00110750066928)
(-0.00155410221586 0.0210011906172 -0.00110134942735)
(-0.00507870981468 0.0203991704325 -0.00112932409765)
(-0.00829843856206 0.0191823368469 -0.0012813052835)
(-0.0108133973429 0.0174174254749 -0.00166498715452)
(-0.0122003384751 0.0152453459854 -0.0022917302927)
(-0.0121150564825 0.0128410209081 -0.00310222659584)
(-0.0103603368999 0.010559892009 -0.00393251295446)
(-0.00712908573648 0.00876851956365 -0.00444879574249)
(-0.0028005382301 0.00770324296923 -0.00383815003533)
(8.38257218467e-05 0.00715923827706 -0.00090528078746)
(0.000247821478322 0.00842825692178 -0.000692527546854)
(0.00397633926006 0.00907879127101 -0.0037065403701)
(0.00909364032178 0.0102967716606 -0.00407818835081)
(0.0128902461625 0.0122852432337 -0.00313058346238)
(0.0148846993044 0.0147740619417 -0.00178587824069)
(0.0148859352927 0.017378456124 -0.000486682673695)
(0.0131734667397 0.0197046501801 0.000546071072263)
(0.0101958303011 0.0215967857557 0.00123070333059)
(0.0064429325837 0.0229215778642 0.00157987600913)
(0.00235049485212 0.0236043010206 0.00170772404436)
(-0.00183929793586 0.0236231205248 0.00171922569835)
(-0.00597332342211 0.0229708197192 0.00160994700688)
(-0.00978924098077 0.0216555307891 0.00126594063334)
(-0.0128201522212 0.019754239345 0.000575489770133)
(-0.0145661202283 0.0174207226437 -0.000461989347545)
(-0.0145933652535 0.0148192522513 -0.00175706733455)
(-0.0126415920684 0.0123447621202 -0.00309233969687)
(-0.00890711352738 0.0103729353973 -0.00403451634151)
(-0.00385619830861 0.00916441013509 -0.00366152877918)
(-0.000198164698432 0.00851063171492 -0.000644709825158)
(0.000701892069963 0.00861293093075 -0.000478198183155)
(0.0051940282224 0.00932297373828 -0.00350933394482)
(0.0110263919391 0.010510208305 -0.00365980757935)
(0.0153070237497 0.0124029759788 -0.00231621539005)
(0.0174913265259 0.0147715005681 -0.000481656047492)
(0.0173053639037 0.0171921054593 0.00129320594455)
(0.0152130715642 0.0193398775843 0.00268608573314)
(0.0117073056405 0.021094402022 0.00361628088011)
(0.00735699239399 0.0223246925089 0.00409718531584)
(0.00266428652051 0.0229614516353 0.00427236033665)
(-0.00212149327805 0.0229827578538 0.00429038783146)
(-0.00687254848558 0.022381354386 0.00414297001418)
(-0.0113086709845 0.021160452977 0.00366274741573)
(-0.0148751119418 0.019389609559 0.00271260287861)
(-0.0169931348039 0.017227917789 0.0013090492389)
(-0.017194044 0.0148049740148 -0.000460738363636)
(-0.0150428154455 0.0124474536977 -0.00227798237292)
(-0.0108250233797 0.0105702542024 -0.00360917629948)
(-0.00506473704663 0.00939158618951 -0.00345675472944)
(-0.000648028684674 0.0086795610965 -0.000424470997671)
(0.00106974048701 0.00790264132574 -0.000354729495719)
(0.00627930144746 0.00846716096015 -0.00335035935853)
(0.012766500423 0.00945536437595 -0.00333909059021)
(0.0174838234524 0.0110428240558 -0.00168437378925)
(0.0198212889064 0.0130467177618 0.000560944110977)
(0.0194544210799 0.0150888757468 0.0026986315256)
(0.0170289654061 0.0169057781329 0.00435263132519)
(0.0130462673317 0.0184187390459 0.00547424047231)
(0.0081578233964 0.0194915484223 0.00606339864937)
(0.0029379707253 0.0200382691945 0.00628579602215)
(-0.00236294413593 0.0200585479139 0.00631041839609)
(-0.0076582475284 0.0195477357116 0.00612457851696)
(-0.0126585435459 0.0184878898641 0.00552826040476)
(-0.0167098163478 0.0169570099667 0.00437019895458)
(-0.0191528838415 0.0151237065156 0.00270108466826)
(-0.0195217580609 0.013075214555 0.000569837148589)
(-0.0172077892967 0.0110776806912 -0.0016527170672)
(-0.0125524089815 0.00950122672543 -0.00328680046964)
(-0.00614254158045 0.00852012717791 -0.00329285106486)
(-0.0010155111975 0.00795550443399 -0.000299580148754)
(0.00146156111031 0.00629118920583 -0.000262408365012)
(0.0071916491656 0.00668956421794 -0.00324398944256)
(0.0141874346549 0.00740101697083 -0.00315015530776)
(0.0192495354739 0.00855525638543 -0.00129866282374)
(0.0217162966432 0.0100450699131 0.0012523918715)
(0.0212118262412 0.0115545566693 0.00364270585316)
(0.0185433354947 0.0128905848782 0.00549579093476)
(0.0141664226817 0.0140075030279 0.0068097111271)
(0.00882230091031 0.0148010130147 0.00745247977684)
(0.00317142019438 0.0152773170628 0.00746079941263)
(-0.00257123543464 0.0152976015481 0.007478085637)
(-0.00831247785972 0.0148608019915 0.00748521732526)
(-0.0137819071925 0.0140675468162 0.00687505441075)
(-0.0182397864299 0.0129411256889 0.00550781926182)
(-0.0209210033463 0.0115898691751 0.00363659641879)
(-0.0214185264957 0.01007267879 0.00125256052267)
(-0.0189679067104 0.0085860141599 -0.00127108240642)
(-0.0139681707401 0.00743623700488 -0.00309821466561)
(-0.00705266779768 0.00672810161888 -0.00318588792519)
(-0.00140750009558 0.00633021491382 -0.000208348221933)
(0.00174496443639 0.00403444400453 -0.000226233840761)
(0.00782725663386 0.00426636366832 -0.00320401127354)
(0.0151766940501 0.00468463509139 -0.0030847534143)
(0.0204711260944 0.00536425646393 -0.00114551201601)
(0.0230346304054 0.00626596531104 0.00159745313128)
(0.0224340417971 0.00716768625566 0.00412052590147)
(0.0196077126397 0.00795519449445 0.00608274419336)
(0.0149551035914 0.0086096981807 0.00745277463647)
(0.0093558272182 0.00914207357628 0.00768599237921)
(0.00334299879616 0.00941624020917 0.00779041418272)
(-0.00272417515665 0.00942904159305 0.00781351785184)
(-0.00882940761845 0.00917688564035 0.00774012288254)
(-0.014582534791 0.00865961773018 0.00747780847507)
(-0.019308408486 0.00799473805432 0.0061010955664)
(-0.0221496911952 0.0071983655059 0.00411567066049)
(-0.0227389659449 0.00629111452778 0.00159750966502)
(-0.0201888373911 0.00539097805738 -0.00111644767207)
(-0.0149575822608 0.00471153623695 -0.00303242739648)
(-0.00768910640512 0.00429419672893 -0.0031471837848)
(-0.00169204690177 0.00406298452051 -0.000173913916437)
(0.00188734777749 0.00143131769071 -0.000219587524136)
(0.00814558521847 0.00150712451367 -0.00320145005169)
(0.015676602012 0.00164302567219 -0.00308128449945)
(0.0210852278255 0.00186378426973 -0.00111331373756)
(0.0237023812754 0.00216382523878 0.00171333351758)
(0.0230535852441 0.00246007535444 0.00427665579863)
(0.0201389036056 0.00271602890529 0.00628034436313)
(0.015419610315 0.00293661078269 0.00744275109419)
(0.00962706910616 0.00310154919554 0.00777214039404)
(0.00343835451208 0.00319359962025 0.00792987804652)
(-0.00280518377263 0.00319855334573 0.00795363035007)
(-0.00908866603082 0.00311535266642 0.00783221902584)
(-0.0150356116886 0.00295541640958 0.00748618048409)
(-0.0198377010276 0.00273397737048 0.00630725587663)
(-0.0227704087573 0.00247655413549 0.00427820529199)
(-0.023407366753 0.00217924761781 0.00171648631564)
(-0.0208033869011 0.00188124754712 -0.00108240928334)
(-0.0154579734519 0.00166119992132 -0.00302755688186)
(-0.00800859806268 0.00152642918506 -0.00314509903678)
(-0.00183535894457 0.0014514047097 -0.000168232413258)
(0.00188748406906 -0.00128278120552 -0.000218697685658)
(0.00814568558469 -0.00135565898825 -0.0032006794695)
(0.0156779148443 -0.00149190613128 -0.0030812746962)
(0.0210873596265 -0.00171302088143 -0.00111384693391)
(0.0237050222648 -0.00201150421601 0.00171262817831)
(0.0230559607703 -0.00230626048008 0.0042752184347)
(0.0201410453064 -0.00256146487367 0.00627845234021)
(0.015422011462 -0.00278190995 0.00743954229092)
(0.00962910117271 -0.00294709296418 0.0077701825437)
(0.00343973930704 -0.00303805619864 0.00792865749763)
(-0.00280504030486 -0.00304114574065 0.00795267051791)
(-0.00908958584593 -0.00295615710703 0.00783067228943)
(-0.0150370033985 -0.00279384125703 0.0074830226956)
(-0.0198386113524 -0.0025699761098 0.00630565507749)
(-0.0227714674679 -0.00231025876481 0.00427698358115)
(-0.0234083960697 -0.00201044011389 0.00171601210443)
(-0.0208039029593 -0.00170878913259 -0.0010821320986)
(-0.0154580393557 -0.00148411314499 -0.00302638773949)
(-0.00800805029845 -0.00134534610082 -0.00314306693736)
(-0.00183541413114 -0.00127136470447 -0.000166812167225)
(0.00174555719973 -0.00388981146198 -0.000223273545884)
(0.00782805242635 -0.00411851222939 -0.00320123557061)
(0.0151813002855 -0.00453596373651 -0.00308413183739)
(0.0204783972703 -0.0052138322074 -0.00114643898406)
(0.0230435190584 -0.00611178536201 0.00159645177125)
(0.022441996258 -0.00700916711312 0.00411816060014)
(0.0196147741882 -0.00779300546183 0.00607910851624)
(0.0149627585066 -0.00844592643393 0.00744296646342)
(0.00936156111138 -0.008977516042 0.00767859137486)
(0.00334702661876 -0.00925047632905 0.00778512244332)
(-0.00272340428735 -0.0092619475909 0.00780899438902)
(-0.00883188530301 -0.00900867422321 0.00773361403526)
(-0.0145872028298 -0.00849001107106 0.00746788294694)
(-0.0193118574717 -0.0078240241312 0.0060979061817)
(-0.0221536670444 -0.0070281653033 0.00411364970147)
(-0.0227431589108 -0.00612129106657 0.0015972141401)
(-0.0201916649557 -0.00522039301857 -0.00111526721763)
(-0.0149588798631 -0.00453894119698 -0.00302897811257)
(-0.00768819801938 -0.00411904604187 -0.00314145682161)
(-0.00169243782946 -0.00388872195021 -0.000169666774322)
(0.00146309267377 -0.00615584200481 -0.00025712415869)
(0.00719460578024 -0.00655075213261 -0.0032390641376)
(0.0141972096011 -0.00725956753661 -0.00314805131973)
(0.019264319545 -0.00840891413649 -0.0012979561959)
(0.021734143648 -0.00989174143352 0.00125436474713)
(0.021228328567 -0.011392847882 0.00364496122647)
(0.0185583015258 -0.0127207159931 0.00549772903955)
(0.0141778417102 -0.013830799549 0.00681350249862)
(0.00883314050956 -0.0146257760125 0.00744054566238)
(0.00317720343253 -0.0150980987543 0.00745246306006)
(-0.00257037575726 -0.0151173454298 0.00747015681185)
(-0.0083178365582 -0.0146819691833 0.00747356813618)
(-0.0137877110199 -0.0138847859446 0.00687820698333)
(-0.0182485135595 -0.0127626599462 0.00550926066156)
(-0.0209307379423 -0.0114167508592 0.00363871667634)
(-0.0214289515975 -0.00990466652641 0.00125535137288)
(-0.0189760089445 -0.00842158450399 -0.00126772796521)
(-0.0139730629826 -0.00727360356734 -0.00309254024892)
(-0.00705322780034 -0.00656510261502 -0.00317724773241)
(-0.00140883541417 -0.00616803782657 -0.000201286243519)
(0.00107250364996 -0.00778308134511 -0.000347358655237)
(0.00628570892013 -0.00834374089427 -0.00334419603769)
(0.0127832389247 -0.0093276025721 -0.00333533424753)
(0.0175084545334 -0.0109077217935 -0.00168039720448)
(0.0198508518893 -0.0129024476371 0.000568203920038)
(0.019482881994 -0.0149341636296 0.00270929769427)
(0.0170541561452 -0.0167406247492 0.00436556401224)
(0.0130662235845 -0.0182457368323 0.00548944879703)
(0.00817099564767 -0.019312649556 0.00608002290243)
(0.00294512761891 -0.0198555880289 0.00630243770381)
(-0.00236091574571 -0.0198746424525 0.00632740288035)
(-0.00766307197685 -0.0193646568078 0.00614143164467)
(-0.0126703153645 -0.0183076294965 0.00554313323898)
(-0.0167265998273 -0.0167821692991 0.00438273813832)
(-0.019172526712 -0.0149571731565 0.00271165794432)
(-0.0195421027926 -0.0129169249099 0.000578143863058)
(-0.0172242893133 -0.010926272346 -0.00164596016168)
(-0.0125632391304 -0.00935489287573 -0.00327920108747)
(-0.00614622440684 -0.00837582765656 -0.0032823772948)
(-0.0010183118814 -0.00781249545548 -0.000290225857347)
(0.00070308961755 -0.00851125492073 -0.00047078040068)
(0.00520576187496 -0.00921837812482 -0.00350354525365)
(0.0110523463988 -0.0104014016649 -0.00365522447829)
(0.0153435929508 -0.012286147461 -0.00230928995458)
(0.0175343084628 -0.0146453994352 -0.000469420218228)
(0.0173466976409 -0.017055487433 0.00131155496599)
(0.0152491760513 -0.0191927510196 0.00270807859882)
(0.0117354382482 -0.0209393045402 0.00364062523476)
(0.00737588735891 -0.0221645767689 0.0041219629163)
(0.00267456283633 -0.0227980929109 0.00429673992722)
(-0.00211923048019 -0.022818077335 0.0043149870198)
(-0.00687950079179 -0.0222168215954 0.00416824686417)
(-0.0113255787284 -0.0209976532531 0.00368766280667)
(-0.0149006720655 -0.0192321370355 0.00273503314605)
(-0.0170241096547 -0.0170788698515 0.00132769745377)
(-0.0172267358276 -0.0146651381304 -0.000446752010764)
(-0.0150705770401 -0.0123157407235 -0.0022679226537)
(-0.010844913317 -0.0104453235738 -0.00360014156507)
(-0.00507402204421 -0.00926945886471 -0.00344593281867)
(-0.000649150182011 -0.00855779069896 -0.000415332542274)
(0.000253309654671 -0.00834963891963 -0.000684524351463)
(0.00399472828739 -0.00899865260547 -0.00370236815087)
(0.00912914338619 -0.010211959282 -0.00407422572906)
(0.0129383862686 -0.0121929066731 -0.00312247325246)
(0.0149394816821 -0.0146737269184 -0.00177076159564)
(0.0149401565569 -0.0172702652918 -0.000464584616702)
(0.0132215913066 -0.0195870206107 0.000574242997731)
(0.0102346198254 -0.0214720779128 0.00126337914436)
(0.00647002893351 -0.0227916321514 0.00161542218027)
(0.00236518835855 -0.023470898543 0.00174512576097)
(-0.00183728306295 -0.0234881491738 0.00175679237096)
(-0.00598422379409 -0.0228360991046 0.00164621763682)
(-0.0098130302433 -0.0215228630372 0.00130005487988)
(-0.0128547998486 -0.0196261034412 0.000605515353037)
(-0.0146082401884 -0.0173002769606 -0.0004379966694)
(-0.0146375936214 -0.0147059461112 -0.00173909235199)
(-0.0126814317722 -0.0122392724848 -0.00308029046056)
(-0.00893753585201 -0.0102748424543 -0.00402556115216)
(-0.00387333499974 -0.00907048752775 -0.00365294236934)
(-0.000204696264387 -0.00841583044369 -0.000634928504163)
(-3.13951551216e-05 -0.00701839473936 -0.000936705986268)
(0.00293483890511 -0.00755648847833 -0.00386757857118)
(0.00734442284266 -0.00862587930601 -0.00447740881856)
(0.0106507378648 -0.010425621116 -0.0039544861693)
(0.012460865039 -0.0127145706489 -0.00311336007071)
(0.0125838151499 -0.0151207857664 -0.00229321971291)
(0.0112279165902 -0.0172855224016 -0.00166120337532)
(0.00874772111916 -0.0190442111547 -0.00127471394906)
(0.00556106876968 -0.0202682932341 -0.00111517738588)
(0.00205215052994 -0.0208923980885 -0.00107418349676)
(-0.00154936360931 -0.020905885835 -0.00106747304224)
(-0.00508760187594 -0.0203036077255 -0.00109653608941)
(-0.00832191194721 -0.019087295221 -0.00124961684215)
(-0.0108501403887 -0.0173243447862 -0.00163515141032)
(-0.0122464190175 -0.015156713041 -0.00226665690511)
(-0.0121653626614 -0.012757649408 -0.00308309281402)
(-0.0104075144112 -0.0104826696682 -0.00391998690006)
(-0.00716611663556 -0.0086976461891 -0.00444161631819)
(-0.00282210300141 -0.00763596273048 -0.00383255923576)
(7.70577681343e-05 -0.00709146513769 -0.000897356080473)
(-7.0500065376e-05 -0.00495924231498 -0.00118769917187)
(0.00228448072038 -0.00514477872937 -0.00384265049237)
(0.00601422179773 -0.00584654095766 -0.00461781213232)
(0.00885128519238 -0.00717731281076 -0.0044699960363)
(0.0104812104812 -0.00896338061299 -0.00405839890655)
(0.0107016651811 -0.0108881443725 -0.00363121775817)
(0.00964913500988 -0.0126186125956 -0.00330587424972)
(0.00759579725995 -0.0140348612066 -0.00311331087907)
(0.00487594588714 -0.0150266373072 -0.00304314658942)
(0.00182190288937 -0.0155337575971 -0.00303454973785)
(-0.0013361639339 -0.0155432224223 -0.0030306712307)
(-0.00441184781196 -0.0150515982155 -0.00303168546161)
(-0.00716926713499 -0.0140668699722 -0.00309617667134)
(-0.00926660974556 -0.0126501561162 -0.00328587844918)
(-0.0103632191758 -0.0109209951435 -0.00360939879311)
(-0.0101922085384 -0.00900482078065 -0.0040347325761)
(-0.00861869595245 -0.00723008310792 -0.00444587329359)
(-0.00584626110917 -0.0059109624268 -0.00459488172964)
(-0.00217954060226 -0.00521542665359 -0.00382018862315)
(0.000111995575519 -0.00502524777022 -0.00115887082638)
(0.000143432860044 -0.0024159987003 -0.00127486051347)
(0.00213773686666 -0.00203665812578 -0.00317734219459)
(0.00531123796324 -0.00218136158031 -0.00383999781091)
(0.0077800623557 -0.00283340007023 -0.0038582520165)
(0.00926707603128 -0.0038949634491 -0.00368784080838)
(0.00951879637726 -0.00510872677604 -0.00348041575641)
(0.00866414408957 -0.00618866215152 -0.00331545604703)
(0.00688379034939 -0.00709939675894 -0.00320488766922)
(0.00445293372558 -0.00773738173259 -0.00316155526479)
(0.00167952831972 -0.00806073362034 -0.0031566043957)
(-0.00120456159398 -0.00806580776649 -0.00315401352653)
(-0.00399492006711 -0.00775086352508 -0.00315339760414)
(-0.00645721218576 -0.00711713381902 -0.0031912261504)
(-0.00827901136574 -0.0062066774933 -0.00329793107592)
(-0.0091781582131 -0.00512813184842 -0.0034609421049)
(-0.00898009516176 -0.00392130985476 -0.00366778141979)
(-0.00755139756674 -0.00286698779982 -0.00383975537893)
(-0.00514719192117 -0.00222283395743 -0.00382350249724)
(-0.00203620720296 -0.00208229997581 -0.00316170731573)
(-0.000104398241374 -0.00246022962265 -0.00125224126015)
(0.000670267532572 -0.000635453839226 -0.00117276454852)
(0.00251487559242 -0.000106756658157 -0.00127698592889)
(0.00512195472979 0.000108646181231 -0.00118338719472)
(0.00723533364707 6.81500497749e-05 -0.000930560539487)
(0.00861199446464 -0.000215563256638 -0.000673644726991)
(0.00880426124755 -0.000668771105591 -0.000452444967907)
(0.00809684340219 -0.00103523308129 -0.000325505718657)
(0.00648239260527 -0.00142737745428 -0.000230431728536)
(0.00421753755678 -0.00171250259637 -0.000192562635158)
(0.00160085111064 -0.00185729394684 -0.00018502834699)
(-0.00113255230294 -0.00185935304401 -0.000183214263801)
(-0.0037638300978 -0.00171785181559 -0.00018664250623)
(-0.00605604724584 -0.00143426878758 -0.000219537751607)
(-0.00770889718424 -0.0010423257388 -0.000309403878119)
(-0.00845909692228 -0.000671618391973 -0.000433807545724)
(-0.0083191452369 -0.000223622858411 -0.000650548438612)
(-0.00700131996116 5.91578486946e-05 -0.000907273871951)
(-0.00495272815187 9.60393921364e-05 -0.001160198076)
(-0.00241191673794 -0.000122051951639 -0.00125422533729)
(-0.000633648167479 -0.000653036143266 -0.00114922542039)
(0.001345841529 0.00132139657161 -0.00502165357296)
(0.00386274935376 0.0018022057314 -0.00559699419878)
(0.00647065228567 0.00228563041919 -0.00567694360381)
(0.00846047117883 0.00290863718593 -0.0054089487786)
(0.00961238726224 0.00362333202749 -0.00504796825225)
(0.0096427080251 0.00433336945512 -0.00471449443646)
(0.00873196129449 0.00489383118006 -0.0044619221183)
(0.0069313964618 0.0053778127347 -0.00429164649935)
(0.00448190961712 0.00571362780562 -0.00423478407631)
(0.00168243281625 0.00588310400603 -0.00423725536077)
(-0.00123037876208 0.00588652931111 -0.00423346757494)
(-0.00404404808712 0.00572303729228 -0.00422224317962)
(-0.00652011196392 0.00539086787961 -0.00426876889223)
(-0.00835734415665 0.00490825321921 -0.00442809923955)
(-0.00930912847809 0.00434733013031 -0.0046724857085)
(-0.00932975695474 0.00364534409404 -0.00499911216603)
(-0.00823715776145 0.0029339674656 -0.00535827169046)
(-0.00631144313436 0.00231516605667 -0.00562654157886)
(-0.00376970815653 0.00183214973416 -0.00554756491501)
(-0.00131449786871 0.00134761688859 -0.00497284942408)
(0.00182373752067 0.00380190834006 -0.00560278980088)
(0.00444935200105 0.00439037019313 -0.00779010431748)
(0.00689826674184 0.00518230795655 -0.00832495568063)
(0.00868807248049 0.0063228123183 -0.00808055879185)
(0.00961917682278 0.00767184739159 -0.00755616271469)
(0.00956811829821 0.00903407726887 -0.00698627033484)
(0.00857482909248 0.0102366936634 -0.00651178511879)
(0.00676770806434 0.0112194408262 -0.00618594888161)
(0.0043733997085 0.0119062261014 -0.00602274698185)
(0.00164878265232 0.0122588110404 -0.00597016071376)
(-0.00118640334744 0.0122678365746 -0.00596553644188)
(-0.00392719500646 0.0119307148536 -0.00600822839871)
(-0.00635071789114 0.0112529212808 -0.00616149600291)
(-0.00819557764155 0.0102732839717 -0.0064783904212)
(-0.00923175553171 0.00907390870144 -0.00694587301974)
(-0.00933301713923 0.00771993529093 -0.00751011992962)
(-0.00845983173987 0.00638072249279 -0.0080312003444)
(-0.00673479572706 0.00524888699124 -0.00827538010342)
(-0.0043501687596 0.00445969257663 -0.00773952613533)
(-0.00178993538365 0.00386421411799 -0.00554092557923)
(0.00230596128545 0.00637841844231 -0.00569780660208)
(0.00523994318096 0.00680924371281 -0.00833473100726)
(0.00782782868676 0.00774094481796 -0.00872616158001)
(0.00962321946273 0.00916937638154 -0.00805064537549)
(0.0104685363481 0.0108906612138 -0.00697485219314)
(0.0102837063283 0.0126588824797 -0.00585688739427)
(0.0091137080853 0.0142537088343 -0.00492726214486)
(0.00713060270783 0.0155463649094 -0.00428934757287)
(0.00458331565873 0.0164468250166 -0.00394125289023)
(0.00172200362714 0.0169128987635 -0.00380324873586)
(-0.00124765800305 0.0169269355262 -0.00379486981126)
(-0.00412969129667 0.0164845084495 -0.00391737754106)
(-0.00671202601791 0.0155963087667 -0.00425450448531)
(-0.00873511061684 0.0143063003834 -0.00488567083854)
(-0.00994644123451 0.012713654252 -0.00580793651218)
(-0.0101776458147 0.0109533311071 -0.00691720069241)
(-0.00938762594052 0.00924403541435 -0.00798510208553)
(-0.00765692881645 0.00782726323017 -0.00865711320567)
(-0.0051340266217 0.00690175161784 -0.00826385182399)
(-0.00226894903344 0.00646776701762 -0.00561619336329)
(0.00292938935169 0.00834319361335 -0.00543843458516)
(0.00637969353532 0.00857405566714 -0.00810088304344)
(0.00925481464395 0.00951176868506 -0.00806117898434)
(0.0111480207456 0.0110390826811 -0.00671182109828)
(0.0119320028271 0.0129006538636 -0.00487623079776)
(0.0115613133757 0.0148157714206 -0.0030495335535)
(0.0101219825698 0.016543655635 -0.0015475074575)
(0.00783819727077 0.017938438958 -0.000523543004168)
(0.00499848550188 0.0189103405597 4.61206521026e-05)
(0.00186401444308 0.0194150019078 0.000282545035935)
(-0.00137288827521 0.0194335927703 0.000297555802491)
(-0.00453626610473 0.018959971761 8.6202168758e-05)
(-0.00742122294422 0.0180024875822 -0.000472360808621)
(-0.00974932815253 0.0166068607641 -0.0014962861554)
(-0.0112266569126 0.0148755616627 -0.00299387051844)
(-0.0116366894825 0.0129640666182 -0.00480725756064)
(-0.0109025247312 0.0111144606148 -0.00662679866885)
(-0.00907295499431 0.00960122476197 -0.00796607023863)
(-0.00626453374607 0.00867267738886 -0.00800092377776)
(-0.00288731459171 0.00844159265036 -0.00532698205063)
(0.00364371798235 0.00948106974892 -0.00508714362221)
(0.00772818498121 0.00948895704043 -0.00758501337583)
(0.0109760678587 0.0103408775394 -0.00699439428405)
(0.0130085997863 0.0118086692001 -0.00488337635315)
(0.013725992729 0.0136060069748 -0.00221390964529)
(0.013133758786 0.0154616058325 0.000385895267196)
(0.0113932072235 0.0171573274661 0.00248350417652)
(0.00876407101709 0.0185314147097 0.00390148100538)
(0.00556173167632 0.0194946979088 0.00469220084465)
(0.0020597140526 0.0199983596949 0.00502731940895)
(-0.00154740725413 0.020021529473 0.00505128115571)
(-0.00509040130146 0.019556473757 0.00475341286101)
(-0.0083547747232 0.0186090581159 0.00397002775018)
(-0.0110365846565 0.0172277241665 0.00253870471062)
(-0.0128104787883 0.0155212271883 0.000434356078909)
(-0.0134299226991 0.013662013687 -0.00214984378712)
(-0.012752631316 0.0118734997334 -0.00478953887129)
(-0.0107810493781 0.0104202344206 -0.00687825510987)
(-0.0076023259855 0.00957844836592 -0.0074577334907)
(-0.00359663279057 0.00957116350217 -0.00494673097278)
(0.00435511600629 0.00950428400911 -0.00476197396946)
(0.00909159406241 0.00942813961155 -0.00702294017301)
(0.0127468543043 0.0101453421872 -0.00588130914466)
(0.0149255761679 0.0114279253168 -0.00305381536012)
(0.0155802921601 0.0130046251015 0.000394931789862)
(0.0148012833614 0.0146756380553 0.00367066119844)
(0.0127720491999 0.0162212808903 0.0062801616657)
(0.00978532190194 0.0174827218303 0.00803841333249)
(0.00619129008316 0.0183735608871 0.00902221923388)
(0.00228158110624 0.0188457324325 0.00944387752459)
(-0.0017421015903 0.0188729856737 0.00948075922444)
(-0.00570856234669 0.0184463054289 0.00911520713333)
(-0.00938854174834 0.017572799225 0.00813491625201)
(-0.0124396992047 0.0162983795053 0.00633533510397)
(-0.0144971622738 0.0147348395649 0.00369903344583)
(-0.015289421265 0.0130538586374 0.000433666959607)
(-0.0146605082471 0.0114790983994 -0.00297057472059)
(-0.0125375430433 0.0102084895644 -0.00575717117063)
(-0.00895461785978 0.00949919352762 -0.00687962117002)
(-0.00430014487457 0.00957376136608 -0.00460375882447)
(0.00491656875627 0.00858779158751 -0.0045143830785)
(0.0102954181008 0.00842694333702 -0.00655316831522)
(0.014344496251 0.00896505845218 -0.0049520763261)
(0.0166547197755 0.00997550287592 -0.00154183164855)
(0.0172740415076 0.0112493183202 0.0025092585654)
(0.0163442568491 0.0126311685792 0.00630081541727)
(0.0140662179638 0.0139273852783 0.00929359002101)
(0.0107591004593 0.0149997951064 0.0113199084601)
(0.00680102221412 0.0157753448496 0.0124653589503)
(0.00250157202452 0.0161987722172 0.0129668923536)
(-0.00192612093986 0.0162275999645 0.0130210099824)
(-0.00629995029768 0.0158523159936 0.0126033963924)
(-0.0103712891318 0.0150943569157 0.0114607086606)
(-0.013757897171 0.0140079047824 0.00936176741206)
(-0.0160609753513 0.0126915120245 0.00631153730472)
(-0.0169926402069 0.0112957618554 0.00252186751065)
(-0.0163858736713 0.0100184407168 -0.00147872484725)
(-0.0141244764526 0.00901392424731 -0.00483068470936)
(-0.0101507031717 0.00847961233299 -0.00640400393215)
(-0.00485828959226 0.00863897301627 -0.00435063345976)
(0.00539965720028 0.00678250795959 -0.00434694674123)
(0.011276563566 0.0066127383545 -0.00623153746121)
(0.0156361671005 0.00697090504285 -0.00431610864338)