/*--------------------------------*- C++ -*----------------------------------*\
| =========                 |                                                 |
| \\      /  F ield         | OpenFOAM: The Open Source CFD Toolbox           |
|  \\    /   O peration     | Version:  3.0.1                                 |
|   \\  /    A nd           | Web:      www.OpenFOAM.org                      |
|    \\/     M anipulation  |                                                 |
\*---------------------------------------------------------------------------*/
FoamFile
{
    version     2.0;
    format      ascii;
    class       surfaceVectorField;
    location    "5.6";
    object      Uf;
}
// * * * * * * * * * * * * * * * * * * * * * * * * * * * * * * * * * * * * * //

dimensions      [0 1 -1 0 0 0 0];

internalField   nonuniform List<vector> 
22672
(
(0.00153199556739 0.000378400223667 -0.00122450569371)
(0.00040163858336 0.00148940141473 -0.00122555803625)
(0.00100748937152 0.000983157077393 -0.00302142224832)
(0.0038466919292 6.75553616097e-06 -0.00122918265049)
(0.00230952957794 0.00102703708431 -0.00222744126506)
(0.00318562868409 0.000960493702015 -0.00334175967168)
(0.00618511849786 -8.05991566068e-05 -0.00105719185796)
(0.00518532670156 0.000985654690971 -0.00251287717544)
(0.0057881476598 0.00109518762067 -0.00332410720086)
(0.00792977837361 8.16239712547e-05 -0.000804653388766)
(0.00746562255067 0.00131554832604 -0.0023984145101)
(0.00783581627708 0.00142725743824 -0.00306023246831)
(0.0087198667857 0.000450565179903 -0.000568506459194)
(0.00889199405291 0.00196493640141 -0.00218939694909)
(0.00909781117927 0.00192675026885 -0.00275504746869)
(0.00843238187814 0.000861179008983 -0.000396401877968)
(0.00911578387302 0.00277324561943 -0.00197838583848)
(0.00920941853259 0.0025086730807 -0.0024857821758)
(0.00725516236798 0.00124110365507 -0.000286436965505)
(0.00833897378701 0.00347838174373 -0.00183402504156)
(0.00840129472224 0.00297226817523 -0.00230118293576)
(0.0053155902106 0.00158009072012 -0.000220817511314)
(0.00664836406928 0.00411243830827 -0.00173234105107)
(0.00669564527401 0.00341030550058 -0.00217288648914)
(0.00288279277441 0.00179532819745 -0.000198745997516)
(0.00430868628211 0.00456155221672 -0.00169266471434)
(0.00434067505099 0.00372078551242 -0.00212877508313)
(0.000221061325082 0.00186896388682 -0.000194548942623)
(0.00162273487147 0.0047895663342 -0.00168717582914)
(0.00163515081412 0.00387799462792 -0.00212785544321)
(-0.00244705151795 0.00179937220624 -0.000195690445976)
(-0.00117621308297 0.0047934278953 -0.00168557052035)
(-0.00118509670654 0.00388082199676 -0.00212533610602)
(-0.00489861804176 0.00158684401557 -0.000214028729876)
(-0.00387674491293 0.00457189062805 -0.00168730271492)
(-0.00390451811267 0.00372845015284 -0.00212034574987)
(-0.00686751107084 0.00124882011373 -0.000275192645367)
(-0.00624325652135 0.00412618086685 -0.00172284550399)
(-0.00628534903574 0.00342068101283 -0.00215730997016)
(-0.00808245009019 0.000867006270828 -0.000381508957819)
(-0.00797026434754 0.003492656682 -0.00182054410262)
(-0.00802697951669 0.00298341596384 -0.00227774004526)
(-0.00841206993057 0.000456563092245 -0.000550307018484)
(-0.00878732274609 0.00278655227839 -0.00196290858735)
(-0.00887556011398 0.00251759863319 -0.00245695487973)
(-0.00767448620193 9.02946062312e-05 -0.000784083792195)
(-0.00861232309815 0.00198323166992 -0.00217195747541)
(-0.00881384151131 0.00194189561348 -0.0027208379256)
(-0.00598752782522 -6.96259785913e-05 -0.00103623564603)
(-0.00724053413903 0.00133761136212 -0.00238080137655)
(-0.00760929961005 0.00144458899256 -0.00302459274149)
(-0.00371234525493 2.10909958883e-05 -0.00120847922439)
(-0.00502139214324 0.00101316205896 -0.00249621554086)
(-0.0056247656934 0.00111640082957 -0.00328836926903)
(-0.00146390825838 0.000396248882105 -0.00120434994586)
(-0.00220675495131 0.00105831465059 -0.00221065247456)
(-0.00308744208303 0.00098347864626 -0.00330678013791)
(-0.000362231022775 0.00152315827829 -0.00120405440863)
(-0.000972951850722 0.00100615532174 -0.00298708767715)
(0.00106650973988 0.00224858525132 -0.0022284936076)
(2.99099262354e-05 0.00376831737963 -0.00123616022842)
(0.000982693197574 0.00312327725252 -0.00334545152642)
(0.00375525785705 0.00213354335052 -0.00351113579001)
(0.00219225051088 0.00368137296651 -0.00351319783545)
(0.00328930593129 0.00322991189499 -0.00534311042939)
(0.00654166755485 0.00253408978146 -0.00385409982757)
(0.00562849255642 0.00411203491664 -0.00423308711157)
(0.00609426800259 0.00369984923445 -0.00591281568231)
(0.00853058149995 0.00339293897212 -0.00378315807042)
(0.00826990454543 0.00511673448218 -0.00417241694448)
(0.0082182292671 0.00459744181867 -0.00579012423309)
(0.0093852282831 0.00453247038497 -0.00359927632838)
(0.00982288764997 0.0065611651442 -0.00388723815874)
(0.00942437999593 0.00580368020481 -0.00545089824423)
(0.00907554550935 0.00568126162155 -0.00341600900207)
(0.0100605367907 0.00815906561946 -0.00357396318372)
(0.00952509369937 0.00709225688468 -0.00507615897151)
(0.00773240368759 0.00667830663855 -0.00327992912713)
(0.00911215227533 0.0095913309126 -0.00333124843286)
(0.00860286671411 0.00823407987679 -0.00476982852551)
(0.00562621002543 0.00745400732451 -0.00320418825409)
(0.00720324368829 0.0107812339274 -0.00318116042259)
(0.00681198339851 0.00918108198335 -0.0045626229036)
(0.00303777717601 0.00793594138659 -0.00318109454596)
(0.00463743864317 0.0116168697168 -0.00312565023455)
(0.00440284302391 0.00984390916888 -0.00446690565908)
(0.000225675404668 0.00810106419329 -0.00317819740687)
(0.0017341652118 0.0120435809776 -0.00311996073955)
(0.00165766838789 0.0101823665162 -0.00444193421248)
(-0.00259404582763 0.00794646948674 -0.0031771827893)
(-0.00127577664603 0.0120519334002 -0.00311748203456)
(-0.00119779797293 0.0101897579626 -0.00443880613568)
(-0.00520444644042 0.00747194179069 -0.00319611948904)
(-0.00419716846758 0.0116391810187 -0.00311802244082)
(-0.00395894356253 0.00986388109155 -0.00445691217795)
(-0.0073433189607 0.00669924762639 -0.00326819696124)
(-0.00679495102217 0.0108107337652 -0.00316940372205)
(-0.00639717085713 0.00920816217915 -0.00454570313129)
(-0.00872543898615 0.00570339262931 -0.00340194373214)
(-0.00874324589217 0.00962162651325 -0.00331681256088)
(-0.00822602779941 0.00826313196 -0.00474687265758)
(-0.00908085535211 0.00455854079674 -0.00358455904427)
(-0.00973281845052 0.0081908944925 -0.00355808371992)
(-0.00919048541252 0.00712370646052 -0.00504894870215)
(-0.00827737277152 0.00342559630816 -0.00376867505976)
(-0.00954295740919 0.00660065551353 -0.00387106419727)
(-0.00913989360615 0.00584244653742 -0.00542092955392)
(-0.00634640165983 0.00257408049645 -0.00384078127138)
(-0.00804374281934 0.00516503851842 -0.00415603000584)
(-0.00799034089514 0.00464456453494 -0.0057584223792)
(-0.00362131126463 0.00217967611032 -0.00349838879103)
(-0.00546370785811 0.00416992350828 -0.00421787141517)
(-0.0059298177581 0.0037552262349 -0.00588187821726)
(-0.000996291138791 0.00229730059506 -0.00221035693732)
(-0.00208709095276 0.00374460679529 -0.00349733775695)
(-0.00318710827677 0.00328886982587 -0.0053113425085)
(1.27845109436e-05 0.0038302648607 -0.00121034354781)
(-0.000944754446651 0.00317899646628 -0.00330341975759)
(0.00102551161136 0.00509572831152 -0.00252086445627)
(-5.73136410193e-05 0.00608294260808 -0.00106907981689)
(0.00111745120684 0.00569554011826 -0.00334016129318)
(0.004184473609 0.00554200473234 -0.00423514915702)
(0.00259171450456 0.00644190127007 -0.00386064499364)
(0.00375848399199 0.00600514028195 -0.00591951485521)
(0.0074311742378 0.00656156524176 -0.00455140422848)
(0.00664607006519 0.00733358371663 -0.00455365934077)
(0.00691039455076 0.00682346603937 -0.00646827328843)
(0.00968353105909 0.00812347336506 -0.0042764970328)
(0.00970620858864 0.00891866309047 -0.00422207142375)
(0.00922086279198 0.00820476386709 -0.00605430797424)
(0.0105924750952 0.00998178580996 -0.00386192501408)
(0.0114203387084 0.0109846338669 -0.00360093617604)
(0.0104551938419 0.00995965792678 -0.00533243427124)
(0.0101599578835 0.0118119417763 -0.0034892026145)
(0.0115927382391 0.0131810061678 -0.00298206515242)
(0.0104727588081 0.0118067027424 -0.0045894442024)
(0.00858480206913 0.0133875101144 -0.00323247972832)
(0.0103938401453 0.0151555290905 -0.00250684882833)
(0.00936327271939 0.0134698061086 -0.00398906287743)
(0.00619554068874 0.0145933229957 -0.00310262240305)
(0.00813564248093 0.0167645724806 -0.0022192605441)
(0.00734832962192 0.0148244329238 -0.00359409755796)
(0.0033218743107 0.015344575705 -0.00306451642813)
(0.00519285617707 0.0178883699736 -0.00210617319983)
(0.00471898383507 0.0157709695582 -0.00339785435902)
(0.000233044900421 0.0156043550941 -0.00305924536723)
(0.00192243308001 0.0184630700703 -0.00208315951017)
(0.00176598732007 0.0162583130798 -0.0033306804876)
(-0.0028659103087 0.0153640064588 -0.00305832168608)
(-0.00144608834991 0.0184760134978 -0.00207850039039)
(-0.00129291109133 0.0162706607872 -0.00332514615444)
(-0.00576757126716 0.0146260478997 -0.00309130667384)
(-0.00474106000332 0.0179227412339 -0.00209313323579)
(-0.004266618431 0.0158040285443 -0.00338192091775)
(-0.00819456919568 0.0134251268611 -0.00321801932169)
(-0.00772437723197 0.0168085454931 -0.00220150688774)
(-0.0069312027012 0.0148681019304 -0.00357083560546)
(-0.00981030464441 0.011850990067 -0.00347295254866)
(-0.0100258495642 0.015198669988 -0.0024878131552)
(-0.00898674019409 0.0135152308704 -0.00396132974241)
(-0.0102864949502 0.0100260002191 -0.00384458887292)
(-0.0112645952849 0.0132243690201 -0.0029620645296)
(-0.0101377388497 0.0118542169021 -0.00455730591897)
(-0.00942646954856 0.00817724472586 -0.00425841914335)
(-0.0111352229803 0.0110361747946 -0.00357911041279)
(-0.010166735251 0.0100153123536 -0.00529556695153)
(-0.00723120305613 0.00662633343121 -0.00453312014963)
(-0.00947254650154 0.0089827529039 -0.00419805161289)
(-0.00898696701021 0.00827182122652 -0.00601300477436)
(-0.00404684213864 0.00561542161606 -0.00421682038109)
(-0.0064743708012 0.00741064174354 -0.00452917940726)
(-0.00674012221233 0.00690197372045 -0.00642510616625)
(-0.000952999499241 0.00517059846407 -0.00249732436743)
(-0.00248145529413 0.00652605619162 -0.0038358726517)
(-0.00365127193052 0.006089772765 -0.0058753235917)
(0.000102992503864 0.00616316972207 -0.00103565559338)
(-0.00107667897309 0.00577695532889 -0.00328592735456)
(0.00135397675103 0.00735499834902 -0.00240886035426)
(0.00010474214451 0.00780932630917 -0.000817682434586)
(0.00144922769749 0.00772028368944 -0.00308038164943)
(0.00518742348018 0.00816146638785 -0.00417915517738)
(0.00344953793816 0.00841286113768 -0.00379228817153)
(0.00465474769968 0.00810541557561 -0.00580442779789)
(0.00901434273909 0.00959994098913 -0.00422432653604)
(0.00820718680573 0.00956834790235 -0.00428264968552)
(0.00829015821199 0.00911034180066 -0.00606170425766)
(0.0115925312849 0.0116483705013 -0.00354651056699)
(0.0117533688866 0.0114808841353 -0.00354801542204)
(0.0108835849854 0.0107754488088 -0.00514042965826)
(0.0125357544586 0.0139991891457 -0.00272107631437)
(0.0136521343294 0.0138879211914 -0.00245672649771)
(0.0121765109262 0.0128515219188 -0.00384653011773)
(0.0118900787684 0.0162873240987 -0.00199971136624)
(0.013713468683 0.0164016875224 -0.00139929277542)
(0.0120516563165 0.0150122653287 -0.00257502508805)
(0.00994824050839 0.0182510899444 -0.0014936296441)
(0.0121812220765 0.0186495021558 -0.000568882213558)
(0.0106557622476 0.0169584699446 -0.00155215413917)
(0.00711311791959 0.0197440973095 -0.00122281134088)
(0.00945630012226 0.02047698059 -3.44475336866e-05)
(0.00827761792237 0.018534864303 -0.000877304827724)
(0.00378144386951 0.020670037554 -0.00112481628186)
(0.00599166676965 0.0217530045242 0.000218823906844)
(0.00526952465793 0.0196329489087 -0.00053297990615)
(0.00024381709861 0.0209906389895 -0.00110241453333)
(0.00219634334825 0.0224075903225 0.000302072074009)
(0.00195310837458 0.020198020267 -0.000406913145226)
(-0.00330770354536 0.0206975236797 -0.0011133119401)
(-0.00169408127362 0.0224246423115 0.000310931447646)
(-0.00146094862808 0.0202148973281 -0.000397128135353)
(-0.00667703051847 0.0197892019201 -0.00120333344969)
(-0.00552455699687 0.0217976772339 0.000242318534269)
(-0.00480615970567 0.0196778317789 -0.000505629111828)
(-0.00955808506492 0.0183002716962 -0.00147130072124)
(-0.00904377553317 0.0205314069917 -5.70172035766e-06)
(-0.00785992763494 0.0185921807996 -0.000841826832313)
(-0.0115412820298 0.0163344928838 -0.00197692513614)
(-0.0118183419808 0.0186979930279 -0.000542797652856)
(-0.0102832041688 0.0170142359239 -0.00151614557576)
(-0.0122256477588 0.0140492627684 -0.00269658606947)
(-0.0133867452724 0.0164453003526 -0.00137522653276)
(-0.0117174949423 0.0150654323985 -0.00253658505008)
(-0.0113264712282 0.0117090976354 -0.00351874288234)
(-0.0133598795021 0.0139372295754 -0.00242908349279)
(-0.0118822335152 0.0129102960523 -0.00380025168115)
(-0.00880391986585 0.00967469001968 -0.00419411087053)
(-0.0115078214516 0.0115445873909 -0.00351375607477)
(-0.0106394944655 0.0108470771946 -0.00508440856851)
(-0.00504125434389 0.00824731522583 -0.00414823167787)
(-0.00802440622624 0.00964779766781 -0.00424502870767)
(-0.00810949414365 0.00919618231952 -0.00599984819442)
(-0.00127632826457 0.00744237407954 -0.00237420387764)
(-0.00333192440881 0.0085011647123 -0.00375396421259)
(-0.00453935537789 0.00819977752221 -0.00574006660808)
(-5.59830214095e-05 0.00789367864324 -0.000774451683873)
(-0.00140410316711 0.00781209492415 -0.00300686050932)
(0.00200375018693 0.00876592789198 -0.00220111025186)
(0.000474287168812 0.00858662013221 -0.00058417094567)
(0.00194888400085 0.0089672510695 -0.00278106171503)
(0.00663175280957 0.00969971678838 -0.00389578267966)
(0.00458995964238 0.00925427405936 -0.00361090585601)
(0.00586063996727 0.00929555819491 -0.00546943335459)
(0.0110802862959 0.011301232325 -0.00360633857153)
(0.0100675334489 0.0104656792391 -0.00387103359714)
(0.0100450578849 0.0103292898023 -0.00534588273329)
(0.0139975925451 0.0135371822461 -0.00245823135276)
(0.0141065133296 0.0124151369811 -0.00272356899546)
(0.0129590175866 0.0120551729492 -0.00385157699198)
(0.0149573893426 0.0160804161741 -0.00113494295877)
(0.0161947197827 0.0148420041289 -0.00113248086355)
(0.014313037635 0.0141951289727 -0.0019138978861)
(0.0140564804151 0.0185419454572 3.15363772564e-05)
(0.0161003253895 0.0173439834233 0.000405008407892)
(0.0140153239842 0.0164215377881 -4.1405450358e-05)
(0.0116761275432 0.0206476871304 0.000890299896858)
(0.0141966891941 0.0195708237092 0.00161755433633)
(0.0122873328174 0.0184288684612 0.00145901264217)
(0.00830379014979 0.0222537551277 0.00140718771404)
(0.0109545059519 0.021385907232 0.00242464704896)
(0.00948326723668 0.0200591540069 0.00246339199647)
(0.00439258245431 0.0232562273152 0.00164571226272)
(0.00690289487201 0.0226574737914 0.00283954357183)
(0.00600545977119 0.021201387055 0.00300671958545)
(0.000258916122853 0.0236066741686 0.00171541805498)
(0.00251050356707 0.0233142215167 0.00299102515468)
(0.00220823245283 0.0217938153947 0.00322701614821)
(-0.00389505598024 0.023290431957 0.00166656192201)
(-0.00197717932549 0.023334402526 0.00300584156894)
(-0.00169027388464 0.0218149285419 0.00324419284348)
(-0.00785914102061 0.0223080201486 0.0014399502636)
(-0.0064197810999 0.0227106805548 0.00287758970927)
(-0.00552900121796 0.0212571938817 0.00305106295466)
(-0.0112906455413 0.0207021352149 0.00092280134803)
(-0.0105461493886 0.021448502451 0.00246564334178)
(-0.00906964104086 0.0201276995503 0.00251439099236)
(-0.0137144083744 0.0185881178644 5.89009505203e-05)
(-0.0138456856689 0.0196203240737 0.00164573179693)
(-0.0119270092449 0.0184891738149 0.00150141449639)
(-0.0146457201623 0.0161243814956 -0.00110772395608)
(-0.0157793260732 0.0173828743444 0.000425625860188)
(-0.0136887880447 0.0164727235423 -6.27933557524e-06)
(-0.013721127234 0.0135898211123 -0.00242409668522)
(-0.0158959631619 0.0148805203883 -0.00110706180114)
(-0.0140148726281 0.014245994838 -0.00186790209833)
(-0.0108565488026 0.0113694044472 -0.00356467391192)
(-0.0138464983398 0.0124667405611 -0.00268464370147)
(-0.0127030226358 0.0121176429818 -0.00378675296755)
(-0.00647524972596 0.00978094299671 -0.00385076124239)
(-0.00987110814723 0.0105337564012 -0.00382313304483)
(-0.00985158481281 0.0104073710202 -0.00526728398981)
(-0.00192100912157 0.00885020553036 -0.00215421201882)
(-0.00446393177443 0.00933154251684 -0.00356147166502)
(-0.00573604272329 0.00938342576647 -0.00538465039454)
(-0.000422135717168 0.00866125023333 -0.000533056800137)
(-0.00189995602702 0.00905373186193 -0.0026886039414)
(0.00281329678424 0.00897959183085 -0.00199396654982)
(0.000885437413934 0.00829069593421 -0.000414546705458)
(0.00253172993167 0.0090701984708 -0.00251738702581)
(0.00823274893655 0.00992749098093 -0.00358615677348)
(0.00574091404383 0.00893576012328 -0.00343123934013)
(0.00715074073952 0.00938603492169 -0.00510095294512)
(0.0132812452162 0.0114653611955 -0.00298826402107)
(0.0119022474864 0.0100238264166 -0.0034998771136)
(0.0118953678862 0.0103366473059 -0.00460665886701)
(0.016514737952 0.0135928459781 -0.00139781850624)
(0.0164003262464 0.011760060572 -0.00199936597991)
(0.0151231240788 0.0119215402666 -0.00257843252909)
(0.0174595971785 0.015983546711 0.00040747050311)
(0.0186592178781 0.0139321704775 4.13406610929e-05)
(0.0165398678009 0.0138905859168 -3.50427950986e-05)
(0.0162691677062 0.0182636166107 0.00199102636697)
(0.0183804315767 0.0161466660867 0.00199726372257)
(0.0160548102505 0.0159324378463 0.0023877286981)
(0.0134284652608 0.0202112078164 0.00315190148844)
(0.0161207141445 0.0181115950542 0.00351962424611)
(0.0139929273327 0.017775365447 0.00429991244759)
(0.00950333897842 0.0217011912588 0.00385700290676)
(0.0123769027509 0.0197309260289 0.00454470992342)
(0.0107468490372 0.019280402864 0.00558008858603)
(0.00500406465498 0.022633515369 0.0041848564638)
(0.00775872633181 0.0208810549114 0.0050794168632)
(0.00677561780426 0.0203391879362 0.00627567417942)
(0.000274292016256 0.0229623031564 0.00428144866864)
(0.00280379331951 0.0214856320072 0.00527818886252)
(0.00247558209847 0.0208929782145 0.00655834308056)
(-0.00448336681394 0.0226727477729 0.0042168693562)
(-0.00223839751206 0.021507304687 0.00529960057246)
(-0.00192810256359 0.0209174248548 0.0065847378286)
(-0.0090548050544 0.0217629418985 0.00390328278744)
(-0.00726056757309 0.0209395679527 0.00513307936636)
(-0.00628600905951 0.0204043217788 0.0063425327599)
(-0.0130549342674 0.0202695137787 0.00318857379068)
(-0.0119780138601 0.0197988971286 0.00459512572751)
(-0.0103435478091 0.0193589891982 0.00564971772601)
(-0.0159386010014 0.0183067413454 0.0020124567066)
(-0.0157868775566 0.0181625854526 0.00354188271739)
(-0.0136525780658 0.017839247079 0.00434138981722)
(-0.0171499525434 0.0160184858903 0.000426288015125)
(-0.0180686551158 0.0161822562202 0.00200668620038)
(-0.0157417592906 0.0159802593192 0.00241195449712)
(-0.0162272324832 0.013632112763 -0.00136760881739)
(-0.0183563845307 0.0139636854453 5.67800167297e-05)
(-0.0162413520667 0.0139322183597 -5.90167039876e-06)
(-0.0130416792975 0.0115179210521 -0.00294310283438)
(-0.0161266115252 0.0117995304497 -0.00196373371297)
(-0.0148547897667 0.0119696409083 -0.00251836307732)
(-0.00806379187916 0.00999210377396 -0.00353384346746)
(-0.0116920250544 0.0100766542056 -0.00344764796294)
(-0.0116873026465 0.0103985307561 -0.00452081057192)
(-0.00272400603713 0.00904744081245 -0.00194031644634)
(-0.00560657776212 0.00899652635313 -0.00337554216738)
(-0.00701599979928 0.0094561345784 -0.00500480111691)
(-0.000831003717743 0.00835055297324 -0.000359772565234)
(-0.00247673379362 0.00913845283772 -0.0024133314832)
(0.00351982494143 0.00819512449203 -0.00185181949577)
(0.00126540594798 0.00710710058045 -0.000306202472475)
(0.00299609815995 0.00825538205321 -0.00233624098439)
(0.00966901044619 0.00897040451444 -0.00334495968025)
(0.00673902260353 0.00758483141165 -0.00329731188129)
(0.00829435481923 0.00845579669275 -0.00479826866892)
(0.0152616894541 0.0102559866247 -0.00251097907244)
(0.0134810116636 0.00843799409212 -0.00324395113859)
(0.0135624038044 0.00921715331103 -0.00400685981163)
(0.0187673721862 0.0120485929258 -0.000560206812577)
(0.0183688053075 0.0098032628172 -0.00149014628179)
(0.0170731410356 0.0105132665565 -0.00154889967745)
(0.0196886393096 0.0140680144956 0.00163113388056)
(0.0207682319868 0.0115334814312 0.000908356460834)
(0.0185480461199 0.0121488191836 0.00147740545468)
(0.0182342169071 0.0159938009017 0.00352586160172)
(0.0203300623718 0.0132860010254 0.00317127330737)
(0.0178970152101 0.0138571888423 0.00431506950892)
(0.0149803370153 0.0176555642635 0.00491243268109)
(0.0177826802556 0.0148367437398 0.00492315424194)
(0.0155445708825 0.0154103353676 0.00652871228153)
(0.0105584732552 0.0189463716521 0.00576712387986)
(0.0136042215185 0.0161300932081 0.00613985069894)
(0.0119007338288 0.0167004027993 0.00802267713084)
(0.00553903288789 0.0197551591455 0.00617274926192)
(0.00848996916203 0.017056435332 0.00675632117032)
(0.00747955366243 0.0176231299296 0.00884404024652)
(0.000289758911938 0.0200384736015 0.00629634076633)
(0.00305698521455 0.0175482044049 0.00687107827837)
(0.00272210282683 0.0181077149128 0.00918668187672)
(-0.00499465130263 0.0197936836824 0.00621581058263)
(-0.00246271806789 0.0175673850963 0.00689209818579)
(-0.0021402591028 0.0181324703379 0.00922431059644)
(-0.0101071958095 0.0190095283311 0.00582492230643)
(-0.0079790607637 0.017112984723 0.00680330779779)
(-0.00697306400796 0.0176902451802 0.0089391097634)
(-0.0146212724017 0.0177162876912 0.00494843465422)
(-0.0132123705174 0.0161969401549 0.00619976307545)
(-0.0115073766606 0.0167829184301 0.00811601744261)
(-0.0179189567776 0.0160372796077 0.00353611221117)
(-0.0174661283886 0.0148886281868 0.00493822186234)
(-0.0152257743115 0.0154768302861 0.00657162730785)
(-0.0193836929547 0.0141000318872 0.00163717820198)
(-0.0200290942973 0.0133220833496 0.00316970659139)
(-0.0175998852847 0.0139052021566 0.00432489538667)
(-0.0184734976993 0.0120805843515 -0.000539344878856)
(-0.0204652076901 0.0115620894387 0.00091336847982)
(-0.0182532144598 0.0121865981243 0.00149138573728)
(-0.0150092150766 0.0102966315265 -0.00246827884153)
(-0.0180864129556 0.00983636396367 -0.0014598378884)
(-0.0167970316182 0.010552451059 -0.00150113479152)
(-0.00948960641886 0.0090200676441 -0.00328934666286)
(-0.0132618626474 0.00847847629243 -0.00319105244247)
(-0.0133426298798 0.00926478424154 -0.00392145498221)
(-0.00342668878292 0.00824822960334 -0.00179499828627)
(-0.00659986146601 0.00763036987791 -0.00323885277025)
(-0.00815202589251 0.00850884162233 -0.00469679154088)
(-0.00121089153516 0.00715264739272 -0.000251277517503)
(-0.00293927759027 0.00830756750177 -0.00222880502346)
(0.00415345268862 0.00649831276718 -0.00175169485799)
(0.00160330861564 0.00516370367299 -0.0002416450584)
(0.00343344516045 0.00654473693601 -0.00221006423079)
(0.0108595818295 0.00705213244209 -0.00319630333963)
(0.00751256747836 0.00547275066993 -0.00322321791708)
(0.00924038532688 0.00665768498089 -0.00459405743178)
(0.0168729071939 0.00798302295162 -0.00222311834794)
(0.0146848591258 0.00603816692879 -0.00311608327502)
(0.0149171430918 0.00719089364035 -0.003613508947)
(0.0205977330563 0.00930255027883 -2.15830083785e-05)
(0.0198604600716 0.00695008818078 -0.00122058589737)
(0.0186500037149 0.00811766741431 -0.000871664202575)
(0.0215061185961 0.0107993687466 0.00244849588765)
(0.0223724294997 0.00813516454545 0.00142652344977)
(0.020178048779 0.00932183479104 0.00248991593258)
(0.0198554914991 0.0122192555643 0.0045685659476)
(0.0218173689707 0.009327403834 0.00388170171004)
(0.0194021805212 0.0105834659097 0.00560920679531)
(0.0162761558285 0.0134434431822 0.00615057225979)
(0.0190699315118 0.0103741104396 0.0057874555319)
(0.0168351558911 0.0117336566349 0.00804195001546)
(0.0114357720734 0.0143968758408 0.0071290479894)
(0.0145568389242 0.0112444373055 0.00712923283292)
(0.0128714250931 0.0126997513339 0.00972601980803)
(0.00596446239572 0.0150309826057 0.00745465018677)
(0.00908803083981 0.0118678037602 0.00756664753406)
(0.00807757934314 0.0134000912555 0.0106599209047)
(0.000301157421061 0.0152794252036 0.00746683569782)
(0.00325920990739 0.0122258689697 0.00762199270703)
(0.00293824636445 0.0137933668128 0.0109856200273)
(-0.00540466647943 0.0150714337231 0.00747959540095)
(-0.00264290623547 0.0122425553597 0.0076422640126)
(-0.00232126243996 0.013815325962 0.0110306339423)
(-0.0109769046106 0.0144573707789 0.0071781485668)
(-0.00856364555808 0.0119141099465 0.00761009431831)
(-0.00755143195883 0.0134611820854 0.010771094847)
(-0.0159272493349 0.0134992728244 0.00618955028356)
(-0.0141726517379 0.0112974296501 0.00717440790927)
(-0.0124797276185 0.0127718738663 0.00984983952728)
(-0.0195537786482 0.0122626579752 0.00457181624256)
(-0.018763343444 0.0104205070427 0.0058029974652)
(-0.016532168305 0.0117953850468 0.00809463699484)
(-0.0212085631489 0.0108311939477 0.00244589686923)
(-0.0215251031173 0.00936160687777 0.0038765331596)
(-0.0191191171039 0.0106289818821 0.00561524850767)
(-0.0203020893967 0.00933203689845 -7.1245297232e-06)
(-0.0220714132881 0.00816262375611 0.00142712592742)
(-0.0198890004714 0.00935705036317 0.00249297826133)
(-0.0166148812517 0.00801627302433 -0.00218261148933)
(-0.0195749839938 0.00697974245475 -0.00119153762305)
(-0.0183711467082 0.00815241569269 -0.000830603935551)
(-0.0106761993394 0.00708921644463 -0.00314055854985)
(-0.0144632489069 0.00606977318766 -0.00306314838463)
(-0.0146928684415 0.00722796400474 -0.0035300017064)
(-0.0040593923152 0.0065372430729 -0.00169513200148)
(-0.00737274485437 0.00550617896374 -0.0031651003605)
(-0.00909599284341 0.0066960480387 -0.00449264505815)
(-0.00154947225503 0.00519758391971 -0.000188154327891)
(-0.0033763746419 0.00658181850545 -0.00210434956281)
(0.00459969871769 0.00415530926315 -0.00171316811748)
(0.0018164352669 0.00273097764286 -0.000220128964481)
(0.00374153192708 0.00418737770865 -0.00216697816449)
(0.011690647053 0.00447962953995 -0.00314299785247)
(0.00798932223641 0.00288294536981 -0.00320143701765)
(0.00989823524934 0.00424440573741 -0.00450114909944)
(0.0179911488854 0.00502726814912 -0.00211355082446)
(0.0154287372889 0.00315956440619 -0.00308127005359)
(0.0158573361767 0.00455321536765 -0.00342190737996)
(0.0218676694184 0.00581632993461 0.000227520560776)
(0.0207771728602 0.00360774429043 -0.00112788414922)
(0.0197402476107 0.00509440844007 -0.000534187414028)
(0.022770057251 0.0067163002376 0.00285972927216)
(0.0233640793831 0.00420642005151 0.00165693681924)
(0.0213110149298 0.00582036119855 0.00302634293053)
(0.0209970410642 0.00755922459956 0.00510059129434)
(0.0227369297281 0.00480332011433 0.00419842899789)
(0.0204503780594 0.00657875582979 0.00629708357485)
(0.0171959831646 0.008278716394 0.00676611610504)
(0.0198666259634 0.00532307145208 0.00617953000147)
(0.0177481573731 0.00726818630275 0.00885207860967)
(0.0120567841695 0.00887116392735 0.00756683237758)
(0.0151825068963 0.00573756858672 0.00744581962892)
(0.013568165908 0.00785318698724 0.0106460481122)
(0.00630963756906 0.00927419589396 0.00773399005432)
(0.00949012106216 0.00607900334925 0.00772480406157)
(0.00853065491099 0.0083011937754 0.0115359266247)
(0.000310614884764 0.00941775722204 0.00779742102181)
(0.00339260798633 0.00626874622273 0.00785526918971)
(0.00309342201969 0.00853441989706 0.0119561249231)
(-0.00573403054192 0.00929827497762 0.00777276292996)
(-0.00275969043513 0.00627829055696 0.00787884114091)
(-0.00244833996387 0.00854850874118 0.0120088905015)
(-0.0115973898169 0.0089139903341 0.00760635366078)
(-0.00895137018786 0.00610532220569 0.00778214663137)
(-0.00798210175064 0.00833929392554 0.0116721291477)
(-0.0168508676423 0.00832389632683 0.00678785509091)
(-0.0147986350591 0.00577268553991 0.00747988594902)
(-0.0131749256098 0.00790482514299 0.0107782067534)
(-0.0207032827144 0.00759467721278 0.00510771438224)
(-0.0195612099423 0.0053512732911 0.00620258093184)
(-0.0174501763562 0.00731357945578 0.00892163620628)
(-0.0224777148803 0.00674449842171 0.00285776221779)
(-0.0224485434651 0.00482686445397 0.00419714737782)
(-0.0201750522799 0.00661458190111 0.00630916320681)
(-0.0215727341691 0.00584250538876 0.000242712834089)
(-0.0230644938411 0.00422704674387 0.00165907269722)
(-0.0210259842537 0.00584963645266 0.00303058387378)
(-0.017732902786 0.00505427645196 -0.00207207451835)
(-0.0204916311043 0.0036306309213 -0.00109712725331)
(-0.0194621547882 0.00512311475005 -0.000490735805669)
(-0.0115076127775 0.00450714287671 -0.00308769019528)
(-0.0152074747363 0.00318260621918 -0.00302741663427)
(-0.0156335715225 0.00458128512838 -0.00333814449005)
(-0.00450668839739 0.00418360033692 -0.00165812268691)
(-0.00785052617801 0.00290677515197 -0.00314419679752)
(-0.00975511757371 0.00427193615987 -0.00440154789018)
(-0.00176365377913 0.00275548303782 -0.000168001479411)
(-0.00368584707418 0.00421391942825 -0.00206460705376)
(0.00482335105197 0.00147087771441 -0.00170839786465)
(0.00188777105692 7.398991284e-05 -0.000216348977678)
(0.00389544505127 0.00148359806533 -0.00216636584939)
(0.0121093153907 0.00157644393769 -0.00313970921877)
(0.00814845882634 7.54420430324e-05 -0.00319961608603)
(0.0102292575608 0.00150068106441 -0.00447846405682)
(0.0185544318758 0.00175428791675 -0.00209560337835)
(0.0156790907785 7.51863772225e-05 -0.00307941331378)
(0.0163338663958 0.00160013637451 -0.00336074361881)
(0.0225084466008 0.00201410455018 0.000301532109248)
(0.0210849029965 7.48861562056e-05 -0.00111206493314)
(0.0202908573337 0.00177511295046 -0.000421164698462)
(0.0234104159368 0.00231163910309 0.00299563654498)
(0.0236988133622 7.55928339936e-05 0.00171449141727)
(0.0218858085674 0.00201561442976 0.00322884649726)
(0.0215847182312 0.00258716101148 0.00527736770502)