/*--------------------------------*- C++ -*----------------------------------*\
| =========                 |                                                 |
| \\      /  F ield         | OpenFOAM: The Open Source CFD Toolbox           |
|  \\    /   O peration     | Version:  3.0.1                                 |
|   \\  /    A nd           | Web:      www.OpenFOAM.org                      |
|    \\/     M anipulation  |                                                 |
\*---------------------------------------------------------------------------*/
FoamFile
{
    version     2.0;
    format      ascii;
    class       surfaceVectorField;
    location    "8.4";
    object      Uf_0;
}
// * * * * * * * * * * * * * * * * * * * * * * * * * * * * * * * * * * * * * //

dimensions      [0 1 -1 0 0 0 0];

internalField   nonuniform List<vector> 
22672
(
(0.000189637390239 -0.000123783451374 -2.37241271126e-05)
(-9.4883645812e-05 0.000123913778466 -1.45425326418e-05)
(0.000153025561835 0.000133796835614 -0.000313549597003)
(0.000774850156417 -0.000270621464218 -8.60585757123e-05)
(0.00034276543512 -3.92493248626e-05 -0.000474534411671)
(0.000664667495215 0.000106315396646 -0.000545961584576)
(0.00146172268019 -0.000337400952813 -5.12113462755e-05)
(0.00120348909621 -9.77568698084e-05 -0.000601928502232)
(0.00139445274328 0.000118582498942 -0.000589113539554)
(0.00203384277789 -0.000342267067847 3.42416529912e-05)
(0.00190316477154 -8.70395205011e-05 -0.000544675471674)
(0.00197460564508 0.000145751223209 -0.000485078222327)
(0.00236652284447 -0.000285841636193 0.000127412595657)
(0.00239682140783 3.50621432902e-06 -0.000434608311246)
(0.00236964208779 0.000197284684079 -0.000336183755144)
(0.002414606771 -0.000202895732272 0.000204845964611)
(0.00258528574779 0.00013341493206 -0.000311213530079)
(0.00250054397577 0.000268332449299 -0.000181496284833)
(0.00221117800429 -0.000119034306479 0.000259977793341)
(0.00248194776778 0.000260247096997 -0.000211547093948)
(0.00237840149851 0.000330160290114 -5.68158623004e-05)
(0.00178924889081 -4.39158875726e-05 0.000296776288183)
(0.00213177237415 0.00037586403057 -0.000128099332566)
(0.0020348731899 0.000386347609207 4.60672917258e-05)
(0.00121646844563 5.29483827071e-06 0.000314127908895)
(0.00158433198332 0.000459781478683 -7.3864735359e-05)
(0.00151630275368 0.000426444904391 0.000113000794137)
(0.000572720051681 2.23177198344e-05 0.000317343466023)
(0.000924915352643 0.000502913554082 -5.0261888119e-05)
(0.00089793697253 0.000446796556135 0.000140836218634)
(-6.57808967107e-05 7.59498384022e-06 0.000309123161736)
(0.000237328087004 0.00050434335939 -5.50546344503e-05)
(0.000253943363339 0.000448179191154 0.000134158513898)
(-0.000628694990779 -3.53054656382e-05 0.000290641396069)
(-0.00040790775266 0.000465210746532 -8.47512064237e-05)
(-0.000353721095652 0.000430491304494 9.77038697794e-05)
(-0.00105586298479 -9.91594434986e-05 0.000259402618607)
(-0.000943607232478 0.000391584003671 -0.000134489768935)
(-0.000866051542949 0.000395828079928 3.55842007576e-05)
(-0.0013011746357 -0.000170038839942 0.000215207393724)
(-0.00130782054512 0.000291897531855 -0.000202332733397)
(-0.00122782902142 0.000346347203893 -4.65858720168e-05)
(-0.00134530442551 -0.000236035714103 0.000154502266137)
(-0.0014672225788 0.00018517124119 -0.000279403610928)
(-0.00140825582611 0.00029164746737 -0.000141041531826)
(-0.00117269550987 -0.000276982105272 7.95028428799e-05)
(-0.00140233795996 8.11344796204e-05 -0.000369903433629)
(-0.00139483724383 0.000232926990223 -0.000253743463798)
(-0.000824946159318 -0.000265133472766 5.28078422111e-06)
(-0.00110504302571 1.79060328763e-05 -0.000450912374654)
(-0.00118552226739 0.000188778869683 -0.000365655359012)
(-0.000394388749869 -0.000199499830162 -3.10524457449e-05)
(-0.000658989845811 1.71953044581e-05 -0.000492985133874)
(-0.000846342116388 0.000165971415711 -0.000447752540178)
(-4.44614807765e-05 -7.47665626792e-05 1.20497803033e-05)
(-9.50213485519e-05 6.54274007158e-05 -0.000387162891487)
(-0.00039547692928 0.000146657455148 -0.000415354330112)
(0.000142242327009 0.000185797780871 -1.33325529787e-06)
(-8.47797378742e-05 0.000138080818718 -0.000230258978497)
(4.82113033305e-05 0.000215891432093 -0.0004653528172)
(-0.000237416988907 0.00059757108172 -6.48521036359e-05)
(0.000155110317342 0.000553471357402 -0.000521866735649)
(0.000787249214479 0.000142451016788 -0.00099040433819)
(0.000289450869835 0.00057291922612 -0.00099116812693)
(0.000708759826311 0.000547018154949 -0.00135120425318)
(0.00163228089335 0.00016385746925 -0.00109539262763)
(0.00131747886815 0.000608503357753 -0.00123587770804)
(0.00149098161692 0.000588034556377 -0.00155128941345)
(0.00227688811222 0.000265466135937 -0.00101352543591)
(0.00209627429667 0.000719018454045 -0.00116397627115)
(0.00207058679344 0.000672955347335 -0.00145066245801)
(0.00262588266383 0.000431247069214 -0.000873234436982)
(0.0026114818936 0.000906418229127 -0.00100255831278)
(0.00244097210456 0.000801343593919 -0.00125190368285)
(0.00265536346968 0.000614535181547 -0.000727606588638)
(0.00278995407285 0.00113491695177 -0.000821888283292)
(0.00255050979924 0.000953462483894 -0.00103097994041)
(0.00240221610722 0.000778686239541 -0.000599624219855)
(0.00265353609607 0.00134701439578 -0.000664778726909)
(0.00240892654803 0.00109407147992 -0.000833617221551)
(0.00192363297189 0.000907200008487 -0.000498740356108)
(0.00225948169219 0.00152716511677 -0.000535797092562)
(0.0020549055257 0.00121332694085 -0.000672715568423)
(0.00129222606249 0.000987584651342 -0.000438254532373)
(0.00166757531566 0.00165543658594 -0.000448464554574)
(0.00153693510308 0.00129850755671 -0.000564246267404)
(0.000589478394279 0.00101607536426 -0.000422659988592)
(0.000963538780253 0.00172265475847 -0.000409849407723)
(0.000923635541722 0.0013455097904 -0.000516992114461)
(-0.000105056314058 0.000992493299244 -0.00044892900261)
(0.000232053783579 0.00172764273969 -0.000418833236136)
(0.000284131471227 0.00135348584946 -0.00052876374861)
(-0.000718619171297 0.000920564722549 -0.000509882371427)
(-0.000454256199449 0.00167170789429 -0.000469950204945)
(-0.000320892796411 0.00132244754362 -0.000592933798443)
(-0.00119040960833 0.000807715894675 -0.000596225120939)
(-0.00102777608991 0.00156227960388 -0.000554034783015)
(-0.000835194099601 0.00125584260904 -0.000698904997128)
(-0.00147185679385 0.00066767649682 -0.000696943738049)
(-0.00142693109368 0.00140910423098 -0.00066338004318)
(-0.00120814248185 0.00115808067043 -0.000835759550093)
(-0.00152837102027 0.000517185082316 -0.000803809310693)
(-0.00161259366529 0.00123151309742 -0.000786296900852)
(-0.0014075817357 0.00104155654679 -0.000989827744402)
(-0.00134171950083 0.000384403685112 -0.000900318651163)
(-0.00155466026624 0.00104483258558 -0.00091760452115)
(-0.00141367785435 0.000915854586829 -0.00115034970565)
(-0.000929091624302 0.000305171810639 -0.000949178292749)
(-0.00123694902858 0.000890813272246 -0.00102830879984)
(-0.00122017003582 0.000805825204761 -0.00128553507383)
(-0.000368471199747 0.000288831764733 -0.000849095579616)
(-0.000724462135741 0.000797205257965 -0.00106714299853)
(-0.000872873476699 0.000726461813204 -0.0013406301611)
(9.82761069821e-05 0.00033618424266 -0.000400545927089)
(-2.84470648437e-05 0.000753931990986 -0.000852083064911)
(-0.00037515924071 0.000666510419517 -0.00115525150876)
(0.00026631889645 0.000736395481252 -6.49309697796e-05)
(-5.76107779209e-05 0.000612093920567 -0.000452321283562)
(-6.67040559222e-07 0.000941987478908 -0.000590667413365)
(-0.000306578442533 0.00116224877567 -2.82426727479e-05)
(0.000176923482806 0.00114888551389 -0.000564008481613)
(0.000837404044534 0.00102563139416 -0.00123664149678)
(0.000315884037147 0.00129174131574 -0.0011062228743)
(0.000768891196661 0.00119600724753 -0.00155689062948)
(0.00176575628356 0.0011502200667 -0.00130446135157)
(0.00145421130777 0.001404336816 -0.00131555690185)
(0.00158465222048 0.00126775931839 -0.00172418286951)
(0.00244389606696 0.00134481120987 -0.00115300914802)
(0.00228486356406 0.00158666866722 -0.00116503895866)
(0.00216231204643 0.00139768206413 -0.0015457869509)
(0.00278708498175 0.00159213599384 -0.00095121215909)
(0.00280853359253 0.00183694927817 -0.000932466694458)
(0.00251375775344 0.00157966783518 -0.00127371681251)
(0.00279470831065 0.00184663636862 -0.000759060421563)
(0.00296785383108 0.00212189382646 -0.000698435825705)
(0.00260182050999 0.00178851499523 -0.000994597106911)
(0.00251151017835 0.00207147949461 -0.000600951599616)
(0.00279909963194 0.00238467938055 -0.000503547799154)
(0.00244340757831 0.00198602872121 -0.000754463989247)
(0.00200103147989 0.00224813810697 -0.000485521291027)
(0.00236743263863 0.00260658290254 -0.000353723731772)
(0.00207934687285 0.0021562046013 -0.000568936617734)
(0.001338382947 0.00236099418893 -0.000420059429923)
(0.00173938384242 0.00276745804161 -0.000260118019395)
(0.00155876825587 0.00228224199868 -0.000449370956992)
(0.000606107115381 0.0024038057313 -0.000406022655267)
(0.00100096295874 0.00285417705266 -0.000220644332709)
(0.00094636468355 0.00235528364741 -0.000399245043706)
(-0.000117095200973 0.00237695292871 -0.00043985443847)
(0.000235979295536 0.00286606397895 -0.000233723378217)
(0.000307536028005 0.00237298158556 -0.000415218027442)
(-0.000759924684985 0.00228530117621 -0.000514102616532)
(-0.000483885689693 0.0028048091004 -0.000292788334062)
(-0.000299274686436 0.00233590249371 -0.000490271272825)
(-0.00126099944534 0.00213822620629 -0.000621189705256)
(-0.00109142994951 0.00267849378386 -0.000390171143347)
(-0.0008203342351 0.00224935907464 -0.000615139303519)
(-0.00156944959767 0.00195035092092 -0.000752733205983)
(-0.00152556874 0.00249922963016 -0.000524798320743)
(-0.00120730748816 0.00212062671777 -0.000781675332904)
(-0.00164439544397 0.00173916926839 -0.000900092111309)
(-0.00174173251308 0.00228464109977 -0.000684086885046)
(-0.00142629434858 0.00196447107973 -0.000978182311255)
(-0.00145959347906 0.00153324964237 -0.00104559466983)
(-0.00170101728729 0.00205167895517 -0.000862451309151)
(-0.00145254577061 0.00179454852079 -0.00119164843729)
(-0.00102019160493 0.0013658809823 -0.00114627350563)
(-0.00137760618051 0.00184016444635 -0.00103220808637)
(-0.00127442057682 0.00163848137289 -0.00138875300431)
(-0.000394066887434 0.0012457584023 -0.00107013048383)
(-0.000825306221473 0.00167552044517 -0.00113328372047)
(-0.000928562739489 0.00151391682283 -0.00150443966105)
(0.000149913639027 0.0011391424705 -0.000516468107602)
(-4.31039726934e-05 0.00155096157744 -0.000946040982892)
(-0.000403884350649 0.00141629680825 -0.00134100968389)
(0.000322783764911 0.00138385809767 -3.75074211631e-05)
(-6.61234271055e-05 0.00130387450278 -0.000497548642325)
(7.6979401251e-06 0.00152422944149 -0.000543798133682)
(-0.000313813190143 0.00162823483468 5.21083420401e-05)
(0.000206832090385 0.00161141533382 -0.000473681505389)
(0.00095061618085 0.00168522490681 -0.00118513827937)
(0.000415681308943 0.00183215048321 -0.00104694068163)
(0.000859433663369 0.00166365839758 -0.0014833245215)
(0.00195575238546 0.00185735718568 -0.00117613450894)
(0.0016502955792 0.0019751014023 -0.00119000581881)
(0.00172207634371 0.00173329156356 -0.00157589764161)
(0.0026655039623 0.00209633703656 -0.000944496505091)
(0.00252986716353 0.00218557822959 -0.000959397255006)
(0.00231398339327 0.00187569368715 -0.00130865781715)
(0.00300281533076 0.00238424543435 -0.000679690361073)
(0.00306051368191 0.00245831314088 -0.000658244159613)
(0.00265835147467 0.00207925458418 -0.000958671866047)
(0.00298115309798 0.00267659945434 -0.000442923203296)
(0.0031966760835 0.00276313866332 -0.000372313689478)
(0.00272724584127 0.00231658358411 -0.000619579365715)
(0.00265765687637 0.00293570019594 -0.00025631993131)
(0.00298885735067 0.00304513069791 -0.000143022912381)
(0.00254588963061 0.00254618856413 -0.000336952162537)
(0.00210584630294 0.00314086712512 -0.00012832046014)
(0.00250975381857 0.00328561610138 2.74845649465e-05)
(0.00215868751608 0.00274802367488 -0.00012722014671)
(0.00140170540145 0.0032745570113 -6.07029221819e-05)
(0.00183462081907 0.00346152471161 0.00012980590261)
(0.00161790657235 0.00290170279022 1.00761635753e-05)
(0.000631201269723 0.00332979093878 -4.83450556596e-05)
(0.00105191737562 0.00356097853406 0.000170575941368)
(0.000987612697054 0.00299441938265 6.37040118378e-05)
(-0.000130236825575 0.00330717628764 -8.66572738092e-05)
(0.000243661048992 0.00358142163114 0.000154584228403)
(0.000330478870208 0.00302253042899 4.60812721619e-05)
(-0.000812977104812 0.00321163653066 -0.000168856860877)
(-0.000519864764321 0.00352572835838 8.88891718834e-05)
(-0.000296809142545 0.00298688964389 -3.81785969768e-05)
(-0.00135443960677 0.00305338917017 -0.000293779758835)
(-0.0011728143785 0.003401640196 -2.15783209734e-05)
(-0.000842306732844 0.00289384982599 -0.000181683858462)
(-0.00170197068559 0.00284781253534 -0.000456151999807)
(-0.00165306007982 0.00322114070857 -0.000178864280926)
(-0.00125778788274 0.00275437539244 -0.000374380142622)
(-0.00180607962147 0.00261222064399 -0.000646446082888)
(-0.00190878523706 0.00300190873999 -0.000371414171353)
(-0.00150544088189 0.00258436334633 -0.000613158903285)
(-0.00163046164757 0.00237416317063 -0.000849064725691)
(-0.00189374793253 0.00276003524476 -0.000597350402153)
(-0.00155565465767 0.00239955726668 -0.000883974390049)
(-0.00116909480347 0.00216509912819 -0.00101921830122)
(-0.00157110016857 0.00253188526979 -0.000828168449054)
(-0.00138933676458 0.0022291217729 -0.00115308762194)
(-0.000484176437651 0.00199438756352 -0.00100919421954)
(-0.000984827138251 0.00233919305172 -0.000998824921585)
(-0.00103538510704 0.00209303892187 -0.00134859070271)
(0.000141857591578 0.00180673179484 -0.000467080296453)
(-0.00012765645025 0.0021783567505 -0.000871298622403)
(-0.000474109665713 0.00199275488264 -0.00125342873294)
(0.000326185076495 0.00193232246521 3.81832900389e-05)
(-8.8466976881e-05 0.00186567651346 -0.000406606416803)
(8.61213749735e-05 0.00192766289426 -0.000451034205909)
(-0.000262304651293 0.00188914134689 0.000135365733606)
(0.000260455545345 0.00191671656176 -0.000347025087468)
(0.00113407143792 0.00211020184607 -0.00105180822107)
(0.00057495669461 0.00210582258766 -0.000933008233782)
(0.000988229369798 0.00194706741693 -0.00132161897071)
(0.00220655759145 0.0022895335262 -0.000973268564872)
(0.00189375087396 0.00224559904452 -0.00101777124205)
(0.00190453796766 0.0019992439636 -0.00134298037042)
(0.0029423597156 0.00253241468127 -0.000673144909528)
(0.00281776011986 0.00244795158319 -0.000724334382594)
(0.00252016840724 0.0021331257094 -0.000998171939762)
(0.00327000140522 0.00282171778648 -0.000350867488018)
(0.00335315410172 0.00270812339803 -0.000365871068917)
(0.00286348674807 0.00233337606856 -0.000577448442689)
(0.00321504734697 0.00311630218914 -7.24133985633e-05)
(0.00346338403615 0.00299941440155 -3.53539703296e-05)
(0.00291507560642 0.00257308858257 -0.000181318385682)
(0.00284506371192 0.00337953893791 0.000140781583875)
(0.00321352752802 0.00327101508387 0.000223562663755)
(0.00270772650297 0.0028104859825 0.000144102162144)
(0.00223982400118 0.00359072290807 0.000285610927697)
(0.00268182353082 0.00350666916364 0.000412354973602)
(0.00228858069403 0.00302347442365 0.000384189050308)
(0.00148524918848 0.00373229124858 0.00036108476616)
(0.0019516292159 0.00368298514505 0.000525273437148)
(0.00171356864812 0.00318978456686 0.000533116204216)
(0.000665022087759 0.00379644552732 0.00037350522543)
(0.00111562657596 0.00378662960775 0.000568142116198)
(0.0010484778921 0.0032944458487 0.000594577275746)
(-0.000145114061713 0.00378326191112 0.000330130674096)
(0.000255170394112 0.00381498650389 0.000550178578663)
(0.000355609748995 0.00333200530336 0.000576572002861)
(-0.000877859369988 0.00369833649855 0.000236167711787)
(-0.000560248934655 0.0037714278266 0.000478768932697)
(-0.00030865447594 0.00330377103316 0.000487046134546)
(-0.00147118513306 0.00355163213972 9.33371569353e-05)
(-0.00126618368076 0.00366399938077 0.000356589170852)
(-0.000892390659892 0.00321715769555 0.000330966558895)
(-0.00186540703479 0.00335729699985 -9.41264524726e-05)
(-0.00179848028636 0.0035045537202 0.00018308994333)
(-0.00134612337121 0.00308474709754 0.00011080869192)
(-0.00200581563881 0.0031315737636 -0.000322318490618)
(-0.00209903638586 0.00330910521512 -3.58025909431e-05)
(-0.00162841653156 0.00292246274882 -0.000166788108154)
(-0.0018470307627 0.00290000229094 -0.000576454125515)
(-0.00211557782911 0.00309110921108 -0.000300151057058)
(-0.00170533185268 0.00274765445232 -0.000489858984928)
(-0.0013725000998 0.00268960049108 -0.000807775069424)
(-0.00179988361566 0.00288196338549 -0.000581652989746)
(-0.00155020849219 0.00258833237643 -0.000824608725005)
(-0.000639243644556 0.0025088516611 -0.000860929324453)
(-0.00118713173064 0.00269823556626 -0.000808541903458)
(-0.00118394309167 0.00246354156462 -0.00109229866922)
(6.70479868172e-05 0.00229197679345 -0.000366035035911)
(-0.000267176134487 0.00253776505572 -0.000736871075635)
(-0.000581190943216 0.00237860155991 -0.00106569942543)
(0.000278179626506 0.00226720320663 0.000124070166977)
(-0.000130752340528 0.002262693184 -0.000267832371682)
(0.000209916500778 0.00206074863388 -0.000346608294267)
(-0.000185830928611 0.00189685671512 0.000202806366804)
(0.000329568948739 0.00199145625373 -0.000217628820997)
(0.00135535070098 0.00223351205086 -0.00089897125476)
(0.000749998486594 0.00209792242059 -0.000810470172749)
(0.00113692792454 0.00199999550665 -0.00113753059952)
(0.00248771283043 0.00239367667968 -0.000768837059769)
(0.00214343498668 0.00221645680645 -0.00085189934956)
(0.00211062363035 0.00203164493611 -0.00110321627277)
(0.00324654928106 0.00261121699537 -0.000417060541982)
(0.00310790930114 0.00238802876085 -0.000514018707917)
(0.00275576285592 0.00214459828896 -0.000698909964725)
(0.00356356347837 0.00287194755076 -5.0357551228e-05)
(0.00364894278496 0.00261245447668 -0.000113736542754)
(0.00310382273958 0.00232480188439 -0.000221341728467)
(0.00347374522089 0.00313909231539 0.000260622091989)
(0.00373411810442 0.00286576539281 0.000249779457037)
(0.00314073355639 0.00254670826769 0.000223470519382)
(0.00305580644872 0.00338184597435 0.000495136053482)
(0.00344556990534 0.00310604376429 0.000530639588377)
(0.00290722212795 0.00277135122738 0.000582912891843)
(0.00239505733264 0.00358122013284 0.000652017483053)
(0.0028632716503 0.00331929226299 0.000733486793465)
(0.00245217804584 0.00297824468453 0.000848128260325)
(0.00158317878723 0.0037185797637 0.000732330787186)
(0.00207737683918 0.0034822255578 0.000852775706473)
(0.0018349928359 0.0031434520403 0.0010126397863)
(0.000706523797601 0.00378592936926 0.000744815469431)
(0.00118585682481 0.00358204591404 0.000896183244483)
(0.00112463816334 0.00325125313179 0.00108123977454)
(-0.000158987592056 0.00378381325131 0.000698816837265)
(0.00027156263931 0.00361634724679 0.000875992180307)
(0.000385192311435 0.00329565540553 0.0010641512439)
(-0.000946923801207 0.00371808892024 0.000599190391762)
(-0.000596227579384 0.00358910594571 0.000800914142482)
(-0.00032589698424 0.00327842766411 0.000970258287095)
(-0.00159432718263 0.00359853975831 0.000446341957247)
(-0.00135385513554 0.00350793679971 0.000672680402774)
(-0.000955592279959 0.00320744628398 0.000803465873102)
(-0.00203831060781 0.00343867975831 0.00024141380486)
(-0.00193577695908 0.00338363905911 0.000489653923277)
(-0.00145270633551 0.00309543418256 0.000564897839795)
(-0.00221928235658 0.00325187777932 -1.36351573831e-05)
(-0.00227911576743 0.00323025135311 0.000254401774809)
(-0.00177200158088 0.00295845486426 0.000259825345378)
(-0.00208122549668 0.00305730343209 -0.000305349921288)
(-0.00232824338445 0.00305860956069 -3.47855131433e-05)
(-0.0018757664006 0.00281220939475 -0.000105557360457)
(-0.00160015309891 0.00287635012245 -0.00058241982378)
(-0.00202309178755 0.00289076646333 -0.00035061747257)
(-0.00173051007884 0.00268113835383 -0.000489875407083)
(-0.000828213661653 0.00271525714432 -0.00068448365464)
(-0.0013908366309 0.00273974406148 -0.000616697430879)
(-0.00134997994901 0.00258181678088 -0.000813447598085)
(-4.79395279687e-05 0.00250158607673 -0.000246765872747)
(-0.000421734690285 0.00260091589624 -0.000590015946361)
(-0.00070540638729 0.00251942727109 -0.00084342442032)
(0.000206327971917 0.00233531111895 0.000198293795751)
(-0.000187593032575 0.00241741950839 -0.000116047033586)
(0.000330775147357 0.00193488176261 -0.000261055511678)
(-0.000106668830389 0.00167895135768 0.000251493833467)
(0.000390534081454 0.00184307339715 -0.000112866584134)
(0.00156162437648 0.00207726131043 -0.000763398267549)
(0.000907950178698 0.00183747110631 -0.000700005049653)
(0.00127426721873 0.00183311886893 -0.000970394348737)
(0.00274748315807 0.00220454578416 -0.000597080997708)
(0.00236430623224 0.0019265377124 -0.000713450806506)
(0.00230487221695 0.00184717578582 -0.000895935984458)
(0.003528303301 0.00238117345003 -0.000210694708689)
(0.00336467575074 0.00205696992639 -0.000346751281841)
(0.00298253976083 0.00193502572239 -0.00044975762714)
(0.00383770330368 0.00259698783566 0.000186400465511)
(0.00391250150204 0.00223252151732 8.04351700765e-05)
(0.00334058148337 0.00208579417799 7.05364446455e-05)
(0.00371912688816 0.00282219469814 0.000519796953425)
(0.00397905952569 0.00243481507953 0.000466020643261)
(0.00336766004282 0.00227717191454 0.000549529846525)
(0.0032588988116 0.00303184367167 0.00076899032836)
(0.00366008585823 0.00262989684133 0.000761525432865)
(0.00311281684845 0.00247612966701 0.000936377605299)
(0.00254726458955 0.00320789794353 0.000934245016884)
(0.00303388118873 0.00280737564455 0.000975684652229)
(0.00262381362955 0.00266401979697 0.00122355286055)
(0.00168150852336 0.00333262472413 0.00101662816377)
(0.0021977378589 0.00294603772756 0.00109903379522)
(0.00196416651688 0.00281735134342 0.00140194533016)
(0.000751819708625 0.00339906678893 0.00102735995536)
(0.00125565969028 0.00303515041396 0.0011403500182)
(0.00120705693933 0.00292104965343 0.00147658521512)
(-0.000164563510279 0.00340841499301 0.000978089485524)
(0.000293384813582 0.00307326981252 0.00111724731011)
(0.000419688038835 0.00296948859871 0.0014594611008)
(-0.00100175811769 0.00336596682377 0.000874404153494)
(-0.000619440731338 0.00306504719011 0.00103969550797)
(-0.000338159352956 0.00296478706456 0.00136125345188)
(-0.00169630156511 0.00328015715751 0.000715992368804)
(-0.00142100322787 0.00301629798683 0.000907870330237)
(-0.00101219383779 0.00291431234351 0.00118618209747)
(-0.00218338601982 0.00316273247636 0.000502641893227)
(-0.00204454963985 0.00293586990014 0.000719890133275)
(-0.00154958981287 0.00283015498451 0.000934853320161)
(-0.00239922850306 0.00302503109668 0.000233251419049)
(-0.00242264445275 0.00283441827292 0.000477521481566)
(-0.00190156158267 0.00272689822276 0.000611675271811)
(-0.00228264188384 0.00288097386399 -8.00530644253e-05)
(-0.00249952924288 0.00271926623516 0.000175230264673)
(-0.00202892834994 0.00261788580814 0.000222756551544)
(-0.00179999809759 0.00274448418878 -0.000384895079669)
(-0.00220665079603 0.00260551849109 -0.000160774914442)
(-0.00189168048793 0.00252226530857 -0.000197395727704)
(-0.000999977725922 0.00261706198839 -0.0005222297226)
(-0.00156206908974 0.00249847957497 -0.000449255986014)
(-0.00149739651417 0.00245322767528 -0.000558755514867)
(-0.000156813563229 0.00242925636456 -0.000144956277863)
(-0.000558655656519 0.00239072956822 -0.000455086240183)
(-0.000816465767948 0.002411745815 -0.000632977237478)
(0.000132055221178 0.00216497091953 0.000252305866994)
(-0.000237284550969 0.00232437067033 1.35270677532e-05)
(0.000441679885705 0.00158604328411 -0.000187455704508)
(-3.55208728864e-05 0.00126554904178 0.000285251485271)
(0.000445775106041 0.00149568577589 -2.82743179382e-05)
(0.00173734458559 0.00168882161739 -0.000650057588609)
(0.00103300064257 0.00137356507541 -0.000610762225057)
(0.0013907242736 0.00147774807947 -0.000831755092888)
(0.00296635057959 0.0017784213469 -0.000463121090638)
(0.00253755276581 0.00143183050897 -0.000609987668107)
(0.00247103689693 0.00148133250493 -0.000734295124016)
(0.00376689212015 0.00190613713663 -5.56214030752e-05)
(0.00356730574875 0.00151895204762 -0.000228042195503)
(0.00317981610598 0.0015441640008 -0.000262520074694)
(0.00407342628857 0.00206707743866 0.000360055347827)
(0.00412257824483 0.00164045944192 0.000214522904772)
(0.00355001937971 0.00165929020915 0.000285531237331)
(0.00393434098197 0.00223884944469 0.000707749122702)
(0.00417817296527 0.00178443947425 0.000612654711544)
(0.00357336822582 0.00181029455963 0.000789463813352)
(0.00344071006279 0.00240193323692 0.000968219756734)
(0.00383780553581 0.00192592259114 0.000917092737389)
(0.0033033190857 0.00197061319803 0.00119760751824)
(0.00268596178132 0.00254166615136 0.00114047343057)
(0.00317745875901 0.0020577517511 0.00113928947781)
(0.00278594108033 0.0021257112473 0.00150437392484)
(0.00177316698495 0.00264410724048 0.00122275564966)
(0.00230223296929 0.00216364111825 0.00125795616728)
(0.00208824171458 0.00225515608996 0.00169519258445)
(0.000798446342172 0.00270460008023 0.00123023737295)
(0.00131854067611 0.00223633348795 0.00129193974083)
(0.00128829242032 0.00234705377947 0.00177353825023)
(-0.000160031029688 0.00272508220984 0.00117885333255)
(0.000318055174047 0.00227642959144 0.00126472894877)
(0.000457625049353 0.00239616720842 0.00175531786717)
(-0.00103763751791 0.00271094488808 0.00107316168471)
(-0.000628054682049 0.00228955813349 0.001187876852)
(-0.000341120628452 0.00240565584102 0.00165309550624)
(-0.00177007698195 0.00266749569897 0.000911768094707)
(-0.00145810142394 0.00227755904883 0.00106266899873)
(-0.00105320418194 0.00238212954631 0.0014711781508)
(-0.00229104253885 0.00260223695378 0.000694769721613)
(-0.00211256046221 0.00224563540665 0.000874357353176)
(-0.00162393662729 0.00233439812921 0.00121119969989)
(-0.0025345361873 0.00252296220521 0.00041950032719)
(-0.00251643394469 0.00220038190913 0.000631363489084)
(-0.00200201388674 0.0022736857238 0.000877529691271)
(-0.00243582197465 0.00243818893606 9.45084146569e-05)
(-0.00261461374457 0.00214601938952 0.000326011426411)
(-0.00214785444459 0.00220946998189 0.000474532475068)
(-0.0019558543384 0.00235456585347 -0.000225135820787)
(-0.00233395768111 0.00208888709975 -1.91384417752e-05)
(-0.00201683881918 0.00215420709923 3.66638624277e-05)
(-0.0011388100434 0.00226877870826 -0.000382112503597)
(-0.00168544546893 0.00202944649639 -0.000315824412605)
(-0.00161154058927 0.00211622173758 -0.000348010807251)
(-0.000254446902517 0.00212308204392 -5.78240953261e-05)
(-0.000662517465492 0.00195751279383 -0.000341613812103)
(-0.000903439449915 0.00209229780428 -0.000451145722581)
(6.48148886746e-05 0.00178357778998 0.000289832037935)
(-0.000280237758809 0.00202030084926 0.000126946687352)
(0.000522854838059 0.00105930619502 -0.000138055035279)
(1.21910096665e-05 0.000713800573764 0.000301098545381)
(0.000484802574678 0.0009913355569 2.8896807797e-05)
(0.00186316815954 0.00112146681229 -0.000570692304555)
(0.00111242876855 0.000769015635933 -0.000554658562873)
(0.00147378730858 0.000976625641526 -0.000735760422533)
(0.00312378141948 0.001175616388 -0.000374908772972)
(0.00264828600158 0.000798570894916 -0.000548426168739)
(0.00259281142783 0.0009774933017 -0.000627350135862)
(0.00394157233557 0.00125504302558 4.21021123441e-05)
(0.0036986069897 0.000845656337631 -0.000162075172612)
(0.00332751769484 0.00101828023391 -0.000144491818212)
(0.00424819594103 0.00135833300628 0.000467122268489)
(0.0042612149449 0.000912827742069 0.000287972468405)
(0.00371001871109 0.00109607371071 0.000421011182464)
(0.00409668846015 0.0014715184464 0.00082199832623)
(0.00431220098494 0.00099589015256 0.000691925483881)
(0.00373363251202 0.00120051793183 0.000940059425316)
(0.003580401154 0.00158170946282 0.00108816245847)
(0.00396005635036 0.00108015037566 0.000999844996943)
(0.0034547758279 0.001313736259 0.00136206157086)
(0.00279405954942 0.00168085326273 0.00125677221452)
(0.00327890853354 0.00116155466803 0.00122438421273)
(0.0029173398204 0.00142620307188 0.00168254013827)
(0.00184808205568 0.00175897716421 0.00132714025846)
(0.00238029422109 0.00123273716562 0.00133197802765)
(0.00219217562656 0.00152490408617 0.00187688234727)
(0.000839900852813 0.0018117420846 0.00132643131665)
(0.0013706356248 0.00128903125311 0.00136096364773)
(0.00135898282705 0.00159926226057 0.001955483878)
(-0.000147703398911 0.00184232884399 0.00127375246822)
(0.000348560745802 0.00133092234256 0.00132873309547)
(0.000495785583165 0.00164742272007 0.00193311157906)
(-0.00104703954241 0.00185484238817 0.00117738416602)
(-0.000615461542918 0.00136262064328 0.00125035045365)
(-0.000332029871922 0.00167256745603 0.00182627344605)
(-0.00180227240389 0.0018537105501 0.0010252582572)
(-0.00145821256681 0.00138692399162 0.00113517463104)
(-0.00106705044884 0.00167839473731 0.00164586756204)
(-0.00234533083625 0.00184226432054 0.000810951120646)
(-0.002128315327 0.00140514351337 0.000953499395925)
(-0.00166074352928 0.00167173084305 0.00138354990858)
(-0.00260845839684 0.00182220187066 0.000537874588304)
(-0.00254805216199 0.00141561139361 0.000715017377296)
(-0.00205685551191 0.00165713342661 0.00104789772416)
(-0.00252487563831 0.00179623061611 0.000212364569978)
(-0.00266113373176 0.00142046467833 0.000413855026192)
(-0.00221613839003 0.00163992628682 0.000641971795752)
(-0.00205160237528 0.00176444081649 -0.000109827033594)
(-0.00239241665532 0.00141811720951 6.96652088033e-05)
(-0.0020909540055 0.00162495393938 0.000197496762097)
(-0.00122952389592 0.00171991654945 -0.000275325721111)
(-0.00174928280038 0.00140408555883 -0.000227168231362)
(-0.00168110485227 0.0016142593705 -0.000196717086529)
(-0.000325070553244 0.00162027932391 6.04232115786e-06)
(-0.000723630445832 0.00136733519347 -0.0002629414515)