/*--------------------------------*- C++ -*----------------------------------*\
| =========                 |                                                 |
| \\      /  F ield         | OpenFOAM: The Open Source CFD Toolbox           |
|  \\    /   O peration     | Version:  3.0.1                                 |
|   \\  /    A nd           | Web:      www.OpenFOAM.org                      |
|    \\/     M anipulation  |                                                 |
\*---------------------------------------------------------------------------*/
FoamFile
{
    version     2.0;
    format      ascii;
    class       volScalarField;
    location    "9.9";
    object      epsilon;
}
// * * * * * * * * * * * * * * * * * * * * * * * * * * * * * * * * * * * * * //

dimensions      [0 2 -3 0 0 0 0];

internalField   nonuniform List<scalar> 
7968
(
6.34597334095e-05
8.27411005544e-05
9.47489124827e-05
9.94165637015e-05
9.78173341799e-05
9.29920509877e-05
8.65313986614e-05
8.03778707558e-05
7.61657572765e-05
7.41142579848e-05
7.40813954381e-05
7.60980295448e-05
8.02912819352e-05
8.6441239807e-05
9.29107096524e-05
9.77505848145e-05
9.93697664179e-05
9.47192587027e-05
8.27238642831e-05
6.34508129924e-05
8.27314572705e-05
0.000141980974594
0.000175067707243
0.00018629609977
0.000181357418435
0.00016832155699
0.000151283707518
0.000134020210268
0.000120277292429
0.000112419324963
0.000112369114334
0.000120166039347
0.000133873201001
0.000151127182476
0.000168174734331
0.000181230806033
0.000186203440418
0.000175010190012
0.000141953106284
8.2725249731e-05
9.47305834516e-05
0.000175049373662
0.000220473829897
0.00023631251307
0.000230407175141
0.000212767044543
0.00018938221635
0.00016494237277
0.000145563951366
0.000134682008161
0.000134632011722
0.000145455102917
0.000164774909538
0.000189205063747
0.000212598683153
0.000230258243544
0.00023620323277
0.00022040705191
0.000175020219045
9.47278475037e-05
9.93909710092e-05
0.000186256522342
0.000236285146705
0.000255592162065
0.000251568683719
0.000234155920273
0.000211927943639
0.000192059442589
0.000174473627554
0.000162862144308
0.000162811891476
0.000174372484624
0.000191928590735
0.000211784027882
0.000233986637155
0.000251415405963
0.000255479178435
0.000236216666722
0.000186227371145
9.93881804112e-05
9.77870113923e-05
0.00018130352712
0.000230357845098
0.000251542884782
0.000251122002691
0.000243398937368
0.000231738666327
0.000217035538061
0.000201616051813
0.000190226146125
0.000190175159086
0.000201517972383
0.000216917083784
0.000231613904907
0.000243266582599
0.000250973453354
0.000251430330786
0.000230285919627
0.000181268511913
9.77798547262e-05
9.29688167385e-05
0.000168275474617
0.000212718448103
0.000234124552373
0.000243388775549
0.000247583292309
0.00024470015642
0.000235215392812
0.000222259330232
0.000211581113241
0.000211529023756
0.000222160931457
0.000235101730693
0.000244587684007
0.000247474108643
0.000243278416775
0.000234014996439
0.000212640770823
0.000168229193032
9.2953779555e-05
8.65289222303e-05
0.000151263078445
0.000189353439967
0.000211908477257
0.000231731893203
0.000244702078357
0.000248644911324
0.00024360389768
0.000232943898655
0.000223081348739
0.000223028871795
0.000232845139398
0.000243492750413
0.000248540529502
0.000244606957147
0.000231641693224
0.00021182271757
0.000189271515611
0.000151206653892
8.65051402056e-05
8.04055470489e-05
0.000134038256725
0.000164948670171
0.000192060757599
0.000217044313056
0.000235233550642
0.000243622552336
0.000241739758498
0.000232732754214
0.000223385882792
0.0002233350872
0.000232638270197
0.000241636283714
0.00024352832543
0.000235151648546
0.000216969122404
0.000191987717082
0.000164868334746
0.000133979474338
8.03775458269e-05
7.62181018974e-05
0.000120330296494
0.00014559414844
0.00017449722595
0.000201646755605
0.000222303080012
0.000232992952359
0.000232767799568
0.000224398921367
0.000214854967484
0.000214809466534
0.00022431845109
0.000232685091864
0.000232922134211
0.00022224431942
0.000201593732615
0.000174445723904
0.000145542092404
0.000120288037182
7.61997649523e-05
7.41684789841e-05
0.000112480430851
0.000134720873078
0.000162896226437
0.000190268987266
0.000211639986912
0.000223150459756
0.000223448456728
0.000214890212576
0.000204471904247
0.000204437049059
0.000214837765078
0.000223405004626
0.00022312263422
0.00021162277865
0.000190254426729
0.000162881736703
0.000134708154145
0.000112481541556
7.41819365343e-05
7.41310938449e-05
0.000112419107843
0.000134661489036
0.000162834232203
0.000190199664664
0.000211562279486
0.000223069047586
0.000223373340845
0.000214833827304
0.000204441397609
0.000204426082854
0.000214823140259
0.000223383640888
0.0002230992821
0.000211602224284
0.000190239095523
0.000162871580289
0.0001347015531
0.000112479578039
7.41889960636e-05
7.61399221815e-05
0.000120199468205
0.000145469917113
0.000174375959469
0.000201516130238
0.000222158918029
0.000232843773569
0.000232635134988
0.000224310237043
0.000214826027572
0.000214819998657
0.000224313162343
0.00023265762491
0.000232883963936
0.000222207216995
0.000201563229526
0.000174421649963
0.000145521215063
0.000120274350345
7.62061159562e-05
8.03195059081e-05
0.00013388523819
0.000164776673687
0.000191913453689
0.000216893626632
0.00023507432552
0.000243463765944
0.000241607359572
0.000232659383818
0.000223389371048
0.000223386129273
0.000232662902834
0.000241624042913
0.000243492850732
0.000235108744406
0.000216925887075
0.000191944528646
0.000164819125905
0.000133941845197
8.03683356824e-05
8.64487090765e-05
0.000151112652004
0.000189179975336
0.000211749487706
0.000231575012799
0.000244547947655
0.000248502804596
0.000243496045799
0.000232901018812
0.00022311997986
0.000223116939197
0.000232901381242
0.000243502829577
0.000248516260174
0.000244562587771
0.000231584524474
0.000211754939469
0.000189192947448
0.000151139329059
8.64724737338e-05
9.28955421312e-05
0.000168133820712
0.000212547188872
0.000233934059382
0.000243217495391
0.000247431402492
0.000244573489698
0.000235131025696
0.000222241365534
0.00021164264911
0.000211638933973
0.000222238140307
0.000235128735432
0.00024457155715
0.000247425105026
0.000243200356999
0.000233907280682
0.000212534079175
0.000168133720671
9.28975261303e-05
9.77152330181e-05
0.000181167024302
0.000230184410773
0.000251346629433
0.000250918623609
0.00024323812308
0.000231617616229
0.000216963907477
0.000201610965948
0.000190295953147
0.000190290829306
0.000201602772342
0.000216950871335
0.00023159824711
0.000243206101396
0.000250863570837
0.000251302807269
0.000230153778074
0.000181147229224
9.77015888418e-05
9.93146659412e-05
0.000186120593532
0.000236111380364
0.000255399143655
0.00025137474374
0.000233981742063
0.000211808174721
0.000191993956451
0.000174474940213
0.00016293359933
0.000162926178203
0.000174459026457
0.000191965160322
0.00021176629173
0.000233915003407
0.000251306163201
0.00025534268672
0.000236068470998
0.000186088177701
9.92912584422e-05
9.46502994211e-05
0.000174918835721
0.000220311484323
0.000236137905916
0.000230235992205
0.000212614068831
0.000189262724263
0.000164876963641
0.000145567534921
0.000134752098904
0.000134742279465
0.000145541894711
0.0001648218367
0.00018919191033
0.000212536698832
0.000230157287492
0.00023607153928
0.000220259381367
0.000174877844724
9.46212890721e-05
8.26531371367e-05
0.0001418706689
0.000174939806606
0.000186163647193
0.000181229173295
0.000168204909734
0.000151191138766
0.00013397196657
0.000120293860208
0.000112505106435
0.00011249415856
0.000120262718518
0.000133915043511
0.000151115677169
0.000168121469506
0.000181144978419
0.000186091289252
0.000174882516988
0.000141825282841
8.26223033603e-05
6.33915290374e-05
8.26687769563e-05
9.4681481267e-05
9.93551110549e-05
9.77611183349e-05
9.2941188988e-05
8.64919088266e-05
8.03625501142e-05
7.61876294142e-05
7.4176857012e-05
7.41667621489e-05
7.61616771036e-05
8.03167687954e-05
8.64317920773e-05
9.28757658455e-05
9.76973383238e-05
9.92998366139e-05
9.46370317019e-05
8.26339946437e-05
6.33653004272e-05
0.000123554442287
0.000174926098033
0.000209730203829
0.000226213949194
0.000229441519126
0.000225316415853
0.0002206061227
0.000221579016572
0.00023034821136
0.000240231494175
0.000240164359692
0.000230162120078
0.000221307374429
0.000220310116673
0.000225051618033
0.000229235210057
0.000226076041551
0.000209647045151
0.000174880978708
0.000123524512569
0.000174932364482
0.000208472907081
0.000231212495905
0.000239659896302
0.000237514520309
0.000228302572424
0.000217081178034
0.000208287877069
0.000204700128951
0.00020481901471
0.00020475674163
0.000204536930734
0.000208054390803
0.000216821974324
0.000228062388108
0.000237322807393
0.000239528089496
0.000231132002564
0.000208426080485
0.000174901118853
0.000209721069396
0.00023120335535
0.000243289243224
0.000243508366959
0.000235733850029
0.000222942249931
0.000208509586187
0.0001960238175
0.00018866711632
0.000184862978106
0.000184822291463
0.000188569115114
0.00019588511015
0.000208323852286
0.000222760975066
0.000235580166888
0.000243397823839
0.000243222785722
0.000231170071922
0.000209702187731
0.000226189632034
0.000239637500561
0.000243493667298
0.000238788624158
0.000230057488145
0.000220064542475
0.000211801846127
0.000203461455127
0.000196213436382
0.00019136560742
0.000191335564886
0.000196148285806
0.00020337450548
0.000211698462382
0.00021995598971
0.000229942671644
0.000238697379096
0.000243437436752
0.000239614143905
0.0002261802108
0.000229408398825
0.000237485738098
0.000235710655659
0.000230047284998
0.000225804841176
0.00022432767333
0.000222457863022
0.000218495717212
0.00021314351858
0.000208619497068
0.000208595470843
0.000213097310208
0.000218440718626
0.000222398472692
0.0002242631339
0.000225730943642
0.000229969912909
0.000235655312334
0.000237462452918
0.000229402926473
0.000225315604747
0.000228297842094
0.000222930441611
0.000220059325557
0.00022432682431
0.000230427404223
0.000234574919588
0.000234719205142
0.000231475145728
0.000227672831107
0.000227651926876
0.000231438618327
0.000234680677304
0.000234539327516
0.000230388724239
0.000224277582061
0.000219999415826
0.000222868101852
0.000228261018367
0.000225298559571
0.00022069551389
0.000217137679307
0.000208531595987
0.000211811408104
0.000222463090774
0.000234578735022
0.000243606712457
0.000246956759841
0.000245480268949
0.00024227706826
0.00024225754096
0.000245447565862
0.000246924557409
0.000243582352905
0.000234554014888
0.000222427255183
0.000211759793386
0.000208463246764
0.00021708893898
0.000220667948464
0.000221798805877
0.000208428296296
0.000196086217363
0.000203489944629
0.000218512077472
0.00023473297708
0.00024696808127
0.00025275570127
0.000252421910701
0.000249448609972
0.000249429787341
0.000252392184812
0.00025272991191
0.000246949550844
0.000234717172666
0.000218487463474
0.000203451133559
0.000196037696593
0.00020839208361
0.000221795588931
0.000230670045618
0.000204907794815
0.000188760800762
0.000196257558006
0.000213170785711
0.000231500608724
0.000245504849479
0.000252438705522
0.000252418732788
0.000249177739927
0.000249160831323
0.000252395041632
0.000252423673481
0.000245500020611
0.000231498942556
0.000213162350793
0.000196239730138
0.000188743916897
0.000204926897457
0.000230759807038
0.000240554434576
0.000205033361703
0.000184959060444
0.000191410988154
0.000208648803004
0.000227702506162
0.000242309317676
0.000249478236498
0.000249194931957
0.000245392106033
0.000245381310313
0.000249186423087
0.000249484248718
0.00024232868173
0.000227726053762
0.000208667896444
0.000191427580298
0.0001849945385
0.000205146451494
0.000240792064011
0.000240400968334
0.000204914852303
0.000184886412801
0.00019135963687
0.000208606118954
0.000227662774976
0.000242272018048
0.000249445984533
0.000249173245893
0.000245386002386
0.000245387358152
0.000249190831078
0.000249484672512
0.000242326392919
0.000227722064745
0.000208662405079
0.000191419240166
0.000184980406066
0.000205121305975
0.000240767622794
0.000230301289961
0.000204622646308
0.000188592602684
0.000196145428352
0.000213084779846
0.000231425913692
0.000245438097213
0.000252386477805
0.000252392485505
0.000249186699739
0.000249194604279
0.000252421571156
0.000252437029926
0.000245503040596
0.000231495113029
0.000213151323557
0.000196217612846
0.000188703597599
0.000204854379635
0.000230684824941
0.00022136016084
0.000208071978958
0.000195868579213
0.000203345343669
0.00021840797684
0.000234649716939
0.00024689819703
0.000252709522635
0.000252411437329
0.000249482117812
0.000249492538454
0.000252443084134
0.000252759044674
0.000246958946161
0.000234713326429
0.000218468578033
0.000203409858518
0.000195964724741
0.000208270747133
0.00022166686892
0.000220290560659
0.000216778621319
0.000208269371126
0.000211642329075
0.000222346684202
0.000234494835978
0.000243546224299
0.000246922137593
0.000245484592886
0.000242327863235
0.000242338591117
0.000245514404782
0.000246964877166
0.000243597923537
0.000234547013643
0.000222393850148
0.000211690654968
0.000208340832819
0.000216921619042
0.000220491285732
0.000224974102853
0.000227967010975
0.00022266508574
0.000219871862175
0.000224192356547
0.000230331915213
0.000234510915963
0.000234687414484
0.000231483850566
0.0002277286771
0.000227738209237
0.000231509696595
0.000234722649148
0.000234550669088
0.00023036928071
0.00022422259316
0.00021989976502
0.000222709512138
0.000228058425414
0.000225086913701
0.000229116258642
0.000237187383264
0.000235448499379
0.000229829947224
0.000225640557598
0.000224206873844
0.000222374384726
0.000218451682847
0.000213145658878
0.000208671310327
0.000208678197449
0.000213163728699
0.000218474701587
0.000222395806157
0.000224222525372
0.000225646367999
0.000229831780978
0.000235469562146
0.000237237916476
0.000229165533662
0.000225929102259
0.000239368237394
0.000243240434371
0.000238559889015
0.000229858892209
0.000219911119215
0.000211689474503
0.000203398647868
0.000196206040905
0.00019141360152
0.000191416717821
0.000196212137254
0.000203400348349
0.00021168062739
0.000219892817522
0.000229828565881
0.000238539048372
0.000243239379311
0.000239385839227
0.000225935511474
0.00020948960878
0.000230965425224
0.00024305280412
0.000243282093343
0.000235521752715
0.000222753347557
0.000208360507901
0.000195944386636
0.000188659538891
0.000184923924555
0.000184921829663
0.000188647992834
0.000195914424831
0.000208298910829
0.000222681763547
0.000235454230786
0.000243231868869
0.000243024019092
0.000230950694751
0.000209463945848
0.000174741760002
0.000208270583455
0.000231000696263
0.000239448637158
0.000237307498283
0.00022810917098
0.000216925884652
0.000208209019417
0.00020472592585
0.000204943393472
0.000204932340093
0.000204682776238
0.000208125621083
0.000216812540584
0.000227986879201
0.000237197285125
0.000239362643738
0.000230938537256
0.00020822481922
0.000174696692754
0.000123413843302
0.000174748618
0.000209535968302
0.000226018971726
0.000229251177339
0.000225139492793
0.000220471098203
0.00022153869034
0.00023044454928
0.000240452398067
0.000240440678617
0.000230386972148
0.000221421924474
0.000220315562103
0.000224976634137
0.000229104044039
0.000225900935747
0.0002094450387
0.00017468225569
0.000123365586572
0.000199262051569
0.000301675724843
0.00037884052821
0.000425192553144
0.000453459336724
0.000478272459095
0.000512290818008
0.000560217443843
0.000610781218586
0.000643823787394
0.000643751310356
0.000610570272358
0.000559868405006
0.000511838191562
0.000477838346404
0.000453130550152
0.000424998900822
0.000378755482777
0.000301652595422
0.000199226883503
0.000301756446079
0.000328738624832
0.00036979475017
0.000394094429133
0.000403304650407
0.000403729747138
0.000404954126401
0.000414528897711
0.000430169483446
0.000442186933169
0.00044210794435
0.000429935246991
0.00041416723154
0.000404531358478
0.000403348501978
0.000403035074141
0.000393952635826
0.00036974528073
0.000328725152914
0.00030170369854
0.000378900817094
0.000369807868413
0.000377276765526
0.000373936359679
0.000361618308476
0.000343895340016
0.000325722583932
0.000316214772875
0.000313062097475
0.000312975560359
0.00031291518603
0.000312896941301
0.000315964508419
0.000325394319506
0.000343595905173
0.000361401637184
0.000373822807688
0.000377254509684
0.000369833983323
0.000378903452509
0.000425229618499
0.000394096334931
0.000373923276852
0.00035022661578
0.000327778542515
0.000311213499462
0.000295803819891
0.000283533681646
0.000275050089402
0.000270563563057
0.000270521200328
0.00027494352447
0.000283379928561
0.000295619315812
0.000311039057102
0.000327627889028
0.000350139700279
0.000373920572564
0.000394165897022
0.000425310282666
0.000453506793575
0.000403298754509
0.000361594227127
0.000327765241466
0.000309529818306
0.000297952894061
0.000288586581757
0.000280038140106
0.000272506447847
0.000267569506769
0.000267541788225
0.000272442681155
0.000279953246248
0.000288492235894
0.000297861479731
0.00030944601632
0.000327700450692
0.000361596265915
0.000403404828719
0.000453672618846
0.000478410521062
0.000403768512661
0.000343893095257
0.000311208567401
0.000297951702541
0.000293173014906
0.000290809816339
0.000287595736079
0.000282869841676
0.000278826310907
0.000278809058576
0.000282833773646
0.000287553980779
0.000290767829621
0.000293132204404
0.000297908883428
0.000311168752898
0.00034388489096
0.000403895022784
0.000478659554861
0.000512602544869
0.000405104407878
0.00032578516656
0.000295828639089
0.000288597605083
0.000290816323907
0.000294847820884
0.000296196609658
0.000293830868283
0.000290670330072
0.000290659367844
0.000293809610579
0.000296175733178
0.000294832148672
0.000290802536307
0.000288577759053
0.00029579977095
0.000325771780083
0.000405265807818
0.000512980929784
0.000560695481771
0.000414808309066
0.000316357377625
0.00028359910662
0.000280070443582
0.000287617472588
0.000296211650777
0.000300337355107
0.000299392433383
0.000296691890709
0.000296684042858
0.000299377974268
0.000300325179588
0.000296207482059
0.000287619100587
0.000280069378505
0.000283596576926
0.000316399396725
0.000415067710524
0.000561313871777
0.00061129632202
0.000430518719462
0.00031325591534
0.000275146521044
0.000272559343543
0.000282910714455
0.000293866399934
0.000299414659374
0.000298973004751
0.000296210402413
0.000296205115007
0.000298964861822
0.000299411516569
0.00029387406535
0.000282928618209
0.000272582379076
0.000275183339777
0.000313373484198
0.000430932970487
0.000612240816289
0.000644265903469
0.00044252373738
0.000313166747009
0.000270660471298
0.000267624937101
0.000278872542637
0.000290715096834
0.000296728010632
0.000296228389409
0.000293140740622
0.000293140708678
0.000296233225134
0.000296742955385
0.00029074540692
0.000278918561028
0.000267684903954
0.00027075283302
0.000313377694396
0.000443098735149
0.000645506393676
0.000644071365489
0.000442363400828
0.00031305052832
0.000270581195657
0.000267569342432
0.000278830892349
0.000290683395517
0.000296705916432
0.000296218478967
0.000293144609381
0.000293153211458
0.000296243095496
0.000296747193562
0.000290744500526
0.000278912727774
0.000267673201507
0.000270732459224
0.000313344385875
0.000443049832937
0.000645462102322
0.000610751495234
0.00043008428427
0.000312957186155
0.000274952287263
0.000272430619617
0.000282820339879
0.000293801476527
0.000299373369565
0.000298961490809
0.000296231415999
0.000296244844287
0.000298996161592
0.000299426911326
0.000293875001631
0.000282915239623
0.000272550785872
0.000275125475901
0.000313277089764
0.000430786995577
0.000612107550819
0.00055991890095
0.00041420154189
0.000315945112575
0.000283333722348
0.000279900601229
0.000287507465124
0.000296139215742
0.000300297432612
0.00029939241189
0.000296733999358
0.000296749269198
0.000299430202071
0.000300353344355
0.000296212714868
0.000287599548206
0.000280015407148
0.000283496621145
0.000316237522121
0.000414831729883
0.000561079280603
0.000511775702319
0.000404453752747
0.000325297986088
0.000295515944663
0.000288397950019
0.000290690179745
0.000294771838079
0.000296162012645
0.000293843082931
0.000290730492805
0.000290745459098
0.00029387959217
0.00029621491432
0.000294839329225
0.00029077167618
0.000288496598142
0.00029565090035
0.000325530158321
0.000404959634949
0.000512649478057
0.000477675323482
0.000403171954561
0.000343417608437
0.00031087561079
0.000297722140398
0.000293019701759
0.000290715155185
0.000287553803962
0.000282884059754
0.000278895503911
0.000278908312843
0.000282915026651
0.000287597496862
0.000290768421845
0.000293082493796
0.000297797183348
0.000310981007774
0.00034360519229
0.000403556027252
0.000478277947142
0.000452899111046
0.000402785240768
0.000361154489537
0.000327409380877
0.000309260067518
0.000297755293349
0.000288453255726
0.000279971964277
0.000272510701666
0.000267639391535
0.000267648061098
0.000272530100418
0.000279994831728
0.000288478440707
0.000297785933962
0.000309301164061
0.000327477865214
0.000361305587781
0.000403067373805
0.000453277141749
0.000424733928608
0.00039366501549
0.000373527415787
0.000349868005406
0.000327465573126
0.000310962413356
0.000295617739361
0.000283436243379
0.00027504558796
0.000270641122109
0.000270643609492
0.000275046271894
0.000283425877591
0.000295593760347
0.000310941786432
0.000327457906107
0.000349908811736
0.000373642381971
0.000393856881063
0.000424940689908
0.000378501578518
0.000369453482105
0.000376932508557
0.000373600912493
0.000361295184026
0.000343599159926
0.000325488714319
0.000316111914211
0.000313085643108
0.000313104325923
0.000313097774856
0.000313057632605
0.00031605196462
0.000325385827691
0.000343503599072
0.000361240945678
0.000373607584342
0.000377001185881
0.000369559511173
0.000378583100417
0.000301456621789
0.00032845135352
0.000369500481948
0.000393800645752
0.000403020797184
0.000403481851779
0.000404798792877
0.000414535381759
0.000430354991968
0.000442513933305
0.000442496158296
0.000430289518115
0.000414415151419
0.000404641894028
0.00040333437923
0.000402919782242
0.000393759831658
0.000369505028372
0.000328476808379
0.000301455133885
0.000199079099489
0.000301411693814
0.000378543087225
0.000424901320455
0.000453208150185
0.000478109097103
0.000512300327974
0.000560497880351
0.000611342861291
0.000644592963665
0.000644585749082
0.000611302110927
0.000560380292802
0.000512102080831
0.000477889395591
0.000453020094358
0.000424769204801
0.000378459196819
0.000301360736646
0.000199040279687
0.000285705535999
0.000471800335137
0.000626100728302
0.000741925772366
0.000838910484266
0.000935751625352
0.00103999137887
0.00114583688805
0.0012346337324
0.00128673561603
0.00128673895008
0.00123459876501
0.00114572525705
0.00103979673352
0.000935530337113
0.000838784468848
0.000741913079012
0.00062619777791
0.000471920172013
0.00028570308105
0.000472042551763
0.000497192713555
0.000574980611675
0.000636992481686
0.000679790745453
0.000712198745085
0.000745576234068
0.000783465692411
0.000816789648024
0.000836148792845
0.000836089419635
0.000816595947225
0.000783163514429
0.000745216016372
0.000711892070552
0.000679651138723
0.000637038462985
0.000575139281727
0.00049733707785
0.000472022481247
0.000626333279038
0.000575048549943
0.000579017842329
0.000577558318226
0.000566022819082
0.000547791345139
0.000529898119736
0.000524173520623
0.000522596884165
0.000522777147272
0.000522703071793
0.000522387252372
0.000523858433332
0.000529505338108
0.00054747436157
0.000565882670631
0.000577616751512
0.000579233295224
0.000575317671178
0.000626509114161
0.000742114653748
0.000637043029707
0.000577551648137
0.000526487030648
0.000485084187842
0.000456257311108
0.000429750340805
0.000409593021398
0.00039558277918
0.00038818777513
0.000388130810101
0.000395432553132
0.000409378277764
0.000429512011682
0.000456078412199
0.000485035545067
0.00052655447987
0.000577815923334
0.000637489674221
0.000742610702841
0.000839128099302
0.000679824703169
0.000565991956544
0.000485067162657
0.000439395902869
0.000409280697485
0.000386387028901
0.000368039591697
0.000353825330511
0.00034545969227
0.000345429826005
0.000353747366663
0.000367931783687
0.000386273812946
0.000409202369315
0.000439392191148
0.000485181906743
0.000566288072149
0.000680451677088
0.000840014975837
0.000935998773392
0.000712260944277
0.000547771313478
0.000456234036203
0.000409270824747
0.000384868022029
0.000369859214944
0.000357618507377
0.000346786363634
0.000339669380224
0.000339662463303
0.000346763749691
0.00035758803815
0.000369830220445
0.00038485682664
0.000409300903486
0.000456350565469
0.000548077683012
0.00071307057152
0.000937370212814
0.00104029954948
0.000745706963041
0.000529939828471
0.000429756539453
0.000386388926344
0.000369863886507
0.000362526520424
0.000355891059851
0.000348220985432
0.000342441542247
0.000342447966063
0.000348228532022
0.000355900253605
0.000362541919892
0.000369892146609
0.000386440212471
0.000429879062314
0.000530270388049
0.000746732063608
0.00104223509404
0.00114612749712
0.000783632828105
0.000524279376879
0.000409646298334
0.00036807002022
0.000357642786338
0.0003559087349
0.000353006877728
0.00034732959533
0.000342368067479
0.000342379376401
0.000347346968626
0.000353027416138
0.000355938887498
0.000357689486522
0.000368140674536
0.00040980159501
0.00052472575844
0.000784933660792
0.00114872739105
0.00123483251607
0.000816944029173
0.000522735779868
0.00039567277857
0.000353883561279
0.000346834202957
0.000348262127253
0.000347354343673
0.000342479450465
0.000337714795175
0.000337727881903
0.000342500260267
0.00034737841977
0.000348298777286
0.000346894450754
0.000353978394624
0.000395873269916
0.000523292967656
0.000818505643571
0.00123805676041
0.00128681000325
0.000836270464976
0.000522911959834
0.000388281808059
0.000345522255489
0.000339722460568
0.00034249137622
0.000342405793938
0.000337731262689
0.000332909632112
0.000332926170993
0.000337761048282
0.00034244116166
0.000342544151596
0.000339808321751
0.000345655425702
0.000388541234484
0.000523568744664
0.000838011691725
0.00129046279475
0.00128667817468
0.000836142168411
0.00052278547755
0.00038818231263
0.00034545541032
0.000339681348825
0.000342468334475
0.000342395335518
0.000337732768008
0.000332922727371
0.000332945627955
0.000337777891654
0.000342452242069
0.000342548601595
0.000339803378944
0.000345636661374
0.000388505269996
0.000523518417543
0.000837963357235
0.00129045238913
0.00123442781195
0.000816574574523
0.000522390933975
0.000395413686071
0.000353713734985
0.00034673057959
0.000348203481045
0.000347326768664
0.000342481892518
0.000337746279258
0.000337774250941
0.000342538781091
0.00034740163373
0.000348304767544
0.000346875507351
0.000353922688033
0.000395770746914
0.000523146585404
0.000818352265332
0.00123799218141
0.00114546632007
0.000783045403413
0.000523764265595
0.000409275522824
0.000367831661161
0.00035750021912
0.000355828986165
0.000352970860764
0.000347335997284
0.000342413953926
0.000342445271138
0.000347401855275
0.000353060173082
0.000355945448136
0.000357656455338
0.000368048445015
0.000409635753938
0.000524489576507
0.000784684524055
0.0011485767738
0.00103945719955
0.000744979451359
0.000529307126459
0.000429317643953
0.000386103201339
0.000369688182083
0.000362426904484
0.000355848091876
0.00034823236943
0.000342502174254
0.00034253411982
0.000348301459791
0.000355943647837
0.000362547636801
0.000369842740389
0.00038631370272
0.000429657390762
0.000529944892473
0.000746406051037
0.00104198119781
0.000935115984368
0.000711530758252
0.000547146036981
0.000455783326215
0.000408953476945
0.000384653533584
0.000369727181571
0.000357557439167
0.000346795222737
0.000339742242699
0.000339770074937
0.000346856030914
0.000357641203106
0.000369831603324
0.000384790260562
0.000409152012746
0.000456106878464
0.000547730958221
0.000712710690515
0.00093702469665
0.000838309914809
0.00067918913558
0.000565441657109
0.000484645714962
0.000439057138056
0.000409019783835
0.000386205179566
0.000367946695574
0.000353825494245
0.000345543562426
0.000345560912845
0.000353862552624
0.000367996069401
0.000386270823
0.000409125383669
0.000439238418286
0.000484955664447
0.000565974907232
0.000680115940246
0.000839640646924
0.00074143715955
0.000636534906157
0.00057709853424
0.000526069436253
0.000484744698047
0.000455959410186
0.000429527837687
0.000409489770702
0.000395604956401
0.000388318349187
0.000388322758595
0.000395610417506
0.000409492639928
0.000429537454245
0.000456019542311
0.000484905072552
0.000526340578422
0.000577562448073
0.000637207215039
0.000742247972855
0.000625794924587
0.000574650469566
0.000578669741991
0.000577230839709
0.000565712359662
0.000547515681247
0.000529717285101
0.000524187560621
0.000522785384054
0.000523103581196
0.000523101027677
0.000522769894718
0.0005241546576
0.000529661434315
0.000547516483371
0.000565828096086
0.000577482301551
0.000579041184946
0.0005750848312
0.000626206820464
0.000471645641524
0.000496882499067
0.000574721370253
0.000636795374345
0.000679679500053
0.000712227818022
0.000745827961349
0.000783997894522
0.000817578418179
0.000837123565123
0.000837136174299
0.000817595173008
0.00078400823105
0.000745831375669
0.000712262920956
0.000679793206693
0.000636995799774
0.000574966920067
0.000497111148139
0.000471790656879
0.000285493048394
0.000471515844522
0.000625831939931
0.000741771330165
0.00083900797095
0.000936200662535
0.00104091471465
0.00114729616011
0.00123658037465
0.00128901699047
0.00128910064545
0.00123676726566
0.00114749232446
0.00104105449187
0.00093628338357
0.000839073443012
0.000741852567128
0.000625920488627
0.000471585076317
0.000285508116762
0.000388261538159
0.000703615553337
0.000988448930975
0.00122933414829
0.00143798996568
0.00163243432626
0.00181440701356
0.00197720745426
0.00210440311453
0.00217654543463
0.00217676524812
0.00210489315338
0.00197784121868
0.00181509610018
0.00163313782649
0.00143870952385
0.0012300566436
0.000989129092099
0.000704097913563
0.000388352065019
0.000704132481622
0.000728172909837
0.000865329914393
0.000993675193072
0.00109604897788
0.00117456116588
0.0012371522895
0.0012889842433
0.00132730356767
0.00134780695055
0.00134782203542
0.00132732726772