/*--------------------------------*- C++ -*----------------------------------*\
| =========                 |                                                 |
| \\      /  F ield         | OpenFOAM: The Open Source CFD Toolbox           |
|  \\    /   O peration     | Version:  3.0.1                                 |
|   \\  /    A nd           | Web:      www.OpenFOAM.org                      |
|    \\/     M anipulation  |                                                 |
\*---------------------------------------------------------------------------*/
FoamFile
{
    version     2.0;
    format      ascii;
    class       volScalarField;
    location    "9.9";
    object      k_0;
}
// * * * * * * * * * * * * * * * * * * * * * * * * * * * * * * * * * * * * * //

dimensions      [0 2 -2 0 0 0 0];

internalField   nonuniform List<scalar> 
7968
(
0.000250241970441
0.00029865893885
0.000326896907022
0.00033754666445
0.000333917005757
0.00032284337082
0.000307711554754
0.000292944705861
0.000282618876203
0.000277520987478
0.000277438945499
0.000282451312073
0.000292734280672
0.00030749777693
0.000322655079882
0.000333765081192
0.000337440729678
0.000326828697024
0.00029861746051
0.000250218519192
0.00029863573306
0.00042806996534
0.000492226908576
0.000513054889316
0.000503947009398
0.000479499121005
0.000446569880724
0.000411915548526
0.000383251400844
0.000366371743304
0.000366262645065
0.000383015033284
0.0004116142682
0.000446261799837
0.000479220243772
0.000503712432585
0.000512884754156
0.000492119090942
0.000428013948554
0.000298620794636
0.000326854747194
0.000492192543057
0.00057402748384
0.000601200225335
0.000591142233937
0.000560571347936
0.000518705419307
0.000473059912805
0.000435241748446
0.000413270473412
0.000413168191348
0.000435024747394
0.000472739665389
0.00051838189598
0.00056027559091
0.000590887469751
0.000601014865125
0.000573911568842
0.000492137891491
0.000326848453824
0.000337488732464
0.000512982223234
0.000601153809449
0.000633470424525
0.000626804886929
0.000597536928944
0.000559096540458
0.000523582470847
0.000491112720057
0.000469074064678
0.000468977567881
0.000490922901953
0.000523344629485
0.000558843398094
0.000597248901186
0.000626550257979
0.000633283728497
0.000601037653208
0.000512928696926
0.000337482415325
0.00033384799401
0.000503847170777
0.000591057855452
0.000626762032692
0.000626062704537
0.000613159941499
0.000593417465522
0.000568043886887
0.000540810015743
0.000520245255795
0.00052015228943
0.000540634610928
0.000567837182335
0.000593204460498
0.000612937639791
0.000625815785058
0.000626575053751
0.000590934816947
0.00050378229658
0.000333831705086
0.000322789593207
0.000479411600167
0.000560485987571
0.000597483563085
0.000613142875241
0.000620167321302
0.000615343315008
0.000599338000975
0.000577122478023
0.000558486381485
0.000558394714632
0.000576952129462
0.000599144908413
0.000615154745587
0.000619984979652
0.000612957517991
0.0005972971581
0.00056034953278
0.000479323692938
0.000322754786001
0.000307705683821
0.000446529283571
0.000518652873565
0.000559062303182
0.000593405902758
0.000615346537045
0.00062193887811
0.000613504111233
0.000595473193238
0.000578544580779
0.000578453847235
0.000595304876184
0.000613317484522
0.00062176480482
0.000615187060671
0.000593251906769
0.000558911457423
0.00051850326492
0.000446418232977
0.000307649300365
0.000293011947904
0.000411952525284
0.000473071953492
0.000523584860784
0.000568059197893
0.000599368845152
0.000613535431373
0.000610370278938
0.000595113307282
0.000579070985056
0.000578983198641
0.000594952228391
0.000610196090408
0.00061337722141
0.000599229714166
0.000567927995167
0.000523452106498
0.000472918339958
0.000411832075479
0.000292943916372
0.000282748347193
0.000383363987297
0.000435301939964
0.000491157002629
0.000540864920421
0.000577198209838
0.000595556787445
0.000595173048002
0.000580820360766
0.000564232703816
0.000564153040682
0.000580681496257
0.000595032053952
0.000595436101775
0.00057709649284
0.00054077010269
0.000491060356069
0.000435198174604
0.000383274225214
0.000282702995335
0.00027765632474
0.000366504492978
0.00041334997401
0.00046913950442
0.000520323363053
0.000558589978061
0.000578664064068
0.000579179117998
0.000564294407113
0.000545905014075
0.000545842974051
0.000564202586478
0.000579104030239
0.00057861595909
0.000558559698678
0.000520296817182
0.000469111683815
0.000413323957484
0.000366506905708
0.000277689910085
0.000277563013828
0.000366371271577
0.000413228497186
0.000469020468353
0.000520196972303
0.000558453238791
0.000578523312511
0.000579049310318
0.000564195692255
0.000545850714387
0.000545823454174
0.000564176981252
0.000579067110673
0.000578575586239
0.000558523530465
0.000520268865541
0.000469092182787
0.000413310454751
0.000366502640448
0.000277707527392
0.000282554963857
0.000383086063677
0.000435054284263
0.000490929423911
0.000540631316172
0.00057694864354
0.000595302548212
0.000594946883028
0.000580667320653
0.000564182036424
0.000564171480839
0.000580672369086
0.000594985226602
0.000595371048332
0.000577032262402
0.000540715552136
0.000491015176667
0.000435156555496
0.00038324515105
0.00028271870337
0.000292802877911
0.00041163894132
0.000472743039615
0.00052331711232
0.000567796244778
0.000599098347041
0.000613268812206
0.00061014739532
0.000594988225351
0.000579077013318
0.000579071411016
0.000594994224873
0.000610175482708
0.00061331765298
0.000599156824416
0.000567852545509
0.000523373601735
0.000472824232859
0.000411754961114
0.000292921537756
0.000307515490317
0.000446233194798
0.000518336070337
0.0005587826347
0.000593138052229
0.000615088117355
0.000621701886545
0.000613323018194
0.000595400115326
0.000578611370109
0.000578606113247
0.000595400733016
0.000613334409557
0.000621724328365
0.0006151126657
0.000593154293756
0.000558792225712
0.000518359765011
0.00044628571119
0.000307571844854
0.000322619963651
0.000479142517356
0.000560185116366
0.00059715942829
0.000612855183173
0.000619913651157
0.000615130945585
0.000599194678605
0.000577091379305
0.000558594662351
0.00055858812535
0.00057708579602
0.000599190787678
0.000615127705191
0.000619903132681
0.000612826392822
0.000597113855738
0.000560162081692
0.000479142327293
0.000322624557165
0.000333684604903
0.000503594242467
0.000590761150159
0.000626435987819
0.000625724634462
0.000612889834209
0.000593210797385
0.000567918894901
0.000540800920904
0.000520372523793
0.000520363182842
0.000540786268461
0.000567896145971
0.00059317772526
0.000612836042764
0.00062563310642
0.000626363173161
0.000590708737082
0.00050355755857
0.000333653542141
0.000337315977691
0.000512732612118
0.000600859043832
0.000633151461044
0.000626482700164
0.000597240571371
0.000558885875471
0.000523463447478
0.000491115183324
0.000469211257382
0.000469197009849
0.000491085319987
0.000523411105212
0.000558812196907
0.000597126998611
0.000626368749508
0.000633058150608
0.000600786244117
0.000512673076753
0.000337262974216
0.000326670048487
0.000491947820524
0.000573745659728
0.000600904044682
0.000590849401628
0.000560302621858
0.00051848720905
0.000472934840911
0.000435248891726
0.000413413842834
0.000413393758837
0.00043519778051
0.000472829417233
0.000518357870646
0.000560166684655
0.000590714741876
0.000600791449888
0.000573655196829
0.000491870961184
0.000326603295422
0.000298447228524
0.000427848223562
0.000491987139236
0.000512811679726
0.000503709407229
0.000479277566025
0.000446387694844
0.000411816690193
0.000383286594401
0.00036655809271
0.000366534312473
0.000383220441358
0.00041170003133
0.000446239150285
0.00047911905168
0.000503553387333
0.000512678791621
0.00049187972212
0.00042775696965
0.000298373000025
0.000250062637245
0.000298484875924
0.00032674179058
0.000337407550989
0.000333789058257
0.000322725640638
0.000307617928601
0.000292907479667
0.000282672979109
0.00027767723361
0.000277652039972
0.000282608782917
0.00029279622582
0.00030747537089
0.00032257417422
0.000333643864982
0.000337282398941
0.000326639520196
0.000298401146429
0.000249993655917
0.000390181701859
0.000491961436949
0.000555224525332
0.000583948091379
0.000589489393226
0.000582402474712
0.000574257086639
0.000575944200152
0.000591041376347
0.000607828813994
0.000607715567189
0.000590723010626
0.000575473389325
0.00057374328526
0.000581946082079
0.000589135969135
0.000583710737642
0.000555077750132
0.000491876837709
0.000390118687802
0.000491973186034
0.000777175674537
0.000901890285395
0.00093513379588
0.000918070758821
0.000875126854247
0.000826029319624
0.000784173775648
0.000757876577275
0.000746640391384
0.000746490320326
0.000757499894626
0.000783639566698
0.000825421117572
0.000874537605359
0.000917570995157
0.00093476174218
0.000901650374887
0.000777051484973
0.000491914601604
0.000555208403991
0.000901822110673
0.00106272082773
0.00111068136333
0.00109334851388
0.00104191059694
0.000978976062929
0.000920234756459
0.000876893881099
0.000850419414063
0.000850284101017
0.000876588504566
0.000919846151522
0.000978441482391
0.0010413653163
0.00109285443815
0.00111029938291
0.00106248122036
0.000901717500217
0.000555175079041
0.000583906242461
0.000935008524348
0.00111059422177
0.00117682897312
0.00117908962802
0.00114863623598
0.00110823590953
0.00105391369669
0.00100360592064
0.000970780701663
0.000970649562687
0.00100332309788
0.00105355059136
0.00110782933376
0.0011482604935
0.00117867097022
0.00117648136321
0.00111037135263
0.0009349138011
0.000583890028468
0.000589432662618
0.000917923248952
0.00109320768502
0.00117901889857
0.00121725195322
0.00122401309908
0.00120217026215
0.00115998745404
0.0011137851124
0.00108110806679
0.00108097794698
0.00111351180136
0.00115965225231
0.00120182873977
0.00122369665672
0.00121696228654
0.00117871588399
0.00109298680073
0.000917815621884
0.000589423288953
0.000582401077003
0.00087503146756
0.00104178204595
0.00114855610679
0.00122398498229
0.00125888903516
0.00125859071455
0.00123076477978
0.00119179811273
0.00116199170656
0.0011618622428
0.00119152680568
0.00123043891167
0.00125828058969
0.00125860908346
0.0012237205235
0.00114832254305
0.00104154948933
0.000874884996021
0.000582371704117
0.000574412204902
0.000826065799075
0.000978923240098
0.00110818253924
0.00120215617263
0.00125860494976
0.00127633444718
0.00126044706253
0.00122877450345
0.00120215639849
0.00120203127872
0.00122850792451
0.00126012114808
0.00127603743267
0.00125834552596
0.00120190875011
0.0011079453053
0.000978680975366
0.000825887271086
0.000574364373552
0.000576324998719
0.000784386603562
0.000920274031964
0.00105392292587
0.00116003235928
0.00123084798065
0.0012605265486
0.00125498098389
0.0012293619343
0.00120519658845
0.0012050814581
0.00122911900734
0.00125468947501
0.00126024785482
0.00123061375075
0.00115981518307
0.00105371538651
0.00092008924636
0.000784228954035
0.000576319426067
0.000591591769439
0.000758236270494
0.000877028894047
0.00100368690708
0.00111390250901
0.00119196847206
0.0012289475246
0.00122947065119
0.00120743578452
0.00118433994945
0.00118424412257
0.00120724195826
0.00122925216085
0.00122875118352
0.00119180646574
0.00111375148176
0.00100353922622
0.000876902447861
0.00075818292142
0.000591745231567
0.000608373423489
0.000747032277794
0.000850585923132
0.000970892640787
0.00108125851061
0.00116220147046
0.00120238084922
0.00120537797692
0.00118443237913
0.00116115406231
0.00116109161619
0.00118432173161
0.00120527616293
0.00120231772055
0.00116217044052
0.00108122899282
0.000970858662444
0.000850586722669
0.000747164499383
0.000608774008195
0.000608114647095
0.000746789324311
0.000850405262986
0.000970725455744
0.00108107643407
0.00116200265626
0.00120218721317
0.00120521862136
0.00118433640236
0.0011611327079
0.00116111582936
0.00118433279466
0.00120526117623
0.0012022859799
0.00116213537556
0.00108120133954
0.000970837955596
0.00085056076272
0.00074711502896
0.000608732812405
0.000590961111114
0.000757660210921
0.000876627705915
0.00100333012667
0.00111352312474
0.00119155715031
0.00122854801231
0.00122915929938
0.00120728040114
0.00118436086224
0.00118436697146
0.0012073238488
0.001229256776
0.00122870020965
0.00119174001662
0.00111369369151
0.00100348795964
0.000876831053559
0.000758044059895
0.000591617038527
0.000575564893933
0.000783666800638
0.000919791471696
0.00105348382041
0.00115958397243
0.00123037636186
0.00126006801569
0.00125465203572
0.00122924534545
0.00120531011441
0.00120532444644
0.00122929800589
0.00125474427366
0.00126020026226
0.00123053306929
0.0011597284139
0.00105361475062
0.000919951306182
0.000783991325585
0.000576096424879
0.000573709332219
0.000825324274349
0.00097830428398
0.00110768568899
0.00120169313071
0.0012581618853
0.00127594132188
0.00126018247659
0.00122874003743
0.00120237335697
0.00120238955932
0.0012287883373
0.00126024925148
0.00127603963025
0.0012582736191
0.0012017878984
0.00110776991306
0.000978407930665
0.000825542250836
0.000574057782212
0.000581812446825
0.000874325040423
0.00104112336609
0.00114803485508
0.00122350623376
0.00125846375073
0.00125825144712
0.0012305778175
0.00119184079186
0.00116228886369
0.00116230469823
0.00119188664836
0.00123063571846
0.00125832427709
0.00125854025999
0.00122356419391
0.00114808236363
0.00104116376057
0.000874443149478
0.00058200692631
0.000588932147569
0.000917256935132
0.00109251097951
0.00117836418096
0.00121672568334
0.00122356287115
0.00120183461325
0.00115982733654
0.00111386213531
0.00108143620646
0.0010814497157
0.00111390098569
0.00115987488466
0.00120188024767
0.00122360738188
0.00121675637022
0.00117833956233
0.00109250105498
0.000917300186966
0.000589016583895
0.00058345778636
0.000934373066126
0.00110987676727
0.00117610964955
0.00117844186275
0.00114815130606
0.00110787972994
0.00105375466948
0.00100368499781
0.00097109968833
0.000971108182619
0.00100370729846
0.0010537695192
0.00110787278302
0.00114814447227
0.00117836958143
0.00117603473219
0.00110982823208
0.000934361308483
0.000583468820763
0.000554799821521
0.000901227656582
0.0010620250151
0.00110997131324
0.00109268517727
0.00104134982964
0.000978570346677
0.000920060689394
0.000876953070961
0.000850707681905
0.000850705864589
0.000876943795474
0.000920029237708
0.000978457719466
0.00104120296033
0.00109252965271
0.00110984065421
0.00106193248268
0.00090116449687
0.000554754511139
0.000491615755204
0.000776663369011
0.000901297751598
0.000934534501377
0.000917503409512
0.000874626115262
0.000825651514472
0.000783993734211
0.000757941698348
0.000746934543571
0.000746911959794
0.000757862953287
0.000783840556788
0.00082543494841
0.000874382836194
0.000917276652063
0.000934351851859
0.000901159419141
0.000776555841454
0.000491531223906
0.000389885640408
0.00049162861791
0.000554881669036
0.000583612500277
0.000589163326161
0.000582097558573
0.000574022742323
0.000575874318796
0.000591206157973
0.000608201374585
0.000608181612271
0.000591107677672
0.000575671951217
0.000573752739407
0.000581816810972
0.000588911216022
0.00058340929235
0.000554721127564
0.000491504143198
0.000389783999556
0.000536592239243
0.000707492052217
0.000823503806931
0.00088937535062
0.000928368125833
0.000961933178136
0.00100702218157
0.0010688885066
0.0011322746172
0.00117275151118
0.00117266349626
0.00113201389885
0.00106844448574
0.00100642893518
0.000961351012622
0.000927919321356
0.000889105288384
0.000823380557432
0.000707455889567
0.000536529101391
0.000707618251933
0.00111341312551
0.00130016124508
0.00135235484435
0.00133092467204
0.00127758298855
0.0012270177364
0.00120228972793
0.00120238522015
0.00121005722083
0.00120987038059
0.00120185161736
0.00120146781562
0.00122602936039
0.00127663441006
0.00133018027302
0.00135187776126
0.00129991691847
0.00111333342421
0.000707535787616
0.000823591173172
0.00130009326244
0.00152355136882
0.00157767846839
0.00153485169344
0.0014457200356
0.00134631478228
0.00127164160409
0.00122252588794
0.00119840105712
0.00119821173591
0.00122203819688
0.00127091673449
0.00134536265533
0.0014447813912
0.00153408264517
0.00157716563409
0.00152331499682
0.00130007154571
0.000823594992117
0.000889427036277
0.00135223516375
0.00157756914899
0.00164423882962
0.00162472636131
0.0015733763438
0.00149722354426
0.00141932125901
0.00135488013809
0.00131654398968
0.00131637193798
0.00135447081901
0.00141875123344
0.00149655144291
0.00157271075086
0.001624107677
0.00164378103774
0.00157735243117
0.00135224338458
0.000889539512956
0.000928432897035
0.00133079264117
0.00153467894292
0.00162463266701
0.00166894816894
0.00166745264745
0.00163087587737
0.00157435076005
0.00151582921739
0.00147624491599
0.001476093062
0.0015154829175
0.00157390120725
0.00163039600782
0.00166699389897
0.00166851933512
0.00162424920023
0.00153444663028
0.00133080139984
0.000928659204936
0.0009621182888
0.0012775591281
0.00144559321922
0.00157327510365
0.00166741436908
0.00171607046417
0.00172111413895
0.00169213845526
0.0016466503439
0.00161098377309
0.00161085034607
0.00164634441456
0.00169175689028
0.00172073071705
0.00171572887683
0.00166709743487
0.00157296157069
0.00144531088018
0.00127753709295
0.000962452143205
0.00100743065273
0.0012272451774
0.00134635038962
0.001497200498
0.00163087190709
0.00172113923028
0.00176105317488
0.00175511411644
0.00172076133925
0.00168922457279
0.00168910707319
0.00172047868946
0.00175475025334
0.00176069319244
0.00172083636159
0.00163060402854
0.00149690402332
0.00134603533373
0.00122721895934
0.00100792635801
0.00106949648078
0.00120281142122
0.00127189014739
0.00141943122558
0.00157444432367
0.00169226271155
0.00175522393063
0.00176318040891
0.00173612496245
0.0017074019924
0.00170729966292
0.00173586495337
0.00176282592795
0.00175486382838
0.00169197140179
0.00157420787844
0.00141918024666
0.00127166804823
0.00120290214172
0.00107028270009
0.00113291113164
0.00120308924715
0.00122293704006
0.00135511580178
0.00151603952357
0.00164690888344
0.00172102289733
0.00173628808272
0.00171286481474
0.00168522707062
0.00168514707845
0.0017126535109
0.00173598833228
0.00172071398446
0.0016466716383
0.0015158702136
0.00135495050729
0.0012228500224
0.00120341156836
0.00113407778103
0.00117328833816
0.0012107691195
0.00119884831723
0.00131682386385
0.00147650744104
0.00161130689911
0.00168956791877
0.00170766989819
0.00168535447636
0.00165768006211
0.00165763710495
0.00168523413705
0.00170749121302
0.00168939352264
0.00161120820304
0.00147647748349
0.00131681225022
0.00119896355902
0.00121137036684
0.00117479391324
0.00117305214104
0.00121044466685
0.00119856833459
0.00131659114728
0.00147629177984
0.00161109352488
0.00168937099864
0.00170751777685
0.00168527785568
0.00165768643103
0.00165768980949
0.00168527110808
0.00170749458272
0.00168937223897
0.00161117573143
0.00147644104767
0.00131676478409
0.00119888944978
0.00121127092282
0.00117474017371
0.00113223788253
0.0012022166002
0.00122223116205
0.00135456367478
0.00151555321614
0.00164643985902
0.00172059191401
0.00173596255866
0.0017127234518
0.00168528800783
0.00168531708565
0.00171277686078
0.00173601839581
0.00172067567225
0.00164659984016
0.00151577835958
0.00135481906421
0.00122263962656
0.00120311925228
0.00113391320647
0.00106850872857
0.00120160144626
0.00127092774379
0.00141869952676
0.0015738376999
0.00169171703846
0.0017547374413
0.00176282891789
0.00173601482532
0.00170755812309
0.00170759719086
0.00173609002318
0.00176291114641
0.00175484276106
0.00169188520104
0.0015740567996
0.00141894072183
0.00127130013868
0.00120242151329
0.00106998447554
0.00100634701833
0.00122593057246
0.00134518936404
0.00149634142999
0.00163020133653
0.00172058497966
0.00176060689042
0.00175483467346
0.00172075219065
0.00168951179382
0.00168955097809
0.00172083124356
0.0017549270289
0.00176072230649
0.00172074499564
0.00163038485106
0.00149652181511
0.00134544902426
0.00122657053459
0.00100749214444
0.000961132345695
0.00127631700044
0.00144439677622
0.00157232413947
0.00166666331909
0.00171548917866
0.00172070302045
0.00169194749691
0.00164675972566
0.00161140695697
0.00161144073472
0.00164683361875
0.00169204029857
0.00172081437174
0.00171562536984
0.00166679694845
0.00157244554335
0.00144457875146
0.00127678202709
0.000961940536737
0.000927603334269
0.00132967622769
0.00153349651355
0.00162355156641
0.00166805817959
0.00166677094168
0.00163042765559
0.00157418732472
0.00151599908877
0.00147673847325
0.00147676316612
0.00151605543886
0.00157424853335
0.00163049296231
0.00166684112657
0.00166811756625
0.00162360154107
0.00153363580556
0.00133001347977
0.000928119437108
0.000888735698905
0.00135124685652
0.00157642438265
0.00164307730589
0.00162367761329
0.00157254612639
0.00149665538742
0.00141909424914
0.00135501443561
0.00131700311984
0.00131701321583
0.00135503209702
0.0014190861846
0.00149660591993
0.00157248663732
0.00162361506552
0.00164307653092
0.0015765348438
0.00135147867072
0.000889024101016
0.000823012539534
0.00129922800134
0.00152250016342
0.00157656393541
0.00153377422234
0.00144477532243
0.00134561838639
0.00127134626726
0.00122260236035
0.00119878888199
0.0011987736375
0.00122254684193
0.00127121880078
0.00134537819621
0.00144452204147
0.00153359408306
0.00157650670181
0.0015225666239
0.00129935805052
0.000823130709251
0.000707149449378
0.00111268943421
0.00129930765874
0.00135146774255
0.00133007025155
0.00127683678757
0.0012264974775
0.00120211962
0.00120257882985
0.00121053843068
0.00121049325315
0.0012024310532
0.00120185839977
0.00122615462655
0.001276501661
0.0013298261037
0.00135135733255
0.00129929748721
0.0011127223921
0.000707147122518
0.00053626374152
0.000707079187016
0.000823072709362
0.00088896918993
0.000928025257735
0.000961714122708
0.00100703464417
0.00106924518996
0.00113296863151
0.00117368538277
0.00117367662513
0.00113291828399
0.00106909563921
0.00100677482962
0.000961419481124
0.000927768521209
0.000888784907402
0.000822951101972
0.000706999491438
0.000536194026087
0.000682297467468
0.000953235378069
0.00115112935279
0.00128904563879
0.0013990666476
0.00150476396431
0.00161453630441
0.0017223041782
0.00181017299335
0.00186074789754
0.00186075111179
0.00181013881462
0.00172219231489
0.00161433484647
0.00150452672209
0.00139892653859
0.00128903093618
0.00115124830465
0.00095339678521
0.000682293558997
0.000953561603223
0.00154317694343
0.00183058549285
0.0019364132028
0.00194213723509
0.00191080319719
0.00189069226206
0.00190143795459
0.00192839944224
0.00194897957262
0.00194879775681
0.00192784771277
0.00190056326643
0.00188959920707
0.00190976042866
0.0019414306967
0.00193613619908
0.00183064159342
0.00154335257315
0.000953534573726
0.00115141437553
0.00183060636799
0.00213616814126
0.00220693036131
0.00214245233265
0.00201506808466
0.00188017848221
0.00179172347442
0.00173856541998
0.00171468689201
0.00171443411141
0.00173786828241
0.00179065335549
0.00187879875217
0.00201380872341
0.00214161078117
0.00220659098356
0.0021362713
0.00183094054347
0.0011516298621
0.00128926440855
0.00193639336494
0.00220685985086
0.00225418903745
0.00219004450003
0.00209030693513
0.00196504601162
0.00185196173362
0.00176632903993
0.00171863746181
0.00171840993329
0.00176573532546
0.0018510878432
0.00196401898961
0.00208939839429
0.00218947847748
0.00225386185733
0.00220696924259
0.00193687954505
0.00128983886356
0.00139930858424
0.00194214268705
0.00214233256468
0.00218998273104
0.00219278095298
0.00215033176849
0.00207719946746
0.00199168612232
0.00191267696301
0.00186245261513
0.00186230175391
0.00191227255415
0.0019910903151
0.00207650381827
0.00214969587108
0.00219233544345
0.00218978437098
0.00214237725544
0.00194270571153
0.00140029436575
0.00150502890862
0.00191097171301
0.00201503272111
0.00209025067658
0.00215031684545
0.00217794342982
0.00216660027763
0.00212136215635
0.00206148979169
0.00201729260529
0.00201721389574
0.00206123582587
0.00212095369812
0.00216608825359
0.00217744022879
0.00214991670779
0.00208997534936
0.00201493100787
0.00191157336871
0.00150649867711
0.00161485523531
0.00189114043781
0.00188039783814
0.00196514034279
0.00207728078929
0.00216668087563
0.00220679958617
0.00219500545646
0.00215175040857
0.00211380233211
0.00211376743142
0.00215157036269
0.00219465408121
0.00220631275475
0.00216617142182
0.00207683576367
0.00196477385917
0.00188018499281
0.00189183508329
0.00161685764306
0.001722595375
0.0019021102593
0.00179223957725
0.00185229122314
0.00199195008323
0.00212161326846
0.00219518063251
0.0022041107246
0.00217100500001
0.00213698706978
0.00213697174996
0.00217084606761
0.00220374422498
0.00219464320818
0.00212104285021
0.00199145600827
0.0018519062903
0.00179214965323
0.00190305549052
0.00172519943303
0.00181036728751
0.00192915453153
0.00173926867581
0.00176685148185
0.001913117115
0.002061923163
0.00215212312976
0.00217121428184
0.00214236683209
0.0021097173033
0.00210971838366
0.0021422352411
0.00217085908001
0.00215158048383
0.00206135384374
0.0019126547958
0.00176654238145
0.00173935864653
0.00193042031111
0.00181351725814
0.00186081961108
0.00194969333353
0.001715414219
0.00171921485601
0.00186295789078
0.00201780264671
0.00211427129992
0.00213731599446
0.00210985755684
0.0020775023803
0.00207753298687
0.00210979892509
0.00213704827381
0.00211382561986
0.0020173508272
0.00186264150089
0.00171909170548
0.00171575230049
0.00195126231373
0.00186433941292
0.00186069251986
0.00194935630889
0.00171502762086
0.00171888138331
0.00186270409098
0.00201761091566
0.00211413040786
0.00213722843999
0.00210984059068
0.00207755944217
0.00207763161431
0.00210988609826
0.00213710496637
0.00211385336183
0.00201734810381
0.00186259799077
0.00171899666844
0.00171562033188
0.00195115097281
0.00186432939086
0.0018099717126
0.00192820006198
0.00173822751036
0.00176599121604
0.00191247507462
0.0020614344559
0.00215175099215
0.00217096692767
0.00214229462216
0.00210983283662
0.00210993642266
0.00214241799929
0.00217096012597
0.00215160889944
0.00206130742713
0.00191250683564
0.00176626172796
0.00173897211805
0.00193007482358
0.00181345419364
0.00172193282506
0.00190066017859
0.00179072952964
0.00185108598374
0.00199106883831
0.00212095319914
0.00219467071615
0.00220376084814
0.00217089118257
0.00213712668065
0.00213724939994
0.00217107029524
0.00220385027559
0.00219464584436
0.00212093237442
0.0019911805255
0.00185142098831
0.00179149781081
0.00190247356542
0.0017250486282
0.0016139833987
0.00188940390691
0.00187857897546
0.00196373179643
0.00207624508298
0.00216590429444
0.00220620670786
0.00219460985373
0.00215163628212
0.00211398555384
0.00211411208044
0.00215184502832
0.00219477488737
0.0022062904142
0.00216598797453
0.00207642792627
0.00196408621967
0.00187924303307
0.00189103717194
0.00161659504669
0.00150408244588
0.0019092547971
0.00201322306575
0.00208879096071
0.00214917298291
0.00217705926329
0.00216594316514
0.00212096273612
0.0020614281517
0.00201757626969
0.00201768465343
0.00206161959957
0.00212113963188
0.00216607165102
0.00217720432111
0.00214941991461
0.00208918766102
0.0020138806885
0.00191065758834
0.00150612845581
0.00139839884732
0.00194064752217
0.0021406872498
0.00218856481648
0.0021915385935
0.00214931127172
0.00207644400772
0.00199127605288
0.00191267995365
0.00186284797224
0.00186291107203
0.00191278812663
0.00199136181374
0.00207650130922
0.00214942487161
0.00219179811002
0.00218901566546
0.00214137767837
0.00194182150976
0.0013998783338
0.00128847962226
0.00193518117122
0.00220541868003
0.00225268343056
0.0021887273411
0.00208911841391
0.00196413702712
0.00185148902843
0.00176633298553
0.00171906006278
0.00171906545456
0.00176631577661
0.00185140912122
0.00196401210421
0.00208909151069
0.00218893586134
0.00225305885888
0.00220609682422
0.00193610438748
0.00128941881276
0.0011507544948
0.00182962717576
0.00213497292321
0.00220561099923
0.00214110558507
0.00201380064327
0.0018791929797
0.00179129177362
0.00173863279037
0.00171515192893
0.00171511609017
0.00173850953062
0.00179105683041
0.0018788299597
0.00201353405877
0.002141110851
0.00220594149349
0.00213556597142
0.00183029126892
0.00115125938762
0.000953027002515
0.00154240048273
0.00182969949875
0.00193552307453
0.00194131716925
0.00191017408922
0.00189042357726
0.00190165334648
0.00192906010845
0.0019499692719
0.00194993620221
0.00192893652792
0.00190142894294
0.00189011973043
0.0019099189065
0.00194126447085
0.00193573526326
0.00183009559889
0.0015427979997
0.00095322234192
0.000681959129068
0.000952852145644
0.00115079987192
0.00128886674402
0.00139917503241
0.00150524531778
0.00161549178582
0.00172376615313
0.00181207522222
0.00186294664462
0.0018630272451
0.00181225779671
0.00172396263354
0.0016156364047
0.00150533398369
0.00139924782129
0.00128896084464
0.00115090842015
0.000952945413701
0.000681983124796
0.000837100438382
0.00124428044589
0.00156074090531
0.00180498924808
0.00200385007842
0.00218064582589
0.00233983086868
0.0024777804099
0.00258293778884
0.00264163704991
0.0026418149029
0.00258333875471
0.00247830985871
0.00234042325473
0.00218127228281
0.00200451849592
0.00180569638891
0.00156145679702
0.00124484905454
0.000837230551931
0.00124488979856
0.00209690123616
0.00254147382061
0.0027580410985
0.00284153229581
0.00286082006546
0.00287112538868
0.00289908837776
0.00293675343728
0.00296301289605
0.00296291862713
0.00293644432961
0.00289860817721
0.00287059938524
0.00286052116427
0.00284173630798
0.00275878213044
0.00254248384846
0.00209774716289
0.00124509404588
0.00156130284541
0.0025416784499
0.00296668410476
0.00307983431801
0.00301388068024
0.00286071387069
0.00269320410359
0.00257087802155
0.00249400040371
0.00245707268003
0.00245680522934
0.00249325202559
0.0025697690459
0.00269191071145
0.00285977224991
0.00301369881665
0.00308048625123
0.00296792277644
0.00254297939132
0.00156209325447
0.00180534353922
0.00275825198023
0.00307985223598
0.00309365441192
0.00297364562449
0.00280278632655
0.00261697020719
0.0024522583831
0.00232803948539
0.00225923317285
0.00225902499349
0.00232744164895
0.00245136101035
0.00261594481599
0.00280200259044
0.00297343069353
0.0030941326213
0.00308114620905
0.00276004684815
0.00180701013132
0.00200408061621
0.00284170987222
0.00301386170936
0.00297361374755
0.00288372146415
0.00276802866718
0.00263490493815
0.00249829499252