/*--------------------------------*- C++ -*----------------------------------*\
| =========                 |                                                 |
| \\      /  F ield         | OpenFOAM: The Open Source CFD Toolbox           |
|  \\    /   O peration     | Version:  3.0.1                                 |
|   \\  /    A nd           | Web:      www.OpenFOAM.org                      |
|    \\/     M anipulation  |                                                 |
\*---------------------------------------------------------------------------*/
FoamFile
{
    version     2.0;
    format      ascii;
    class       surfaceScalarField;
    location    "9.9";
    object      phi;
}
// * * * * * * * * * * * * * * * * * * * * * * * * * * * * * * * * * * * * * //

dimensions      [0 3 -1 0 0 0 0];

internalField   nonuniform List<scalar> 
22672
(
2.08038002337e-05
2.08176325592e-05
-4.16214538666e-05
4.12907065688e-05
1.94495417553e-05
-3.99364710352e-05
5.62893072054e-05
1.88203769634e-05
-3.38190069454e-05
6.40723160179e-05
1.89744398441e-05
-2.67574849542e-05
6.37799762071e-05
1.97739903983e-05
-1.94816930787e-05
5.7702654133e-05
2.05140370327e-05
-1.44367618895e-05
4.66169063944e-05
2.17106688202e-05
-1.0624969899e-05
3.21556473996e-05
2.32914584226e-05
-8.83024722516e-06
1.62367589381e-05
2.49967000666e-05
-9.07785594889e-06
8.4150960492e-08
2.61991719165e-05
-1.00466032916e-05
-1.6074499346e-05
2.61963557069e-05
-1.00377392569e-05
-3.20098741595e-05
2.49879930262e-05
-9.05264695473e-06
-4.6497420152e-05
2.32764619851e-05
-8.78894054217e-06
-5.76144569868e-05
2.16912410021e-05
-1.0574225626e-05
-6.3720779394e-05
2.04933418593e-05
-1.43870389077e-05
-6.40393946871e-05
1.97544454993e-05
-1.94358485952e-05
-5.62742822714e-05
1.89559875005e-05
-2.67211175822e-05
-4.12861681737e-05
1.88029029755e-05
-3.37910339574e-05
-2.08047237841e-05
1.94316704953e-05
-3.99131304201e-05
2.07992958912e-05
-4.16040259344e-05
1.9438921051e-05
4.13000606968e-05
-3.99213696631e-05
4.13074146572e-05
4.13145101454e-05
-4.37334856919e-05
5.80193535055e-05
4.22321166212e-05
-4.01237094963e-05
6.72488338306e-05
4.39422672496e-05
-3.41973465135e-05
6.77726647642e-05
4.59730447398e-05
-2.67229306762e-05
6.1769807501e-05
4.72183597196e-05
-2.07015150271e-05
5.02546257431e-05
4.85740832626e-05
-1.53482832834e-05
3.48434416825e-05
4.99482935943e-05
-1.12456994281e-05
1.76494093742e-05
5.11784908733e-05
-8.98780200673e-06
8.91605090929e-08
5.19612167247e-05
-8.20183324791e-06
-1.74764355485e-05
5.1953207032e-05
-8.1912861761e-06
-3.4686806866e-05
5.11559848184e-05
-8.9576457103e-06
-5.01261256143e-05
4.99150230749e-05
-1.11992631129e-05
-6.16742356354e-05
4.85343380824e-05
-1.52950047281e-05
-6.77075889104e-05
4.71772274689e-05
-2.06505481463e-05
-6.72123614305e-05
4.59357403666e-05
-2.66765371921e-05
-5.80032213559e-05
4.39083262538e-05
-3.41614928706e-05
-4.13022046116e-05
4.22012488357e-05
-4.00993752425e-05
-1.94395825768e-05
4.12848385003e-05
-4.3715799837e-05
4.12730807086e-05
-3.9913368517e-05
1.88117126651e-05
5.62874234256e-05
-3.37990952568e-05
4.22262609125e-05
5.80160122461e-05
-4.01160732257e-05
6.02709751027e-05
6.02676619797e-05
-3.6080289988e-05
7.04270443685e-05
6.29638756881e-05
-2.91777161622e-05
7.17524848984e-05
6.54413707524e-05
-2.07938113506e-05
6.60431906551e-05
6.64401185943e-05
-1.35125126653e-05
5.46198052004e-05
6.70709619926e-05
-7.07354078238e-06
3.86365246609e-05
6.73433013862e-05
-1.4117708109e-06
1.98766758283e-05
6.74425838784e-05
2.49571852792e-06
9.2422935421e-08
6.75092547247e-05
4.23618472956e-06
-1.9698013228e-05
6.74986667792e-05
4.24495301776e-06
-3.84760769446e-05
6.74130827327e-05
2.52094793064e-06
-5.4489829385e-05
6.72997690845e-05
-1.37100747471e-06
-6.59450379072e-05
6.70207468715e-05
-7.03121167345e-06
-7.16842675338e-05
6.63887631183e-05
-1.34723161604e-05
-7.03883063133e-05
6.5395182211e-05
-2.07554125958e-05
-6.02528915517e-05
6.29228752843e-05
-2.91499725585e-05
-4.22202892992e-05
6.02311650339e-05
-3.60625254474e-05
-1.88123286489e-05
5.79821928705e-05
-4.01053180088e-05
5.62594266112e-05
-3.37986697863e-05
1.89686577391e-05
6.4055231079e-05
-2.67364822182e-05
4.39386260076e-05
6.72270788688e-05
-3.41810542562e-05
6.29675129181e-05
7.04080893811e-05
-2.91693412864e-05
7.35686162105e-05
7.35524698819e-05
-2.11897323521e-05
7.50066487932e-05
7.60322898895e-05
-1.20289921704e-05
6.9173252856e-05
7.65772003959e-05
-4.30372806305e-06
5.74709717048e-05
7.63920623396e-05
2.38114097494e-06
4.100845164e-05
7.57279294212e-05
8.07785792472e-06
2.12861637023e-05
7.50000144892e-05
1.21648307579e-05
9.24531941251e-08
7.45733911508e-05
1.41295553281e-05
-2.11075648513e-05
7.45618486869e-05
1.41368241299e-05
-4.0848613705e-05
7.49678927168e-05
1.2186231889e-05
-5.73393635511e-05
7.56811550893e-05
8.10936015641e-06
-6.90720588907e-05
7.63384654926e-05
2.41497481739e-06
-7.4934489319e-05
7.65235309962e-05
-4.27233853095e-06
-7.35263037196e-05
7.59844694732e-05
-1.19974735089e-05
-6.29464373449e-05
7.35103873453e-05
-2.11673781513e-05
-4.39302159705e-05
7.03721184165e-05
-2.91571721367e-05
-1.89671227638e-05
6.71954719843e-05
-3.417636445e-05
6.40306668417e-05
-2.67383497528e-05
1.97736553494e-05
6.37436491714e-05
-1.94620852582e-05
4.5974904558e-05
6.77290711858e-05
-2.67032552446e-05
6.54485552476e-05
7.1714278733e-05
-2.07798611532e-05
7.6048975694e-05
7.49749078726e-05
-1.2022886903e-05
7.73472437602e-05
7.73182765995e-05
-2.5842876409e-06
7.1221264277e-05
7.75703435955e-05
5.13280332793e-06
5.91189862021e-05
7.68751771112e-05
1.16191345194e-05
4.2184848799e-05
7.56763745679e-05
1.69856706377e-05
2.19291165275e-05
7.46228174076e-05
2.06329162266e-05
9.17223881878e-08
7.40356010801e-05
2.23751791013e-05
-2.17517262548e-05
7.40239187631e-05
2.23813798712e-05
-4.20254486353e-05
7.45904218407e-05
2.06511989518e-05
-5.89864437827e-05
7.56295601647e-05
1.70125982922e-05
-7.11184902835e-05
7.68222054668e-05
1.16483160041e-05
-7.72727151423e-05
7.75182960845e-05
5.15946973713e-06
-7.60037034277e-05
7.72721952483e-05
-2.55672694545e-06
-6.54240303949e-05
7.49345535275e-05
-1.20038272945e-05
-4.59633973836e-05
7.16812501084e-05
-2.07697495165e-05
-1.9769770858e-05
6.7701588543e-05
-2.66997212092e-05
6.37236090445e-05
-1.9462689616e-05
2.05177442883e-05
5.76498921807e-05
-1.44239928667e-05
4.72257822757e-05
6.17088227819e-05
-2.0687796343e-05
6.64519985002e-05
6.59889557169e-05
-1.35009068938e-05
7.65965029673e-05
6.91283827644e-05
-4.29799961186e-06
7.75992139929e-05
7.11822942458e-05
5.13324786227e-06
7.12917044141e-05
7.12551358235e-05
1.26226952528e-05
5.9043607366e-05
7.03333110379e-05
1.87899465199e-05
4.19901360347e-05
6.89393163413e-05
2.37905212292e-05
2.17536808458e-05
6.77448084444e-05
2.7114464754e-05
8.99806646246e-08
6.71306591512e-05
2.85686506285e-05
-2.15794511768e-05
6.71193461056e-05
2.85740188352e-05
-4.18324725711e-05
6.77130796415e-05
2.71303815039e-05
-5.89121625647e-05
6.88939210877e-05
2.38153488196e-05
-7.11889958484e-05
7.02827293086e-05
1.88163298608e-05
-7.75239108822e-05
7.12060155404e-05
1.26472165011e-05
-7.65493429401e-05
7.11388336107e-05
5.15881559625e-06
-6.64255469271e-05
6.90907216609e-05
-4.279939915e-06
-4.7212526402e-05
6.59583017745e-05
-1.34900433948e-05
-2.05129915946e-05
6.16834095266e-05
-2.0681318631e-05
5.76330085465e-05
-1.442235698e-05
2.17230695562e-05
4.65543626524e-05
-1.06275390269e-05
4.85927990273e-05
5.01841270013e-05
-1.53450332257e-05
6.70934150495e-05
5.45566540909e-05
-7.06832033376e-06
7.64193614194e-05
5.74180306268e-05
2.38439396324e-06
7.69086899412e-05
5.90745670199e-05
1.16183846237e-05
7.03716860935e-05
5.90035858642e-05
1.87885420228e-05
5.80738685938e-05
5.80353461643e-05
2.45957770584e-05
4.10678778353e-05
5.65350142006e-05
2.94102963866e-05
2.12110297089e-05
5.52946994378e-05
3.23069696653e-05
8.71526067663e-08
5.47562285337e-05
3.34983276873e-05
-2.10419021671e-05
5.47458906404e-05
3.35025352407e-05
-4.09139552832e-05
5.52647912333e-05
3.23203692449e-05
-5.79451628721e-05
5.64910631659e-05
2.94340942157e-05
-7.02705012141e-05
5.79879677477e-05
2.46201290285e-05
-7.6834175216e-05
5.89575447772e-05
1.88121745445e-05
-7.63717967726e-05
5.90332847633e-05
1.16432020358e-05
-6.70662246397e-05
5.73823973908e-05
2.40278737334e-06
-4.85785344491e-05
5.45271258107e-05
-7.05647266676e-06
-2.17175572429e-05
5.0158787655e-05
-1.53363036369e-05
4.65379319087e-05
-1.06224367425e-05
2.3314304447e-05
3.20913336442e-05
-8.85126850443e-06
4.99815696625e-05
3.47757591193e-05
-1.12588905373e-05
6.73796834127e-05
3.85743962827e-05
-1.4158551488e-06
7.57674968439e-05
4.09560791531e-05
8.07413346473e-06
7.57196481848e-05
4.21433257041e-05
1.69790836461e-05
6.89848529185e-05
4.19551672499e-05
2.37832104889e-05
5.65773600782e-05
4.10387231484e-05
2.9404119333e-05
3.98308138321e-05
3.98025012369e-05
3.34790716433e-05
2.04759928294e-05
3.87430646424e-05
3.59064769154e-05
8.16629994945e-08
3.83255659027e-05
3.68250202656e-05
-2.03172269945e-05
3.83167501404e-05
3.68280623589e-05
-3.96858639315e-05
3.87168129852e-05
3.5916648803e-05
-5.6454883206e-05
3.97629487654e-05
3.34971677751e-05
-6.88894965499e-05
4.09946361711e-05
2.94279792497e-05
-7.56501670567e-05
4.19121486538e-05
2.38061021282e-05
-7.57233624526e-05
4.2103856295e-05
1.70026622818e-05
-6.735530079e-05
4.09211430447e-05
8.09323631157e-06
-4.99700771532e-05
3.85435976966e-05
-1.40164372763e-06
-2.33104077382e-05
3.47488593465e-05
-1.12496775526e-05
3.20728190169e-05
-8.84524342236e-06
2.5026976284e-05
1.61739158047e-05
-9.10954708024e-06
5.12226852986e-05
1.75901945937e-05
-9.01013317435e-06
6.74908891919e-05
1.98237309729e-05
2.48246700384e-06
7.50516551517e-05
2.12425108596e-05
1.21528028719e-05
7.46772290045e-05
2.18981571416e-05
2.06195938487e-05
6.7800284496e-05
2.17313474899e-05
2.71007665559e-05
5.53444546629e-05
2.11976224636e-05
3.22969397861e-05
3.87763136515e-05
2.04691197632e-05
3.59015404978e-05
1.98267989671e-05
1.98201963388e-05
3.78724091006e-05
7.27285701047e-08
1.95636842751e-05
3.8515983991e-05
-1.96856276654e-05
1.95571742207e-05
3.85179672744e-05
-3.86483311666e-05
1.98000576717e-05
3.78794949544e-05
-5.52373070446e-05
2.04375808653e-05
3.59143798709e-05
-6.77175310941e-05
2.11609283903e-05
3.23139681703e-05
-7.46191482519e-05
2.16943646488e-05
2.71194392107e-05
-7.50174722575e-05
2.1862551488e-05
2.06396708863e-05
-6.74759431363e-05
2.12101749411e-05
1.21694877273e-05
-5.12194515688e-05
1.97944844473e-05
2.49268021922e-06
-2.50278911216e-05
1.7564426889e-05
-9.00705652914e-06
1.61543933955e-05
-9.1094094516e-06
2.62292213239e-05
2.02102580013e-08
-1.0075502036e-05
5.20060694215e-05
3.7100815409e-08
-8.22374077958e-06
6.75587056596e-05
5.00863967459e-08
4.22101640145e-06
7.46266561223e-05
5.97346155527e-08
1.41148291429e-05
7.40917096788e-05
7.37853761418e-08
2.23593204438e-05
6.71871010271e-05
8.29145610617e-08
2.85530471301e-05
5.48065271677e-05
9.15008213849e-08
3.3486708014e-05
3.83606331977e-05
9.68638246753e-08
3.68181707902e-05
1.95722693547e-05
9.51882435918e-08
3.85134003761e-05
6.37537983953e-08
8.80890542921e-08
3.89841443469e-05
-1.94490297463e-05
8.45376852332e-08
3.89854560723e-05
-3.82504004478e-05
8.3245048422e-08
3.85182197041e-05
-5.47164646103e-05
7.66694212743e-08
3.68270116089e-05
-6.71204734873e-05
6.66974346664e-08
3.34982761026e-05
-7.40488745029e-05
5.70225583072e-08
2.85657814142e-05
-7.46073357464e-05
4.818702224e-08
2.23728688105e-05
-6.75582253449e-05
3.63389033964e-08
1.41247763957e-05
-5.20154665135e-05
2.91756095706e-08
4.2226115375e-06
-2.62369938895e-05
1.92250337609e-08
-8.23319582513e-06
6.22173198691e-09
-1.00887647009e-05
2.62213754146e-05
-1.6138034415e-05
-1.00631168675e-05
5.19888035298e-05
-1.75201799166e-05
-8.21013398787e-06
6.75367650399e-05
-1.97290626669e-05
4.23119584043e-06
7.46017476337e-05
-2.11289549661e-05
1.41237111287e-05
7.40652624593e-05
-2.17577778534e-05
2.23680519158e-05
6.71602452452e-05
-2.15732038954e-05
2.85611428432e-05
5.47814946525e-05
-2.10224949118e-05
3.34927604284e-05
3.83405022479e-05
-2.02838286121e-05
3.68217071855e-05
1.95596979121e-05
-1.96382212775e-05
3.85142432655e-05
5.84300943043e-08
-1.93939733692e-05
3.89833642384e-05
-1.94472142994e-05
-1.93942980879e-05
3.89845160013e-05
-3.82412126872e-05
-1.9640859954e-05
3.85181391239e-05
-5.47025910581e-05
-2.02901913807e-05
3.68282742309e-05
-6.71051688708e-05
-2.10313551674e-05
3.35006654927e-05
-7.40343266339e-05
-2.15827027217e-05
2.85689202828e-05
-7.4594720551e-05
-2.17670682085e-05
2.23756913413e-05
-6.75487856208e-05
-2.11359724466e-05
1.41264265057e-05
-5.20090902089e-05
-1.97334579069e-05
4.22299906429e-06
-2.62350238724e-05
-1.75215984814e-05
-8.23316870617e-06
-1.61373586296e-05
-1.00913874739e-05
2.50056535408e-05
-3.20649250181e-05
-9.07875114082e-06
5.1177342637e-05
-3.47168778322e-05
-8.97498017689e-06
6.74336126404e-05
-3.84940439093e-05
2.50871767305e-06
7.4986928858e-05
-4.08580957493e-05
1.21758276242e-05
7.46081708837e-05
-4.20213947239e-05
2.0642377997e-05
6.77285840582e-05
-4.1816082983e-05
2.71224730969e-05
5.52750715304e-05
-4.08837042381e-05
3.23147362394e-05
3.87179836355e-05
-3.96393969497e-05
3.59126786035e-05
1.97878219518e-05
-3.85844559445e-05
3.78764255012e-05
5.53330684081e-08
-3.81771547876e-05
3.85157035797e-05
-1.96811497981e-05
-3.81748286289e-05
3.85170481175e-05
-3.86234995471e-05
-3.85790322697e-05
3.78805563538e-05
-5.52001104503e-05
-3.96328324081e-05
3.59192851549e-05
-6.76769018285e-05
-4.08768467937e-05
3.23223161216e-05
-7.45804796679e-05
-4.18083104168e-05
2.71292204355e-05
-7.49832163887e-05
-4.20129774563e-05
2.0648685511e-05
-6.74495247146e-05
-4.08454503174e-05
1.21758330756e-05
-5.12012538541e-05
-3.84775758284e-05
2.49590416132e-06
-2.50216087685e-05
-3.46962995327e-05
-9.00487468565e-06
-3.20441546748e-05
-9.11476081794e-06
2.32855097726e-05
-4.65356036542e-05
-8.81482342845e-06
4.99229822861e-05
-5.01395036226e-05
-1.12148401538e-05
6.73048976918e-05
-5.44951927957e-05
-1.38076391325e-06
7.56828804011e-05
-5.73388642037e-05
8.10278584763e-06
7.56281996049e-05
-5.89749496508e-05
1.70082366069e-05
6.88890772655e-05
-5.88898774647e-05
2.38129222582e-05
5.64813756866e-05
-5.79095221367e-05
2.94335319975e-05
3.97472538102e-05
-5.6402743887e-05
3.34974891749e-05
2.04169694065e-05
-5.51687090997e-05
3.59145642511e-05
5.4039381501e-08
-5.4641055347e-05
3.68268610316e-05
-2.03118843243e-05
-5.4637349994e-05
3.68284766303e-05
-3.96520668117e-05
-5.5158657976e-05
3.5919839051e-05
-5.64039666588e-05
-5.63876620019e-05
3.35067591558e-05
-6.88342432409e-05
-5.78916033409e-05
2.94450623274e-05
-7.55965504423e-05
-5.88692486071e-05
2.3823276125e-05
-7.56748648273e-05
-5.8952252355e-05
1.70176239841e-05
-6.73162247627e-05
-5.73100683851e-05
8.10601912037e-06
-4.99421919538e-05
-5.44605642193e-05
-1.39099429941e-06
-2.32987122336e-05
-5.00990420631e-05
-1.12406761254e-05
-4.64965483547e-05
-8.84627307742e-06
2.1693297636e-05
-5.76348189742e-05
-1.05940803632e-05
4.85326202448e-05
-6.16755345236e-05
-1.53032913222e-05
6.70155371998e-05
-6.59420343309e-05
-7.0360784924e-06
7.63297495913e-05
-6.90654403826e-05
2.4123588867e-06
7.6810655238e-05
-7.11032285389e-05
1.16473697116e-05
7.02690020543e-05
-7.11649688885e-05
1.88167457025e-05
5.79719993338e-05
-7.02348087973e-05
2.46222974963e-05
4.09767314393e-05
-6.88393335825e-05
2.94318730323e-05
2.11442871703e-05
-6.76535746297e-05
3.2317331015e-05
5.49991055746e-08
-6.70526528224e-05
3.35009099643e-05
-2.1036684128e-05
-6.70484840252e-05
3.35028425163e-05
-4.08775233763e-05
-6.76417746131e-05
3.23239803954e-05
-5.78898345179e-05
-6.88209228923e-05
2.94455952132e-05
-7.02081693786e-05
-7.02108432938e-05
2.4637597644e-05
-7.67721922642e-05
-7.11368572296e-05
1.88316556474e-05
-7.63148642102e-05
-7.10719350766e-05
1.16623821253e-05
-6.70187778221e-05
-6.90267203983e-05
2.42059828779e-06
-4.85433612231e-05
-6.58961542141e-05
-7.03978629004e-06
-2.17010030173e-05
-6.1623282121e-05
-1.53180684015e-05
-5.75842412705e-05
-1.06132729779e-05
2.04897115477e-05
-6.37268400643e-05
-1.43976954e-05
4.71685025073e-05
-6.77018700927e-05
-2.06524624544e-05
6.63761120919e-05
-7.16775242083e-05
-1.3472129988e-05
7.65082499154e-05
-7.49255227097e-05
-4.27206719207e-06
7.75020766568e-05
-7.72566692182e-05
5.15960379177e-06
7.11898845089e-05
-7.75006070114e-05
1.26478247375e-05
5.8942012641e-05
-7.68008850377e-05
1.88139491062e-05
4.18984265576e-05
-7.56049064176e-05
2.38091665326e-05
2.16855164404e-05
-7.45643925684e-05
2.7123740658e-05
5.69306655501e-08
-7.39929553885e-05
2.85689038001e-05
-2.15738794654e-05
-7.39888280065e-05
2.8571170335e-05
-4.17945810082e-05
-7.4552260321e-05
2.71312027959e-05
-5.88542301872e-05
-7.55850433961e-05
2.38237843357e-05
-7.11225919212e-05
-7.67741663888e-05
1.88316993263e-05
-7.74563077036e-05
-7.746868312e-05
1.26655572755e-05
-7.64853995739e-05
-7.72209498142e-05
5.17812463799e-06
-6.63705412701e-05
-7.48820690035e-05
-4.25948762057e-06
-4.71709598574e-05
-7.16276868964e-05
-1.34680204549e-05
-2.04919343982e-05
-6.76458059152e-05
-2.06564654494e-05
-6.36719843404e-05
-1.44041637933e-05
1.9746450512e-05
-6.40342713572e-05
-1.94390315648e-05
4.59208351196e-05
-6.72019366986e-05
-2.66743330745e-05
6.53763990444e-05
-7.03800020788e-05
-2.07531043614e-05
7.59645342043e-05
-7.35171765907e-05
-1.19965009369e-05
7.72537985284e-05
-7.59884914071e-05
-2.55746021622e-06
7.11229314738e-05
-7.65279191911e-05
5.15816553813e-06
5.90202073472e-05
-7.63412175672e-05
1.16430489909e-05
4.20946571582e-05
-7.5683185168e-05
1.70038272523e-05
2.18614893956e-05
-7.49708572277e-05
2.06396354838e-05
5.91871324559e-08
-7.45614393383e-05
2.23707921347e-05
-2.17451557718e-05
-7.45576533266e-05
2.23731751764e-05
-4.19863471818e-05
-7.49589436229e-05
2.06478814134e-05
-5.89265779406e-05
-7.56628362001e-05
1.70180295942e-05
-7.1048829134e-05
-7.63137152582e-05
1.16618058463e-05
-7.72004589125e-05
-7.64940550278e-05
5.17700787652e-06
-7.59337425661e-05
-7.5950712056e-05
-2.53694651275e-06
-6.53626389913e-05
-7.34724076446e-05
-1.19807546038e-05
-4.59163819248e-05
-7.03302340851e-05
-2.07436945965e-05
-1.97450000557e-05
-6.71480896828e-05
-2.66690762162e-05
-6.39814294704e-05
-1.94355371198e-05
1.89414608145e-05
-5.6262117822e-05
-2.67136337782e-05
4.38874798495e-05
-5.79930222568e-05
-3.41549561345e-05
6.28997141009e-05
-6.02466553757e-05
-2.91456069834e-05
7.34885882308e-05
-6.29399399876e-05
-2.11661382196e-05
7.49174857594e-05
-6.54118177536e-05
-1.20055972637e-05
6.90792789295e-05
-6.64075009643e-05
-4.28223333267e-06
5.73769125446e-05
-6.7039260714e-05
2.40039337521e-06
4.09228245516e-05
-6.73190678526e-05
8.08996058271e-06
2.12222662763e-05
-6.74338408252e-05
1.21635368787e-05
6.2307793114e-08
-6.75167466085e-05
1.41152642459e-05
-2.10989725429e-05
-6.75137131141e-05
1.41173402034e-05
-4.08061415027e-05
-6.74236028865e-05
1.21718282607e-05
-5.72749724798e-05
-6.73001055435e-05
8.10609951191e-06
-6.89970160239e-05
-6.70125691493e-05
2.42089560812e-06
-7.4856288674e-05
-6.63743392577e-05
-4.26044562733e-06
-7.34502313231e-05
-6.53757731951e-05
-1.19809986148e-05
-6.2878620928e-05
-6.28987912251e-05
-2.11452275357e-05
-4.38763390502e-05
-6.02023742714e-05
-2.91301385848e-05
-1.89359505314e-05
-5.79468398497e-05
-3.41416296495e-05
-5.62164945645e-05
-2.67008760901e-05
1.87847646464e-05
-4.12758719989e-05
-3.37710361997e-05
4.21772167269e-05
-4.12948751243e-05
-4.00906282076e-05
6.02071652047e-05
-4.22172035623e-05
-3.60594327987e-05
7.03527644532e-05
-4.39270602914e-05
-2.91585130398e-05
7.16705546051e-05
-4.595531274e-05
-2.0774327893e-05
6.59561222341e-05
-4.71994384981e-05
-1.34936585706e-05
5.45317129315e-05
-4.85567830144e-05
-7.05809067505e-06
3.85555493179e-05
-4.99385089137e-05
-1.40441079995e-06
1.98164971782e-05
-5.11815503436e-05
2.48675228557e-06
6.46236325581e-08
-5.19766349942e-05
4.21175690393e-06
-1.96881415132e-05
-5.19742571972e-05
4.21330618654e-06
-3.84327403059e-05
-5.11732991121e-05
2.49429180578e-06
-5.44237269215e-05
-4.99230511867e-05
-1.38607256939e-06
-6.58677911586e-05
-4.85342535945e-05
-7.03425828893e-06
-7.16038158222e-05
-4.71715317537e-05
-1.34667917588e-05
-7.03094238798e-05
-4.5925982103e-05
-2.07441928792e-05
-6.01817687885e-05
-4.38944539122e-05
-2.91320015006e-05
-4.21627356444e-05
-4.2183311778e-05
-3.60381017505e-05
-1.87777925929e-05
-4.12605529195e-05
-4.00712310476e-05
-4.12428600227e-05
-3.37514234951e-05
1.94089678103e-05
-2.0799492894e-05
-3.98853782255e-05
4.12567602817e-05
-1.94358205966e-05
-4.37068806132e-05
5.79558003884e-05
-1.88116481432e-05
-4.01046324207e-05
6.71763547761e-05
-1.89667225938e-05
-3.41809303431e-05
6.7694391953e-05
-1.97664875406e-05
-2.67068988061e-05
6.16867632648e-05
-2.05070956286e-05
-2.06847456671e-05
5.01707668369e-05
-2.17060165455e-05
-1.53347943826e-05
3.47687882519e-05
-2.32921570427e-05
-1.12443897288e-05
1.75964320523e-05
-2.50041674468e-05
-9.00503612361e-06
6.69276784152e-08
-2.62111679294e-05
-8.23596731682e-06
-1.74629818356e-05
-2.62101323749e-05
-8.23421800658e-06
-3.46399173581e-05
-2.50000946114e-05
-8.99627239597e-06
-5.0055701979e-05
-2.32837334476e-05
-1.1223538975e-05
-6.15922201615e-05
-2.16936243503e-05
-1.5304120006e-05
-6.76223415583e-05
-2.0492255475e-05
-2.06491665671e-05
-6.71286964134e-05
-1.97512461994e-05
-2.66683943213e-05
-5.79277194023e-05
-1.89499493841e-05
-3.41454945109e-05
-4.12404361904e-05
-1.87945455254e-05
-4.00760596894e-05
-1.94014822358e-05
-1.94189115736e-05
-4.36806003116e-05
-2.07837409751e-05
-3.98605983356e-05
2.07756124633e-05
-4.15751266049e-05
4.12427802182e-05
-3.99030105029e-05
5.62288581927e-05
-3.37977498555e-05
6.40049342557e-05
-2.67428224692e-05
6.3709202702e-05
-1.94707777356e-05
5.76298544318e-05
-1.44277651915e-05
4.65457204096e-05
-1.06218953103e-05
3.20941735427e-05
-8.84061781705e-06
1.61944666929e-05
-9.10446408349e-06
6.94586994226e-08
-1.00861609928e-05
-1.60560540739e-05
-1.00846201331e-05
-3.19601323106e-05
-9.09601793084e-06
-4.64247379379e-05
-8.8191312347e-06
-5.75292613349e-05
-1.05891063553e-05
-6.36311329226e-05
-1.43903907942e-05
-6.39503862227e-05
-1.9432000337e-05
-5.61943380615e-05
-2.67060040608e-05
-4.12225550106e-05
-3.37663325085e-05
-2.07665550866e-05
-3.98749105255e-05
-4.15502902919e-05
2.29030586998e-05
2.29042228084e-05
-8.74287489622e-05
4.13799876411e-05
2.54303485419e-05
-8.38437620394e-05
5.19666208243e-05
2.98675842846e-05
-7.42732437607e-05
5.4506072573e-05
3.46714747138e-05
-6.39684378298e-05
5.15344844683e-05
3.83599074576e-05
-5.48700452929e-05
4.3429618222e-05
4.10108606973e-05
-4.73427938896e-05
3.24419422475e-05
4.30693204989e-05
-4.27066542322e-05
2.0752613368e-05
4.49148818068e-05
-4.20558397038e-05
9.91726329497e-06
4.64125089035e-05
-4.46550519217e-05
8.23306204178e-08
4.72271626625e-05
-4.74388664747e-05
-9.75814468008e-06
4.72209495418e-05
-4.74182418325e-05
-2.06095394707e-05
4.63948376285e-05
-4.45961128533e-05
-3.23237554119e-05
4.48877866329e-05
-4.19625290208e-05
-4.3340808699e-05
4.30373928471e-05
-4.2594578088e-05
-5.14728158759e-05
4.09799538097e-05
-4.72349943503e-05
-5.44649805205e-05
3.83320959751e-05
-5.47757856483e-05
-5.19405146085e-05
3.46492184527e-05
-6.38948052499e-05
-4.13683759853e-05
2.98488590716e-05
-7.42120325849e-05
-2.29013057327e-05
2.54131896361e-05
-8.37933873944e-05
2.28856246943e-05
-8.739094691e-05
2.5437880701e-05
4.13651082691e-05
-8.38201456081e-05
4.44816214906e-05
4.44630875536e-05
-8.1809976507e-05
5.51877587968e-05
5.11759529571e-05
-7.21382331574e-05
5.82756999533e-05
5.84611472775e-05
-6.10749857037e-05
5.56794776388e-05
6.43256894529e-05
-5.00925226709e-05
4.79076266265e-05
6.83453151858e-05
-4.02641554477e-05
3.68481831035e-05
7.09157953838e-05
-3.21353534453e-05
2.44268492929e-05
7.25612637369e-05
-2.64707855039e-05
1.20400567409e-05
7.36374555979e-05
-2.38259910825e-05
8.67653922773e-08
7.41978013692e-05
-2.32192110404e-05
-1.18717185183e-05
7.41872769251e-05
-2.31991546701e-05
-2.42729575578e-05
7.36078144851e-05
-2.37694027621e-05
-3.67175871283e-05
7.25163087653e-05
-2.63831691361e-05
-4.78062078803e-05
7.08645552279e-05
-3.20335544495e-05
-5.56075886995e-05
6.82952159188e-05
-4.01644330934e-05
-5.82265438708e-05
6.4281438654e-05
-5.00069248969e-05
-5.51571768324e-05
5.84254025513e-05
-6.10070412045e-05
-4.44646166973e-05
5.11457062903e-05
-7.20887764636e-05
-2.54300523622e-05
4.44360601967e-05
-8.17732233456e-05
4.1340738366e-05
-8.37985188803e-05
2.98768141734e-05
5.19315928122e-05
-7.42424013491e-05
5.11935252395e-05
5.51549606709e-05
-7.21246659712e-05
6.27107729072e-05
6.26822942152e-05
-5.91038944011e-05
6.62079963503e-05
7.07091496769e-05
-4.49229654001e-05
6.3963010426e-05
7.67315869766e-05
-3.09547529072e-05
5.64855222429e-05
8.02966166231e-05
-1.79863597078e-05
4.50121002299e-05
8.1865622499e-05
-6.54998047064e-06
3.10348532486e-05
8.23125993186e-05
2.81410783583e-06
1.58435749943e-05
8.23363908658e-05
8.98803232547e-06
8.90475479312e-08
8.223048835e-05
1.19580006559e-05
-1.56708115292e-05
8.22176832986e-05
1.19743862389e-05
-3.08776023734e-05
8.23008155806e-05
9.03472342507e-06
-4.48761805774e-05
8.22612992519e-05
2.88257131115e-06
-5.63793959626e-05
8.18060494241e-05
-6.46949441962e-06
-6.3885803023e-05
8.0238867742e-05
-1.79095603642e-05
-6.61538195193e-05
7.66820695849e-05
-3.08880225815e-05
-6.26761550181e-05
7.066947233e-05
-4.48716985464e-05
-5.11739717207e-05
6.26492782654e-05
-5.90682679596e-05
-2.98670561716e-05
5.51255799657e-05
-7.21017337508e-05
5.19072589078e-05
-7.42322242839e-05
3.46808182579e-05
5.44532046328e-05
-6.39389156202e-05
5.84784502332e-05
5.8224457439e-05
-6.10481871694e-05
7.07335772222e-05
6.61667661577e-05
-4.4908951335e-05
7.4112901388e-05
7.40803756267e-05
-2.79403013298e-05
7.15106839462e-05
7.94000131998e-05
-1.20952256719e-05
6.3428404955e-05
8.19556099522e-05
2.11953013267e-06
5.11903852581e-05
8.24697597207e-05
1.40149963855e-05
3.58641497867e-05
8.17937787843e-05
2.39228894322e-05
1.85128983744e-05
8.08808977763e-05
3.09715545979e-05
9.01145746659e-08
8.02778965659e-05
3.45049143801e-05
-1.83378014273e-05
8.0264573409e-05
3.45178376967e-05
-3.57034044241e-05
8.08439409388e-05
3.10087015401e-05
-5.10513010132e-05
8.17407663455e-05
2.39777861948e-05
-6.33168934507e-05
8.24104681877e-05
1.40761499417e-05
-7.14278025837e-05
8.18993562645e-05
2.17808835218e-06
-7.40545662476e-05
7.93514555809e-05
-1.20400847731e-05
-7.06962000058e-05
7.40417670203e-05
-2.78980230531e-05
-5.84568117969e-05
6.61362072052e-05
-4.48834671828e-05
-3.46700866069e-05
5.81997935467e-05
-6.10372725581e-05
5.44317037878e-05
-6.39328508525e-05
3.83692715791e-05
5.14596410337e-05
-5.4837790781e-05
6.43432439476e-05
5.56083096341e-05
-5.00610777125e-05
7.6754222816e-05
6.39073994972e-05
-3.0931478037e-05
7.94278673193e-05
7.1468863526e-05
-1.20850312062e-05
7.59069063908e-05
7.58731954301e-05
4.46347416756e-06
6.71623987418e-05
7.76385790901e-05
1.81943233826e-05
5.42573499444e-05
7.74031352512e-05
2.95907905068e-05
3.81814018125e-05
7.60309430943e-05
3.88244401247e-05
1.97653544934e-05
7.45619742396e-05
4.5367876102e-05
9.01104415538e-08
7.37064340114e-05
4.86218779934e-05
-1.95903846478e-05
7.36937390868e-05
4.86327045993e-05
-3.80209562012e-05
7.45267003669e-05
4.53990096517e-05
-5.4118377067e-05
7.5980485091e-05
3.88703031263e-05
-6.70493568445e-05
7.73479365174e-05
2.9641834993e-05
-7.58224177778e-05
7.75866413512e-05
1.82452586967e-05
-7.93672656134e-05
7.58292954872e-05
4.51029998655e-06
-7.67159566133e-05
7.14340430927e-05
-1.20473866922e-05
-6.43215144309e-05
6.3882609083e-05
-3.09105601074e-05
-3.83579373964e-05
5.55909905002e-05
-5.00544512345e-05
5.1445621856e-05
-5.48345055142e-05
4.10251359418e-05
4.33346787341e-05
-4.73241572838e-05
6.8368136968e-05
4.78196384064e-05
-4.02421167198e-05
8.03225114428e-05
5.64159651902e-05
-1.79638440183e-05
8.19840276478e-05
6.337721058e-05
2.13213348159e-06
7.76697136224e-05
6.71223493793e-05
1.81984001339e-05
6.83233004481e-05
6.82888535729e-05
3.13188250884e-05
5.5019230114e-05
6.76633024981e-05
4.18338423165e-05
3.87510324949e-05
6.61513112734e-05
4.99383460441e-05
2.01040901326e-05
6.46725157107e-05
5.56508637219e-05
8.93373342049e-08
6.38175113034e-05
5.84723262813e-05
-1.99309991174e-05
6.38059846074e-05
5.84821117575e-05
-3.85935546219e-05
6.46405919492e-05
5.56790498679e-05
-5.48819298144e-05
6.61062061054e-05
4.99780109383e-05
-6.82109210074e-05
6.76140712439e-05
4.18791993629e-05
-7.75849562663e-05
6.82427397224e-05
3.13651727351e-05
-8.1923287646e-05
6.70837338261e-05
1.82427354698e-05
-8.02839875819e-05
6.33475225376e-05
2.16731585475e-06
-6.83468327616e-05
5.63968680719e-05
-1.79414118181e-05
-4.10129158387e-05
4.78072821904e-05
-4.02314695454e-05
4.33258757031e-05
-4.73154781407e-05
4.30942458402e-05
3.23390549079e-05
-4.27261450961e-05
7.09488873231e-05
3.67534324891e-05
-3.21334522581e-05
8.19002377092e-05
4.49356146846e-05
-6.53930972682e-06
8.25043849025e-05
5.11342307831e-05
1.40232307588e-05
7.74376227429e-05
5.42145123104e-05
2.95929840686e-05
6.7697899317e-05
5.4984381815e-05
4.183273654e-05
5.43453100107e-05
5.43133048303e-05
5.12983646698e-05
3.83152326981e-05
5.31662656878e-05
5.84254221045e-05
1.98629391851e-05
5.19095463561e-05
6.3522237105e-05
8.77318920776e-08
5.11848868933e-05
6.59061650163e-05
-1.96932097525e-05
5.11746469925e-05
6.59148209724e-05
-3.81613361417e-05
5.1881416844e-05
6.35476787508e-05
-5.42117922435e-05
5.31271765018e-05
5.84635911937e-05
-6.75885492768e-05
5.42705044045e-05
5.13404693268e-05
-7.7354937385e-05
5.49442686343e-05
4.18770574159e-05
-8.24455550509e-05
5.41809526183e-05
2.96366336027e-05
-8.18640051404e-05
5.11083753159e-05
1.40604281347e-05
-7.09300435406e-05
4.49187549448e-05
-6.51226527498e-06
-4.30819447717e-05
3.67426218434e-05
-3.21196721031e-05
3.23306203129e-05
-4.27090700018e-05
4.49508651266e-05
2.06567686284e-05
-4.21198258523e-05
7.26070885944e-05
2.43379154598e-05
-2.64995747792e-05
8.23596792811e-05
3.09616767178e-05
2.80550841612e-06
8.18393191466e-05
3.58092344258e-05
2.39194998901e-05
7.60738118207e-05
3.81399505675e-05
3.88191586098e-05