/*--------------------------------*- C++ -*----------------------------------*\
| =========                 |                                                 |
| \\      /  F ield         | OpenFOAM: The Open Source CFD Toolbox           |
|  \\    /   O peration     | Version:  3.0.1                                 |
|   \\  /    A nd           | Web:      www.OpenFOAM.org                      |
|    \\/     M anipulation  |                                                 |
\*---------------------------------------------------------------------------*/
FoamFile
{
    version     2.0;
    format      ascii;
    class       volVectorField;
    location    "7.7";
    object      ddt0(U);
}
// * * * * * * * * * * * * * * * * * * * * * * * * * * * * * * * * * * * * * //

dimensions      [0 1 -2 0 0 0 0];

internalField   nonuniform List<vector> 
7968
(
(5.43132828997e-05 3.77926391052e-05 -3.40874615421e-05)
(0.00020943603455 5.28659492123e-05 -7.01912009684e-05)
(0.000346466888738 5.55271767076e-05 -7.46053654372e-05)
(0.000431156476831 4.19758335606e-05 -4.11420296841e-05)
(0.000487334481849 2.46964827809e-05 6.81145985236e-06)
(0.000454503922457 8.75136988924e-06 5.88574524681e-05)
(0.000432339469557 -1.42952101909e-05 8.15312995644e-05)
(0.000399897044353 -3.10327974583e-05 0.000107219163984)
(0.000342679315965 -3.50852953109e-05 0.000125788120082)
(0.000273584512916 -3.38307562404e-05 0.000133437588489)
(0.000199027889478 -3.05782355144e-05 0.00013523181549)
(0.000115616903834 -2.56176507409e-05 0.000131239385373)
(2.61293344125e-05 -1.64879335316e-05 0.000117120475943)
(-5.42379779731e-05 2.38662567793e-06 9.53111329872e-05)
(-0.000126017656261 1.70325600815e-05 6.8289300371e-05)
(-0.000215651112635 4.84210401466e-05 3.12829068846e-05)
(-0.000232912545269 5.65488585304e-05 -2.18282117782e-05)
(-0.000211310210136 6.93386857524e-05 -5.50303543114e-05)
(-0.000136054808733 6.4563321677e-05 -5.25550604964e-05)
(-3.11193205546e-05 4.39859462357e-05 -1.83738883292e-05)
(7.21269834979e-05 0.000156561733565 -6.70755615062e-05)
(0.000278502597972 0.000220896793447 -0.000174314810303)
(0.000394771032601 0.000237263737554 -0.000164726431477)
(0.000450115679634 0.000205160192504 -0.000108675477095)
(0.000460970599658 0.00013802126831 -2.53932426512e-05)
(0.000412942955456 4.95089023824e-05 5.86483778777e-05)
(0.000381527911369 -5.97464787381e-05 0.000119714306071)
(0.000350051890388 -0.000143804321882 0.000177292330789)
(0.000309935968434 -0.000191959361259 0.000221470504058)
(0.000267415987507 -0.000209781467509 0.00024406897765)
(0.000221301906171 -0.000205412498389 0.000248019282115)
(0.000164249706455 -0.00017959496369 0.000233526024338)
(9.29506704869e-05 -0.000125257534028 0.000197390682375)
(1.45597451423e-05 -3.791194602e-05 0.000145554565996)
(-6.82300923836e-05 7.12157065579e-05 8.66876602567e-05)
(-0.00017809106333 0.000170023324496 1.106375319e-05)
(-0.000237584844636 0.000236388340802 -7.33077294814e-05)
(-0.000251766866444 0.00026740589036 -0.000131582828078)
(-0.00020189781664 0.000247587314174 -0.000148393936559)
(-4.84065890235e-05 0.000175835504781 -5.33040176971e-05)
(7.58362446927e-05 0.000251480053037 -7.08108950587e-05)
(0.000297314294947 0.000293052046714 -0.000162820882383)
(0.000376107897926 0.000271194346904 -0.000108627411143)
(0.000389762324843 0.000178389778309 -2.25240934803e-05)
(0.000359869799212 3.62165899765e-05 6.76171996383e-05)
(0.000300384981105 -0.000140126847985 0.000143424804935)
(0.000271708711291 -0.000330336487051 0.000194356508795)
(0.000261208618232 -0.000480511719325 0.000240025427545)
(0.000255427980938 -0.000576161322134 0.000278314651948)
(0.000252379180549 -0.000617230280123 0.000298967176315)
(0.000246081737705 -0.000610245807474 0.000302914883659)
(0.000227665014067 -0.000555947411197 0.000289997008103)
(0.000189183146078 -0.000450385344567 0.000259425706)
(0.000130881072884 -0.000295315016912 0.000219869478576)
(4.9029306807e-05 -0.000102750195475 0.000174045932436)
(-7.33493763732e-05 8.20971924803e-05 0.000106236831487)
(-0.000173718901448 0.00022190523839 1.83767972974e-05)
(-0.000230299357336 0.000311854709152 -6.99601974076e-05)
(-0.000219023212145 0.000329865135951 -0.000133106656189)
(-5.21234090821e-05 0.000281430570893 -5.62952843164e-05)
(6.30501137987e-05 0.000295282971588 -3.9122046325e-05)
(0.000266279130866 0.00030441747793 -0.000107440680627)
(0.000285079529524 0.000240891523597 -2.35712068232e-05)
(0.000233646805522 8.27152798548e-05 5.55759233203e-05)
(0.0001534260522 -0.000139704261355 0.000126749702316)
(8.10355771627e-05 -0.000398182556091 0.000160787474576)
(6.67027411168e-05 -0.000656120048728 0.000163840280331)
(9.87504395634e-05 -0.000857645640405 0.000172969890985)
(0.000155357046284 -0.000982902554847 0.000186335624291)
(0.000221844642588 -0.00103842446817 0.00019508326713)
(0.000286129338265 -0.00102973724626 0.000198607230735)
(0.000337065262898 -0.000957924425859 0.000197519085071)
(0.000359354866934 -0.000818793363488 0.000192196921351)
(0.000341596601414 -0.000611404122619 0.000190293840444)
(0.000271014045463 -0.000351770779333 0.000194542385702)
(0.000134584638278 -8.60165190967e-05 0.00016879851253)
(-1.70153207503e-05 0.000133871734288 9.96581840942e-05)
(-0.000138476201157 0.000288206220789 1.83104737867e-05)
(-0.000187236036957 0.000348376696301 -7.51628852931e-05)
(-3.88217285067e-05 0.000332697498897 -2.39352221077e-05)
(4.9714990849e-05 0.000310341054109 9.28438958585e-06)
(0.000199233571677 0.000274684395956 -2.63476407385e-05)
(0.000143400171116 0.000170383891926 6.31722909624e-05)
(1.13483974909e-05 -3.90691874594e-05 0.000122454897411)
(-0.000116706820326 -0.000310768791674 0.000143540878425)
(-0.000202556547396 -0.000622011933146 0.000122615048619)
(-0.000186917456858 -0.00092096798687 8.29259695764e-05)
(-9.94124647969e-05 -0.00115436673896 5.76109632235e-05)
(3.49209570803e-05 -0.00129899441406 4.66487607942e-05)
(0.000185886016274 -0.00136155914852 4.26562730928e-05)
(0.000334921165692 -0.00135023594924 4.66051788151e-05)
(0.000468756735153 -0.00126739403041 5.94455147753e-05)
(0.000566298978627 -0.00110715188249 8.03428713692e-05)
(0.00060022893815 -0.000867497689982 0.000113242647686)
(0.000556464057142 -0.000568458338378 0.000160266300188)
(0.000404560866744 -0.000251024251068 0.000189598741591)
(0.000203149085102 1.64802857601e-05 0.000171201748057)
(1.39710003234e-06 0.000220523437344 0.000107969211809)
(-0.000121527674583 0.000321366194286 8.71429349695e-06)
(-2.56263530012e-05 0.000350439543987 2.70860430123e-05)
(2.79760354623e-05 0.000246614739185 5.39427954548e-05)
(0.000105514477554 0.000193834658408 5.29620798885e-05)
(-3.84225187168e-05 7.74984675838e-05 0.00013389915002)
(-0.000253378286405 -0.000146114128193 0.000150866962283)
(-0.000431927823408 -0.000432944941837 0.000116144186935)
(-0.000522950103906 -0.000750458302273 2.58153182636e-05)
(-0.000470299086765 -0.00103856777813 -6.97763016495e-05)
(-0.000313541234278 -0.001256664511 -0.000134007181915)
(-9.26462255472e-05 -0.00138831069476 -0.000164795293917)
(0.000148529989523 -0.00144116778847 -0.000174760940127)
(0.000386643844529 -0.0014276138168 -0.000169442678532)
(0.000609026682364 -0.00135166152315 -0.000147814758871)
(0.000789634057033 -0.00120181861301 -0.000104879787409)
(0.000886562670903 -0.000975255379162 -3.30722232952e-05)
(0.000874666175885 -0.00068844157838 6.58221166372e-05)
(0.000718329824357 -0.000369451049863 0.000165638402712)
(0.000462329705462 -8.92114098193e-05 0.000199706176711)
(0.000179970488168 0.000126551475948 0.00017969543554)
(-2.92430656911e-05 0.000237587326439 8.90480844956e-05)
(-2.62770590057e-06 0.000283869844129 7.16821716926e-05)
(8.81166487787e-06 0.000200410917348 7.71905998093e-05)
(-4.36794994692e-06 0.000137898497878 0.000111986376438)
(-0.000231731742497 2.2907686539e-05 0.000181781780477)
(-0.00051638285382 -0.000188296409437 0.000148990662972)
(-0.000733738141758 -0.000449126622336 7.10794416133e-05)
(-0.00081248744518 -0.000733789911464 -7.38571073376e-05)
(-0.000718248816597 -0.000984737508022 -0.000204774351896)
(-0.000495658594619 -0.00117739452786 -0.000291903243789)
(-0.000195998083738 -0.00129046338604 -0.00033455289369)
(0.000122554359001 -0.00133265680449 -0.00034490167122)
(0.000431754040045 -0.00131746532396 -0.000337506810116)
(0.000728752480787 -0.00124846114214 -0.000313546230226)
(0.000985164983013 -0.00111751880602 -0.000255459145732)
(0.00113943851125 -0.000915536936764 -0.00015829927896)
(0.00116054405596 -0.000666269651115 -2.62109554917e-05)
(0.00101363075951 -0.000382936083683 0.000125232854844)
(0.000715263527226 -0.000133126656904 0.000201785765218)
(0.000366825285468 6.81939193525e-05 0.000228179891967)
(7.68989696575e-05 0.000176176139505 0.000148182105195)
(1.50594934543e-05 0.0002326498685 9.59375512844e-05)
(-9.64891443161e-06 0.000146853943883 9.99048562297e-05)
(-9.07158758688e-05 8.60435403741e-05 0.000165403268354)
(-0.000386409783419 -8.5830520096e-06 0.000223455214548)
(-0.000726300676014 -0.000176345337964 0.000151077960545)
(-0.000975505376864 -0.000387918181435 3.71036594622e-05)
(-0.00103790874492 -0.000608380117631 -0.000147102308378)
(-0.000913637999414 -0.000798609556198 -0.000302933255927)
(-0.000634595963576 -0.000941981212439 -0.000412490027799)
(-0.000275441496889 -0.00103581030151 -0.000444852812864)
(9.94842957809e-05 -0.00108006560649 -0.000421675655423)
(0.000475638384503 -0.00106255327523 -0.000423810871176)
(0.000834214478221 -0.00100792819609 -0.000390257328539)
(0.00113703698312 -0.000884831696353 -0.000365559322126)
(0.0013403759359 -0.000734603539996 -0.000243097382129)
(0.0013817410905 -0.000545754120732 -8.68732481886e-05)
(0.00124522374956 -0.000327761939387 0.000102862303567)
(0.000912172066684 -0.000131888100815 0.000210882632947)
(0.000513724616035 2.8205320726e-05 0.000270960467885)
(0.000158881517976 0.000115620765987 0.000202004008583)
(3.13715357237e-05 0.000171205854178 0.00011842909608)
(-1.73264045794e-05 7.89623507269e-05 0.000115515978598)
(-0.000143059910431 3.60720636684e-05 0.000204062669945)
(-0.000488138752426 -2.55015007755e-05 0.000256054585325)
(-0.000863159854744 -0.000134232444376 0.000150125745686)
(-0.00113602655708 -0.000266620600558 1.47259067007e-05)
(-0.00118292552619 -0.000402423362274 -0.000190377524585)
(-0.00103726341203 -0.000517088795531 -0.000360462323455)
(-0.000732565511953 -0.000604664949474 -0.000463229251488)
(-0.000341768710071 -0.000670319896928 -0.000492625440881)
(7.85534409364e-05 -0.00069257649608 -0.000529233938856)
(0.000503627195286 -0.000682720944256 -0.000527511377929)
(0.000904787274939 -0.000647355822113 -0.000482856884276)
(0.00125535031117 -0.000571537869251 -0.000386724044295)
(0.00146668485808 -0.000471472084409 -0.000288018591356)
(0.00152222950872 -0.00035923826929 -0.000118149930267)
(0.00139435891143 -0.000224963839489 9.26782823835e-05)
(0.00103959988296 -0.000103600053345 0.000223323444522)
(0.000608413218893 -2.23281220699e-06 0.000305314998396)
(0.000206973599445 5.38875676902e-05 0.000241155901598)
(3.63365169195e-05 9.30546121514e-05 0.000133624979927)
(-2.01031880666e-05 1.08944603177e-05 0.000120539788976)
(-0.00016678628499 -4.59213244582e-06 0.000221653933346)
(-0.000542136159301 -2.68433945992e-05 0.000272632855845)
(-0.000930941068962 -6.76262578599e-05 0.000158806515257)
(-0.00120958727153 -0.000111308729869 2.976687718e-06)
(-0.00125120363052 -0.000157527810471 -0.000209708746422)
(-0.00109364760937 -0.000196150731153 -0.000382643005396)
(-0.000801076170098 -0.000231326034788 -0.000423201926056)
(-0.000373908805202 -0.000251859744945 -0.000536836047902)
(6.8248848538e-05 -0.000260419084252 -0.000574075298142)
(0.000511354137253 -0.000257878224556 -0.000568814216638)
(0.000933436829881 -0.000247725522896 -0.000525708275306)
(0.00129851814712 -0.000218214895504 -0.00042398737438)
(0.00152680460031 -0.00018209012954 -0.000303135243592)
(0.00158667510179 -0.000145394853295 -0.000131831275369)
(0.00146598273967 -9.94689310992e-05 8.64893764816e-05)
(0.001100951967 -5.72157145843e-05 0.000228345281291)
(0.00065417430836 -2.16541963596e-05 0.000321038682694)
(0.000227656110264 -1.5624705047e-06 0.000258682129844)
(3.74885414637e-05 1.26859841146e-05 0.000138615587435)
(-2.04112940552e-05 -5.40677568546e-05 0.000120052406166)
(-0.000167558982305 -3.97673633481e-05 0.000221232090369)
(-0.000543569701348 -2.00938921315e-05 0.000272196337715)
(-0.000932668037943 1.63636646424e-05 0.000158374052536)
(-0.00121151627209 5.58139602962e-05 2.17628440405e-06)
(-0.0012533197515 9.77543408476e-05 -0.000210628214641)
(-0.00109591106981 0.000132057107392 -0.000383678887647)
(-0.000803682950407 0.000162874643684 -0.000423618359632)
(-0.000375981354826 0.000180204394441 -0.000537996527838)
(6.68492380333e-05 0.000185348914439 -0.000575451747194)
(0.000510787860381 0.000180939652032 -0.000570306507862)
(0.000933827737598 0.00017061926143 -0.000527280385229)
(0.00129991919702 0.000141749150356 -0.000425021745823)
(0.00152842572339 0.000107577716493 -0.000304918076427)
(0.00158862219819 7.43393979734e-05 -0.00013328681978)
(0.00146801627176 3.23818126787e-05 8.52815564548e-05)
(0.00110294504428 -4.77802298248e-06 0.000227556378671)
(0.00065595031515 -3.61373726828e-05 0.000320531180802)
(0.000228840974472 -5.28814199415e-05 0.000258423779968)
(3.79698181992e-05 -6.56785084335e-05 0.000138239032163)
(-1.82538037961e-05 -0.000119773775957 0.000114314316069)
(-0.000145547334563 -7.79646723101e-05 0.000203090514372)
(-0.000492900922711 -1.86574373031e-05 0.000255067393357)
(-0.000868663253389 8.64122770903e-05 0.000149892331238)
(-0.00114168351262 0.000214005097092 1.25526727201e-05)
(-0.00118926942523 0.000345353798371 -0.000193267516867)
(-0.00104392984027 0.000455735278981 -0.000363701316759)
(-0.000739407174009 0.000539207454845 -0.000466267735512)
(-0.000347944143106 0.000602093597369 -0.000495482757903)
(7.43505005406e-05 0.000620821693631 -0.000533333337858)
(0.000502124943531 0.000609348853128 -0.000532027916597)
(0.000906074563271 0.000573993295465 -0.000487254249382)
(0.00125982278966 0.000499508153647 -0.000388807214866)
(0.00147151994424 0.000401327082061 -0.000293090645857)
(0.00152800510518 0.000292449957461 -0.000122501552992)
(0.00140045868645 0.000161940153277 8.90332744362e-05)
(0.00104557095629 4.51672115094e-05 0.000220825607605)
(0.000613680146088 -5.22612133867e-05 0.000303678574464)
(0.000210538685964 -0.000105447161907 0.000240334782801)
(3.77417766307e-05 -0.000143308427958 0.00013269093563)
(-1.11232428284e-05 -0.000184027525917 9.83249827495e-05)
(-9.48735664177e-05 -0.00012369777537 0.000164038917854)
(-0.000393291450583 -3.07328405648e-05 0.000221972780543)
(-0.000735680894713 0.000134201167 0.000148876358157)
(-0.000986202191584 0.000341004442522 3.32798102296e-05)
(-0.00104884377918 0.000557244583461 -0.000152112824027)
(-0.000924752197294 0.000743451193702 -0.000308539274918)
(-0.000645279373415 0.000882981119817 -0.000419383881017)
(-0.000285517951147 0.000974748104195 -0.000449992169197)
(9.28006020763e-05 0.00101656900366 -0.000428058318934)
(0.000473447447679 0.000998045179857 -0.000430925733577)
(0.000838712426514 0.000947017419463 -0.000388468374708)
(0.00114261222715 0.000821061036697 -0.000374788061507)
(0.00134869013555 0.00067350248398 -0.000251169320634)
(0.00139121575688 0.000487665707787 -9.38964193613e-05)
(0.00125526947467 0.000272984621245 9.71265076732e-05)
(0.000922022707626 8.08239993785e-05 0.000206860703259)
(0.000522031159451 -7.59299011561e-05 0.000268280941207)
(0.000164749336122 -0.0001615197393 0.000200653792301)
(3.35335484178e-05 -0.000216636395935 0.000117112540506)
(6.92050438222e-06 -0.000232688746258 7.51752879847e-05)
(-9.88170957129e-06 -0.000170120034407 0.000110642970555)
(-0.000241250840482 -5.63584426736e-05 0.00017995636248)
(-0.000529391077616 0.000152388997392 0.000145875926659)
(-0.000748611205238 0.000410119169268 6.62022191458e-05)
(-0.000827604282913 0.000691571689928 -8.03781843061e-05)
(-0.000733098038965 0.000939395443369 -0.000212237011793)
(-0.000509636443376 0.0011294620239 -0.000300576525228)
(-0.000207494641482 0.00124049599932 -0.000345008635391)
(0.000115024603345 0.00128145517336 -0.000356408469292)
(0.000428989899778 0.00126584307501 -0.000349690693649)
(0.000731402366159 0.00119738361444 -0.000325387860458)
(0.000992795610007 0.00106777447704 -0.000266623833822)
(0.00115041732846 0.000867601983441 -0.00016837824857)
(0.00117325947686 0.000620706067614 -3.49334715273e-05)
(0.00102711342881 0.000339734315338 0.000118194200394)
(0.000728493639833 9.211179376e-05 0.000196731545054)
(0.000377944854319 -0.000107159430973 0.000225331362581)
(8.42732256371e-05 -0.00021450257533 0.000146803841428)
(1.77514529115e-05 -0.00027144926649 9.42481731896e-05)
(2.60593261525e-05 -0.000273387194705 5.1378256867e-05)
(9.88583295543e-05 -0.000220135606964 5.18384904876e-05)
(-5.00231567606e-05 -0.000104008123386 0.000132263645765)
(-0.000269144186535 0.000118218842206 0.000147322704878)
(-0.000449902837598 0.00040319639229 0.000110870835967)
(-0.000541058791704 0.000718596869311 1.87591798799e-05)
(-0.000487676518468 0.00100457923711 -7.81006724881e-05)
(-0.000329400780211 0.0012211046265 -0.000143345125723)
(-0.000105487671587 0.00135201013874 -0.000175344561673)
(0.000140336865991 0.00140454652806 -0.000186419863486)
(0.000384099733213 0.00139111987247 -0.000181631184851)
(0.000612497578691 0.00131574715298 -0.000159793593563)
(0.000798562288472 0.00116660395925 -0.000116263497883)
(0.000899504193275 0.000941556491154 -4.35077971172e-05)
(0.000889656336416 0.00065688029673 5.69108123981e-05)
(0.000734079201672 0.000338964200073 0.000158135833664)
(0.000477678614734 5.9600868669e-05 0.000194088331288)
(0.00019282764798 -0.000155840086277 0.000177074981128)
(-2.09906650709e-05 -0.000267771702445 8.7746528551e-05)
(-5.27453608523e-08 -0.000315468284823 6.92838641591e-05)
(4.86156374519e-05 -0.000331127091398 7.77623115274e-06)
(0.000192886120614 -0.00029454889968 -2.66201244548e-05)
(0.000131318780695 -0.000189600026034 6.23623199588e-05)
(-5.80038793059e-06 1.99042822441e-05 0.000119798636997)
(-0.000136473064542 0.000291109959927 0.000138560621741)
(-0.000223054309306 0.000601635068198 0.000116061029797)
(-0.000206663853393 0.000899368886015 7.4393244395e-05)
(-0.000117195531065 0.00113194571281 4.75394467683e-05)
(2.08101878071e-05 0.0012763805198 3.48119893797e-05)
(0.000177348027962 0.00133895529675 2.9488973878e-05)
(0.000333142132559 0.00132794711748 3.30671992445e-05)
(0.000473827051629 0.00124563488829 4.66099074608e-05)
(0.000577472425297 0.00108614871376 6.89219768697e-05)
(0.000615982302299 0.000847953940455 0.000103456209033)
(0.000573477589687 0.000550902906402 0.000152905283259)
(0.000421163035356 0.000233072780743 0.000183622300316)
(0.000219035141236 -3.50868851919e-05 0.000167566770328)
(1.38900342795e-05 -0.000240426072638 0.000106694437968)
(-0.000114249992043 -0.000343184893916 8.68543473764e-06)
(-2.43651939009e-05 -0.000374436481944 2.57961439522e-05)
(6.16978006492e-05 -0.000311728516347 -4.08907066146e-05)
(0.0002605502338 -0.000318877058684 -0.000107604633713)
(0.000273384482848 -0.000253840978198 -2.3511673805e-05)
(0.000216556821866 -9.44262631483e-05 5.40365118656e-05)
(0.000133421876897 0.000128848219829 0.000123509802608)
(6.019174015e-05 0.000387588085258 0.000155205044304)
(4.70588877748e-05 0.000645411045877 0.000156821738853)
(8.15817967713e-05 0.000847106604135 0.000165236536586)
(0.000142011971708 0.000973232841623 0.000178018757445)
(0.000213900989024 0.00102932945352 0.000186170369666)
(0.000284596034698 0.00102103590039 0.000189439829579)
(0.000342194955382 0.000949380280812 0.000188584019535)
(0.000370726099001 0.000809988993716 0.000183869865454)
(0.00035795598553 0.000602681974805 0.00018382014758)
(0.000288103864494 0.000343077818193 0.000193066244341)
(0.000150119028429 7.6967699456e-05 0.00016631623577)
(-2.32418922314e-06 -0.000144238777832 9.79125417692e-05)
(-0.000127389941895 -0.000300816068141 1.82170164466e-05)
(-0.000181383967786 -0.000363638868522 -7.50690355928e-05)
(-3.76048554491e-05 -0.000351221519041 -2.61745999666e-05)
(7.47844369318e-05 -0.00026297753266 -7.25588550704e-05)
(0.000292494654963 -0.000302997471694 -0.000162531840059)
(0.000365471034633 -0.00027940936151 -0.00010767975674)
(0.000373759576368 -0.000184778771184 -2.2650213394e-05)
(0.000340676888854 -4.10556925029e-05 6.60963501369e-05)
(0.000280140952831 0.000136521432942 0.000140390349752)
(0.000252519664748 0.000327190735045 0.000190007219228)
(0.000244548858112 0.000477758167917 0.000234655229022)
(0.000242871517033 0.000573822434163 0.000272347897179)
(0.000245064308179 0.000615441371572 0.000292671881254)
(0.00024468166225 0.000608894534962 0.000296527513005)
(0.000232473174715 0.000554877096513 0.00028375444077)
(0.000199857614898 0.000449234196994 0.000253696576124)
(0.000145722400231 0.000293541242728 0.000215570642691)
(6.50722268325e-05 9.97058324146e-05 0.000172069416884)
(-5.81660405579e-05 -8.57583996909e-05 0.000104931392367)
(-0.000160414854873 -0.000226881026672 1.8141244925e-05)
(-0.000220902598068 -0.000319062518729 -6.90301722134e-05)
(-0.000214690699711 -0.000339451099148 -0.000132958209665)
(-5.14554814185e-05 -0.000293260705681 -5.89612946079e-05)
(7.09931977578e-05 -0.000163909024232 -6.88550655636e-05)
(0.000274136830819 -0.000227798696844 -0.000174400138197)
(0.00038517041485 -0.000242864752807 -0.000164048624277)
(0.000435624044791 -0.000209037122567 -0.00010848958591)
(0.000443384094584 -0.000140449249804 -2.59730771498e-05)
(0.000394011127126 -5.07244956889e-05 5.73521164025e-05)
(0.000363291902418 5.90054657916e-05 0.000117279376766)
(0.00033430070099 0.000143695346571 0.000173744513143)
(0.000298322749026 0.000192499719915 0.000217500941242)
(0.000260804058356 0.000210806318027 0.000239992515882)
(0.000220148240075 0.000206837386383 0.000244077401393)
(0.000168716795293 0.000181272913321 0.000229849988169)
(0.000102539943709 0.000126836418923 0.000194315148804)
(2.75328568211e-05 3.88634608575e-05 0.000143519097949)
(-5.41752177283e-05 -7.09882241503e-05 8.57177154853e-05)
(-0.000164512466311 -0.000170838551551 1.08302147346e-05)
(-0.000226076431376 -0.00023841000247 -7.2809821695e-05)
(-0.000243826626132 -0.00027117425081 -0.000130854039931)
(-0.000198240481544 -0.000252641711323 -0.000148568719131)
(-4.75704917055e-05 -0.000181580669163 -5.55363177212e-05)
(5.20959351805e-05 -4.05373112029e-05 -3.5395237294e-05)
(0.000203953287383 -5.60155734715e-05 -7.15753179051e-05)
(0.000336696497334 -5.8315797982e-05 -7.57379449897e-05)
(0.0004171402673 -4.40555718819e-05 -4.24266681347e-05)
(0.000470285742063 -2.60957685808e-05 5.13372453691e-06)
(0.000436632185689 -9.37436516809e-06 5.63885201296e-05)
(0.000415173164702 1.39160925578e-05 7.85380494299e-05)
(0.000385222302771 3.12164248689e-05 0.000103792639886)
(0.000331912066616 3.57281791228e-05 0.000122312767119)
(0.000267422873301 3.47356426035e-05 0.000129962247905)
(0.000197920971257 3.16693895856e-05 0.000131867001667)
(0.000119620177253 2.68087578883e-05 0.000128113795454)
(3.47197607921e-05 1.75520573765e-05 0.000114421530871)
(-4.25822434282e-05 -1.6366507133e-06 9.32769618673e-05)
(-0.000113376738036 -1.64063952834e-05 6.65920113534e-05)
(-0.000202890117626 -4.88945161535e-05 3.06952405575e-05)
(-0.000222381415721 -5.73800776128e-05 -2.24567233821e-05)
(-0.00020332120314 -7.07152338833e-05 -5.53840853454e-05)
(-0.000131195357267 -6.59773607463e-05 -5.27445075202e-05)
(-2.90156297509e-05 -4.49569351145e-05 -1.81853738262e-05)
(0.000104942174411 8.94826654362e-05 -0.000400937857153)
(0.000331126180022 0.000167823090274 -0.000481794700225)
(0.000414251605956 0.000201006771595 -0.000429418270742)
(0.000418386533653 0.000203091390928 -0.000321229276187)
(0.000372458759892 0.000180721236567 -0.000177339277298)
(0.000309124368129 0.000124327238248 -4.69110938305e-05)
(0.000270081536791 6.81076763463e-05 5.77332510402e-05)
(0.000250702896426 1.03845989337e-05 0.000154208219489)
(0.000241509794713 -2.95428836802e-05 0.000222810381551)
(0.000241728670364 -4.83839457097e-05 0.000253757801032)
(0.000242846748937 -4.72480539839e-05 0.000260611176626)
(0.000227732152103 -2.67186104569e-05 0.000244353281528)
(0.000185972756249 1.46723504632e-05 0.000192083453611)
(0.000118724885236 7.2753566882e-05 0.000107589706787)
(2.6103406926e-05 0.000127546068611 7.04939819257e-06)
(-9.13205037692e-05 0.00019237135975 -0.000111083992688)
(-0.000208650759333 0.000214700703327 -0.000254320465888)
(-0.00027040614871 0.000213453039449 -0.00036487704182)
(-0.000252473612707 0.000178896903453 -0.000421184135506)
(-8.30175584945e-05 9.42331254259e-05 -0.000347727072973)
(0.000193477767455 0.00027663849464 -0.000478984010013)
(0.000391958490251 0.000319558889348 -0.000382248493175)
(0.000404706954208 0.000329192646709 -0.000218524457066)
(0.000359972447124 0.000276591650912 -6.54226994747e-05)
(0.000293554754693 0.00020220472406 8.88983418422e-05)
(0.000228894901486 9.40359559047e-05 0.000220547462576)
(0.00019202234479 -2.83263988223e-05 0.000322092428273)
(0.000185718995078 -0.000135213385027 0.000403985146641)
(0.000202274800813 -0.000207156410005 0.000464916985506)
(0.000230855218585 -0.000239381633 0.000498258844042)
(0.000258230644068 -0.000234742329783 0.000505962463517)
(0.000270218469477 -0.000194521755038 0.000488179465481)
(0.000255006296895 -0.000116782089681 0.000442146625445)
(0.000204177858216 -7.40579061967e-06 0.000372025769616)
(0.000115505429779 0.000115577169107 0.000280666629793)
(-4.93209925958e-06 0.000228016891325 0.000160022945468)
(-0.000131476775941 0.000304521529482 1.10910197996e-05)
(-0.000237655954086 0.00035761090068 -0.000141400249681)
(-0.000287877188236 0.000347021939376 -0.000308393674624)
(-0.000156820037224 0.000294256038544 -0.000418925228995)
(0.000231055992889 0.00031289086931 -0.000427926814559)
(0.000407861155464 0.000287120499913 -0.00022061351344)
(0.000391502565142 0.000268251276651 9.76104406215e-06)
(0.000305082280267 0.000184253830926 0.000194269555634)
(0.000206291147089 4.44976199105e-05 0.00033663011437)
(0.000131200083578 -0.000131620889082 0.000437921190206)
(0.000100949554783 -0.000315465377344 0.000501788556581)
(0.000115682104605 -0.000463994189639 0.000548897318985)
(0.000160269495566 -0.000560187248718 0.000588801350045)
(0.000218523085147 -0.00060355959263 0.000614803678871)
(0.000275052922702 -0.000595154168843 0.000624067230218)
(0.00031506980795 -0.000536455952403 0.000615766187123)
(0.000326103396941 -0.000428029571126 0.000591794942704)
(0.000295855191163 -0.000272899631022 0.000556777079039)
(0.000213480668586 -8.74364952288e-05 0.000504821731177)
(8.29853127172e-05 8.90421945235e-05 0.000413670349733)
(-7.15933478104e-05 0.00022787024527 0.000278125156521)
(-0.000215781555783 0.00031118524902 9.57030371906e-05)
(-0.000293407635846 0.000329069704378 -0.000138462881305)
(-0.000186921601145 0.000347586161786 -0.000360697996201)
(0.000234741248599 0.000271747158522 -0.0003250092495)
(0.000357262524085 0.00020072334548 -7.29238120983e-05)
(0.000310114796796 0.000142777254445 0.000189526330643)
(0.000171365483088 8.28900402351e-06 0.000354979446524)
(2.92361666692e-05 -0.000194865611254 0.000434379671138)
(-6.94068088135e-05 -0.000436054758758 0.000458152040591)
(-8.22246958806e-05 -0.000669495520851 0.000443436298451)
(-2.04313080077e-05 -0.00085780841296 0.000423593953965)
(7.98250250395e-05 -0.000977651579057 0.000423121696379)
(0.000194055295093 -0.00102921752876 0.00042977253634)
(0.000304419261116 -0.00101826152624 0.000439101779217)
(0.000399772667752 -0.000946246628458 0.000450758767128)
(0.000465713290323 -0.000810582405871 0.000471162243258)
(0.000479611765716 -0.000614101469254 0.000506010718369)
(0.00041091711376 -0.000378937431239 0.000538341991666)
(0.000257265727734 -0.000138885407299 0.000518031410629)
(6.17527631924e-05 6.07815716213e-05 0.000444274438218)
(-0.000130931360333 0.000193765056528 0.000280573456897)
(-0.000239874601463 0.000251633812198 1.69594856465e-05)
(-0.00018684074106 0.000318174199087 -0.000248808347455)
(0.000214637192193 0.000181595867488 -0.000187768866505)
(0.000282903464079 9.71521633961e-05 7.33324840265e-05)
(0.000170511356198 9.64577866529e-06 0.00032404303394)
(-3.20182658842e-05 -0.000166963191084 0.00042750573108)
(-0.000217536208526 -0.000412966777939 0.000413718395599)
(-0.000311220658643 -0.000678593889956 0.000319126273006)
(-0.000290380619181 -0.000923120545339 0.000195388422907)
(-0.000175873783745 -0.00111879634557 0.000101132500674)
(-1.07709751656e-05 -0.00124138783259 5.69840817764e-05)
(0.00016792168847 -0.00129242638706 4.47282046905e-05)
(0.000341374497793 -0.00127883708101 5.41427629342e-05)
(0.000500132317123 -0.0012025335243 8.60341968739e-05)
(0.000625971453717 -0.0010600768134 0.000151878509951)
(0.000686801408642 -0.00085500811528 0.000261609091208)
(0.000649616160811 -0.000610408372968 0.000396870808203)
(0.000499782848744 -0.000349251981825 0.000500714156299)
(0.000262124015467 -0.000110235535572 0.000520142382623)
(7.6231581916e-06 6.48054580028e-05 0.000419873390108)
(-0.000165036739242 0.000151839120459 0.000169012889645)
(-0.000163764184682 0.000234082231197 -0.000103115876004)
(0.000154168078115 8.68239801832e-05 -6.92067681711e-05)
(0.000172765647956 1.56858996049e-06 0.000195497301393)
(-7.8368882211e-06 -9.56679157005e-05 0.000417643231722)
(-0.000275521617399 -0.000297122437419 0.000443814498071)
(-0.000485273994513 -0.000538709168832 0.000313033210777)
(-0.000567719819366 -0.000794816577392 9.35474997984e-05)
(-0.000506047941047 -0.00102777406711 -0.0001314790427)
(-0.000331095797274 -0.00120678002008 -0.00028860986419)
(-9.90564651465e-05 -0.00131702688118 -0.000365935930494)
(0.00014509806456 -0.00136097184732 -0.000390268278919)
(0.000382449955718 -0.00134469398409 -0.000379558196074)
(0.000605357417217 -0.0012707348772 -0.000332983522328)
(0.000793327135598 -0.00113611087121 -0.000229437057903)