/*--------------------------------*- C++ -*----------------------------------*\
| =========                 |                                                 |
| \\      /  F ield         | OpenFOAM: The Open Source CFD Toolbox           |
|  \\    /   O peration     | Version:  3.0.1                                 |
|   \\  /    A nd           | Web:      www.OpenFOAM.org                      |
|    \\/     M anipulation  |                                                 |
\*---------------------------------------------------------------------------*/
FoamFile
{
    version     2.0;
    format      ascii;
    class       volVectorField;
    location    "7.7";
    object      ddt0(rho,U);
}
// * * * * * * * * * * * * * * * * * * * * * * * * * * * * * * * * * * * * * //

dimensions      [1 -2 -2 0 0 0 0];

internalField   nonuniform List<vector> 
7968
(
(0.0542157409653 0.0377247837744 -0.0340263155426)
(0.209059908537 0.0527708861022 -0.0700652300274)
(0.345844810269 0.0554272658389 -0.0744714213319)
(0.430382638062 0.0419002973922 -0.0410682336841)
(0.486459950226 0.0246520950552 0.00679905881375)
(0.45368853543 0.0087357788994 0.0587514862495)
(0.431563812603 -0.0142692532034 0.0813845807119)
(0.399179354927 -0.03097663468 0.107026265993)
(0.342063985182 -0.0350217760647 0.125561835645)
(0.273092826672 -0.0337694663259 0.133197553692)
(0.198669656518 -0.0305227926018 0.134988565048)
(0.115408045319 -0.0255711634726 0.131003323313)
(0.0260808709894 -0.0164579428832 0.116909803327)
(-0.0541422467154 0.00238256604828 0.0951396651497)
(-0.125792868958 0.0170020641923 0.0681664071866)
(-0.215265062572 0.0483339914778 0.0312265187316)
(-0.232495257855 0.0564471359463 -0.0217891503289)
(-0.210931473115 0.0692139701379 -0.0549316813775)
(-0.135810847073 0.0644472887651 -0.0524608970162)
(-0.03106346379 0.0439069765807 -0.0183409722652)
(0.0719972803546 0.156280622254 -0.0669551644281)
(0.278001924703 0.220499722037 -0.174001660976)
(0.394062069567 0.236837419953 -0.164430967585)
(0.449307743673 0.204791774636 -0.10848086759)
(0.460142371606 0.13777339573 -0.0253479396397)
(0.412202158545 0.0494208863564 0.0585421869186)
(0.380843807279 -0.05963748539 0.119498158944)
(0.349423736114 -0.143544075935 0.176972709322)
(0.309379355653 -0.191612475268 0.221071471624)
(0.266935294141 -0.209402502853 0.243629318983)
(0.220903591895 -0.205041318159 0.247572503355)
(0.163953405741 -0.179270243944 0.233105306154)
(0.0927820388671 -0.125030649333 0.197034945681)
(0.0145316051009 -0.0378422990596 0.145292020409)
(-0.0681089520895 0.0710885134653 0.0865311847599)
(-0.17777104212 0.169717676659 0.0110437581658)
(-0.237159088806 0.235963800861 -0.0731766764083)
(-0.251315167809 0.266925508014 -0.131346992909)
(-0.201535127222 0.247142505518 -0.148127582267)
(-0.0483195563482 0.175519787687 -0.0532083928289)
(0.0756998755567 0.251027896076 -0.0706835756858)
(0.296779870295 0.292525800348 -0.162528675728)
(0.375432526478 0.270707686431 -0.108432955762)
(0.389063026098 0.178070384261 -0.0224845313556)
(0.359224527913 0.0361532267244 0.0674947526862)
(0.299847145742 -0.139872248268 0.143165964789)
(0.271222252816 -0.329739261398 0.19400610849)
(0.260740368383 -0.479644315634 0.239592981555)
(0.254969465152 -0.575121883757 0.277813390844)
(0.25192554438 -0.616116952439 0.298428789463)
(0.245638822379 -0.609144972078 0.302369394553)
(0.227254580682 -0.554944246693 0.289474743334)
(0.188841298874 -0.449572165221 0.258958406466)
(0.13064347194 -0.294780860298 0.219473249563)
(0.0489389254301 -0.102563073965 0.17373215593)
(-0.0732186424728 0.0819505963974 0.106045307065)
(-0.173407721967 0.221507211034 0.0183430959997)
(-0.229886355581 0.311295089622 -0.0698353006507)
(-0.218629813232 0.329273006529 -0.132868022081)
(-0.0520297095411 0.280924536907 -0.056194058946)
(0.06293668971 0.294753135951 -0.0390518406187)
(0.265800473274 0.30387086126 -0.107247925092)
(0.284567865207 0.240459596246 -0.0235295614542)
(0.233228296411 0.0825682953379 0.0554752388931)
(0.153152351605 -0.139450539579 0.126521087194)
(0.0808923523653 -0.397463135466 0.160497750873)
(0.0665850194621 -0.654936173602 0.163545197742)
(0.0985744547089 -0.85609909331 0.172658473548)
(0.155078576061 -0.981130620185 0.186000201903)
(0.221445928939 -1.03655260035 0.194732122219)
(0.285614340545 -1.0278810194 0.198249756626)
(0.336457975111 -0.95619742944 0.197163565021)
(0.358706793284 -0.817316681093 0.191850941289)
(0.340979758846 -0.610300514656 0.189951190586)
(0.270523866553 -0.351134676859 0.194191974282)
(0.134340482603 -0.0858595882389 0.168494388599)
(-0.0169862502221 0.13363253826 0.0994783689517)
(-0.138228152829 0.287689158154 0.0182769377842)
(-0.186899632124 0.347750985065 -0.0750280660045)
(-0.0387519007532 0.332100439437 -0.0238923206302)
(0.0496255736782 0.3097842268 0.00926756895044)
(0.198875618654 0.274191387249 -0.0263007401635)
(0.143143247799 0.170078569671 0.0630581239075)
(0.0113296730738 -0.0389972719591 0.122234151147)
(-0.116494630754 -0.310207456791 0.143282352795)
(-0.202189635756 -0.620889940309 0.122394367156)
(-0.186578928298 -0.919307702119 0.0827768736517)
(-0.0992319074191 -1.1522863097 0.0575075253872)
(0.0348592057493 -1.29665360488 0.0465651035227)
(0.185551999628 -1.35910561625 0.0425798280729)
(0.334318318707 -1.3478027337 0.0465216420957)
(0.467912392976 -1.26510996661 0.0593388592035)
(0.565278460618 -1.10515626422 0.0801985644608)
(0.599146620744 -0.865933204095 0.113039049127)
(0.555459893726 -0.56743197512 0.159977913662)
(0.403830090139 -0.250569582703 0.189257345367)
(0.202781260134 0.0164530586995 0.170893235678)
(0.0013931703571 0.220128543564 0.107774405226)
(-0.121309655768 0.320789559255 0.008698154359)
(-0.025580288126 0.34981086666 0.0270372271094)
(0.0279256850384 0.246170900248 0.0538457051699)
(0.105324587715 0.193485822069 0.0528667397353)
(-0.038352310111 0.077360022848 0.133657831889)
(-0.252920936521 -0.145850061297 0.15059526739)
(-0.431148741083 -0.432164320043 0.115935149784)
(-0.522006727565 -0.749105591763 0.0257690582895)
(-0.469450575065 -1.03669619746 -0.0696503391742)
(-0.312975271796 -1.25440023303 -0.133765504273)
(-0.0924783614797 -1.38580935285 -0.164498142802)
(0.148263202299 -1.43857119972 -0.174445821224)
(0.385947878133 -1.42504155588 -0.169137112244)
(0.607929849522 -1.34922608412 -0.147548143998)
(0.788211582932 -1.19965299664 -0.104690506216)
(0.884965024343 -0.97349737929 -0.0330122435497)
(0.873089144154 -0.687199519411 0.0657039768503)
(0.717033752796 -0.368783086598 0.165340348372)
(0.461494846497 -0.0890481904377 0.19934649012)
(0.179644950174 0.126325770095 0.179371655415)
(-0.0291908482192 0.237160807986 0.088887717608)
(-0.00262308319209 0.283360813432 0.0715531791685)
(0.00879584741311 0.200050529401 0.0770516490656)
(-0.00435989252277 0.137650554447 0.111784702432)
(-0.231314572662 0.022866494723 0.181454561215)
(-0.515452723881 -0.18795702988 0.148722447634)
(-0.732416116615 -0.448317322417 0.0709515823127)
(-0.811023016056 -0.732467639397 -0.0737238635252)
(-0.716953962845 -0.982963191199 -0.204405257283)
(-0.494764706175 -1.17527320804 -0.29137717072)
(-0.195644073657 -1.28813837035 -0.333949960433)
(0.12233437467 -1.33025576199 -0.344280072359)
(0.430976857413 -1.31509161463 -0.336898512697)
(0.727440096563 -1.24621180543 -0.312981120543)
(0.983390527323 -1.11550534046 -0.254998680684)
(1.1373857049 -0.913886948993 -0.158013759946)
(1.15845237393 -0.665068017133 -0.0261632737668)
(1.01180293098 -0.38224427371 0.125007700407)
(0.713972908194 -0.132884554358 0.201422431664)
(0.366162793959 0.068073413382 0.227768803067)
(0.0767596860355 0.175860746475 0.14791510299)
(0.0150322478449 0.232232700132 0.0957649419464)
(-0.00963154875954 0.146589596186 0.0997250278344)
(-0.0905524190443 0.0858888269365 0.16510547147)
(-0.385714277983 -0.00856762005747 0.223053001849)
(-0.72499348455 -0.176027979513 0.150806032786)
(-0.973748748453 -0.387219574627 0.0370369452454)
(-1.03603882855 -0.607284138026 -0.146837214226)
(-0.911991347948 -0.79717071258 -0.302387373658)
(-0.633451714132 -0.940283958541 -0.41174668711)
(-0.274944236199 -1.03394391897 -0.444051019258)
(0.0993059631047 -1.07811943096 -0.420915532452)
(0.474782171423 -1.06063863197 -0.423046919779)
(0.832712090865 -1.00611207693 -0.389553821905)
(1.13498890587 -0.883237348582 -0.364900458752)
(1.33796122094 -0.73327965027 -0.242659076404)
(1.3792509026 -0.544769889918 -0.0867162200524)
(1.24297889322 -0.327170081851 0.102677529298)
(0.910526836907 -0.131648842229 0.210503006503)
(0.512797546658 0.028156256336 0.270472439842)
(0.158594411348 0.115414146463 0.201640097469)
(0.0313148818594 0.17089891226 0.118216033545)
(-0.017295242367 0.0788201545342 0.115308049018)
(-0.142802529623 0.0360070602716 0.203695404477)
(-0.487259593913 -0.0254554317566 0.255593593419)
(-0.861607614709 -0.133991219427 0.149855586644)
(-1.13398162481 -0.266140652859 0.0146994223137)
(-1.18079490127 -0.401698574526 -0.190034579901)
(-1.03539423372 -0.516157244824 -0.359812862784)
(-0.731244635061 -0.603575409106 -0.462394378124)
(-0.341151735641 -0.669111904601 -0.49173745813)
(0.0784129439623 -0.691328286828 -0.528279985944)
(0.502720535657 -0.681490488129 -0.526560539364)
(0.903157581845 -0.646189185133 -0.481986510005)
(1.25308890414 -0.570507901779 -0.386026811319)
(1.46404230535 -0.4706222868 -0.28749923294)
(1.51948569341 -0.358590287558 -0.117936417468)
(1.39184522715 -0.224557677294 0.0925119200744)
(1.03772516763 -0.103412439073 0.22292146714)
(0.607315743415 -0.00222779449297 0.304765202727)
(0.206599942688 0.0537914353033 0.240721590034)
(0.0362708645656 0.092887916829 0.133384574068)
(-0.0200670022818 0.0108748503322 0.120322817352)
(-0.166486187552 -0.00458388963637 0.221254998158)
(-0.541160579523 -0.0267951058454 0.272142163255)
(-0.92926456021 -0.0675044560794 0.158520628659)
(-1.20741065315 -0.11110843315 0.00297128435895)
(-1.2489505932 -0.15724417419 -0.209331099625)
(-1.09167715977 -0.195797432701 -0.381953682573)
(-0.799631985451 -0.230909283969 -0.422439107749)
(-0.373233850329 -0.251405910705 -0.53586844285)
(0.0681269900951 -0.259949766147 -0.573040505442)
(0.510433513196 -0.25741346803 -0.567788861901)
(0.931755350121 -0.24727909844 -0.524760615402)
(1.29617869437 -0.217821656856 -0.423222946079)
(1.52405345127 -0.181761941261 -0.302588535543)
(1.58381498522 -0.145132667731 -0.131593067095)
(1.46333960624 -0.0992894365823 0.0863342124025)
(1.09896650787 -0.0571123289297 0.227934265359)
(0.652994356697 -0.0216148839275 0.320460593685)
(0.22724520507 -0.00155937899877 0.258216295428)
(0.0374207852537 0.0126634186672 0.138366190465)
(-0.0203745536881 -0.0539704346961 0.119836311448)
(-0.167257375261 -0.0396957821534 0.220833872052)
(-0.542591643099 -0.0200576855631 0.271706449611)
(-0.930988451486 0.0163341433077 0.158088944002)
(-1.20933890694 0.0557137897122 0.00217209749807)
(-1.25106376394 0.0975783765752 -0.210249076924)
(-1.09393693726 0.131819212104 -0.382987817386)
(-0.802234534473 0.162581161428 -0.422855009185)
(-0.375302921172 0.179879578621 -0.537027010305)
(0.0667298413293 0.185014720527 -0.574414559118)
(0.509868250583 0.180613355957 -0.569278484998)
(0.932145528567 0.170311589849 -0.526329880797)
(1.29757718639 0.141493519425 -0.424255443023)
(1.5256716883 0.107383640207 -0.304368176401)
(1.5857587308 0.0742051227426 -0.133046031184)
(1.46536968199 0.0323230867407 0.0851285346644)
(1.10095596327 -0.00476983535136 0.227146768709)
(0.654767172848 -0.0360726803753 0.319953993688)
(0.228427914751 -0.0527865427326 0.257958392642)
(0.0379012073005 -0.0655605569761 0.137990313226)
(-0.0182209470815 -0.119558183652 0.114108550866)
(-0.145285347777 -0.0778243363837 0.202724950482)
(-0.492013731543 -0.0186238436557 0.254608277162)
(-0.867100265246 0.0862568956943 0.149622553624)
(-1.13962509945 0.213618967777 0.0125303423493)
(-1.18712853943 0.344732096346 -0.192919595547)
(-1.0420501277 0.454914713918 -0.363046467443)
(-0.738074853161 0.538236162915 -0.465427801428)
(-0.347316591768 0.601008822418 -0.49459001439)
(0.0742174259848 0.619702849944 -0.532372207001)
(0.501220964816 0.608250470066 -0.531068979902)
(0.904442485835 0.572958637156 -0.486375925394)
(1.25755324464 0.498607781106 -0.388106205737)
(1.46886874017 0.400603569951 -0.292562193419)
(1.52525103041 0.291922257624 -0.122280258742)
(1.39793403323 0.161647460117 0.088873437012)
(1.0436853764 0.0450847619694 0.220428091591)
(0.612573220857 -0.0521681239872 0.30313170134)
(0.210158615503 -0.105258221891 0.239901926942)
(0.0376736285195 -0.143051189323 0.13245220022)
(-0.0111032198482 -0.18369628117 0.098147997551)
(-0.09470279328 -0.123475120379 0.163743647674)
(-0.392583526481 -0.0306775207565 0.221573229403)
(-0.734356946077 0.133959731984 0.148608395856)
(-0.984428824008 0.340391467362 0.0332197870793)
(-1.04695615416 0.556241700691 -0.15183907143)
(-0.923087680935 0.742113024047 -0.307983920526)
(-0.644117120849 0.88139111279 -0.41862866799)
(-0.285003122575 0.972992339288 -0.449181525531)
(0.0926341079059 1.01473755766 -0.427286962488)
(0.472595132885 0.996246711433 -0.430149035337)
(0.837201855592 0.945310842294 -0.3877680634)
(1.14055401384 0.819581404948 -0.374112568579)
(1.34626044391 0.672288602912 -0.250716512872)
(1.38870883334 0.486786265926 -0.0937268439036)
(1.25300666171 0.272491493254 0.0969519995069)
(0.920359776089 0.0806767425806 0.206488273622)
(0.521089298536 -0.0757947851862 0.267797727675)
(0.16445179186 -0.161230340609 0.200292330961)
(0.0334730254353 -0.216247506656 0.116901820205)
(0.00690804615383 -0.232269895847 0.07503997264)
(-0.00986392162704 -0.169813819419 0.110443812719)
(-0.240816587248 -0.0562569985305 0.179632440473)
(-0.528438184959 0.152114703946 0.145613351269)
(-0.747264528016 0.409381493838 0.0660830248384)
(-0.826116037102 0.69032795727 -0.0802337121262)
(-0.731778549425 0.93770462876 -0.211855008847)
(-0.508718919668 1.12742881962 -0.300035427998)
(-0.207120626595 1.23826212554 -0.344387294179)
(0.114817936048 1.2791469858 -0.355766409997)
(0.42821763827 1.26356258398 -0.349060588486)
(0.730085177032 1.19522629268 -0.324801484405)
(0.991007421306 1.06585064066 -0.266143322841)
(1.14834496128 0.866038559914 -0.168074685311)
(1.1711454969 0.619587015963 -0.0348702285612)
(1.02526193573 0.339120811509 0.117981624953)
(0.727179437983 0.0919438156907 0.196377266908)
(0.377262557187 -0.106968493984 0.224925394633)
(0.0841207280373 -0.214118028323 0.146539302395)
(0.0177193610796 -0.270962150967 0.0940785711254)
(0.0260124182571 -0.272895083184 0.051285776471)
(0.0986803850434 -0.219739363799 0.0517451810375)
(-0.0499331160387 -0.103820908287 0.132025571858)
(-0.268659651733 0.118005987231 0.1470575136)
(-0.449094360792 0.402471759585 0.11067129016)
(-0.540085334243 0.717303825277 0.0187253751259)
(-0.48679914465 1.00277153905 -0.0779601717311)
(-0.328807907934 1.21890676661 -0.143087122456)
(-0.105297593699 1.34957610648 -0.175028849715)
(0.140084507395 1.40201704733 -0.18608403623)
(0.383408282349 1.38861399019 -0.181303858859)
(0.611394561997 1.31337685682 -0.15950555766)
(0.797123959067 1.16450225878 -0.116053866086)
(0.897883847837 0.939860020132 -0.0434292093185)
(0.888053366596 0.65569623159 0.0568085491998)
(0.732755717419 0.338352090829 0.157851210186)
(0.476816348787 0.059491316335 0.193738706447)
(0.192478922709 -0.155561550507 0.176755830899)
(-0.0209533949597 -0.267290979834 0.0875883764916)
(-5.27501483256e-05 -0.314902208823 0.0691591625007)
(0.0485281291931 -0.330531058555 0.0077622342218)
(0.192538934351 -0.294018730846 -0.0265722156402)
(0.131082408965 -0.189258748189 0.0622500665554)
(-0.00579012362311 0.0198686205681 0.119583041573)
(-0.136227190655 0.290585743451 0.138311185989)
(-0.222652618546 0.600551909241 0.11585211642)
(-0.206292755785 0.89775127425 0.0742592847087)
(-0.116984803517 1.12990867356 0.0474538469053)
(0.020772877767 1.27408264466 0.0347493683319)
(0.177028956443 1.33654425932 0.0294359892739)
(0.332542413454 1.32555511634 0.033007848613)
(0.472973691875 1.24339076259 0.0465262035545)
(0.576432156342 1.08419179809 0.0687980785078)
(0.614872458763 0.846425957035 0.103270085489)
(0.57244396717 0.549909623233 0.152630064757)
(0.420403109077 0.23265131283 0.183291631853)
(0.218638760002 -0.0350259689986 0.167264721948)
(0.013863458768 -0.239995415273 0.106501784706)
(-0.114045039461 -0.342568923116 0.00866930289387)
(-0.0243213864183 -0.373764376061 0.0257496450661)
(0.0615867443981 -0.311167456118 -0.0408171098066)
(0.26008124366 -0.318303080466 -0.107410945586)
(0.272892404947 -0.253384080362 -0.0234693599277)
(0.216167019105 -0.0942562966767 0.0539392448438)
(0.133181757002 0.128616254142 0.123287475826)
(0.0600835790455 0.386890215399 0.154925645213)
(0.0469743282199 0.64424908932 0.15653944026)
(0.0814346109139 0.845582493281 0.164939150193)
(0.141756393055 0.971480943463 0.177698325751)
(0.213516102451 1.02747578174 0.185835237799)
(0.284083702538 1.01919648368 0.189098794606)
(0.341578551039 0.947669456574 0.188244509554)
(0.370057936443 0.808529047547 0.183538819901)
(0.357310514812 0.601595332559 0.183489151066)
(0.287583816829 0.342458471404 0.192718516754)
(0.149846974245 0.0768271853183 0.166016473462)
(-0.00232192805965 -0.143981204197 0.0977356513287)
(-0.127161947169 -0.300276367928 0.0181835182111)
(-0.181058072964 -0.362985753825 -0.0749344683944)
(-0.0375371962351 -0.350591083331 -0.0261276708527)
(0.0746498476311 -0.262503259653 -0.0724280374795)
(0.291968178005 -0.302452105056 -0.16223930432)
(0.364813240436 -0.278906476306 -0.107485974307)
(0.373086813714 -0.184446172936 -0.0226094451616)
(0.340063717792 -0.0409818296023 0.0659773605445)
(0.279636833295 0.136275565829 0.14013760566)
(0.252066038122 0.32660071031 0.189664939137)
(0.244108379603 0.476898688802 0.234232950338)
(0.242434420864 0.572789405868 0.271857649898)
(0.244623349777 0.614332701352 0.292144930327)
(0.244241162673 0.607797018077 0.295993523113)
(0.23205419854 0.553876445817 0.283243373356)
(0.199496852135 0.448423615596 0.253239561356)
(0.14545868822 0.293011002134 0.215182200381)
(0.0649533158767 0.0995245164225 0.171759161281)
(-0.0580633138891 -0.0856057917248 0.104741827948)
(-0.160128000801 -0.226474309383 0.0181076988727)
(-0.220506484644 -0.31848985894 -0.0689069922631)
(-0.21430509546 -0.338841823877 -0.132719973082)
(-0.0513629440273 -0.292733753539 -0.0588553559894)
(0.0708654030872 -0.163613825355 -0.0687310427939)
(0.27364342761 -0.227388699142 -0.174086278022)
(0.384477110505 -0.242427597263 -0.163753338448)
(0.434839916211 -0.208660853823 -0.108294302103)
(0.442586050401 -0.140196460313 -0.0259263432883)
(0.393301927297 -0.050633201943 0.057248875692)
(0.362637416483 0.0588996182709 0.117068459186)
(0.333698829695 0.143436820735 0.173431828038)
(0.297785946748 0.192152983234 0.217109357069)
(0.260334822025 0.210426188606 0.239560300758)
(0.219751884163 0.206464022565 0.243637711509)
(0.16841249682 0.180945383983 0.22943583063)
(0.102354203954 0.126606847057 0.193964891433)
(0.0274816188887 0.0387922736386 0.143260186737)
(-0.0540796959078 -0.070861580001 0.0855627591917)
(-0.164217790722 -0.17053175996 0.0108102019745)
(-0.225671339638 -0.237981727422 -0.0726796625422)
(-0.243389329827 -0.270687067384 -0.130619626102)
(-0.197884444784 -0.252187875644 -0.14830222438)
(-0.0474849576238 -0.181254673996 -0.0554367119218)
(0.0520021455888 -0.040464316798 -0.0353314228191)
(0.203586120102 -0.0559147509294 -0.0714464534151)
(0.336090577513 -0.0582108274001 -0.0756016464366)
(0.41638951944 -0.0439762706987 -0.0423503126388)
(0.469439269685 -0.0260487969742 0.00512448109685)
(0.435845825404 -0.0093574641071 0.0562870332074)
(0.414425665449 0.013891064114 0.0783966841286)
(0.384528985757 0.0311602223372 0.103605815701)
(0.33131487439 0.035663790851 0.1220926131)
(0.266941712092 0.034672965536 0.129728332829)
(0.197564638715 0.0316121713228 0.131629668125)
(0.119404358368 0.026760268235 0.127883223584)
(0.0346563777965 0.0175202663718 0.114215600666)
(-0.0425067456477 -0.00163384813584 0.0931090725978)
(-0.113174000397 -0.0163769641715 0.0664721266682)
(-0.202526407562 -0.0488065600096 0.0306399126258)
(-0.221982606271 -0.0572768163608 -0.0224164770573)
(-0.202956491788 -0.070587994296 -0.0552846905656)
(-0.130959955079 -0.065858724476 -0.0526499241902)
(-0.0289634713822 -0.0448761195017 -0.018152686675)
(0.104753775347 0.0893220562339 -0.40021802022)
(0.330531441863 0.167521635316 -0.480929321318)
(0.413508063038 0.2006457915 -0.428647243377)
(0.41763603488 0.202726804785 -0.320652774532)
(0.371790940969 0.180396973644 -0.177021391243)
(0.308570018178 0.124104368354 -0.0468275380899)
(0.269597091377 0.0679859541646 0.0576286692492)
(0.250252831056 0.0103666546269 0.153930219056)
(0.241075923045 -0.0294889821172 0.222409005044)
(0.241294212766 -0.0482956257769 0.253300424682)
(0.242409646086 -0.0471617504383 0.260141464466)
(0.227321926875 -0.0266697395562 0.243913143876)
(0.185637351988 0.0146466697951 0.191737366569)
(0.118509971387 0.0726234851494 0.107395469811)
(0.0260548858541 0.127317370604 0.00703594594359)
(-0.0911577720166 0.192025925084 -0.110884983306)
(-0.208276894644 0.214315040271 -0.253863941534)
(-0.269920858396 0.213069533969 -0.364221723131)
(-0.252020198764 0.178575503585 -0.420427611712)
(-0.0828683758155 0.0940637790322 -0.347102165555)
(0.193130136203 0.276141659015 -0.478123568854)
(0.391254572737 0.318985174699 -0.381562815662)
(0.403980803655 0.328601885084 -0.218133527178)
(0.359327176986 0.276095769465 -0.0653070617663)
(0.293029032959 0.201842859469 0.0887366419443)
(0.228485213581 0.0938687425832 0.220149266638)
(0.191678062167 -0.0282740432485 0.321512106161)
(0.185385198786 -0.13496942158 0.403257844067)
(0.201910748488 -0.206783722811 0.464080379452)
(0.23043989796 -0.23895011367 0.497361872044)
(0.257765905643 -0.234318985476 0.505051605101)
(0.269732132942 -0.194171414804 0.487300876476)
(0.2545469554 -0.116571031814 0.441350601616)
(0.203809289647 -0.00739086328796 0.371355540285)
(0.115296207952 0.115370692642 0.280160674072)
(-0.00492469371869 0.227607949144 0.159733915275)
(-0.131241635797 0.303974807009 0.0110697906266)
(-0.237229503924 0.356968490073 -0.141147144882)
(-0.287359971331 0.34639836698 -0.307839954463)
(-0.15653817794 0.29372721842 -0.418172353004)
(0.230640843588 0.312329321365 -0.427158192083)
(0.407128714176 0.286605587792 -0.220218566672)
(0.390800271903 0.267770653781 0.00974137168708)
(0.304535688386 0.183924481656 0.193918293199)
(0.205922340778 0.0444199604468 0.336023045089)
(0.1309662195 -0.131381448056 0.437132192486)
(0.100769671551 -0.314895156441 0.50088494369)
(0.115474905147 -0.463157368372 0.547909238758)
(0.159981618384 -0.559177653146 0.587741595676)
(0.218130076835 -0.602472183252 0.613697218101)
(0.27455794596 -0.594081564451 0.622944087144)
(0.314502506775 -0.535488918963 0.614657967125)
(0.325515870282 -0.427257517366 0.590729777346)
(0.295321677464 -0.272406579209 0.555774769606)
(0.213095204417 -0.0872773778919 0.503912754265)
(0.0828346372001 0.0888835106915 0.412925234185)
(-0.0714656832898 0.227461447166 0.277623895821)
(-0.215394424723 0.310626540228 0.0955297763728)
(-0.2928804871 0.328478612741 -0.138214780617)
(-0.186585765137 0.346962102068 -0.360050157524)
(0.234319449226 0.271259691637 -0.324425462522)
(0.356621077582 0.20036391526 -0.0727941847292)
(0.309558771612 0.142522302417 0.189183793341)
(0.171059315796 0.00827619133187 0.354339570223)
(0.0291858165711 -0.194512607214 0.433597299668)
(-0.0692797659688 -0.435267481774 0.457327250789)
(-0.0820748057148 -0.668287846005 0.442638260905)
(-0.0203932800506 -0.856262207608 0.422831806385)
(0.079682087082 -0.975890110381 0.422360483313)
(0.193706415333 -1.02736340256 0.428999403714)
(0.303871422109 -1.01642697589 0.438311899641)
(0.399052826775 -0.944541580829 0.449947900655)
(0.464874402125 -0.809121554122 0.4703145875)
(0.478747556624 -0.61299433164 0.505100210638)
(0.410176399258 -0.37825377741 0.537373104146)
(0.256801465233 -0.138633955443 0.517098853856)
(0.0616404354155 0.0606734846122 0.443474438447)
(-0.130696849809 0.193417573153 0.280067839966)
(-0.239443979819 0.251182365917 0.016927866823)
(-0.186505348777 0.317603990345 -0.248362084869)
(0.214251528787 0.181270461597 -0.187431729699)
(0.282395722669 0.0969788809305 0.0731993570437)
(0.17020633032 0.0096300711579 0.323458923979)
(-0.0319585863316 -0.166660911922 0.426735804608)
(-0.217142524182 -0.412221501152 0.412973696684)
(-0.310658505534 -0.677370380202 0.318552205499)
(-0.289856288671 -0.921456854462 0.195037325515)
(-0.175556097005 -1.11678076772 0.100951129795)
(-0.0107508680822 -1.23915182887 0.0568821937499)
(0.167619919881 -1.29009797453 0.0446485747778)
(0.340760143442 -1.27653394666 0.0540459646764)
(0.499231826109 -1.20036732801 0.085880100536)
(0.624843972313 -1.05816674333 0.151605900061)
(0.685564285978 -0.853467543647 0.261138769708)
(0.648445795629 -0.609308215198 0.396156829677)
(0.498881989464 -0.348621924123 0.499813030977)
(0.261650829885 -0.11003572547 0.519205993216)
(0.00760803829964 0.0646902248389 0.419117127321)
(-0.164740807846 0.151567179701 0.168707880222)
(-0.163470323677 0.233663192863 -0.102931430103)
(0.15389117006 0.0866688329625 -0.0690827695683)
(0.172456203582 0.00156722623382 0.195144471362)
(-0.00782120189487 -0.0954945164795 0.41689102333)
(-0.275023869372 -0.296586291161 0.443015544214)
(-0.484398576953 -0.537737985847 0.312470063087)
(-0.566695979751 -0.793384161736 0.093379806696)
(-0.505135309353 -1.02592216327 -0.131241402435)
(-0.33049817575 -1.20460536874 -0.288088999045)
(-0.0988772463464 -1.3146543428 -0.365276072232)
(0.144837347345 -1.35852044878 -0.389564711459)
(0.381761591848 -1.34227168446 -0.378873798418)
(0.604267479099 -1.26844605856 -0.33238316324)
(0.791898405454 -1.13406423869 -0.229023086704)
(0.903067008669 -0.941886482897 -0.054387167917)
(0.897794002685 -0.710174155936 0.176549313152)
(0.756548802829 -0.464168712448 0.401905832604)
(0.497902961268 -0.231648399124 0.534338941882)
(0.181298771718 -0.0388908581793 0.513939020401)
(-0.0567046067134 0.0559542449288 0.294063351352)
(-0.103317798948 0.139526702887 0.0203080014362)
(0.0989172152173 0.0222258039173 0.029326660067)
(0.0494370103305 -0.0600272679426 0.289147442017)
(-0.196516758147 -0.151135409725 0.474085325762)
(-0.514014377261 -0.337382190179 0.419822616929)
(-0.7333601616 -0.549394513199 0.180040556674)
(-0.802418921101 -0.769447897427 -0.140195586522)
(-0.700195852597 -0.966461898943 -0.43612581989)
(-0.470037870635 -1.11880743466 -0.63524621906)
(-0.177442974477 -1.21246809846 -0.732499367197)
(0.127528842409 -1.24709157462 -0.763180526454)
(0.424063883902 -1.22865434103 -0.749485270946)
(0.70591611344 -1.16113898081 -0.69035032862)
(0.949726750285 -1.04159800046 -0.558130975134)
(1.10485119221 -0.874382493628 -0.334159566635)
(1.12662625809 -0.676166951208 -0.034512995145)
(0.994659196583 -0.467693648714 0.282057865245)
(0.723864695921 -0.270367948075 0.522310141879)
(0.356561646536 -0.0972483094518 0.572581068286)
(0.0606819688837 -0.0105272916338 0.388393448242)
(-0.0498739735019 0.0695268571742 0.120383281698)
(0.040888553551 -0.0169099458963 0.117024173166)
(-0.0602882287698 -0.0848828672174 0.363755967314)
(-0.352877820304 -0.156790242987 0.513484350663)
(-0.713812767906 -0.301215876105 0.388480225925)
(-0.941926010502 -0.463177999981 0.07083615296)
(-0.991851621554 -0.628152591315 -0.317824837125)
(-0.857417935937 -0.776143300136 -0.658516053031)
(-0.584344332723 -0.895933129499 -0.890166471053)
(-0.241817244562 -0.96677255168 -1.00271756366)
(0.115981631492 -0.983396222697 -1.0523126635)
(0.462143723025 -0.96655150466 -1.03131295409)
(0.792565506589 -0.913901728257 -0.950882235823)
(1.08193940681 -0.822787560222 -0.787920042327)
(1.26956388396 -0.693194435139 -0.525144182868)
(1.30980234323 -0.542768757821 -0.1786417586)
(1.18525421085 -0.386853173163 0.197229829038)
(0.90511209017 -0.24021818585 0.502828417963)
(0.49952528784 -0.11107928473 0.615177043311)
(0.16248782848 -0.0449522791864 0.462328973574)
(0.00536281040042 0.0202301748624 0.206822645687)
(-0.00078019755487 -0.0343792591195 0.175525826479)
(-0.138967144971 -0.0770352410438 0.414531202518)
(-0.463530633015 -0.122647444726 0.540633665199)
(-0.85029737068 -0.211031472437 0.368498919659)
(-1.07987923383 -0.311239939961 0.00356623286657)
(-1.11914529772 -0.411285492814 -0.422605609972)
(-0.967354476163 -0.503130377565 -0.78853409163)
(-0.664190409559 -0.583608687256 -1.04762612542)
(-0.279511953913 -0.623635445998 -1.18454714506)
(0.112464920521 -0.629909351886 -1.21973450138)
(0.490513203571 -0.617128173119 -1.19444662865)
(0.852648461674 -0.584243414355 -1.10629984586)
(1.17013994919 -0.526587157122 -0.924075544003)
(1.38156981879 -0.447325636756 -0.63026628225)
(1.43172652191 -0.354608831036 -0.25667471021)
(1.31133526522 -0.259492823543 0.152636764739)
(1.02479639571 -0.170152288093 0.496391480464)
(0.596505418502 -0.0931326732133 0.648986702481)
(0.232123569367 -0.0521477637234 0.51376579986)
(0.0438194913396 -0.0119700906597 0.263271232386)
(-0.0216328998051 -0.0304665681286 0.197130837884)
(-0.178106828231 -0.0454220664459 0.437706116526)
(-0.516748864491 -0.0615151386204 0.55440381519)
(-0.918066475322 -0.0894747403653 0.362147358955)
(-1.15192636318 -0.126317268618 -0.0271835655709)
(-1.18345974509 -0.160726891969 -0.467327562641)
(-1.02468696008 -0.192945484353 -0.845102025541)
(-0.693816504961 -0.222188248465 -1.14727048497)
(-0.29125465442 -0.236704976951 -1.26607314725)
(0.114096907614 -0.2383833032 -1.29360023849)
(0.504140031145 -0.234149192125 -1.26479464935)
(0.881128151212 -0.223172696942 -1.17237610973)
(1.21541874109 -0.203251538454 -0.977838191376)
(1.43573378498 -0.176492419097 -0.673601441444)
(1.49162793597 -0.144827527317 -0.289258151004)
(1.37320096482 -0.112340626877 0.133686426781)
(1.08368641131 -0.0819892274701 0.494166318345)
(0.645671704865 -0.0558953313222 0.663190908927)
(0.267008916305 -0.0405530616435 0.536848499424)
(0.0627667586307 -0.0261077613482 0.284171437357)