/*--------------------------------*- C++ -*----------------------------------*\
| =========                 |                                                 |
| \\      /  F ield         | OpenFOAM: The Open Source CFD Toolbox           |
|  \\    /   O peration     | Version:  3.0.1                                 |
|   \\  /    A nd           | Web:      www.OpenFOAM.org                      |
|    \\/     M anipulation  |                                                 |
\*---------------------------------------------------------------------------*/
FoamFile
{
    version     2.0;
    format      ascii;
    class       volScalarField;
    location    "7.7";
    object      epsilon_0;
}
// * * * * * * * * * * * * * * * * * * * * * * * * * * * * * * * * * * * * * //

dimensions      [0 2 -3 0 0 0 0];

internalField   nonuniform List<scalar> 
7968
(
7.0842043589e-05
9.28156512445e-05
0.000111303206717
0.000123273349778
0.000129853142623
0.000132320499091
0.000132204243108
0.000130400384108
0.000128090550473
0.000126164985732
0.000125822358039
0.000127480030271
0.000129688914095
0.000131471585228
0.000131638084505
0.000129248057219
0.000122812831907
0.000110998717228
9.26439602676e-05
7.07697303107e-05
9.28589776631e-05
0.000180436847861
0.000245162636779
0.00028293111535
0.00029982347491
0.000302378430923
0.00029737262667
0.000289065980753
0.000281401222042
0.000276738592018
0.000276221702546
0.00028011499442
0.000287263432679
0.000295318543656
0.000300290315936
0.000297797053523
0.00028120119314
0.000243890404655
0.000179714173726
9.25913929911e-05
0.000111397326442
0.000245119358219
0.000342656951378
0.000399106685687
0.000424025494363
0.000427566180323
0.000419669325424
0.000407778223936
0.000397309017903
0.000391148760289
0.00039044698683
0.000395514715961
0.000405243561547
0.000416759731106
0.000424550372286
0.000421089839713
0.00039653246854
0.000340727349062
0.000244002850791
0.000110942642817
0.000123378546024
0.00028285815474
0.000399067761832
0.000465376243157
0.000493225172356
0.000495460312973
0.000484566571613
0.000470410865323
0.000458704305619
0.000452564764082
0.000451810571007
0.000456675950607
0.000467324814916
0.000481070082128
0.000491835672823
0.000489669696258
0.000462199752092
0.00039662984256
0.000281394877151
0.000122742414711
0.000129961732271
0.000299744106655
0.000423998470463
0.0004932301799
0.000519540020035
0.000521994932245
0.000520929899703
0.000513701739387
0.000505134029224
0.000499364924538
0.000498520845907
0.000503039530862
0.000510932394262
0.000517997346711
0.00051902441047
0.000515704604268
0.000489669870429
0.00042117111071
0.000297963608447
0.000129154602435
0.000132442070178
0.000302356392563
0.000427595449941
0.000495463571776
0.000521890862639
0.00053838822327
0.000541592127363
0.000535642327376
0.000526969792104
0.000520660426595
0.000519648808279
0.000524530182068
0.000532534910852
0.000538491149075
0.000535584050544
0.000519139790578
0.000491825971441
0.000424569237262
0.000300382058287
0.00013151638926
0.00013232777703
0.000297418477536
0.0004197760977
0.000484576581457
0.000520790322025
0.000541544154787
0.000545343130208
0.000538155336737
0.000527650699566
0.000519928394557
0.000518685351241
0.000524699835411
0.000534465473379
0.000541788718772
0.000538552005154
0.000518153891733
0.000481058051781
0.000416698507965
0.000295346229613
0.000131348236573
0.000130534609922
0.000289260861968
0.000408089744637
0.000470627376679
0.00051370263562
0.000535784238753
0.000538397588841
0.000528545405165
0.000514989587085
0.000505214930076
0.000503710134456
0.000511457292867
0.000524147112097
0.000534233622775
0.000532414742157
0.000510954238618
0.000467127358508
0.000404980570331
0.000287143816875
0.000129552520541
0.000128257521423
0.000281852992394
0.000398021923707
0.000459372975255
0.000505591866127
0.000527666363255
0.000528571091829
0.000515752667861
0.000499021310645
0.000486495120778
0.000484662035617
0.000494846791661
0.00051068424497
0.000523775539637
0.000523838966766
0.000502607541837
0.000456254937141
0.000394818720566
0.000279698775709
0.00012728928567
0.000126421407578
0.000277528470076
0.000392394643185
0.000453568719921
0.00050047588671
0.000522197558584
0.000521888361116
0.000507198678259
0.000487872413801
0.000472833313964
0.000470691968522
0.000483177099885
0.000501626128167
0.000516647613224
0.000518037815416
0.000497338528395
0.000450789092239
0.000389082813044
0.000275325102128
0.000125443930476
0.000126337556879
0.000277416388792
0.000392281805387
0.000453467986194
0.000500384115955
0.000522119998262
0.000521823211642
0.000507138198755
0.000487802359091
0.000472743242856
0.000470597648698
0.000483101558022
0.000501561972296
0.00051657941031
0.000517955893953
0.000497235940213
0.000450663111075
0.000388931722155
0.000275172215836
0.000125332763092
0.000128085453949
0.000281551865098
0.000397701838148
0.00045910357076
0.000505332678594
0.000527445525779
0.000528385130477
0.000515583763706
0.000498846878406
0.000486295593403
0.000484456198101
0.00049466458121
0.000510510972292
0.000523585796732
0.000523611464585
0.000502326929786
0.000455916144848
0.000394417741592
0.000279310772068
0.000127066106453
0.000130313654222
0.000288797531858
0.000407559425362
0.000470140395662
0.000513256062948
0.00053539427748
0.000538055500191
0.000528228754264
0.000514682414015
0.000504899507856
0.000503389831371
0.000511146438915
0.000523825062498
0.000533888649939
0.000532019394232
0.000510487645952
0.000466588514821
0.00040436111001
0.000286579504533
0.000129272866465
0.000132090181494
0.000296843895007
0.000419068119265
0.000483864102339
0.00052016017421
0.000540981948464
0.000544834136329
0.000537680274748
0.000527190370563
0.000519468667784
0.000518220717575
0.000524229957058
0.000533980968593
0.000541273801811
0.000537983391966
0.000517503253809
0.000480300113229
0.000415903857031
0.000294670043512
0.000131052237905
0.000132220443293
0.000301732890915
0.000426774836702
0.00049458051705
0.000521099372587
0.000537681684922
0.000540938424464
0.000535025951661
0.00052637381172
0.000520071833466
0.000519054448675
0.000523919087769
0.000531898380731
0.000537819772294
0.000534859418512
0.000518315620046
0.000490887423884
0.000423656710809
0.000299658885062
0.000131241529244
0.000129775226856
0.000299124654819
0.000423155936192
0.000492286913244
0.000518540129489
0.000521169335265
0.000520148368258
0.000512954923583
0.000504407972024
0.000498658176828
0.000497806434749
0.000502291365896
0.000510142839044
0.000517171043696
0.000518149972179
0.000514647808096
0.000488638107377
0.000420218109954
0.000297239768675
0.000128920761476
0.000123248529447
0.000282339765105
0.000398324437316
0.000464512982441
0.000492280597536
0.000494456391897
0.000483535264344
0.00046940117951
0.000457794678378
0.000451745475373
0.000450983043126
0.000455759497054
0.000466227819871
0.000479946003706
0.000490727537494
0.000488607469205
0.000461206795961
0.000395756732264
0.000280768746396
0.000122576042314
0.000111322020754
0.000244755217873
0.000342112449958
0.000398444176538
0.000423271888695
0.000426746815572
0.000418811282438
0.000406901539029
0.000396407564137
0.00039021827425
0.000389486717094
0.000394533875944
0.000404247897319
0.00041576926256
0.000423592147319
0.000420190070249
0.000395728478238
0.000340054799048
0.000243542006904
0.000110844493704
9.28338024492e-05
0.000180261720179
0.000244885015736
0.000282564740918
0.000299358201528
0.000301836495722
0.000296782741219
0.000288440830188
0.000280733540126
0.000276028271809
0.000275478840222
0.000279365488738
0.000286522712029
0.000294604977588
0.000299625536312
0.000297208697032
0.000280722586412
0.000243515764764
0.000179474990881
9.25545076367e-05
7.0838922958e-05
9.27912077997e-05
0.000111249581735
0.000123182175157
0.000129711968438
0.000132128395596
0.000131973232483
0.000130135982646
0.000127793997408
0.000125838381604
0.000125470767955
0.000127131417991
0.000129356126543
0.00013116795197
0.000131376724876
0.00012904347447
0.000122670407137
0.00011090534353
9.25917403359e-05
7.07565512334e-05
8.98443464787e-05
0.000155255866969
0.000210798113387
0.00024879016611
0.000271120600971
0.000281430542038
0.000283797269974
0.000281679144914
0.000278277341932
0.000275783168538
0.00027538951709
0.000277300213477
0.000280347321321
0.00028232794876
0.000280004176216
0.000269851817505
0.000247806124143
0.000210150575243
0.000154906808455
8.96806113886e-05
0.000155434625358
0.000195800663295
0.000241982617666
0.000275504901264
0.000296177572909
0.000306581600928
0.000310009098989
0.000309369972834
0.000307298008141
0.000305651464375
0.000305409001479
0.000306684439772
0.000308519302449
0.000309050538903
0.00030561190864
0.000295235500064
0.000274631608495
0.000241169318013
0.000195000540753
0.000154678143372
0.000211071312561
0.000242174778654
0.000289169608413
0.000324377452423
0.000346312523603
0.00035732037302
0.000360821901504
0.000360055206802
0.000357749502618
0.000355909537684
0.000355652375488
0.000357095965349
0.000359155710728
0.000359811077739
0.000356276954374
0.000345254637119
0.00032330105947
0.00028804282158
0.000240943702336
0.0002098478995
0.000249087627561
0.00027582777862
0.000324515215097
0.000361754726068
0.000385396800979
0.000397801548668
0.00040244244864
0.000402888962438
0.000401318877659
0.000399806370064
0.000399554062922
0.000400674673319
0.000401987192857
0.000401422398597
0.000396700758599
0.000384252627657
0.000360527844225
0.000323147287205
0.00027425762685
0.000247495817736
0.000271425749705
0.00029658449237
0.000346532139723
0.000385464697987
0.000411207980214
0.000427093140936
0.000435898089169
0.000438742995918
0.000438208887866
0.000436951242376
0.00043667565016
0.000437521067809
0.000437826610384
0.000434928554374
0.000426150365745
0.000410087638838
0.000384180210056
0.000345012493389
0.000294767004584
0.000269537170467
0.000281751628879
0.000307039373788
0.000357574430807
0.000397873068279
0.000427077087312
0.000447966990784
0.000459859633072
0.00046423010369
0.00046415390303
0.000462887602257
0.000462574039835
0.000463378881661
0.000463190175745
0.000458772204782
0.000447002819533
0.000426164625785
0.000396620272986
0.000355992492859
0.000305079065063
0.000279666897936
0.000284139187104
0.000310494388421
0.000361085977283
0.000402485888784
0.000435866163031
0.000459857080109
0.000473472200105
0.000478300221545
0.000477923412709
0.00047626456338
0.000475904208464
0.000477037957344
0.000477089006259
0.000472184992871
0.00045875076
0.000434944635884
0.000401364824156
0.000359502566897
0.000308476080158
0.000281960538168
0.000282088887254
0.000309902015381
0.000360359447492
0.000402956715484
0.000438754994313
0.000464314323159
0.000478418820564
0.000482704038501
0.000481313857186
0.000479054253339
0.000478654820178
0.000480316148396
0.000481305005295
0.000476922255908
0.000463038326883
0.000437763035307
0.000401874921847
0.000358779878951
0.000307875255339
0.000279889130356
0.000278831989507
0.00030792435425
0.000358163528907
0.000401492345327
0.000438358122577
0.000464424866493
0.00047827544146
0.000481572818584
0.000479324569287
0.00047607644761
0.000475586954012
0.000478185382018
0.000480014022385
0.000476593144579
0.000463001893584
0.000437281370612
0.000400426623152
0.00035655907097
0.000305893454966
0.000276631253426
0.000276560662115
0.000306415846083
0.000356491562475
0.000400133979172
0.000437301490098
0.000463408697121
0.000476914150859
0.000479629001292
0.000476449043055
0.000472235454911
0.000471653976822
0.000475152348559
0.000477958783872
0.000475104874623
0.000461891755758
0.000436167781605
0.000399062340746
0.000354850050662
0.000304364542876
0.000274337313259
0.000276453049667
0.000306340091635
0.000356425357015
0.000400074412588
0.000437245384367
0.000463353209378
0.000476855757898
0.000479563315294
0.000476370525009
0.000472142520093
0.000471557050164
0.000475064003003
0.000477881243809
0.000475035748257
0.000461828936856
0.000436105879851
0.000398995218274
0.000354769684482
0.000304264969487
0.000274194677551
0.000278540512348
0.000307713520397
0.000357977445127
0.000401327131199
0.000438203462307
0.000464274743546
0.00047812103139
0.000481404400367
0.000479135002846
0.00047586207281
0.000475362474061
0.000477971684856
0.000479816191355
0.000476412050143
0.000462834116101
0.000437113515477
0.00040024383067
0.000356342137823
0.000305630737426
0.000276266462443
0.00028165448314
0.000309580480594
0.000360068779047
0.000402697185477
0.000438519792799
0.000464095918195
0.0004782041835
0.000482478063653
0.00048107112546
0.000478794063494
0.000478381892845
0.000480046177373
0.000481037724445
0.000476672957505
0.000462797116898
0.000437511964478
0.000401597386499
0.000358454199779
0.00030749272097
0.000279371388483
0.000283623846097
0.000310101570983
0.000360716613675
0.000402147292675
0.000435571094624
0.000459598615089
0.000473235735241
0.000478066935508
0.000477678913887
0.000476002985802
0.000475629502157
0.000476761389948
0.000476817092038
0.000471915450988
0.000458468728574
0.000434632689703
0.000401009419413
0.000359099060482
0.000308022475813
0.000281364047426
0.000281222246452
0.000306618743068
0.000357156877635
0.000397471867739
0.000426729767156
0.000447674465902
0.000459606468831
0.000463997493272
0.000463923448752
0.00046264892529
0.000462325963074
0.00046312549929
0.000462929623866
0.000458492352121
0.000446687916488
0.000425799484615
0.00039620007046
0.000355539042123
0.000304598242212
0.000279060541976
0.0002709401628
0.000296173464404
0.000346097791607
0.000385025042671
0.000410790512688
0.000426744241401
0.000435594340736
0.000438470837246
0.00043794875578
0.000436690504803
0.000436407523639
0.000437242879465
0.000437530475366
0.00043460054704
0.000425777962276
0.000409649404726
0.00038371219624
0.000344534166498
0.000294292068183
0.000268976420666
0.00024870235975
0.000275465737328
0.00032409680249
0.000361304787752
0.000384940186727
0.000397356986611
0.000402032289876
0.000402511690662
0.000400960884693
0.000399452229723
0.00039919218723
0.00040029796457
0.000401580558176
0.000400982800303
0.000396220963203
0.000383757681188
0.000360032671028
0.000322673350102
0.000273828250767
0.000247041671763
0.000210813161266
0.0002418780716
0.000288786181082
0.000323934361168
0.000345834109627
0.000356823529677
0.000360317364266
0.00035954692046
0.00035722945983
0.000355373426624
0.000355102797818
0.000356540556718
0.000358596636918
0.00035925029599
0.00035572116228
0.000344715276218
0.00032279503906
0.000287594432092
0.000240581103942
0.00020953423122
0.000155311589555
0.000195574271991
0.00024164309781
0.000275076775824
0.000295679765801
0.000306031799505
0.000309421833734
0.000308752636499
0.000306646944192
0.000304968880254
0.000304706045621
0.000305980280206
0.000307825461484
0.000308378877205
0.000304977213642
0.000294654443174
0.000274125128155
0.000240758906306
0.000194713398193
0.000154518169552
8.98285220018e-05
0.000155086217709
0.000210505092638
0.000248403350616
0.000270650174756
0.000280888843055
0.000283200001606
0.000281032435685
0.000277576741019
0.000275033833588
0.000274610413964
0.000276523819691
0.000279594294909
0.0002816176935
0.00027935439469
0.000269281445318
0.000247332631532
0.000209786684389
0.000154685566584
8.96494764155e-05
0.00010750581123
0.00020714126177
0.000292843167784
0.000352569909911
0.0003889946915
0.000407598987564
0.000414452313906
0.00041491878781
0.000413342607241
0.000412050750529
0.000411658843676
0.000412259363669
0.00041329815262
0.00041251858602
0.000405608939859
0.000387161623537
0.00035109195942
0.000291839802201
0.000206587656033
0.00010726030546
0.000207493507038
0.000242889729773
0.000295354208186
0.000336482723954
0.000364232660098
0.000380467315971
0.000388272324694
0.000390788447486
0.000390847751496
0.000390353806868
0.000390141131674
0.000390268741409
0.000389940862795
0.00038726930689
0.000379416103453
0.00036319345472
0.00033547313096
0.00029432727342
0.000241722585343
0.000206118222694
0.000293383434842
0.000295706618406
0.000336246720062
0.000371027006581
0.000395489428284
0.00041031492361
0.000417826079125
0.000420404673548
0.000420457454079
0.000419868122291
0.000419659155532
0.000419899110763
0.000419614023399
0.000416914096326
0.000409333091904
0.000394427918627
0.000369823546799
0.000334800003113
0.000293873578038
0.000291158065966
0.000353202427473
0.000337076389422
0.00037129120384
0.000402983556763
0.000426386123116
0.00044151894191
0.000450441507416
0.000454050839171
0.000454648140608
0.000454239088516
0.000454024521395
0.000454073572006
0.000453237195351
0.000449523415071
0.000440511242788
0.000425261370232
0.000401599782979
0.000369501223907
0.00033472539683
0.000350324975131
0.000389721852925
0.000364989071914
0.000395930672164
0.00042655068294
0.000450862036583
0.000468124720833
0.0004784201619
0.000483028467411
0.000484085979719
0.000483806305747
0.00048357409599
0.000483442946861
0.000482038193235
0.000477280197102
0.000467035630282
0.000449775145635
0.000425066766285
0.000393899599586
0.000362256479595
0.000386297202303
0.000408446125949
0.000381332449872
0.000410855180059
0.000441757571255
0.000468202846983
0.000487403863434
0.000499181288057
0.000504525567653
0.000505777800415
0.000505491427067
0.000505249420729
0.000505056762361
0.000503229665385
0.00049751648248
0.0004859049374
0.000466927233021
0.000440215262058
0.000408680489465
0.00037834728488
0.000404609111326
0.000415435816349
0.000389208451883
0.000418416081595
0.000450721712434
0.000478591882853
0.000499397147943
0.000512183525942
0.000517778744689
0.000518845654231
0.00051835972973
0.000518139875803
0.000518101270248
0.000516182747393
0.000509883692686
0.000497263840491
0.000477033785558
0.000449142442041
0.000416171238936
0.000386095005153
0.000411349524875
0.000416080230715
0.000391795884667
0.000421052765335
0.000454423624576
0.00048341898511
0.000505199201511
0.00051836089609
0.000523674654979
0.000524125852253
0.000523181973753
0.000522999716972
0.000523419348334
0.000521913480944
0.000515603438713
0.000502511022362
0.000481534638017
0.00045271855494
0.000418760725519
0.000388650232335
0.000411909429619
0.000414721696294
0.00039195089168
0.000421209275623
0.000455169002428
0.000484746883017
0.000506885077282
0.000519969852179
0.000524692002533
0.000524223507295
0.000522587231305
0.00052241798226
0.000523498364312
0.000522826170808
0.00051699472983
0.000503922464969
0.0004826528556
0.000453361238774
0.000418874264155
0.000388811145132
0.00041056727509
0.000413670631625
0.000391575761129
0.000420762660554
0.000454935035218
0.000484699151899
0.000506884984189
0.000519789847557
0.000524037344142
0.00052287643648
0.000520689782236
0.000520515116215
0.000522111074236
0.000522087796367
0.000516727482002
0.000503831843381
0.000482523806653
0.000453071501487
0.000418388784433
0.000388424355877
0.000409521255777
0.00041355239708
0.000391498703675
0.000420703954606
0.000454890597827
0.000484664070158
0.000506853055024
0.00051975369643
0.000523987330211
0.000522808587518
0.000520606443435
0.00052042794963
0.000522030996383
0.000522020790533
0.000516676658021
0.000503792174475
0.000482483862438
0.000453019899437
0.000418314567049
0.000388316397698
0.000409351951824
0.000414365032278
0.00039172188441
0.00042103768846
0.000455041800776
0.000484650222648
0.000506804685722
0.00051988909748
0.000524587780545
0.000524088037407
0.000522422420705
0.00052223987462
0.000523324907063
0.000522674128625
0.000516875798973
0.000503823063373
0.00048254518116
0.000453218426631
0.000418668892803
0.000388515084998
0.000410105460075
0.000415510285354
0.000391436804502
0.00042078363121
0.000454226885231
0.00048328107955
0.000505111507838
0.000518305711255
0.000523620141238
0.000524047165591
0.000523071118424
0.000522868658017
0.000523283154886
0.000521789999291
0.000515497873222
0.000502397813416
0.000481382908104
0.000452504276489
0.000418453863489
0.000388212717511
0.000411224280951
0.000414729800629
0.00038876747901
0.000418076875357
0.000450469675451
0.000478418864121
0.000499310930344
0.00051217691325
0.000517814463694
0.000518882619086
0.000518377800418
0.000518138087661
0.00051808644375
0.00051615905363
0.000509832943625
0.00049715269975
0.000476845258074
0.000448872568188
0.000415795937596
0.000385575340804
0.000410535140867
0.000407702315553
0.000380866346869
0.000410472752048
0.000441448546278
0.000467976200281
0.000487267318067
0.000499138225147
0.000504547699469
0.00050582127033
0.000505529734441
0.000505275664273
0.000505070903818
0.000503218396423
0.000497444252244
0.000485745483688
0.000466684737477
0.000439890719093
0.000408260775366
0.000377800975943
0.000403760046959
0.000389028707491
0.000364543185232
0.000395525381361
0.000426185539602
0.000450566688915
0.000467887997722
0.000478247875416
0.000482904872237
0.00048398399102
0.000483704931244
0.000483464302586
0.000483321037267
0.00048188907166
0.000477081185444
0.000466775325292
0.000449458258249
0.000424678493045
0.000393448292781
0.000361725426146
0.000385496294571
0.000352635537325
0.000336679364217
0.000370875597858
0.000402559306211
0.000425978828111
0.000441145187513
0.000450110887408
0.000453737667489
0.000454340155458
0.000453927821989
0.000453703908701
0.000453741851627
0.000452890268345
0.000449153431764
0.000440101958364
0.00042481915984
0.00040113322698
0.000369024737697
0.000334239261036
0.000349651410275
0.000292987493197
0.000295360823672
0.000335816545134
0.00037053402119
0.000394961282985
0.000409771665924
0.000417274224808
0.000419839726569
0.000419873938091
0.000419265515237
0.000419041537209
0.000419275546054
0.000418990305818
0.000416295996791
0.000408722518021
0.000393831992204
0.000369260195676
0.00033429351126
0.000293440138001
0.000290668271284
0.000207291795391
0.000242576127992
0.000294889759899
0.000335898890291
0.000363557338162
0.000379721902034
0.000387472048146
0.000389942545688
0.000389954582331
0.000389420723666
0.000389182737881
0.000389308266989
0.000388994172832
0.000386356240331
0.000378556971066
0.00036240867168
0.000334787914805
0.000293771345372
0.000241326666865
0.000205846841205
0.00010749833127
0.000206820368226
0.000292308494656
0.000351891349481
0.000388195999933
0.00040669997007
0.00041347137679
0.000413867285888
0.000412215425339
0.000410860467689
0.000410428407846
0.00041102591462
0.000412091644123
0.000411374442723
0.000404555571277
0.000386221219819
0.000350288684779
0.000291202726485
0.000206193410372
0.00010723329447
0.000123922180571
0.000258964290949
0.0003738463914
0.000453923674964
0.000504436188426
0.000532822373043
0.000546825072158
0.000552967272537
0.000555885206938
0.000557285219311
0.000556999730977
0.000555003745316
0.000551501026283
0.000544860675772
0.000530610878139
0.000502288297298
0.000452156525798
0.000372690059752
0.000258417633066
0.000123633789084
0.0002596033872
0.000290333060251
0.000351310253358
0.000400936455957
0.000436025136227
0.000458231425233
0.000470710579134
0.000476767856256
0.000479338305514
0.000480230430349
0.000480067237026
0.000478856647942
0.000476016642743
0.000469764390494
0.000457204053032
0.000434993647718
0.000399917302744
0.000350228956535
0.000288945087331
0.000257499143871
0.000374797563338
0.000351834632389
0.00039126020567
0.000428145533603
0.000455555165007
0.000473444422346
0.000483699416469
0.000488515516136
0.000490193164859
0.000490485954862
0.000490283353375
0.000489631912042
0.000487707299918
0.000482759731946
0.000472446723125
0.000454452929289
0.000426842566724
0.000389599770307
0.000349535948526
0.000371378923904
0.000455095050922
0.000401797637299
0.000428519196065
0.000457947142422
0.00048143151048
0.000498103871589
0.000508278834775
0.000512978112528
0.000514389955414
0.00051442984772
0.000514161667659
0.000513636037468
0.000511799243436
0.000506896476384
0.000496904983857
0.000480146933889
0.000456354947712
0.000426382683905
0.00039880564914
0.000450586870683
0.00050588905306
0.000437121643376
0.000456189544227
0.000481678900903
0.000504464237616
0.00052105867933
0.000531133692345
0.000535645821031
0.000536784612371
0.000536624851421
0.000536297639637
0.000535781471566
0.000533809819364
0.000528680496744
0.000518774598235
0.000502688664734
0.00047984879384
0.000453681786554
0.000433592668714
0.000500383573627
0.000534619165764
0.000459495638207
0.000474236378615
0.000498479049487
0.000521346454486
0.000538349224266
0.000548426653639
0.000552592403581
0.000553343527959
0.000552962509161
0.000552617235435
0.000552145977796
0.000550027877871
0.000544546942933
0.000534400932117
0.000518456090315
0.000496422425631
0.000471461096785
0.000455574003981
0.000528297006201
0.000548955978882
0.000472085472801
0.000484574078521
0.000508908988019
0.000532067899062
0.000549338397602
0.000559237538472
0.000562927120247
0.000563191983033
0.000562583732154
0.000562286543085
0.000561959640019
0.000559804422412
0.00055408226493
0.00054370162032
0.000527729560698
0.000506110765319
0.000481601189691
0.000467938860877
0.000542124310532
0.000555365424507
0.000478218013833
0.000489455998486
0.000514003460392
0.000537452904336
0.000554793974733
0.000564373911034
0.000567458830926
0.000567130551846
0.000566232926732
0.000566043051207
0.000566067757795
0.000564173920821
0.000558471994211
0.00054802194517
0.000532041380763
0.000510589031022
0.00048638173625
0.000474025594657
0.000548427755337
0.000558433579447
0.000480845364298
0.000491241687615
0.000515772577057
0.000539275861144
0.000556492856355
0.000565708837948
0.000568137145237
0.000567065237303
0.000565741836822
0.000565652887446
0.000566201033053
0.000564930465578
0.000559588458618
0.000549277934936
0.000533373460195
0.000512031665699
0.000488098031185
0.000476704438096
0.000551667511726
0.000559938842403
0.000481797232613
0.000491681598716
0.000516085305898
0.000539528776281
0.000556604134678
0.000565558605489
0.000567545336165
0.000565981251336
0.000564358632964
0.000564313448572
0.000565200562843
0.000564396499236
0.000559407543546
0.000549284469698
0.000533480436726
0.000512226971074
0.000488501639717
0.000477681176132
0.000553303656077
0.000559834805887
0.000481726155315
0.000491634458747
0.000516059689836
0.000539519919603
0.000556603527857
0.000565555027219
0.000567520202807
0.000565931589519
0.000564291238681
0.000564242970929
0.000565138970207
0.000564354463627
0.000559388995323
0.000549279232914
0.000533471474877
0.000512197391855
0.000488436777487
0.000477567871505
0.000553122632992
0.000558084778176
0.000480621137214
0.000491096401878
0.00051569730169
0.000539259146005
0.000556515832964
0.000565745942785
0.000568140054542
0.000567022272149
0.000565662957564
0.000565558042896
0.000566111397951
0.000564877422437
0.000559582527425
0.000549288971132
0.000533358332558
0.000511949804391
0.000487914013613
0.000476386066638
0.000551157381668
0.000554780179882
0.000477862601785
0.000489223048004
0.00051389500468
0.000537466805321
0.000554915787254
0.000564570455006
0.000567664811183
0.000567291183264
0.000566346501573
0.000566134327295
0.00056615800776
0.000564289729561
0.000558607700747
0.000548125035288
0.000532056812842
0.000510473725786
0.000486104587459
0.000473555234883
0.000547662546678
0.000548222537096
0.000471658768291
0.000484281696287
0.000508772702879
0.000532112487254
0.000549574025351
0.000559630702423
0.000563404546204
0.000563674326859
0.000563040768033
0.000562719225132
0.000562373034799
0.000560201379012
0.000554422907184
0.000543917408466
0.00052777015414
0.000505963644483
0.0004812642225
0.000467391642108
0.000541217823385
0.000533863565476
0.000459068035608
0.00047391579764
0.000498290700288
0.000521331650129
0.000538564489426
0.000548847029447
0.000553141411846
0.000553936161227
0.000553553925416
0.000553196296476
0.000552706917855
0.000550541341506
0.000544937476836
0.000534593604321
0.00051842992916
0.000496211900616
0.000471088302356
0.00045501823723
0.000527365135096
0.000505215711296
0.000436739416857
0.000455851980655
0.000481398178529
0.000504298160919
0.000521065766787
0.000531322880198
0.000535964084602
0.000537154388018
0.000537004420835
0.000536671120298
0.00053613787419
0.000534106965438
0.000528845344373
0.000518758756434
0.000502501146631
0.000479538554741
0.000453276905213
0.000433075752775
0.000499527147538
0.000454575628254
0.000401477435985
0.000428167118576
0.000457584925341
0.000481095823359
0.000497851577996
0.000508085351681
0.000512843332926
0.000514281018314
0.000514324830924
0.000514048552937
0.000513506703402
0.000511633552565
0.00050666369707
0.000496608243436
0.000479766736365
0.000455934885178
0.000425943134252
0.000398351356488
0.000449888906876
0.000374466532883
0.000351558414096
0.000390874023734
0.000427679958249
0.000455044799042
0.000472912000049
0.000483138934775
0.000487929786731
0.000489586029335
0.000489859866759
0.000489640303001
0.000488979223038
0.000487050544261
0.000482115851563
0.000471824113717
0.000453849102229
0.000426279609302
0.000389107140463
0.000349135808607
0.000370897004151
0.000259470330699
0.000290045787548
0.000350840704115
0.000400321565257
0.000435286920492
0.00045738580013
0.000469771620669
0.000475754289369
0.000478255746314
0.000479096492941
0.000478899771588
0.000477685451807
0.000474865936273
0.000468668851222
0.000456197486692
0.000434099855263
0.000399160796438
0.000349635336849
0.000288548514377
0.000257260716402
0.000123973248824
0.000258571638555
0.000373188202315
0.000453076564601
0.000503413130823
0.000531646200986
0.000545528838828
0.000551584066756
0.000554411260124
0.00055573667926
0.000555393291255
0.000553376167172
0.000549887365647
0.00054331919252
0.000529200410749
0.000501049627387
0.00045112190214
0.000371883688337
0.000257923353496
0.000123661131387
0.000141619168905
0.000318089923973
0.000464686647501
0.000567135383799
0.000634887536155
0.000677214966452
0.000702755547523
0.000718264625717
0.000728051571198
0.000733175078814
0.000733103453595
0.0007277851153
0.000717666659926
0.000701621123232
0.000675541588802
0.000633037028609
0.000565583719873
0.000463831125413
0.000318037860906
0.000141370673227
0.000319207129396
0.000340696129975
0.000409712950444
0.000467423959809
0.000509346975831
0.000537309891887
0.000554584178794
0.000564449407452
0.000569686804347