/*--------------------------------*- C++ -*----------------------------------*\
| =========                 |                                                 |
| \\      /  F ield         | OpenFOAM: The Open Source CFD Toolbox           |
|  \\    /   O peration     | Version:  3.0.1                                 |
|   \\  /    A nd           | Web:      www.OpenFOAM.org                      |
|    \\/     M anipulation  |                                                 |
\*---------------------------------------------------------------------------*/
FoamFile
{
    version     2.0;
    format      ascii;
    class       volScalarField;
    location    "7.7";
    object      p_rgh;
}
// * * * * * * * * * * * * * * * * * * * * * * * * * * * * * * * * * * * * * //

dimensions      [1 -1 -2 0 0 0 0];

internalField   nonuniform List<scalar> 
7968
(
4891.41825482
4891.41932665
4891.39176778
4891.35178379
4891.30976664
4891.27230786
4891.24647153
4891.23128667
4891.22175894
4891.21291109
4891.2024166
4891.190229
4891.17904765
4891.17415633
4891.18114094
4891.20058189
4891.22812407
4891.25666057
4891.27716012
4891.27348098
4891.42127276
4891.44171031
4891.42361088
4891.3880913
4891.34646431
4891.30994526
4891.28353116
4891.26855501
4891.25987831
4891.25151548
4891.24092952
4891.22809557
4891.21589056
4891.21038625
4891.21736785
4891.23648601
4891.2630185
4891.28694123
4891.29807077
4891.27550885
4891.39901818
4891.4287288
4891.41336426
4891.37477434
4891.32637204
4891.28313626
4891.25161428
4891.23267546
4891.22124919
4891.21136538
4891.20053208
4891.18876152
4891.17892344
4891.17716956
4891.18914608
4891.21475932
4891.24784046
4891.27455023
4891.28290651
4891.25136917
4891.36652083
4891.40097186
4891.38254094
4891.33714453
4891.28244755
4891.23702225
4891.20731474
4891.19170039
4891.1829953
4891.17429176
4891.16328957
4891.15000921
4891.13716922
4891.13193045
4891.14198063
4891.16948897
4891.20850035
4891.24155198
4891.25271769
4891.21652617
4891.33375853
4891.36878286
4891.3435614
4891.29181675
4891.23697735
4891.1984346
4891.17898093
4891.1742426
4891.17371618
4891.16919752
4891.15814546
4891.14051486
4891.11917653
4891.10286007
4891.10264068
4891.12311557
4891.16191103
4891.20076466
4891.21827846
4891.18146731
4891.30729469
4891.34299099
4891.31092006
4891.25689387
4891.20895312
4891.18356652
4891.17998893
4891.19132221
4891.20289279
4891.20459386
4891.19356043
4891.16961709
4891.13570139
4891.10286978
4891.0866367
4891.09412168
4891.12598727
4891.16668538
4891.19065264
4891.15310604
4891.29290774
4891.32826484
4891.29091075
4891.23864151
4891.20104271
4891.19164404
4891.20746741
4891.23837023
4891.26497925
4891.27435899
4891.26340654
4891.2318277
4891.1822893
4891.12914565
4891.09318911
4891.08480613
4891.10656171
4891.1453896
4891.17436292
4891.13707037
4891.28969472
4891.32543148
4891.28409127
4891.23513132
4891.20868763
4891.21560824
4891.25111111
4891.30231919
4891.34472607
4891.36568315
4891.35526392
4891.3120703
4891.24603301
4891.17175588
4891.11558881
4891.09093224
4891.1018808
4891.1374015
4891.17025275
4891.13259669
4891.29230726
4891.32900123
4891.28504134
4891.2386361
4891.22096706
4891.24025841
4891.29090243
4891.35792451
4891.42134601
4891.45479351
4891.44496065
4891.39012449
4891.30217434
4891.21092602
4891.13913551
4891.10203718
4891.10469875
4891.13741301
4891.17285192
4891.13428277
4891.29555438
4891.33285548
4891.28771954
4891.24311519
4891.22938236
4891.25489917
4891.31323765
4891.39100974
4891.46664596
4891.50518642
4891.49559633
4891.43655148
4891.33657093
4891.23296921
4891.15335788
4891.10985726
4891.10818697
4891.13949089
4891.17618162
4891.13701206
4891.29680437
4891.33414835
4891.28908919
4891.24458798
4891.23090403
4891.25647268
4891.31485997
4891.39268661
4891.46838643
4891.50698429
4891.49742919
4891.43840342
4891.33842472
4891.2348138
4891.15515907
4891.11156851
4891.1097753
4891.1409337
4891.17750277
4891.13830099
4891.29596119
4891.33278842
4891.28906254
4891.24306314
4891.22547999
4891.24496431
4891.2958147
4891.3630319
4891.42668109
4891.46033985
4891.45061213
4891.3958123
4891.30781025
4891.216487
4891.14452262
4891.10712437
4891.10939726
4891.14167158
4891.17676431
4891.13806457
4891.29550018
4891.331447
4891.29044248
4891.24197181
4891.21595294
4891.2233391
4891.25928782
4891.31091688
4891.35375103
4891.3751137
4891.36489529
4891.32171009
4891.25548314
4891.18098228
4891.12441728
4891.09918466
4891.10944193
4891.14423576
4891.17655314
4891.1386564
4891.30049729
4891.33607197
4891.29913703
4891.24747148
4891.21057195
4891.20192062
4891.21847455
4891.25006777
4891.27727
4891.28708061
4891.27638598
4891.24486253
4891.19514136
4891.14155326
4891.10492984
4891.0956864
4891.11647512
4891.15435681
4891.18265423
4891.1451076
4891.31623138
4891.35210028
4891.32047449
4891.2671806
4891.22011602
4891.1956486
4891.19299975
4891.20521296
4891.21753452
4891.21977745
4891.20904736
4891.18514391
4891.15095859
4891.11753829
4891.10045975
4891.10688997
4891.13760793
4891.17723584
4891.2004755
4891.16275457
4891.34347237
4891.3787743
4891.35398885
4891.30299479
4891.24909353
4891.21158361
4891.19313587
4891.18938092
4891.18967801
4891.18575651
4891.17502726
4891.15742807
4891.13577941
4891.11881139
4891.11766861
4891.13696763
4891.17454754
4891.21236113
4891.22922509
4891.19213102
4891.3767589
4891.41147745
4891.39344876
4891.34873798
4891.29492342
4891.25050456
4891.2218145
4891.20718332
4891.19929171
4891.19117751
4891.18049487
4891.16723986
4891.1540866
4891.14820431
4891.15735606
4891.18365751
4891.22152567
4891.25368142
4891.26430036
4891.22795719
4891.40955105
4891.43956968
4891.4245361
4891.38650391
4891.33883433
4891.29649492
4891.26591386
4891.24787656
4891.23719642
4891.2278428
4891.21729607
4891.20554017
4891.19538974
4891.19301573
4891.20413426
4891.22872738
4891.26091226
4891.28693331
4891.2948745
4891.26321757
4891.43225158
4891.45277275
4891.43497878
4891.39991754
4891.35882395
4891.32309264
4891.29756009
4891.28342391
4891.2754152
4891.26751374
4891.257166
4891.24432707
4891.23181625
4891.22571899
4891.23192618
4891.25025233
4891.27614372
4891.29951198
4891.31034749
4891.2877479
4891.42949097
4891.43078789
4891.40346638
4891.36393631
4891.3225361
4891.28583508
4891.26076725
4891.24631533
4891.23738055
4891.2289535
4891.21867498
4891.20647621
4891.19502138
4891.18960333
4891.19591318
4891.21457338
4891.24145743
4891.26945883
4891.28955857
4891.28559871
4891.39395238
4891.38256287
4891.34539792
4891.29854129
4891.2548851
4891.21993747
4891.19591864
4891.18307489
4891.17556533
4891.16763128
4891.15709601
4891.14397382
4891.13079199
4891.12342935
4891.12820788
4891.14584039
4891.1747384
4891.20997619
4891.23987475
4891.24847102
4891.38432253
4891.38529575
4891.35178073
4891.30947212
4891.27289531
4891.24599503
4891.22896057
4891.22114643
4891.21677925
4891.21029535
4891.19981483
4891.18526924
4891.16898806
4891.15651147
4891.1543083
4891.16415937
4891.18566939
4891.21588917
4891.24187156
4891.23811314
4891.35214878
4891.35689472
4891.31738704
4891.26878605
4891.22826969
4891.20037038
4891.1843682
4891.1776949
4891.17377848
4891.1673695
4891.15666469
4891.14174145
4891.12476591
4891.11117946
4891.10799416
4891.1186484
4891.14385918
4891.1799752
4891.21156961
4891.20398912
4891.31308258
4891.32248642
4891.27658712
4891.22405754
4891.18549753
4891.16453388
4891.15762877
4891.15944775
4891.16068939
4891.15647868
4891.14559738
4891.12810582
4891.10561895
4891.08351116
4891.07112071
4891.07493035
4891.09802174
4891.1375164
4891.17492125
4891.16258525
4891.27902827
4891.29550649
4891.24543074
4891.19472796
4891.16683768
4891.16405954
4891.177368
4891.19650867
4891.20989789
4891.21162294
4891.20069775
4891.17704782
4891.14191588
4891.10207209
4891.06967491
4891.05528074
4891.06775623
4891.10498945
4891.14592524
4891.12630484
4891.2549871
4891.27916715
4891.22789587
4891.18399428
4891.17426765
4891.19524634
4891.23471371
4891.27722459
4891.30710846
4891.31715185
4891.30643351
4891.27455193
4891.22225218
4891.15820802
4891.0994491
4891.06154224
4891.05608947
4891.08622914
4891.12783625
4891.1002884
4891.24267254
4891.2736323
4891.22318869
4891.18836438
4891.19903233
4891.24628248
4891.31400941
4891.38233826
4891.4310363
4891.45059591
4891.44029285
4891.39925937
4891.3275012
4891.23627454
4891.14833366
4891.0842982
4891.05901809
4891.08024382
4891.12092061
4891.08644674
4891.24185953
4891.2779758
4891.2285281
4891.20246689
4891.23066254
4891.30155192
4891.39517347
4891.48834039
4891.55399039
4891.5776012
4891.56715935
4891.5226468
4891.43378874
4891.31652292
4891.20151918
4891.11365236
4891.07107875
4891.08422639
4891.12401014
4891.08444089
4891.24650862
4891.2858826
4891.23699932
4891.2168338
4891.25715494
4891.3447854
4891.45715392
4891.56743444
4891.63492451
4891.66215659
4891.65195717
4891.60312084
4891.51209071
4891.37790759
4891.24318735
4891.13827611
4891.08347291
4891.09145434
4891.13088643
4891.08819725
4891.25079826
4891.29161311
4891.24302473
4891.22490405
4891.2716826
4891.3675767
4891.48914868
4891.60431895
4891.67489924
4891.70602689
4891.69605282
4891.642931
4891.54743762
4891.40988189
4891.26555713
4891.15224961
4891.09138942
4891.09693278
4891.13616923
4891.09196929
4891.25211514
4891.2929713
4891.24446222
4891.22636421
4891.27316875
4891.36911017
4891.49071189
4891.60591078
4891.6765369
4891.70771939
4891.69778217
4891.64467825
4891.5492042
4891.41169818
4891.26738157
4891.15403444
4891.0930429
4891.09845828
4891.13754566
4891.09331178
4891.2503539
4891.28986119
4891.24121683
4891.22103259
4891.26166517
4891.34953752
4891.46202625
4891.57240907
4891.64002441
4891.66737895
4891.65728155
4891.6085113
4891.51756939
4891.38349603
4891.24877198
4891.14366815
4891.08842661
4891.09595895
4891.13496747
4891.09216094
4891.2479027
4891.28432929
4891.23518217
4891.20950068
4891.23818159
4891.30963459
4891.4035866
4891.49707721
4891.56303994
4891.5868189
4891.57654219
4891.53212152
4891.44340677
4891.3260752
4891.2108471
4891.12247596
4891.07915857
4891.09150383
4891.13068333
4891.09085889
4891.25046598
4891.28179336
4891.23184413
4891.19770527
4891.20916068
4891.25726897
4891.32575669
4891.39473582
4891.44404667
4891.46405856
4891.45402685
4891.41303489
4891.34113236
4891.24956217
4891.16102651
4891.09609703
4891.06979417
4891.08996365
4891.12981816
4891.09498279
4891.26407272
4891.28860955
4891.23800943
4891.1950178
4891.18629397
4891.20838969
4891.24892256
4891.29240936
4891.32311962
4891.33374373
4891.32338562
4891.29152885
4891.23892612
4891.1742918
4891.11464832
4891.07557043
4891.06887365
4891.0977652
4891.13842677
4891.11048714
4891.28905896
4891.3059248
4891.25649131
4891.20677342
4891.18001371
4891.17843104
4891.19296803
4891.21318784
4891.2275151
4891.22991301
4891.21936486
4891.19575136
4891.16026385
4891.11978531
4891.08644015
4891.07068061
4891.08174466
4891.11767152
4891.15772096
4891.13768617
4891.32372097
4891.33345228
4891.28803982
4891.23646365
4891.19906655
4891.17931836
4891.17364189
4891.1765386
4891.17868906
4891.17514198
4891.16463639
4891.14721331
4891.12443479
4891.10174373
4891.08863053
4891.09082013
4891.11240061
4891.15066199
4891.18733443
4891.17469604
4891.36312606
4891.36808648
4891.3289194
4891.28106327
4891.2416178
4891.21484849
4891.19994053
4891.19430674
4891.19123391
4891.18544026
4891.17507356
4891.16021909
4891.14296618
4891.12873882
4891.12469119
4891.13407987
4891.15800658
4891.19313871
4891.2242168
4891.21652431
4891.39544153
4891.39663376
4891.36334413
4891.32160143
4891.28585106
4891.25988193
4891.24384969
4891.23711672
4891.23349439
4891.22753479
4891.2172999
4891.20276083
4891.18617636
4891.17305078
4891.17003192
4891.1789208
4891.19946749
4891.22897727
4891.25460501
4891.25078124
4891.40528449
4891.39414373
4891.35718673
4891.31083624
4891.26795533
4891.23392358
4891.2108105
4891.198734
4891.1918461
4891.18440189
4891.17412929
4891.16101863
4891.14754569
4891.13962382
4891.14364093
4891.16040806
4891.18844945
4891.22301243
4891.25246789
4891.26054414
4891.36794635
4891.34483283
4891.30117335
4891.24938338
4891.20293948
4891.16607647
4891.14076866
4891.12583572
4891.11585916
4891.10610671
4891.09526524
4891.08353596
4891.07249486
4891.06732185
4891.0734501
4891.09283534
4891.12433393
4891.16431815
4891.20060657
4891.22026971
4891.34660772
4891.34458471
4891.31029685
4891.26967085
4891.23808524
4891.2165546
4891.20350698
4891.19745163
4891.19219976
4891.18450573
4891.17361519
4891.15976484
4891.1441511
4891.13039589
4891.12408249
4891.12862123
4891.14530758
4891.17356615
4891.19976273
4891.1986136
4891.30810123
4891.3157684
4891.27058997
4891.21431076
4891.1714585
4891.14485671
4891.13172621
4891.12623251
4891.12191275
4891.11464103
4891.10339492
4891.08843017
4891.0713739
4891.05679434
4891.05110805
4891.06085006
4891.08832019
4891.13202236
4891.16887098
4891.15839508
4891.26433982
4891.28335568
4891.22232365
4891.15676037
4891.11344007
4891.09560872
4891.09680861
4891.10348749
4891.10776908
4891.10458606
4891.0930119
4891.07346084
4891.04724538
4891.02021103
4890.9994007
4891.00150842
4891.02961352
4891.08202712
4891.1342544
4891.11240388
4891.227824
4891.26155305
4891.18901725
4891.12278669
4891.09115817
4891.09296784
4891.11573693
4891.142548
4891.16074025
4891.16422943
4891.1526278
4891.12621238
4891.08634858
4891.03996927
4890.99864293
4890.97921666
4890.99466212
4891.04746045
4891.11035934
4891.07383211
4891.20229672
4891.25080185
4891.17282294
4891.11493312
4891.10240516
4891.13141095
4891.18224299
4891.23242082
4891.26617625
4891.27722668
4891.26515996
4891.23012431
4891.17404877
4891.10553658
4891.03820317
4890.99136387
4890.98637558
4891.03006183
4891.09784364
4891.04651488
4891.18887879
4891.2496232
4891.17097965
4891.12699047
4891.13528288
4891.19209693
4891.27124716
4891.34508331
4891.39503834
4891.41434187
4891.40128367
4891.3554567
4891.28075327
4891.18884988
4891.09654361
4891.02367488
4890.99685849
4891.02682813
4891.09551594
4891.0317903
4891.18622804
4891.25546627
4891.1775651
4891.14575255
4891.17404254
4891.25477011
4891.35862446
4891.45508497
4891.52229446
4891.55056952
4891.53645349
4891.47875488
4891.38387556
4891.26874379
4891.15411715
4891.05977668
4891.01374435
4891.03180712
4891.10011843
4891.02800527
4891.18869752
4891.26278085
4891.18634342
4891.16387234
4891.20640775
4891.30369391
4891.42554831
4891.54107152
4891.62457446
4891.66032709
4891.64572885
4891.5793411
4891.4658913
4891.33068829
4891.19817198
4891.08846753
4891.02914767
4891.03841514
4891.10611964
4891.02954729
4891.19142084
4891.26772153
4891.19233536
4891.17465513
4891.22423414
4891.32969852
4891.4610481
4891.58697368
4891.67854127
4891.71831469
4891.70350841
4891.63276192
4891.51096176
4891.36457909
4891.22225865
4891.10452232
4891.03855941
4891.04373873
4891.11066012
4891.03184229
4891.19282465
4891.26917879
4891.19388143
4891.17623745
4891.2258719
4891.33141278
4891.46297404
4891.58911912
4891.68087089
4891.72078902
4891.70602101
4891.63526198
4891.51340711
4891.36691208
4891.2244565
4891.1065943
4891.04047462
4891.04530917
4891.11199278
4891.03327453
4891.19266033
4891.26703307
4891.19087054
4891.16855399
4891.21154059
4891.30918236
4891.43154927
4891.54768093
4891.63171671
4891.66783705
4891.65337441
4891.58698157
4891.47334973
4891.33774472
4891.20475071
4891.09460617
4891.03474776
4891.04324896
4891.11038528
4891.03374227
4891.19249484
4891.26228456
4891.18484474
4891.15345237
4891.18253689
4891.26404183
4891.36864395
4891.46611354
4891.53437134
4891.5633806
4891.54954803
4891.49172993
4891.39638569
4891.2804204
4891.16492888
4891.0697617
4891.02278414
4891.03942954
4891.10698644
4891.03473151
4891.1970382
4891.25833995
4891.18041448
4891.13722434
4891.14637784
4891.20422593
4891.28448236
4891.35958301
4891.41076292
4891.4309346
4891.41829744
4891.37238478
4891.29708805
4891.2042433
4891.11086984
4891.03705169
4891.00907646
4891.03747236
4891.10503732
4891.04076573
4891.21172757
4891.26064388
4891.18395391
4891.12724163
4891.11565369
4891.14565622
4891.19763901
4891.24909264
4891.28407541
4891.29611206
4891.2845588
4891.24940198
4891.19280105
4891.12347564
4891.05528861
4891.00736568
4891.00105304
4891.04290108
4891.10924044
4891.05722915
4891.23821865
4891.27241482
4891.20103771
4891.13624216
4891.1059374
4891.10878216
4891.13267419
4891.16079609
4891.18018874
4891.18466837
4891.17354922
4891.14706657
4891.10679221
4891.05977091
4891.01782621
4890.99691976
4891.01057625
4891.06150919
4891.12304912
4891.0857699
4891.27531458
4891.29483673
4891.23444225
4891.17048378
4891.12871342
4891.11229673
4891.11464658
4891.12257338
4891.12797583
4891.12574367
4891.1147587
4891.09519122
4891.06865594
4891.04109234
4891.02087904
4891.01974038
4891.0457632
4891.09651837
4891.1476374
4891.12508649
4891.31943624
4891.3273993
4891.28257921
4891.22745234
4891.18626529
4891.16120285
4891.14943571
4891.14522265
4891.14197477
4891.13550612
4891.12468904
4891.10985744
4891.09247975
4891.0769953
4891.07023537
4891.07813422
4891.10394289
4891.14629251
4891.18246428
4891.17140476
4891.35821696
4891.35631368
4891.32220128
4891.28235492
4891.25179594
4891.23146071
4891.22020738
4891.21500022
4891.21053848
4891.20342579
4891.19289973
4891.17918988
4891.16330109
4891.14869727
4891.14125069
4891.14457757
4891.16010439
4891.18748941
4891.21322392
4891.21175758
4891.37933206
4891.35665676
4891.31320783
4891.26210606
4891.2168426
4891.1813892
4891.15726396
4891.14328243
4891.13399458
4891.12485633
4891.11434467
4891.1025661
4891.0912748
4891.08515447
4891.0900981
4891.1084329
4891.13878373
4891.17792126
4891.21346749
4891.23251772
4891.32084848
4891.28782027
4891.24040145
4891.18512717
4891.13466187
4891.09359918
4891.06345759
4891.04236942
4891.02619501
4891.01243991
4891.00081838
4890.99170504
4890.98616981
4890.98692385
4890.99814272
4891.02237106
4891.0577872
4891.10119217
4891.14093425
4891.17067436
4891.28951851
4891.28551979
4891.2480835
4891.19971455
4891.15756993
4891.12409244
4891.1004417
4891.08208028
4891.06556873
4891.05203589
4891.04035852
4891.03130009
4891.02598541
4891.02382217
4891.02894167
4891.04514224
4891.07253826
4891.1089587
4891.13820519
4891.13937249
4891.24743987
4891.25382831
4891.20486424
4891.13779045
4891.08120836
4891.04088465
4891.01796339
4891.00516583
4890.99499718
4890.98426143
4890.97178056
4890.95851941
4890.94705253
4890.94037615
4890.94494352
4890.96810035
4891.00927991
4891.06313912
4891.10447542
4891.09580161
4891.20040303
4891.21373318
4891.14632206
4891.05952019
4890.99599999
4890.96546425
4890.96326208
4890.97222875
4890.97767614
4890.97439551
4890.96140242
4890.93946661
4890.91185572
4890.88480077
4890.87102433
4890.8824175
4890.92929758
4891.00314365
4891.06249598
4891.04685523
4891.16026912
4891.18151641
4891.09938679
4891.00522454
4890.95375607
4890.9526596
4890.98294467
4891.01892415
4891.0413669
4891.04553077
4891.03077875
4890.99797844
4890.95151816
4890.90067675
4890.85872859
4890.84331816
4890.87540647
4890.95487927
4891.02844072
4891.00499997
4891.13026347
4891.15915519
4891.06918258
4890.98293831
4890.96010683
4890.99733111
4891.06514291
4891.12669897
4891.16411963
4891.17344379
4891.15461805
4891.10849486
4891.04084492
4890.96515454
4890.89665772
4890.85226403
4890.85638624
4890.92424542
4891.00495867
4890.97358848
4891.11173886
4891.14622957
4891.0564062
4890.99056547
4890.99920985
4891.07620142
4891.17748743
4891.26149682
4891.31151683
4891.32462
4891.30028549
4891.23896374
4891.14910257
4891.04797135
4890.95415138
4890.88549981
4890.86447569
4890.91195519
4890.99185617
4890.95427902
4891.10319741
4891.14003861
4891.05488096
4891.01103705
4891.04955367
4891.1583413
4891.28560382
4891.39154222
4891.45460922
4891.47195046
4891.44234303
4891.36533282
4891.25248079
4891.12789657
4891.01217338
4890.92359231
4890.88167303
4890.91006594
4890.98509659
4890.94470745
4891.10024128
4891.13736856
4891.05880706
4891.0327591
4891.09191704
4891.22181748
4891.3689864
4891.49529704
4891.57278641
4891.59570528
4891.56375957
4891.47473616
4891.33966491
4891.19340592
4891.05938832
4890.95339189
4890.89691074
4890.90917727
4890.98027199
4890.94057345
4891.09989553
4891.13733594
4891.06301678
4891.04616476
4891.11563491
4891.25502714
4891.41319632
4891.55077968
4891.63505907
4891.66036474
4891.62717722
4891.53341087
4891.38810152
4891.23035086
4891.08646398
4890.97137313
4890.90683483
4890.91254687
4890.97850556
4890.93952638
4891.10139862
4891.13934094
4891.06491261
4891.04816328
4891.11788806
4891.25767076
4891.4164346
4891.55476929
4891.63952311
4891.665183
4891.631954
4891.53805712
4891.39250088
4891.23425029
4891.08979644
4890.97411588
4890.90918418
4890.9144924
4890.98017115
4890.94105511
4891.10461202
4891.14242629
4891.06424582
4891.03876179
4891.09869247
4891.23006791
4891.37913134
4891.50752775
4891.58646864
4891.61009323
4891.57812731
4891.48889365
4891.35302763
4891.20517496
4891.06931846
4890.96128645
4890.90358856
4890.9143113
4890.98489594
4890.94497836
4891.11010898
4891.14807014
4891.06342524
4891.0204222
4891.06044677
4891.17203066
4891.30206199
4891.41097624
4891.47685593
4891.49578386
4891.46653317
4891.38892161
4891.27437841
4891.14696915
4891.02807473
4890.93649709
4890.89196077
4890.91681821
4890.99217552
4890.9516877
4891.12067666
4891.15598671
4891.06727869
4891.00259446
4891.01303427
4891.09322679
4891.19774258
4891.28513648
4891.33817797
4891.35306253
4891.32939064
4891.26749558
4891.1755938
4891.07144669
4890.97397186
4890.90207624
4890.87877535
4890.92361545
4891.00206572
4890.96369651
4891.14058769
4891.17016038
4891.08171652
4890.99744279
4890.97564554
4891.01502894
4891.08586259
4891.15063337
4891.19070622
4891.20179761
4891.18376438
4891.13739271
4891.06785304
4890.98948117
4890.9179514
4890.87117783
4890.8733301
4890.93869598
4891.01733829
4890.98481311
4891.17146955
4891.19336839
4891.11278951
4891.02048928
4890.9709942
4890.97103309
4891.00273234
4891.04070547
4891.06524383
4891.07100827
4891.05714071
4891.02454818
4890.97672014
4890.92418447
4890.88042025
4890.86363422
4890.89361258
4890.97040389
4891.04199767
4891.01732783
4891.21212379
4891.2261703
4891.16029648
4891.07492889
4891.01339065
4890.9848787
4890.98408065
4890.99422528
4891.00121277
4890.99921009
4890.98702619
4890.96521387
4890.93687486
4890.90832901
4890.89157408
4890.90256275
4890.9471643
4891.01861261
4891.07655553
4891.05985833
4891.2593569
4891.26617811
4891.21803966
4891.1533062
4891.09797415
4891.05960933
4891.03844522
4891.02703935
4891.0181258
4891.00829395
4890.99640165
4890.98368646
4890.97210477
4890.96374294
4890.96613506
4890.98715004
4891.02605075
4891.07854594
4891.11856415
4891.10907019
4891.30157174
4891.29770075
4891.26081019
4891.21383215
4891.17328715
4891.1417131
4891.11911597
4891.10238501
4891.0871286
4891.07413607
4891.06280461
4891.05426587
4891.04840008
4891.04491941
4891.04827711
4891.06276162
4891.08860806
4891.12349641
4891.1520914
4891.15272481
4891.33282604
4891.29987745
4891.25296933
4891.19896465
4891.15016338
4891.11026029
4891.08147032
4891.06158743
4891.04635455
4891.03324992
4891.02203966
4891.01310141
4891.00722038
4891.00695264
4891.01672323
4891.03919519
4891.07307206
4891.1153074
4891.15425013
4891.1842031
4891.30050576
4891.26720769
4891.2217609
4891.16098981
4891.10251127
4891.05050885
4891.00885866
4890.97675774
4890.95139723
4890.93185342
4890.91878475
4890.91288271
4890.91513456
4890.92677455
4890.9496014
4890.98482528
4891.02901337
4891.07849326
4891.11675718
4891.14686402
4891.26894653
4891.24406371
4891.19697266
4891.12794504
4891.0604887
4890.99959126
4890.95049776
4890.8997268
4890.85995898
4890.85176712
4890.84192336
4890.82710245
4890.84312033
4890.86744892
4890.89854711
4890.94269684
4890.99513838
4891.05229813
4891.09247839
4891.11518265
4891.2289861
4891.20236746
4891.14139292
4891.04999082
4890.9466229
4890.86387856
4890.83426315
4890.79524521
4890.75888251
4890.75242332
4890.74118046
4890.72117811
4890.73313454
4890.75094725
4890.76425747
4890.83334392
4890.91570107
4890.99470471
4891.04924449
4891.0736249
4891.17677064
4891.1418132
4891.058924
4890.90256875
4890.7952729
4890.73669615
4890.71825544
4890.72113846
4890.72712174
4890.73150973
4890.71608382
4890.68771017
4890.66061176
4890.65600912
4890.64343687
4890.68320547
4890.77373027
4890.90982598
4890.98677459
4891.01926369
4891.12871324
4891.0846067
4890.96428287
4890.79879876
4890.7201899
4890.74290174
4890.78561742
4890.83889984
4890.86832991
4890.87267456
4890.85096977
4890.80508667
4890.7429538
4890.67798399
4890.63317636
4890.62341928
4890.67828146
4890.82055252
4890.92827477
4890.96933114
4891.0882989
4891.03521227
4890.88748678
4890.73555161
4890.74772558
4890.80237813
4890.90307587
4890.98455378
4891.0273744
4891.03323766
4891.00154013
4890.93433614
4890.84214706
4890.75283489
4890.67664932
4890.61460461
4890.63750841
4890.74955741
4890.87754339
4890.92746078
4891.05932663
4890.99706664
4890.86655985
4890.76373007
4890.80034885
4890.91799285
4891.05994256
4891.15786712
4891.20634416
4891.2087287
4891.16426223
4891.07414575
4890.95797944
4890.84123765
4890.73830619
4890.62920054
4890.64450751
4890.72673732
4890.83916686
4890.89701917
4891.04041599
4890.96155503
4890.82949622
4890.80269111
4890.87689169
4891.03850716
4891.20339559
4891.32229953
4891.37749246
4891.37523951
4891.31752559
4891.20470224
4891.06154209
4890.9230009
4890.80098912
4890.70474408
4890.61792315
4890.71482763
4890.80684367
4890.87654973
4891.02936533
4890.9400881
4890.80827928
4890.83629816
4890.9423949
4891.13123326
4891.31737672
4891.46324818
4891.53350402
4891.53528306
4891.47524578
4891.34264706
4891.16193844
4890.99508633
4890.85446603
4890.73872813
4890.62488093
4890.69003661
4890.78699746
4890.86371898
4891.02495376
4890.94513537
4890.81927856
4890.85710441
4890.98036733
4891.17813981
4891.37879931
4891.53714423
4891.60899326
4891.60750019
4891.54554707
4891.41196464
4891.21795159
4891.03755635
4890.88647526
4890.76227527
4890.63868643
4890.69193134
4890.78289694
4890.85800087
4891.02652999
4890.94941666
4890.82396284
4890.85967889
4890.9837352
4891.18241961
4891.38484846
4891.54490299
4891.61733984
4891.61604221
4891.55391247
4891.41992143
4891.22543207
4891.04396569
4890.89160364
4890.76561267
4890.64261997
4890.69453671
4890.78498161
4890.85976604
4891.03392554
4890.94705663
4890.81811254
4890.84384718
4890.95264224
4891.14506238
4891.33639266
4891.48738104
4891.55950666
4891.56104233
4891.49965548
4891.36732854
4891.18513586
4891.01449697
4890.86975212
4890.74956905
4890.6346714
4890.69596752
4890.79185538
4890.86870144
4891.04755269
4890.97096598
4890.84383563
4890.81429588
4890.89293688
4891.06248024
4891.23246835
4891.35820248
4891.41975684
4891.42032838
4891.3628405
4891.24733712
4891.09913608
4890.95403893
4890.82523541
4890.72325556
4890.62858091
4890.71517706
4890.81357618
4890.88416001
4891.06833462
4891.00705877
4890.88260022
4890.77967301
4890.81940782
4890.94593861
4891.09406802
4891.19899558
4891.25334947
4891.25836811
4891.21400264
4891.1217118
4891.00090733
4890.87764128
4890.7670612
4890.65082386
4890.66408973
4890.74023895
4890.850589
4890.90710276
4891.09891883
4891.04695606
4890.90519468
4890.75742228
4890.76762855
4890.82656122
4890.93557934
4891.02317564
4891.07090686
4891.07927287
4891.04843444
4890.97988665
4890.88266089
4890.7878799
4890.70675665
4890.63352734
4890.66215214
4890.76930444
4890.89093007
4890.9391154
4891.140043
4891.09735194
4890.9802421
4890.81987133
4890.7446572
4890.76583767
4890.81099553
4890.86778068
4890.90263858
4890.90972603
4890.88937879
4890.84301727
4890.77629974
4890.71014757
4890.66251239
4890.65103403
4890.70278975
4890.83923146
4890.9423429
4890.98180178
4891.18857224
4891.15487361
4891.07344591
4890.92314404
4890.81816273
4890.76111393
4890.7492841
4890.76288983
4890.76727789
4890.77195961
4890.75813249
4890.73058241
4890.7027436
4890.68378587
4890.67196395
4890.70880482
4890.79572688
4890.92636231
4891.00086507
4891.03200791
4891.24108922
4891.21504236
4891.15579266
4891.0664569
4890.96792757
4890.89024935
4890.85807888
4890.82431433
4890.78879126
4890.78210177
4890.77102061
4890.75349014
4890.76677405
4890.7803319
4890.79171715
4890.85568837
4890.93384853
4891.01015626
4891.06326331
4891.08664286
4891.28115626
4891.25635913
4891.21035126
4891.14329556
4891.07791768
4891.01887793
4890.97156295
4890.9265834
4890.88733393
4890.8802995
4890.8703416
4890.85797844
4890.87149778
4890.89184501
4890.92041353
4890.96173503
4891.01172694
4891.06730739
4891.10625448
4891.12820504
4891.31275203
4891.27948473
4891.23467899
4891.17527838
4891.11840989
4891.06837318
4891.0285873
4890.99810729
4890.97397725
4890.95524289
4890.94267941
4890.93702414
4890.93881384
4890.94897772
4890.96972011
4891.00263637
4891.04452152
4891.09239402
4891.12950884
4891.16029586
4891.34716163
4891.31294768
4891.27284531
4891.21277019
4891.15556934
4891.10496289
4891.0656191
4891.03777433
4891.01829949
4891.00251681
4890.98839973
4890.97694723
4890.97164289
4890.97769087
4890.99758348
4891.03093715
4891.07388266
4891.12282344
4891.1567681
4891.18652284
4891.31460562
4891.24936999
4891.18906327
4891.09611409
4891.00298777
4890.91417478
4890.84088744
4890.7781759
4890.72582408
4890.71719089
4890.70571503
4890.68765882
4890.71392893
4890.74808858
4890.80336924
4890.87558762
4890.9547213
4891.03574763
4891.09044289
4891.15435185
4891.28036907
4891.19374651
4891.11869446
4891.00435275
4890.67558684
4889.85959749
4889.37537806
4889.21916235
4889.27549913
4889.33816095
4889.32652539
4889.23623017
4889.17763952
4889.35689013
4889.81277839
4890.56751441
4890.85799107
4890.96390564
4891.03488231
4891.11786658
4891.22991368
4891.110666
4891.01448394
4890.34947685
4889.32912832
4889.20639116
4889.95540281
4890.41544554
4890.5005198
4890.49555435
4890.47237707
4890.43077209
4890.21877239
4889.64454895
4888.92722026
4889.32888579
4890.23044359
4890.85158594
4890.94744128
4891.0635665
4891.18485987
4891.03000843
4890.70035273
4889.31676037
4889.37561338
4889.56969377
4889.77576917
4890.54272496
4890.67128222
4890.67860185
4890.64153479
4890.56774108
4890.37476034
4889.98223218
4889.84540418
4889.00485165
4889.35361179
4890.55432767