/*--------------------------------*- C++ -*----------------------------------*\
| =========                 |                                                 |
| \\      /  F ield         | OpenFOAM: The Open Source CFD Toolbox           |
|  \\    /   O peration     | Version:  3.0.1                                 |
|   \\  /    A nd           | Web:      www.OpenFOAM.org                      |
|    \\/     M anipulation  |                                                 |
\*---------------------------------------------------------------------------*/
FoamFile
{
    version     2.0;
    format      ascii;
    class       surfaceVectorField;
    location    "7.7";
    object      Uf;
}
// * * * * * * * * * * * * * * * * * * * * * * * * * * * * * * * * * * * * * //

dimensions      [0 1 -1 0 0 0 0];

internalField   nonuniform List<vector> 
22672
(
(0.00178839227376 0.000424373782604 -0.0013025302496)
(0.000483146534314 0.0016786354948 -0.00130096254874)
(0.0011746492789 0.00111765720566 -0.00346703528466)
(0.00445982730151 3.18520664791e-05 -0.00135292630176)
(0.00278265430589 0.0012508365228 -0.00252051372634)
(0.0037784116224 0.00117887384516 -0.00392228013839)
(0.00711510963138 -7.79457825607e-05 -0.00114957985499)
(0.00602971497263 0.00121638109898 -0.00282771238475)
(0.00670207219164 0.00135267897212 -0.00387167291525)
(0.00906518052686 6.29341010749e-05 -0.000808951806846)
(0.00855006220646 0.00152222983349 -0.00261572104406)
(0.0089312452543 0.00168554008941 -0.00347231110325)
(0.00991265367166 0.000424840035403 -0.000466011033511)
(0.0101061512027 0.00213279360642 -0.00226459571476)
(0.0102779463329 0.0021726646762 -0.00298027815369)
(0.0095500408127 0.000822483113429 -0.000214776148089)
(0.0102615938249 0.00289224126308 -0.00190772143377)
(0.0103000686634 0.00271836435266 -0.00252964078676)
(0.00826673850816 0.00118606437122 -5.6354194782e-05)
(0.00940204939124 0.00350457830885 -0.00166983215072)
(0.00940366352564 0.00311907219399 -0.00222128913209)
(0.00617079027449 0.00152950449195 4.72452100851e-05)
(0.00758302559061 0.00407805865028 -0.00148299051791)
(0.00757534933027 0.00350729633197 -0.00198212395605)
(0.00353911103309 0.00175698656098 8.7357106046e-05)
(0.00505893187003 0.00450158489174 -0.00138630954718)
(0.00505371846084 0.00379342443538 -0.00186991923556)
(0.000657966265666 0.00183888507462 9.71548052721e-05)
(0.00217130512626 0.00472362803087 -0.00135548757449)
(0.00217040883458 0.00394254876676 -0.00184249659002)
(-0.00224156709067 0.00177123293724 9.55154957007e-05)
(-0.000836975455766 0.00473341373488 -0.00134948920242)
(-0.000833624505304 0.00394944218233 -0.00183389326927)
(-0.00492781520198 0.00155547916986 6.5465179447e-05)
(-0.00376179225942 0.00452873644358 -0.0013675754785)
(-0.00375351551357 0.00381240329517 -0.00184250075833)
(-0.00711374350331 0.00121913204153 -2.55230002959e-05)
(-0.00636180487495 0.00411718292763 -0.00144964883539)
(-0.00635020571345 0.00353447033791 -0.00193126669105)
(-0.00851708820342 0.000849910939027 -0.000176382250712)
(-0.00829235315689 0.00354892762989 -0.0016223850856)
(-0.00829020322559 0.00314932703682 -0.00214559484017)
(-0.00900733098691 0.000456440635976 -0.000414871352613)
(-0.00927698169514 0.00293148653329 -0.0018550623428)
(-0.00931365993246 0.00273831787433 -0.00244125580058)
(-0.00833651013431 0.000101936624317 -0.000746121755525)
(-0.00927712772883 0.00219371504736 -0.00219310274223)
(-0.00944352046936 0.00221635055521 -0.00286454844522)
(-0.00656884872929 -4.23742611799e-05 -0.00108566991024)
(-0.0079047588927 0.00158279229892 -0.00254291246813)
(-0.00828467377729 0.00172594994265 -0.00335046707873)
(-0.00410438490898 6.79601560216e-05 -0.00128874369806)
(-0.00557744378876 0.00128124558555 -0.00275462493397)
(-0.00624741393632 0.00139676342964 -0.00374572415292)
(-0.00161924844017 0.00045667745113 -0.00124113600074)
(-0.00252206903914 0.00131386040728 -0.00245381044903)
(-0.00351888880468 0.00122051303284 -0.00379901403175)
(-0.00039347889658 0.00173158464647 -0.00124192562765)
(-0.00109029922429 0.00114799561756 -0.00335084584542)
(0.00136265058986 0.00261427481541 -0.00251894602549)
(9.34438951387e-05 0.00423675570696 -0.00135454901891)
(0.00124387605244 0.00361114122432 -0.0039207788869)
(0.00447109114745 0.00256216103236 -0.00399529980933)
(0.00273377537548 0.00424378848815 -0.00399637462475)
(0.00402025976074 0.00383827569325 -0.00610140160376)
(0.00756651501146 0.00296436073436 -0.00429385357383)
(0.00651798326237 0.00467702074796 -0.00470742704528)
(0.00707703855663 0.00435661011528 -0.00655607350929)
(0.00969777586492 0.00377253677905 -0.00407136495197)
(0.0093481450604 0.00560040966178 -0.00449031003769)
(0.00929929576224 0.00522441600574 -0.00620945167645)
(0.0105439867524 0.00481990419303 -0.00370630611502)
(0.010944856209 0.0069052891988 -0.00400690254067)
(0.0104964970594 0.0063414615627 -0.00561871861526)
(0.0101379328083 0.00582849680127 -0.0033627774364)
(0.0110845539399 0.0083109636412 -0.00351092811816)
(0.0104906358985 0.00749256144032 -0.00501268163453)
(0.00866850028419 0.00667884855957 -0.00309646847385)
(0.0100318944187 0.00950075408886 -0.00313576499193)
(0.00946292524031 0.00845305205237 -0.0045267572455)
(0.00641567029333 0.007357669642 -0.00291654527518)
(0.00800600371504 0.0105019839539 -0.00287714964632)
(0.00756247437404 0.00925448427239 -0.00417110970044)
(0.00366260662445 0.00779262279896 -0.00282915422772)
(0.00530172784661 0.0112251641534 -0.00274385785295)
(0.00503393681416 0.0098297762966 -0.00397052996814)
(0.000676766749199 0.007948591292 -0.00280213158218)
(0.0022600320351 0.0116027622735 -0.00269841489211)
(0.00217164337241 0.0101320760698 -0.00389330840097)
(-0.00232901261057 0.00781617365154 -0.00281258017662)
(-0.000893098143775 0.0116199785898 -0.00268976431083)
(-0.000805225244402 0.010147244932 -0.00388079900424)
(-0.00514064566098 0.00739953965425 -0.00288268949334)
(-0.00397674910298 0.011272402435 -0.00271757986539)
(-0.00370793694888 0.00987120681152 -0.00393204590036)
(-0.0074856677086 0.00673096873955 -0.00304651092069)
(-0.00676293518356 0.0105681105127 -0.00283359199016)
(-0.00631492617286 0.00931215268707 -0.00410591805792)
(-0.0090719859254 0.0058852411579 -0.00330106517769)
(-0.00890240701311 0.00957291617257 -0.00307796870387)
(-0.00832602020283 0.0085158662715 -0.00443768263856)
(-0.00962330950771 0.00488934886852 -0.00363329373241)
(-0.0100823149918 0.00838705673299 -0.00344211014772)
(-0.00948156011062 0.00755863972341 -0.00490425906928)
(-0.00894619885268 0.0038571205601 -0.00398989345483)
(-0.0101001999824 0.00700490276573 -0.00392292431645)
(-0.00964251816952 0.00642652342527 -0.00548831139658)
(-0.00700609239745 0.00305640082314 -0.00421186749185)
(-0.00868637113409 0.0057094966767 -0.0043997209496)
(-0.00862370253318 0.00532061302867 -0.00606682486844)
(-0.00410874249216 0.00265610107071 -0.00391969168494)
(-0.00605627097406 0.00479373347953 -0.00461814356804)
(-0.0065961391942 0.00446138679665 -0.00640985340274)
(-0.00119099343847 0.00269966324973 -0.00245460007594)
(-0.00246856509625 0.00435868784366 -0.00391972034213)
(-0.00373461097778 0.00394073928898 -0.00596259430127)
(-1.23928735915e-06 0.00433644127304 -0.00129329297459)
(-0.00114466069166 0.00369343829744 -0.00379586293205)
(0.00133116979029 0.0057519227818 -0.00283197761817)
(-1.50528389642e-05 0.0067900671812 -0.00115788590174)
(0.00142228070381 0.00642149661939 -0.00388448887686)
(0.00490761256376 0.00623549529505 -0.00470850186069)
(0.00313730392312 0.00723147349069 -0.00429987787521)
(0.0045454213793 0.00678241361246 -0.00656413623162)
(0.00840519848369 0.00717530888248 -0.00490388350914)
(0.00745953936444 0.00806638050105 -0.00490831958397)
(0.00788407790394 0.00758386631013 -0.006886955061)
(0.0107237619809 0.0085644719606 -0.00442584762639)
(0.0106146765698 0.00945619181192 -0.00438344953071)
(0.0102161389937 0.00884350339679 -0.00617435613074)
(0.0115661292884 0.010180967768 -0.00381152454382)
(0.0122832145214 0.0112307421024 -0.00356049455215)
(0.0113656532696 0.0103931955605 -0.00516783194896)
(0.0110142905766 0.0117162692671 -0.00328391567369)
(0.01232102877 0.013060729828 -0.00279020288902)
(0.0112410091953 0.0119688878035 -0.00419794037939)
(0.00932343182366 0.0130078201675 -0.0029164461644)
(0.0110191331575 0.0146364336232 -0.00222971931028)
(0.0100178270689 0.0133284563639 -0.00344483453309)
(0.00683610658846 0.0140098413424 -0.00270446222409)
(0.00869431270045 0.0159291668881 -0.00188891138389)
(0.00792495078126 0.0144318994904 -0.00293987184322)
(0.0038719763569 0.0146467168932 -0.00261311851735)
(0.00570316492108 0.0168562249863 -0.00173415347564)
(0.0052394846688 0.015219976704 -0.00266694466571)
(0.000690896892494 0.014875149297 -0.00258604762076)
(0.00240062582906 0.0173424013113 -0.00168871614596)
(0.00224535063482 0.0156363205637 -0.0025585731849)
(-0.0025135096034 0.01468587215 -0.0025947639996)
(-0.00100278847562 0.0173672806441 -0.00167800558829)
(-0.000857582718044 0.0156606209112 -0.00254290850931)
(-0.00554390972108 0.0140781683741 -0.00266848236221)
(-0.00435597862937 0.0169237273906 -0.0017027095058)
(-0.00389934391535 0.0152861119279 -0.00262093708237)
(-0.00812957284282 0.0130904112236 -0.00286504977333)
(-0.00744024646131 0.0160207582509 -0.00184006546542)
(-0.00667180316397 0.0145224826568 -0.00286699624965)
(-0.00994007040574 0.0118052748705 -0.0032190136739)
(-0.00988292771725 0.0147325522396 -0.00216795024679)
(-0.0088771542313 0.0134252609825 -0.0033491497677)
(-0.0106345671608 0.010284486225 -0.00373174073176)
(-0.011311612128 0.0131606083181 -0.00271436499383)
(-0.0102266446611 0.0120707538227 -0.00407906613532)
(-0.00995967376035 0.00868519557932 -0.00433275181122)
(-0.0114254877644 0.0113526572102 -0.00346567766577)
(-0.0105006997846 0.0105126910422 -0.00502265974056)
(-0.00783300830217 0.00730629066261 -0.00480599702579)
(-0.00993887138094 0.00959204074337 -0.0042765212181)
(-0.00952445416006 0.00897612074401 -0.00600922259268)
(-0.00453781434206 0.00637053215317 -0.00461817222523)
(-0.00698658711859 0.00821301124482 -0.00480070767841)
(-0.00738612721915 0.0077273303785 -0.00671448661897)
(-0.0011570246412 0.00587841123555 -0.00275841324078)
(-0.00286542915332 0.00737901789677 -0.00420827698153)
(-0.00424436530818 0.00692716594565 -0.00640113703021)
(0.000109804064554 0.00692114594921 -0.00108841912826)
(-0.00131458262169 0.00655042418211 -0.00374174176443)
(0.00163625319404 0.00817341965383 -0.00262578615878)
(0.000127764582329 0.00865091718902 -0.000820976834642)
(0.00175649032162 0.00854913377621 -0.00349710976046)
(0.00583083726854 0.00896286443764 -0.00449969559849)
(0.00394408428483 0.00926928590869 -0.00408464752253)
(0.00541412149469 0.00890219877328 -0.00623240380692)
(0.00979583177569 0.0102268052982 -0.00438788560553)
(0.00884850834081 0.0102915131495 -0.00444050521324)
(0.00914501183429 0.00981479849798 -0.0061901354717)
(0.0123282464843 0.0119655036525 -0.00351809645646)
(0.0123533374797 0.0118956158986 -0.00352452581783)
(0.0116450983653 0.0112437813676 -0.00497184836701)
(0.0131307518369 0.0139137672605 -0.00253917289735)
(0.0141049110154 0.0138767347174 -0.00228381931624)
(0.0127576249423 0.0129709477611 -0.00344850899215)
(0.0123492364021 0.015753846009 -0.00173600652561)
(0.0139911788305 0.0158850336808 -0.0011616200385)
(0.012442651506 0.0147073986264 -0.00204280079581)
(0.0103367225941 0.0173104298683 -0.00120218452977)
(0.012384682032 0.017624035177 -0.000328065999821)
(0.0109431078063 0.0162235595494 -0.0009751010976)
(0.00750122779721 0.0185129745101 -0.000918602635441)
(0.00967882668459 0.0190524582021 0.000193222666658)
(0.00855643974989 0.0174535407239 -0.000287810292392)
(0.00420505745527 0.019279004836 -0.000809751104258)
(0.00629435127158 0.0200792889223 0.000444649904362)
(0.00560526420278 0.018331415362 7.30927758129e-05)
(0.000708127090104 0.0195575023642 -0.00078067411349)
(0.00261004409287 0.0206248098619 0.000528206541693)
(0.00237378417605 0.0188002097476 0.000214508776748)
(-0.00281752455897 0.0193314797915 -0.000785951094496)
(-0.00117099341795 0.0206570749395 0.000543842650163)
(-0.000957869528063 0.0188326112472 0.000235845168125)
(-0.00619263479292 0.0186027430883 -0.000874292609012)
(-0.00492061237853 0.0201655784779 0.000488358182577)
(-0.00424882893399 0.0184188305352 0.000133247901014)
(-0.00913739223197 0.0174149001036 -0.00114296593888)
(-0.00841689889766 0.0191649645875 0.000254867292104)
(-0.00730228683153 0.017570313139 -0.000199459266791)
(-0.0112714128948 0.0158606183439 -0.00166330156672)
(-0.0112493653986 0.0177348577314 -0.000257596599936)
(-0.00980734118414 0.0163436108674 -0.000868294573886)
(-0.0121890986427 0.0140314457199 -0.00244830192784)
(-0.0129792988716 0.0159915299883 -0.00107902614359)
(-0.0114287826737 0.0148260264669 -0.00191324552498)
(-0.0115496641941 0.0121008969839 -0.00340944707265)
(-0.0132356818941 0.0140014765186 -0.00217808428519)
(-0.0118838147329 0.0131025668051 -0.00328826390028)
(-0.00920895125294 0.0103755702957 -0.00427123187072)
(-0.0116629672263 0.0120354916958 -0.00340036145065)
(-0.0109389873994 0.0113891804106 -0.00478417532008)
(-0.00545031729852 0.00911859599488 -0.00439081243471)
(-0.00836304505699 0.0104443303459 -0.00431323047371)
(-0.00863111648781 0.00997346553149 -0.00598996653671)
(-0.00145640666361 0.00832191586967 -0.00253828286901)
(-0.00366476610342 0.00942608992538 -0.00397446034592)
(-0.00509975686809 0.00906631404137 -0.00604099871714)
(-3.01461837093e-05 0.00879270261912 -0.000739608972249)
(-0.00164094998653 0.00870128273018 -0.0033279749452)
(0.00224813220422 0.00964403715202 -0.00227983819839)
(0.000488209506465 0.00942161759209 -0.000486309651983)
(0.00224688002295 0.00980849464479 -0.00301883800679)
(0.0071348006094 0.0104741233257 -0.00402545713728)
(0.00498738360954 0.0100403810065 -0.00372902652293)
(0.0065293564551 0.0100148086296 -0.00565776961464)
(0.0115694837554 0.0118105998928 -0.00357714542553)
(0.0104622479539 0.0110592482035 -0.00383832198523)
(0.010694002563 0.0108819716067 -0.00520242546771)
(0.0143075981617 0.0136332259458 -0.00229024867761)
(0.0142990136455 0.012624427094 -0.00255737732822)
(0.0133704990532 0.0122763304285 -0.00346693441097)
(0.0150513248131 0.0156676062827 -0.000906266457394)
(0.0161364243785 0.0145478796102 -0.000910383387337)
(0.0144375078152 0.0139599218653 -0.00141488215056)
(0.0140196753155 0.0175828768399 0.000246320487286)
(0.0158296796148 0.0164734349735 0.000581430214733)
(0.01391971136 0.0156711786884 0.000443235912616)
(0.0116498164554 0.0192030356763 0.00106734119661)
(0.0139036585651 0.0181527154123 0.00169851315737)
(0.0121381742605 0.0171771239269 0.00184116510765)
(0.00840126098581 0.0204625442218 0.00155647520646)
(0.0107913948742 0.0195419369839 0.00242976931556)
(0.00942687906577 0.0184129255104 0.00275906262356)
(0.00467167023684 0.0212742082534 0.00178260755031)
(0.00697212006519 0.0205532822656 0.00280559389905)
(0.00613770484419 0.0193046991804 0.00325558349591)
(0.000731990338275 0.0215758244537 0.00185272330535)
(0.00285404187454 0.0211026943591 0.00294349929111)
(0.00256711600157 0.0197893595591 0.00346178220853)
(-0.00324508331445 0.021340315996 0.00181815192724)
(-0.00136433018118 0.0211420424794 0.00296774925629)
(-0.00110927695288 0.0198302971733 0.00349209398934)
(-0.00707432034473 0.0205719657806 0.00161751808369)
(-0.00556938481497 0.0206576260953 0.00286991980382)
(-0.00475837241031 0.0194139591224 0.00333717852137)
(-0.0104505289665 0.019323123101 0.00114023663105)
(-0.00952831143282 0.0196749192367 0.00250971173923)
(-0.00817522725729 0.0185546074801 0.00286624430191)
(-0.0129463310457 0.0176956982087 0.000326678823191)
(-0.0127802745222 0.0182766318169 0.00177493260994)
(-0.0110185782732 0.0173147401245 0.00195401930847)
(-0.0141057429897 0.0157836384858 -0.000808808500949)
(-0.0148235916522 0.016581676498 0.000660886810375)
(-0.0129168923514 0.015795688985 0.000569257196533)
(-0.0135171087053 0.0137636961936 -0.00216899866319)
(-0.0152582762633 0.0146644610407 -0.000803055152689)
(-0.0135606634202 0.0140889750766 -0.00125162740474)
(-0.0109688894216 0.011954428438 -0.00344236005364)
(-0.0135954335774 0.012752333293 -0.00242354991813)
(-0.0126525147319 0.0124153595244 -0.00326507074355)
(-0.00674434034061 0.0106269133228 -0.00389687838493)
(-0.00996410249987 0.01119878244 -0.00369627443683)
(-0.0101663946599 0.0110349730263 -0.00497901320672)
(-0.00206392398181 0.00979183939335 -0.00217578644917)
(-0.0047007761673 0.0101836739988 -0.00360361633)
(-0.00620572133398 0.0101751278877 -0.0054380151286)
(-0.000386725376392 0.00955072339478 -0.000395429196866)
(-0.00212590133992 0.00995904108377 -0.00282195542912)
(0.00300127942086 0.00973542769651 -0.00193549797652)
(0.000884859249108 0.0090085220171 -0.000243161071802)
(0.00278643368102 0.00976895057162 -0.00258818802388)
(0.0085348107839 0.0105480825914 -0.00354189137088)
(0.00599244617819 0.00957732357146 -0.0033956185911)
(0.0076755447589 0.00994461550463 -0.00507047880996)
(0.0133952791629 0.0117831376584 -0.00281855388792)
(0.0119948951852 0.0104491288741 -0.00332119931608)
(0.0122663695089 0.0106933252427 -0.00425035533813)
(0.0163115801108 0.0134552447882 -0.00117751203795)
(0.0161368906557 0.0117826793722 -0.00176198872112)
(0.0151032719421 0.0118982229969 -0.00207456148553)
(0.0169716645325 0.0152983641174 0.00057731328479)
(0.0180499568324 0.0134542779658 0.000237883091567)
(0.0161434636335 0.0133799276909 0.000433506645429)
(0.0156730455922 0.0170171648997 0.00203362288482)
(0.0175452108152 0.015112375175 0.00203610041537)
(0.0154213772719 0.0148880895018 0.00265966594795)
(0.0129391336505 0.0184885482511 0.00306094127632)
(0.0153283557514 0.01656850879 0.0033656563998)
(0.0133670137494 0.0162356128514 0.00431810409763)
(0.00927965564083 0.019648567156 0.00367888800815)
(0.0118365147178 0.017797768893 0.00425211264759)
(0.0103307238966 0.0173586107257 0.005403630771)
(0.00512575917973 0.0204092234409 0.00396648563985)
(0.00760898533961 0.0187133832354 0.00471694790357)
(0.00669533870501 0.0181838319539 0.00599378017108)
(0.000757679606294 0.0207002574596 0.00405852524205)
(0.00308627540005 0.0192288736411 0.00489880981301)
(0.00277387074656 0.0186446327716 0.00624188571576)
(-0.00365902771935 0.0204863528077 0.00401951713287)
(-0.00153951667086 0.0192727584717 0.00493375661955)
(-0.00126178552153 0.0186928877949 0.00628597801305)
(-0.0079397755396 0.0197756692881 0.00376211345935)
(-0.00617430185724 0.0188294656867 0.00480573755041)
(-0.00528686341579 0.0183127696973 0.00610889645896)
(-0.0117510586871 0.0186251721368 0.00314440771812)
(-0.0105752213015 0.0179459082462 0.00435026837389)
(-0.00908546520466 0.0175253134979 0.00554028401745)
(-0.0146152777982 0.0171374330045 0.00210914059712)
(-0.0142240689616 0.0167062425459 0.00344361239265)
(-0.0122741840537 0.0163937116617 0.00443459973621)
(-0.016028705722 0.0154092336721 0.000666640158636)
(-0.0165540277479 0.0152264904634 0.00210576916302)
(-0.0144403175315 0.0150210039756 0.00276860624846)
(-0.0155109640992 0.0135717931492 -0.00105760640762)
(-0.0171691472083 0.0135654932357 0.000338512518814)
(-0.0152697553972 0.0135038975124 0.000581218501476)
(-0.0127809352186 0.0119082289472 -0.00267746430132)
(-0.0154250520415 0.01189674385 -0.00162920001191)
(-0.0143771620673 0.0120227671351 -0.0018744481723)
(-0.00813308728754 0.0106783037334 -0.00340301238191)
(-0.0114867897503 0.0105674192182 -0.00317263679621)
(-0.0117267405341 0.0108267926074 -0.00401649554903)
(-0.00281039692465 0.00986018586427 -0.0018232590777)
(-0.00570023823679 0.00969585201628 -0.00326250876559)
(-0.00734340028329 0.0100819773793 -0.00483488184031)
(-0.000781492787146 0.00911665255826 -0.000148450367908)
(-0.00265755099698 0.00989672688715 -0.00237633589233)
(0.00361550733196 0.00882904613836 -0.00170328168638)
(0.00124884898834 0.00768341369943 -8.96406131763e-05)
(0.00319125117017 0.00882650889918 -0.00229040183058)
(0.00972465152248 0.0094463938491 -0.0031749265363)
(0.00683969645679 0.00806678705818 -0.00313825584447)
(0.00863495810701 0.00886959120891 -0.00459861120414)
(0.0149708083912 0.0104280912416 -0.00226463414928)
(0.0132825208187 0.0087124732965 -0.00296243787376)
(0.013623716904 0.00941974504026 -0.00350950654298)
(0.0180503681815 0.0117907761635 -0.000346593591604)
(0.0176891253604 0.00971690625626 -0.00123531548203)
(0.0166156944357 0.0103428002062 -0.00101379443716)
(0.0186503264191 0.0133105234965 0.00169667022215)
(0.0196668710508 0.0110229661411 0.00105575647406)
(0.0176444216922 0.011537524918 0.00183134282748)
(0.0171301491123 0.0147351414201 0.00336813393035)
(0.019012897316 0.012310132831 0.00306667331487)
(0.0167645392932 0.0127683000867 0.00432240594839)
(0.0140872683813 0.0159774236071 0.00455682777107)
(0.0165710220145 0.0134499147972 0.00455956727408)
(0.0144892547645 0.0138886519693 0.00616145864877)
(0.0100666826227 0.0169835427067 0.00529017254301)
(0.0127630953605 0.0144331671597 0.00559610913539)
(0.011171237093 0.0148466998339 0.00738516998421)
(0.00553938453584 0.0176504205357 0.00564927207673)
(0.0081610911933 0.015172492228 0.00618556596185)
(0.00722493384469 0.0155760362945 0.00806817122786)
(0.000787350424501 0.0179054267974 0.00577404119051)
(0.00328909461025 0.0156068108759 0.00627425940523)
(0.0029780516346 0.0159884998946 0.00837407963296)
(-0.00402548473168 0.0177303066508 0.00571997703709)
(-0.00168746608299 0.0156499708094 0.00630273521442)
(-0.00139655394368 0.0160387961515 0.00843560694186)
(-0.00870819486441 0.0171191130805 0.00539389246494)
(-0.00668967129043 0.0152859470427 0.00628438100868)
(-0.00577344717789 0.0157124109788 0.00822621477507)
(-0.0129078885818 0.0161258099781 0.00464947304841)
(-0.0114949926315 0.014580595853 0.00571592242554)
(-0.00992165291587 0.0150261190596 0.00756499425722)
(-0.0160921700522 0.0148652756604 0.00344024095855)
(-0.0154832947041 0.013591244224 0.00464379029997)
(-0.0134194279837 0.0140617998575 0.00629927003976)
(-0.0177198639836 0.0134239714091 0.0017776415232)
(-0.0180409278765 0.0124282698257 0.00313389241776)
(-0.0158114337189 0.0129135938906 0.00442590641341)
(-0.0172504217874 0.0118998373138 -0.000233081085472)
(-0.018793689046 0.0111313421065 0.0011529978152)
(-0.0167858745672 0.0116636545322 0.00196470138642)
(-0.014350400258 0.0105365556433 -0.00212437250679)
(-0.0169791220332 0.00981996164768 -0.00110252659342)
(-0.0158923775926 0.0104586509255 -0.00082324751704)
(-0.00931749430957 0.00955393771284 -0.00303213317989)
(-0.0127735485036 0.00880981083959 -0.00281156286726)
(-0.0130801223574 0.00953291350148 -0.00327530762062)
(-0.00342384936418 0.0089307379486 -0.00158770005579)
(-0.00654768551261 0.00815970519315 -0.00300213572873)
(-0.00830042678915 0.00898122006032 -0.00435751062723)
(-0.00114818274872 0.00776721685474 4.55648815775e-06)
(-0.00306264931989 0.00892946674133 -0.00207442278449)
(0.00418399110813 0.00697389022883 -0.00152461477126)
(0.00158618285721 0.00556287107414 8.11704380879e-06)
(0.00357593628812 0.00696371195975 -0.0020634497138)
(0.0107197739298 0.00738141126389 -0.00292576718193)
(0.00750963995809 0.00578868189389 -0.00296809351831)
(0.00942993391831 0.0069339632029 -0.00425767960147)
(0.016255801609 0.00805702954899 -0.00193311920651)
(0.0142718804315 0.00619413964499 -0.00276061458513)
(0.0147167097523 0.00728664857257 -0.00301769802413)
(0.0194709753398 0.00902825475686 0.000167034583638)
(0.0188759796835 0.00684111194137 -0.000964302130735)
(0.0178324477157 0.00790585537537 -0.000339386499528)
(0.0200322190977 0.0101305108412 0.00242575956678)
(0.0209111762663 0.00772129710339 0.00153245211882)
(0.0188671036628 0.00876468976819 0.00274041444428)
(0.018354595296 0.0111649887621 0.0042581066586)
(0.0201571717664 0.00858407577885 0.00367599916045)
(0.0178756126623 0.00965830147228 0.00540366620372)
(0.0150734498518 0.0120807007489 0.00559884863841)
(0.0175657429665 0.00935017742552 0.00528614697922)
(0.0154424138161 0.0104834047603 0.00738086490223)
(0.0107458568674 0.0128063749355 0.00649150255423)
(0.0134883656437 0.0100136648739 0.00648257225718)
(0.0119081782018 0.0112104107194 0.00874707513723)
(0.00585515214984 0.0133172148454 0.00681055329035)
(0.0086236357947 0.0104855039404 0.00685402913204)
(0.00768566643222 0.0117541555569 0.00957767195293)
(0.000808274892496 0.0135540283369 0.00680295342914)
(0.00344700270178 0.0108040403101 0.00684489877908)
(0.00316041613636 0.0121061794574 0.00984962711573)
(-0.00430070164112 0.0133956398643 0.00686713918602)
(-0.00180834791357 0.0108411843955 0.00686907412212)
(-0.00150990495468 0.0121540737488 0.0099177436388)
(-0.00935889220934 0.0129306539917 0.00660641096928)
(-0.00712472113162 0.0105753801749 0.00693714259155)
(-0.00618456558134 0.0118789406332 0.00976874031657)
(-0.0138941077703 0.012219687953 0.00571023967709)
(-0.0122124844331 0.0101328384288 0.006598093331)
(-0.0106397549531 0.0113722247933 0.00898295855112)
(-0.0173328088015 0.0112930965182 0.00433744175918)
(-0.0164837762147 0.00947115247784 0.00538844360469)
(-0.0143847899405 0.0106466103273 0.00755878112606)
(-0.0191193309758 0.0102413730217 0.00250924870975)
(-0.0192014497397 0.00868858848941 0.00375437854275)
(-0.0169471465411 0.00979952490651 0.00552619419171)
(-0.0186819196048 0.00912866228149 0.000283552307251)
(-0.0200508180371 0.00781570565686 0.00163762820356)
(-0.0180290714688 0.00888567900876 0.00287821703976)
(-0.015641752076 0.00814826937856 -0.00178971695388)
(-0.018176442087 0.0069258694258 -0.000823912789118)
(-0.0171236475063 0.00801119363051 -0.000146083469117)
(-0.0103166319044 0.00746457256061 -0.00278156541611)
(-0.0137709266553 0.00626837980511 -0.00260782405349)
(-0.0141829650781 0.00737828319377 -0.00278369880005)
(-0.00399585125516 0.00704984434912 -0.00140987918478)
(-0.00722314702393 0.00585567957095 -0.00283214901825)
(-0.00910155948071 0.00701816637029 -0.00401676689956)
(-0.00148977051189 0.00562340306287 9.92537369749e-05)
(-0.00345069171417 0.0070392922147 -0.00185204612735)
(0.00459766602126 0.00443402105276 -0.00143536170324)
(0.00180530248811 0.00292650169765 4.38453471219e-05)
(0.0038546201363 0.00442795095526 -0.00196129607822)
(0.0114275573754 0.00465813569244 -0.00280294092151)
(0.00793078555967 0.00303066200346 -0.00288966110316)
(0.00999099198678 0.00439014782299 -0.0040718715931)
(0.0171623648431 0.00503952333186 -0.00179179750935)
(0.0148875403065 0.0032212569753 -0.00268039988229)
(0.0154829209722 0.00458003004206 -0.00276192724959)
(0.0204743082446 0.00560629634907 0.000401115404442)
(0.0196148530364 0.00353040409415 -0.000872088477198)
(0.0186823035167 0.00492453032331 -1.24159715593e-06)
(0.0210187830977 0.00625926922902 0.00278269171248)
(0.0216927214638 0.00396776266553 0.00173639267729)
(0.0197286655967 0.00543258017823 0.00320904907872)
(0.0192476055534 0.00687019507895 0.00470403948107)
(0.0208850995204 0.00439394298331 0.00393734582619)
(0.0186699555793 0.00596424611236 0.0059612951494)
(0.015798996235 0.00739809747051 0.00616987059799)
(0.018204656931 0.00477466822146 0.00561480651628)
(0.0161469924596 0.00646179344047 0.00802409913891)
(0.0112116873124 0.00785106852405 0.00684509883498)
(0.0139731644122 0.00506955622983 0.00679348693725)
(0.0124425068064 0.00689517032485 0.00953139511664)
(0.0061241043184 0.00818972580849 0.00688837462077)
(0.00895372336431 0.00533547049138 0.00687442717458)
(0.00805720488987 0.00726000579768 0.0102375924213)
(0.000820213014313 0.00832933184189 0.00691101947207)
(0.00355750325178 0.00550815859812 0.00692509289169)
(0.00329488315762 0.00747528595806 0.0105997490035)
(-0.00455235353604 0.00824220237022 0.00693907752765)
(-0.00189796504827 0.00552802656984 0.00695967341847)
(-0.00159338882285 0.00750671049869 0.0106857017314)
(-0.0098165086 0.00794067869264 0.00692882495326)
(-0.0074396849118 0.00538448605564 0.00695127495024)
(-0.00651582317509 0.00734511707353 0.0104550289621)
(-0.0146124670509 0.00750111011105 0.00627629725859)
(-0.0127008962818 0.00513694116328 0.00686109364717)
(-0.0111566040305 0.00701118732965 0.00979183866199)
(-0.0182337517659 0.00696666597711 0.00480538038826)
(-0.0171171413448 0.00484424663958 0.00573851161845)
(-0.0150877627444 0.00657853747814 0.00824817690481)
(-0.0201203630222 0.00634507682616 0.00288275803656)
(-0.0199386017847 0.00445603930037 0.00403291841464)
(-0.0177569270822 0.00606961440438 0.00611914978266)
(-0.019699553393 0.00568260639865 0.000530163107194)
(-0.0208425998127 0.00402491582064 0.00185514751867)
(-0.0189098852934 0.00552435326428 0.00336997143286)
(-0.0165602462482 0.00510549636114 -0.00164201988872)
(-0.0189255772606 0.00358194102522 -0.000722100102447)
(-0.0179919496715 0.00500266343221 0.000204612852294)
(-0.0110335165966 0.00471523286871 -0.00265840765563)
(-0.0143955157876 0.00326616876164 -0.00252533435348)
(-0.0149636186166 0.00464442999665 -0.00252452814656)
(-0.0044157043917 0.0044852266197 -0.00132301609649)
(-0.00765037495022 0.00307115016201 -0.00275478799352)
(-0.00967277153815 0.00444679047493 -0.0038332943004)
(-0.00171301021452 0.00296408022205 0.000132708436236)
(-0.00373532143396 0.00447821856348 -0.00175638994541)
(0.00480781582552 0.0015526968583 -0.0014104540528)
(0.00187881934543 6.02692365132e-05 5.0079987274e-05)
(0.00399498009028 0.00155189691131 -0.00194158093988)
(0.0117848893359 0.00162221661384 -0.00276712006395)
(0.00807179335584 6.11833611662e-05 -0.00287031874819)
(0.0102750568274 0.00153532715221 -0.00400759309582)
(0.0176204466701 0.00174063623221 -0.00176069085014)
(0.0150921661278 5.7594020249e-05 -0.00266369198628)
(0.0158710697547 0.00159137312958 -0.00267189508204)
(0.0209856699084 0.00192125113337 0.000463188795648)
(0.0198623230722 5.23763950857e-05 -0.000858759200015)
(0.0191143798532 0.00169630967842 0.0001127998307)
(0.0215292722689 0.00213227998435 0.002891046791)
(0.0219566805225 4.70450399839e-05 0.00178300650131)
(0.0201702893714 0.00185960290446 0.00337710565103)
(0.0197228442853 0.00232885713699 0.0048481128614)
(0.0211332332279 4.20466207851e-05 0.00399589735526)