/*--------------------------------*- C++ -*----------------------------------*\
| =========                 |                                                 |
| \\      /  F ield         | OpenFOAM: The Open Source CFD Toolbox           |
|  \\    /   O peration     | Version:  3.0.1                                 |
|   \\  /    A nd           | Web:      www.OpenFOAM.org                      |
|    \\/     M anipulation  |                                                 |
\*---------------------------------------------------------------------------*/
FoamFile
{
    version     2.0;
    format      ascii;
    class       volVectorField;
    location    "3";
    object      ddt0(U);
}
// * * * * * * * * * * * * * * * * * * * * * * * * * * * * * * * * * * * * * //

dimensions      [0 1 -2 0 0 0 0];

internalField   nonuniform List<vector> 
7968
(
(0.00037168382013 0.000371731416759 -0.0006839703469)
(0.00128583424254 0.000169884860274 -0.000659699903067)
(0.00233998236321 3.22218815622e-05 -0.000527035160915)
(0.00311492603842 -6.73543469942e-05 -0.000296158914224)
(0.00355158772119 -0.000105063174505 -4.13401585496e-05)
(0.00348409736479 -9.23467835684e-05 0.000178956327925)
(0.00311892975881 -8.57640043607e-05 0.000331010592947)
(0.00243453126783 -3.95856512287e-05 0.000441059389271)
(0.0015326170423 6.42494064715e-06 0.000498561979712)
(0.000523713500542 3.20372082036e-05 0.000520159740824)
(-0.000519659868621 3.20889421609e-05 0.000520163603119)
(-0.00152895285534 6.53101160054e-06 0.000498591746858)
(-0.00243149785936 -3.94756072028e-05 0.000441046171872)
(-0.00311657930549 -8.57150121128e-05 0.000331013225538)
(-0.0034825915767 -9.24622074417e-05 0.000178881885849)
(-0.00355078096653 -0.000105329980455 -4.1533678363e-05)
(-0.00311401182464 -6.79173557185e-05 -0.000296495292767)
(-0.00233882160669 3.15330033101e-05 -0.000527291587816)
(-0.00128425310696 0.000169361199224 -0.000659384127761)
(-0.000371321998334 0.000371521877988 -0.000683060043739)
(0.000169835522911 0.00128648583405 -0.000659520066682)
(0.00112402027142 0.00112496441502 -0.00119187160104)
(0.0023161129043 0.0010186172568 -0.00130448397727)
(0.00316957561504 0.000961277408071 -0.00116646749787)
(0.00362123804322 0.000976610985291 -0.000938656793452)
(0.00358433040357 0.00102323661659 -0.00071227711505)
(0.00318451818898 0.00104453516467 -0.000532864944435)
(0.00247472060362 0.00108486732617 -0.000399906770982)
(0.0015534972794 0.00112163552804 -0.000324371186537)
(0.000530786830779 0.0011405593908 -0.000294365510879)
(-0.000522501324892 0.00114057811953 -0.000294247453489)
(-0.00154572267257 0.00112162132291 -0.000324085558898)
(-0.00246784200611 0.00108486181289 -0.000399479874793)
(-0.00317890207132 0.00104451302689 -0.000532357124429)
(-0.00358006362937 0.00102315558041 -0.000711948419375)
(-0.00361818451656 0.000976375976099 -0.000938547402754)
(-0.00316714174987 0.000960699135244 -0.00116670592026)
(-0.00231406124062 0.00101782220788 -0.00130477922658)
(-0.00112224040824 0.00112418249966 -0.00119172903941)
(-0.000169362348219 0.00128594351747 -0.000659069769019)
(3.20748090977e-05 0.00234020040385 -0.00052668738141)
(0.00101725239787 0.00231721500068 -0.00130413299755)
(0.00227540492496 0.00227752543694 -0.00145949993021)
(0.00316241623379 0.00227640045802 -0.0013006576966)
(0.00361485052476 0.00232845381409 -0.00104561135663)
(0.00358613987127 0.00239466437953 -0.00080461783134)
(0.00317598404075 0.00242943318351 -0.000623023728964)
(0.00246693580007 0.002474070294 -0.000499297539181)
(0.00155009490499 0.00251804166933 -0.000432039493161)
(0.000530301994707 0.0025418904494 -0.000406729325196)
(-0.000519317965815 0.00254202192278 -0.000406646169483)
(-0.00153968221254 0.00251829886582 -0.000431832382139)
(-0.00245762689433 0.00247444262293 -0.00049888294382)
(-0.00316831868553 0.00242986419403 -0.000622522536164)
(-0.00358026746883 0.0023951424791 -0.000804289250451)
(-0.00361060084345 0.00232884201598 -0.00104567276244)
(-0.00315919706632 0.00227651304592 -0.00130108573951)
(-0.00227286084897 0.00227741847903 -0.0014601147684)
(-0.00101522262346 0.00231711622771 -0.00130439028908)
(-3.1355661425e-05 0.00234060702535 -0.00052677358943)
(-6.76612226585e-05 0.00311462931507 -0.000295615130402)
(0.000959597174251 0.00317056288348 -0.00116581648878)
(0.00227371870491 0.00316492248662 -0.00130034554977)
(0.00319291327999 0.00319624583861 -0.00109630979389)
(0.00365277573878 0.0032736853412 -0.000803188473494)
(0.00361954161329 0.0033586060873 -0.00054357017165)
(0.00319749174541 0.0034041123857 -0.00035558949665)
(0.00248396754303 0.00345257750914 -0.000234983805542)
(0.00155908696903 0.00349889043818 -0.00016961405608)
(0.000532777318267 0.00352277943904 -0.000150438024386)
(-0.000519759516312 0.00352299378332 -0.000150248272499)
(-0.00154670680349 0.00349959901728 -0.000169216703019)
(-0.00247291398312 0.003453747924 -0.000234229933256)
(-0.00318837463521 0.00340551218124 -0.000354738778851)
(-0.00361267740886 0.00336028103808 -0.000543052762999)
(-0.0036480090228 0.00327540203861 -0.000803121560491)
(-0.00318946548253 0.00319767062263 -0.00109670556803)
(-0.00227110777975 0.00316617055422 -0.00130096181264)
(-0.000957634084099 0.00317184553798 -0.00116617707575)
(6.83716952386e-05 0.00311668636622 -0.000296032326597)
(-0.000105393408069 0.00354993263792 -4.049979698e-05)
(0.000974842599496 0.00362131202682 -0.000937876045074)
(0.00232573062243 0.00361688825362 -0.00104509416308)
(0.00327015115927 0.00365590466188 -0.000802877436905)
(0.00373934507721 0.00374271877279 -0.00047466846778)
(0.0037035869137 0.0038492465461 -0.000166061679029)
(0.00327152754926 0.00391712145346 6.10873657332e-05)
(0.00254200726923 0.00397813365156 0.000229075523522)
(0.00159501274819 0.00403115256103 0.000332619189398)
(0.000544966349388 0.00405992641701 0.000377147196219)
(-0.000530219330323 0.00406023659404 0.000377237177077)
(-0.0015808711511 0.00403210434178 0.000333119787149)
(-0.00252933367045 0.0039795092374 0.000230094310537)
(-0.00326115816081 0.00391894102615 6.2424160677e-05)
(-0.00369606940725 0.00385164141583 -0.000165132909531)
(-0.00373430432559 0.0037453770963 -0.000474276174215)
(-0.00326682522321 0.00365857796123 -0.000802940012229)
(-0.00232334523205 0.00361954398681 -0.00104536926631)
(-0.000973258503364 0.00362419686219 -0.000938078003814)
(0.000105714403105 0.0035540169273 -4.09364562256e-05)
(-9.2926972083e-05 0.0034809233155 0.000179807751124)
(0.00102152538102 0.00358296244114 -0.000711611367878)
(0.00239226050111 0.00358691839984 -0.000804081584958)
(0.00335508541321 0.00362171925271 -0.000542993058189)
(0.00384565497762 0.00370603704666 -0.000165660274072)
(0.0037976400773 0.00380025607278 0.000197882043445)
(0.00334964429401 0.00383792469512 0.000474189109471)
(0.00260043552468 0.003858329118 0.000682337876232)
(0.00162582629565 0.00387493732006 0.000807833564776)
(0.000553736834997 0.0038813065551 0.000858903882443)
(-0.000537269880935 0.00388189560466 0.000859181969773)
(-0.0016102605084 0.00387637665334 0.00080849609215)
(-0.00258650422376 0.00386024357279 0.000683230453128)
(-0.00333808903582 0.00383976177695 0.000475551585016)
(-0.00378905472025 0.0038024686765 0.000199290836355)
(-0.00384031607242 0.00370905073738 -0.000164763755266)
(-0.00335171660328 0.00362505247623 -0.000542696699142)
(-0.00238994610792 0.00359057287263 -0.000804035021646)
(-0.00102010220293 0.00358714789175 -0.000711636189086)
(9.32561256099e-05 0.00348676748322 0.000179193953848)
(-8.61514870541e-05 0.0031134174491 0.00033202724032)
(0.00104341305432 0.00318076785944 -0.000532272783811)
(0.00242809127209 0.00317428035791 -0.000622353359293)
(0.00340154611093 0.00319717223852 -0.000354672120921)
(0.00391380653342 0.00327154211129 6.16921025846e-05)
(0.0038349132306 0.00334905277493 0.000473985709007)
(0.00336282280515 0.00336135491158 0.000775942773715)
(0.00258953735892 0.00335963699733 0.000993118886108)
(0.00159959939431 0.00334921012353 0.00113724682713)
(0.000539653465257 0.00333766231966 0.00120188375948)
(-0.000521562926139 0.00333827623159 0.0012021972351)
(-0.00158277167184 0.00335078907626 0.00113841492041)
(-0.00257515045028 0.0033614999004 0.000995298296817)
(-0.00335128365822 0.0033630665405 0.000777645383649)
(-0.0038262309025 0.00335098141085 0.000475649186489)
(-0.00390818854854 0.00327440370762 6.29135951739e-05)
(-0.00339797369954 0.00320095589191 -0.000354096135726)
(-0.00242579972351 0.00317882342167 -0.000622097811105)
(-0.00104214740461 0.00318628773776 -0.000532096521176)
(8.60915519378e-05 0.00312108579131 0.000331563432609)
(-3.98266527403e-05 0.00242602835833 0.000442049552697)
(0.00108448610398 0.0024678618614 -0.000399531959862)
(0.00247387067934 0.00246164172477 -0.000498328383456)
(0.00345059923436 0.00247982331971 -0.000233222777492)
(0.0039740588831 0.0025386103397 0.000228947038367)
(0.00385319871418 0.00259643918093 0.000679125358699)
(0.00335999767688 0.00258283135439 0.000989033068402)
(0.00254755223215 0.00254070595061 0.00130073300526)
(0.00158964312725 0.00258227210265 0.00121107879946)
(0.000537946060802 0.00259292955269 0.00119443861022)
(-0.000519212316604 0.00259318585924 0.00119455605496)
(-0.00157248590383 0.00258344196717 0.00121184946917)
(-0.00253324265383 0.00254259695867 0.00130157003804)
(-0.00334866233318 0.00258486456456 0.00099012059916)
(-0.00384459296534 0.00259867645903 0.000679948942024)
(-0.00396817252556 0.00254178041786 0.000229904253178)
(-0.00344689435469 0.00248421458265 -0.00023278752891)
(-0.00247155702598 0.0024669739881 -0.000498077375817)
(-0.00108330306814 0.00247461796975 -0.00039928902035)
(3.97065239795e-05 0.00243543044933 0.000441709543973)
(6.3213587117e-06 0.00152096279721 0.000499483363106)
(0.00112200884039 0.00154319624471 -0.000324102361146)
(0.00251892946742 0.00154065872825 -0.000430782960959)
(0.00349835674885 0.00155078956042 -0.000167443450849)
(0.00402758302532 0.00158973933121 0.000333080205888)
(0.00386780906853 0.00162243759294 0.000803761895418)
(0.00334818623756 0.00159581548462 0.00112754598541)
(0.00259045111303 0.00158607860433 0.00120876754365)
(0.00161131011893 0.00160619407717 0.00119090873053)
(0.000538456316858 0.00160917233403 0.00120168871477)
(-0.000519622587792 0.00161003307781 0.00120106302615)
(-0.00159297340631 0.00160842214146 0.0011907183476)
(-0.00257530333491 0.00158931887407 0.00121002843388)
(-0.00333712095854 0.00159914231017 0.00112879597035)
(-0.00385965862293 0.00162616355541 0.000804348596701)
(-0.00402186532772 0.00159396075178 0.000333314627049)
(-0.00349449919666 0.00155600925421 -0.000167518361917)
(-0.00251656255447 0.00154701156112 -0.000430663257542)
(-0.00112090761643 0.00155121097139 -0.000323913311917)
(-6.47155903248e-06 0.00153179705626 0.000499263199072)
(3.23067474206e-05 0.000508818491618 0.000520654083247)
(0.0011415421613 0.000516816576604 -0.000294423326837)
(0.002543631658 0.000516997204975 -0.000405997788048)
(0.00352472526986 0.000521100792865 -0.000149758405471)
(0.00405957429145 0.000536918197679 0.000379601596671)
(0.00387572016046 0.000548414089606 0.000858768495447)
(0.00333709547837 0.000536062962739 0.00119692842059)
(0.00260009352558 0.000534155305673 0.0011960159143)
(0.00161302156313 0.000532935941394 0.00120271340634)
(0.000533884337283 0.000527940715449 0.00121315574914)
(-0.000512468133013 0.000529476336947 0.00121371243993)
(-0.00159359951361 0.000536782448053 0.00120398842495)
(-0.00258463531883 0.000538611660904 0.00119805191176)
(-0.00332591397206 0.000540465036221 0.00119825555482)
(-0.00386774300654 0.000553573866282 0.000859658111486)
(-0.00405425135855 0.000542719213904 0.000379267129861)
(-0.00352072376473 0.000527637618287 -0.000150506202701)
(-0.00254109193061 0.000524774771344 -0.000406098383861)
(-0.00114055979071 0.000526300281352 -0.000294312665545)
(-3.23683787488e-05 0.000520978814514 0.000520632400428)
(3.29118976168e-05 -0.000537494090812 0.000519778730148)
(0.00114238481821 -0.000539809241837 -0.000294785845411)
(0.00254538467513 -0.000535901772701 -0.000406160939455)
(0.00352691275862 -0.000534235102285 -0.000148709801094)
(0.00406106448742 -0.00054253354591 0.000380652579538)
(0.00387666409961 -0.000547996092515 0.000859192516779)
(0.00333780155091 -0.000530740096227 0.00119698908896)
(0.00260019218688 -0.000527513172888 0.00119540129544)
(0.00161358610376 -0.000526833932042 0.00120034927509)
(0.000535251836028 -0.000520051567005 0.00121121388921)
(-0.000511133276088 -0.000519224105624 0.00121199918795)
(-0.00159211990501 -0.000523818582132 0.00120337942479)
(-0.00258394236122 -0.000523352614414 0.00119867123055)
(-0.00332627856307 -0.000526220000629 0.0011986747763)
(-0.00386839655714 -0.000542040058754 0.000860423102859)
(-0.00405578763001 -0.000534953236808 0.000380270006841)
(-0.00352268003768 -0.000525237326285 -0.000150812100189)
(-0.00254260041139 -0.000526116625184 -0.000406334299284)
(-0.0011416121091 -0.000528793703335 -0.000294775013826)
(-3.30276989559e-05 -0.00052412379908 0.000519882160783)
(8.07849909099e-06 -0.00154866753297 0.000496897278522)
(0.00112449644527 -0.00156547728894 -0.000325449150902)
(0.00252368998138 -0.0015594180682 -0.000431798227177)
(0.00350504333106 -0.00156451287169 -0.00016644218902)
(0.0040331482585 -0.00159584133847 0.000336160217569)
(0.00387164405533 -0.00162167200969 0.000805343117012)
(0.00335172394517 -0.00159010568987 0.0011285896719)
(0.00259245736334 -0.00157794466172 0.00120952502642)
(0.00161346629533 -0.00159580906441 0.00118992231727)
(0.00054181655114 -0.00159674778543 0.00120100230739)
(-0.000516544469368 -0.00159608191712 0.00120137109407)
(-0.00159047038295 -0.00159384360192 0.0011924509869)
(-0.00257450099375 -0.0015748136619 0.00121271138542)
(-0.00333842374754 -0.00158599278952 0.00113048529558)
(-0.00386190895144 -0.00161542908659 0.000806788136353)
(-0.00402632336902 -0.00158694241676 0.000336234230934)
(-0.00350027131776 -0.00155360730701 -0.00016646614868)
(-0.00252142254201 -0.00154803476694 -0.000431293340093)
(-0.00112423770612 -0.0015532289331 -0.000325203674223)
(-8.36585062235e-06 -0.00153439871197 0.000497178741071)
(-3.74740262533e-05 -0.00245154376944 0.000438103361367)
(0.00108859123217 -0.0024887646835 -0.000401924877052)
(0.00248149268078 -0.00247966993335 -0.000500151463922)
(0.003461614302 -0.0024935532717 -0.000232770695763)
(0.00398390128835 -0.00254591028783 0.000233189011773)
(0.00385986390935 -0.00259618147669 0.000682222494704)
(0.00336532439967 -0.00257790419472 0.000990779175006)
(0.00255206670923 -0.00253282884603 0.00130266472947)
(0.00159512145961 -0.00257275823671 0.00121296009045)
(0.000542760324703 -0.002581672781 0.00119787211426)
(-0.000516535188637 -0.00258093020586 0.00119851543045)
(-0.00157143391998 -0.00257113700232 0.00121518381369)
(-0.00253292849867 -0.00253014992902 0.00130486908668)
(-0.00335008198763 -0.00257386924227 0.000992508978481)
(-0.00384815125727 -0.00258980332045 0.000683814294633)
(-0.00397525361562 -0.0025365045245 0.000234165615835)
(-0.00345601590479 -0.00248248238718 -0.000231420408944)
(-0.00247930785098 -0.00246779878615 -0.000498923755113)
(-0.0010886872473 -0.00247590523244 -0.000401205995253)
(3.68960724868e-05 -0.00243702243351 0.000438647121642)
(-8.34938283766e-05 -0.00313540792896 0.000327175636783)
(0.0010489394151 -0.00319948414866 -0.000535789715986)
(0.00243834920985 -0.00319109739381 -0.000625183279525)
(0.00341595513599 -0.00321069898876 -0.000354889899194)
(0.00392800880925 -0.00328026548867 6.52521981554e-05)
(0.00384518905345 -0.00335070170851 0.000478601912256)
(0.00337012444666 -0.00335782524143 0.000778931486083)
(0.00259542102783 -0.00335329984629 0.00099416160654)
(0.00160621826632 -0.00334161719986 0.00113597697178)
(0.000545250118338 -0.00332912183599 0.00120156249331)
(-0.000519328348066 -0.00332867208006 0.00120227570542)
(-0.00158262588414 -0.00334029078839 0.00113784093063)
(-0.00257528945666 -0.00335071663795 0.00099619520984)
(-0.00335298851568 -0.00335360676569 0.000780500984651)
(-0.00383118676345 -0.00334417274016 0.000480584694863)
(-0.00391745877411 -0.0032710309803 6.77141057685e-05)
(-0.00340956055292 -0.00320009538765 -0.000352258060648)
(-0.00243600604584 -0.00317959631074 -0.00062301466893)
(-0.00104932956912 -0.00318695369523 -0.000534407784472)
(8.26332465281e-05 -0.00312161831828 0.000328002511997)
(-9.04544111753e-05 -0.00349883040494 0.000174430940373)
(0.00102801470248 -0.00359859426376 -0.00071624637241)
(0.00240449379885 -0.00360170890364 -0.000808115236403)
(0.00337240940405 -0.00363481946634 -0.000544842631493)
(0.00386401287214 -0.00371644055463 -0.000164047332544)
(0.0038124532022 -0.00380490440276 0.000202045078699)
(0.00336091542414 -0.00383728713897 0.000478529911174)
(0.00260915635574 -0.00385411441974 0.000684933984003)
(0.00163386964299 -0.00386867367562 0.000809686416434)
(0.000560422471765 -0.00387432232186 0.000861916237878)
(-0.00053349288397 -0.00387403368324 0.000862891552428)
(-0.00160893972575 -0.00386758877143 0.000811813895567)
(-0.00258709648118 -0.00385180035496 0.000687287624012)
(-0.00334150395575 -0.00383317280826 0.000480854410149)
(-0.00379618779089 -0.00379872371159 0.000205294496685)
(-0.0038517130055 -0.00370815438545 -0.000159868934682)
(-0.00336512763975 -0.00362557277521 -0.000540705481779)
(-0.00240185743175 -0.00359161407243 -0.000804890299012)
(-0.00102856611639 -0.00358747068615 -0.000714071907103)
(8.9268932809e-05 -0.00348663689231 0.000175657907376)
(-0.000103181617254 -0.00356356418552 -4.58888017839e-05)
(0.000981543244169 -0.00363343286038 -0.000943264890859)
(0.00233866597967 -0.00362882406965 -0.00105027506801)
(0.00328869620207 -0.00366757980645 -0.000806515634085)
(0.00376010701816 -0.00375320309488 -0.000475542740073)
(0.00372302379967 -0.0038568128506 -0.000163950080509)
(0.00328777958085 -0.00392088523751 6.50171795185e-05)
(0.00255485960565 -0.00397888711302 0.000233452960634)
(0.00160532084998 -0.00403015895703 0.000336959659384)
(0.000553013890184 -0.00405877568492 0.000381904123898)
(-0.000524883592221 -0.00405862228027 0.000382551061633)
(-0.00157860776491 -0.00402942112329 0.000338813696732)
(-0.00253047172211 -0.00397705308222 0.000236083418418)
(-0.00326610064082 -0.00391761778553 6.84838900944e-05)
(-0.00370489485514 -0.00385208374353 -0.000159366324665)
(-0.00374685454771 -0.00374732955625 -0.00047005383014)
(-0.00328084904172 -0.00366084168728 -0.000801325196114)
(-0.00233582212125 -0.00362121665039 -0.00104608733938)
(-0.000982217602315 -0.00362465116672 -0.000940389655537)
(0.000101949227927 -0.00355366193257 -4.4448244524e-05)
(-6.59461475678e-05 -0.00312303802119 -0.000300682982233)
(0.000965769106163 -0.00317815514514 -0.00117145233866)
(0.00228627749885 -0.00317261532141 -0.00130620416494)
(0.00321107268588 -0.00320416531743 -0.0011012371682)
(0.00367411472843 -0.0032817041648 -0.000806126897093)
(0.00364071605665 -0.00336537978734 -0.000544307595153)
(0.00321626594663 -0.00340927197606 -0.000354406368484)
(0.00249952499566 -0.00345629747681 -0.00023253701408)
(0.0015711277929 -0.00350144198327 -0.000166267271325)
(0.000541833956254 -0.00352485999044 -0.000147618358454)
(-0.000513101564324 -0.00352490715121 -0.00014711294525)
(-0.00154349040865 -0.00350142288591 -0.000164598475723)
(-0.00247393663435 -0.00345587612802 -0.000229739447014)
(-0.0031935027127 -0.00340822603208 -0.000350439951068)
(-0.00362178587173 -0.00336355408605 -0.000539246321818)
(-0.0036601734488 -0.00327913273263 -0.000800465976058)
(-0.00320283369576 -0.00320098332329 -0.00109570773047)
(-0.00228317625726 -0.00316849269995 -0.00130161009298)
(-0.000966441863042 -0.00317281096796 -0.00116822852762)
(6.4578609153e-05 -0.00311657065364 -0.000298989367238)
(3.35772782784e-05 -0.00234414399078 -0.000530867207532)
(0.0010231523432 -0.00232050572115 -0.00130924635636)
(0.00228753327033 -0.00228078386535 -0.00146502317483)
(0.00318000425901 -0.0022798721206 -0.00130565107122)
(0.00363581743944 -0.00233219252623 -0.00104932013491)
(0.00360778628192 -0.00239810732532 -0.000806964123844)
(0.00319618149404 -0.00243238427222 -0.000624051426495)
(0.00248412683182 -0.00247646980092 -0.00049929059305)
(0.00156373780163 -0.00251993584245 -0.000431276049688)
(0.000540510910828 -0.00254324176451 -0.000405686767187)
(-0.000512263470685 -0.00254351939249 -0.000405252397092)
(-0.00153629020758 -0.00252067026639 -0.000429882459146)
(-0.00245836857847 -0.00247738567447 -0.000496844215025)
(-0.00317311975763 -0.00243327047223 -0.000620563431868)
(-0.00358862071157 -0.0023988604479 -0.000802537264173)
(-0.0036215617206 -0.00233263478621 -0.00104439553829)
(-0.00317130248086 -0.00227989748513 -0.00130076344309)
(-0.00228394549912 -0.00227997244867 -0.00146086498192)
(-0.00102340803537 -0.00231852055942 -0.0013063293516)
(-3.47312358298e-05 -0.00234105553025 -0.00052941169704)
(0.000171603201704 -0.0012870124412 -0.000662522173243)
(0.00113008952304 -0.00112488131795 -0.00119567523722)
(0.00232804084681 -0.00101823100936 -0.00130867248069)
(0.00318665823445 -0.000961005796346 -0.00117025142853)
(0.00364174446187 -0.000976674434306 -0.000941637505669)
(0.00360601510659 -0.00102328694219 -0.000714360695713)
(0.0032055066394 -0.00104467546619 -0.000533923933764)
(0.00249345276727 -0.00108501728643 -0.000400307803687)
(0.00156915848295 -0.00112174281455 -0.000324181197248)
(0.000542854556552 -0.00114066020904 -0.00029381350681)
(-0.000514214547679 -0.00114106898925 -0.000293507393895)
(-0.00154135752991 -0.00112285897878 -0.000323120318797)
(-0.00246746714935 -0.00108664211339 -0.000398396148188)
(-0.00318245307616 -0.00104672243843 -0.00053122481107)
(-0.00358698463002 -0.00102566872193 -0.000711025904671)
(-0.00362740357388 -0.000979053592017 -0.000938058775452)
(-0.00317763068108 -0.000963315153047 -0.00116669617418)
(-0.00232388717454 -0.00101997074766 -0.00130573480271)
(-0.00112957108977 -0.00112564172356 -0.00119367471533)
(-0.000172280113352 -0.00128678413605 -0.000661590697876)
(0.000374203319356 -0.0003718387315 -0.000686068453201)
(0.00129256666005 -0.000169639864682 -0.000662166577382)
(0.00235200037713 -3.16254820911e-05 -0.000529870110756)
(0.00313181500837 6.79366866785e-05 -0.00029905849527)
(0.00357206241703 0.000105289976102 -4.36613795312e-05)
(0.00350637779834 9.25640045604e-05 0.000177037581267)
(0.00314129093582 8.55422339026e-05 0.000329985409028)
(0.00245550934999 3.93078967274e-05 0.000440825639267)
(0.00155101264374 -6.63059055265e-06 0.000499094673974)
(0.000538672136127 -3.21556832453e-05 0.000521331411734)
(-0.000508637867803 -3.23191820837e-05 0.000521589606643)
(-0.00152202597128 -7.10032548577e-06 0.000499990754601)
(-0.00242869659662 3.85472285646e-05 0.000442396163509)
(-0.00311795868342 8.44855677317e-05 0.000331938086904)
(-0.00348732749778 9.10005332335e-05 0.00017938830196)
(-0.00355771382694 0.000103946021661 -4.15551825903e-05)
(-0.00312252076547 6.64085244532e-05 -0.000296989783052)
(-0.00234725016455 -3.28268500604e-05 -0.000528414496396)
(-0.00129102086242 -0.000170328027441 -0.000661360194971)
(-0.000374159419057 -0.000372038502239 -0.000685912975931)
(0.000667177734102 0.000667564663392 -0.00283524316107)
(0.00193115865015 0.000790759765859 -0.00282524726743)
(0.00305021817985 0.000883309728018 -0.00249358809056)
(0.00380275145609 0.000960912511505 -0.00192575115271)
(0.00413988449979 0.00103421706051 -0.00126924323782)
(0.00399288918573 0.0010817199111 -0.00067920822925)
(0.00351532181388 0.0011041204299 -0.000207577578092)
(0.00271753806373 0.00113900415019 0.000137843525693)
(0.00170175566329 0.00117168243735 0.000336649538047)
(0.000580226802542 0.00119031230925 0.000419208851678)
(-0.000573454483241 0.0011902209356 0.00041939318849)
(-0.00169534043754 0.00117141860719 0.000337226439697)
(-0.00271175231354 0.00113857317087 0.000138672492227)
(-0.00351040311712 0.00110346528048 -0.000206375694296)
(-0.00398894952967 0.00108079165959 -0.000677985070262)
(-0.00413675504482 0.00103303539064 -0.00126820330453)
(-0.00379990852506 0.00095944888759 -0.00192485284744)
(-0.00304748310223 0.000881794109465 -0.00249254520955)
(-0.00192865853303 0.000789486127063 -0.00282336540482)
(-0.000666395005016 0.000666911653646 -0.00283270329029)
(0.000790475706883 0.0019326551983 -0.00282433369876)
(0.00206575989955 0.00206855745456 -0.0032905236143)
(0.00310173227333 0.00216901697866 -0.00310853469982)
(0.00373507662671 0.00226987211799 -0.00260616656679)
(0.00397211360535 0.00236947970896 -0.00199234121873)
(0.00381469287756 0.00244820026563 -0.00140676463103)
(0.00332636198859 0.00250204986579 -0.000923675153397)
(0.00256451116234 0.0025563173046 -0.000568635189697)
(0.00161128022804 0.00260406674341 -0.000350142691154)
(0.000552753306278 0.00263066265426 -0.000250696228432)
(-0.000539856743367 0.00263045684473 -0.000250439987983)
(-0.00159880393895 0.00260342149428 -0.000349381950427)
(-0.00255290884032 0.00255518022963 -0.000567293811873)
(-0.00331600463357 0.00250037432748 -0.000921954666991)
(-0.00380573712379 0.00244589380638 -0.00140507525424)
(-0.00396447451508 0.00236650599577 -0.0019910010208)
(-0.00372854454445 0.00226633369624 -0.00260538301417)
(-0.00309640355403 0.0021654470072 -0.00310769861365)
(-0.00206210557523 0.00206565391769 -0.00328903427499)
(-0.000789356284391 0.0019310903125 -0.00282253763804)
(0.000882655056459 0.00305222866843 -0.00249151810039)
(0.00216510430796 0.00310703348313 -0.0031070725586)
(0.00315527924572 0.00316279866164 -0.0029190484219)
(0.00371211760464 0.00323704435384 -0.00236901896791)
(0.00388156696558 0.00331725242444 -0.00171406635153)
(0.00369260137479 0.00338158364243 -0.00109961506767)
(0.00319849983216 0.00342539063765 -0.000599419563564)
(0.00246036490033 0.00346630581632 -0.000231091354621)
(0.00154653065035 0.00350411366098 3.24089945666e-06)
(0.000531679712199 0.00351615782749 0.000116689077177)
(-0.000515595238159 0.00351605055315 0.000116924396363)
(-0.00153099660861 0.00350339737448 3.92314445334e-06)
(-0.00244581041034 0.00346480093526 -0.000229811018185)
(-0.00318539557317 0.00342303278457 -0.000597669292762)
(-0.00368119844725 0.00337827261147 -0.00109809391323)
(-0.00387174976503 0.00331290657471 -0.00171314944148)
(-0.00370374227323 0.0032319917916 -0.00236866453897)
(-0.00314858821996 0.00315784731295 -0.00291892194824)
(-0.00216063981346 0.00310344488196 -0.00310646726625)
(-0.000881136083394 0.00305123557962 -0.00249074964116)
(0.000959950149664 0.00380478443365 -0.00192234959103)
(0.00226528566338 0.00374219897162 -0.00260308826005)
(0.00322826711252 0.00372275477441 -0.00236740076784)
(0.0037199415911 0.00373271091596 -0.00176439101929)
(0.00382785732302 0.00375494168315 -0.0010732977419)
(0.00360034053746 0.00376438905894 -0.000443899612534)
(0.00309651147978 0.00376387268734 4.98294477415e-05)
(0.00237442469331 0.00375870618712 0.000416771838835)
(0.00148314965589 0.00375498799756 0.000651647989804)
(0.000504759427891 0.00375346123265 0.0007780006318)
(-0.000487119755871 0.0037530377799 0.000778416575962)
(-0.00146648503182 0.00375379786203 0.000652540716945)
(-0.00235890085315 0.00375677560444 0.000418542008715)
(-0.00308254657461 0.00376112465005 5.20308546199e-05)
(-0.00358845314198 0.00376085590975 -0.000441785829424)
(-0.00381784588647 0.00374980188767 -0.00107206121993)
(-0.00371145880686 0.00372672048527 -0.00176397125752)
(-0.00322151288783 0.00371716432836 -0.00236741623649)
(-0.00226075498754 0.00373885305558 -0.00260288632516)
(-0.000958325223513 0.00380538000576 -0.00192228090078)
(0.00103322426238 0.00414071777467 -0.00126465785964)
(0.00236468588385 0.00397977097954 -0.00198806174053)
(0.0033082096522 0.003894034194 -0.00171074654447)
(0.00374136902331 0.00384348518603 -0.00107129312824)
(0.00379003316695 0.00380635522308 -0.000353012216385)
(0.00352257139416 0.00377393103034 0.00027900088222)
(0.00300450115798 0.00372960606537 0.000760909230322)
(0.00228944050301 0.00368067882929 0.00112193005041)
(0.00143186527977 0.00363659717924 0.00136089696279)
(0.000491822178612 0.00362198507659 0.00147754684375)
(-0.000474317957513 0.00362134170347 0.00147758752879)
(-0.00141482699977 0.0036349631272 0.00136185040639)
(-0.00227349750069 0.0036781735381 0.00112424562621)
(-0.00299019174033 0.00372621831173 0.000764581121163)
(-0.00351128001587 0.00376922288617 0.000282484711214)
(-0.00378147151257 0.00380093706721 -0.000350522850376)
(-0.00373404383979 0.00383672425141 -0.00107023658007)
(-0.00330232265523 0.00388810013019 -0.0017102924234)
(-0.00236074459592 0.00397697017018 -0.00198771822525)
(-0.00103188426913 0.00414309448239 -0.00126496910845)
(0.00108077929935 0.00399193118767 -0.000673823185928)
(0.00244383516206 0.0038213858754 -0.00140150153967)
(0.00337315864525 0.00370503446054 -0.00109472074445)
(0.00375026800735 0.00361693307416 -0.000439478105276)
(0.00375650536309 0.00354146542582 0.000282110519588)
(0.00346241054709 0.00348132378048 0.000906389003296)
(0.00293017627124 0.00341925645516 0.00137869884676)
(0.00221948743046 0.00334917453194 0.00173143102123)
(0.0013810109301 0.00328179555169 0.00194816845997)
(0.000473828605109 0.00324337373864 0.00204948478261)
(-0.000456790045272 0.00324300425718 0.00204980241489)
(-0.00136452171364 0.00328039682841 0.00194940742854)
(-0.00220414386506 0.00334633175381 0.00173409605864)
(-0.00291714694828 0.00341467952075 0.00138361040698)
(-0.0034518866273 0.00347482414811 0.00091131065696)
(-0.00374923878426 0.00353391481677 0.000285046557082)
(-0.00374515751271 0.00360917469211 -0.000437632013336)
(-0.00336859324441 0.0036987291534 -0.00109374486093)
(-0.00244070248185 0.00381912267092 -0.00140100881168)
(-0.00107954817285 0.00399610077653 -0.000674553725274)
(0.00110350635848 0.00351127119042 -0.000201627287424)
(0.00249862452057 0.00333024022583 -0.000917588890975)
(0.00341840466677 0.00320850704409 -0.000592711585738)
(0.00375184467694 0.00311109237761 5.74040106495e-05)
(0.00371265059568 0.00302278915209 0.000766534448172)
(0.00339926555658 0.00294901591471 0.00138037845747)
(0.00286314555639 0.00288201708894 0.00185672553673)