/*--------------------------------*- C++ -*----------------------------------*\
| =========                 |                                                 |
| \\      /  F ield         | OpenFOAM: The Open Source CFD Toolbox           |
|  \\    /   O peration     | Version:  3.0.1                                 |
|   \\  /    A nd           | Web:      www.OpenFOAM.org                      |
|    \\/     M anipulation  |                                                 |
\*---------------------------------------------------------------------------*/
FoamFile
{
    version     2.0;
    format      ascii;
    class       volVectorField;
    location    "3";
    object      ddt0(rho,U);
}
// * * * * * * * * * * * * * * * * * * * * * * * * * * * * * * * * * * * * * //

dimensions      [1 -2 -2 0 0 0 0];

internalField   nonuniform List<vector> 
7968
(
(0.371014574783 0.37106208462 -0.682738807752)
(1.28351247216 0.169577974134 -0.658508164236)
(2.33573912656 0.0321628584685 -0.526078038573)
(3.10929143443 -0.0672338473073 -0.295621557025)
(3.54519704581 -0.104874020606 -0.0412658869096)
(3.47782068347 -0.0921809907908 0.178634518074)
(3.11331192986 -0.0856101880797 0.330415011043)
(2.43020563067 -0.0395014399581 0.440262622351)
(1.52985250556 0.00641079900464 0.497665078388)
(0.52277182412 0.0319809011116 0.519223236391)
(-0.518725612565 0.0320327065963 0.519227068451)
(-1.52619801331 0.00651813959937 0.497694439135)
(-2.42717217534 -0.0393926410513 0.440249501339)
(-3.11092775971 -0.0855662890719 0.330419413642)
(-3.47631107767 -0.0922967184665 0.178560582317)
(-3.54441681767 -0.105139486327 -0.041461160612)
(-3.10847396729 -0.0677938447672 -0.295971597809)
(-2.33459641197 0.0314756138741 -0.526338224529)
(-1.28192749219 0.169054288269 -0.65818903038)
(-0.3706531538 0.370852670862 -0.681829687503)
(0.169528386024 1.28416056841 -0.658327296406)
(1.12199170834 1.12293414062 -1.18971893547)
(2.3119193052 1.01677291742 -1.30211930333)
(3.16387221955 0.959547712955 -1.16436868519)
(3.6146957136 0.97484353718 -0.936958477432)
(3.57787059596 1.02139058202 -0.710992115849)
(3.17890487182 1.04273497222 -0.531947867707)
(2.47025028813 1.08289868732 -0.399179812657)
(1.55070797855 1.11962877271 -0.323792330402)
(0.52982680048 1.13848229507 -0.293826385152)
(-0.521562116713 1.13853193101 -0.293720413396)
(-1.54295906922 1.11963431405 -0.32351507596)
(-2.4634018712 1.08291113957 -0.398761705543)
(-3.17328318412 1.04270268361 -0.531435417571)
(-3.57355638958 1.02128245633 -0.710645677016)
(-3.61166117364 0.974614278949 -0.936854179218)
(-3.16146103198 0.958976978143 -1.16461517879)
(-2.30988973364 1.01598726595 -1.3024265837)
(-1.12021458134 1.12215316351 -1.18957606007)
(-0.169055495034 1.28361526601 -0.657875484863)
(0.032016666697 2.33597541919 -0.525735934728)
(1.01541129448 2.31302115242 -1.30177014874)
(2.2713041964 2.2734208912 -1.45686919075)
(3.15668897678 2.27227480685 -1.29829968305)
(3.60833361032 2.32425392689 -1.04372529794)
(3.57978592436 2.39045345046 -0.803202839761)
(3.17025676375 2.42504639026 -0.621898546028)
(2.46249867867 2.46962372293 -0.498400419638)
(1.54728207992 2.5134395138 -0.431247814499)
(0.529346670996 2.53730796002 -0.405995869961)
(-0.518383459132 2.53744843216 -0.40591463059)
(-1.53691028873 2.51376425218 -0.431054656607)
(-2.45325321961 2.47007951894 -0.498005226734)
(-3.16269044801 2.42558501345 -0.621426784215)
(-3.57391400952 2.3909208861 -0.802871359166)
(-3.60403232256 2.32459245388 -1.04376444587)
(-3.15346591848 2.27237932593 -1.29872215663)
(-2.26880417328 2.27335358885 -1.45751205918)
(-1.01337394012 2.31289670857 -1.30200931643)
(-0.031299085025 2.33638972054 -0.525824261526)
(-0.0675402086587 3.10898864571 -0.29507783924)
(0.957860035576 3.16482870573 -1.16370542837)
(2.26960073982 3.15919432194 -1.29798984921)
(3.18714311315 3.19046969532 -1.09432792371)
(3.64624024911 3.26783303595 -0.801753008137)
(3.61304681766 3.35258427968 -0.542595491107)
(3.19172756071 3.39797233259 -0.354948142882)
(2.4794688465 3.44630337701 -0.23455649021)
(1.55631903182 3.49273423624 -0.169317526225)
(0.531808671658 3.51633021972 -0.150161105666)
(-0.518776177644 3.51611667451 -0.14994709423)
(-1.54389853061 3.49321054054 -0.168906694577)
(-2.46846258805 3.44753073511 -0.233808249426)
(-3.18270481301 3.39948786438 -0.354111507329)
(-3.60639243753 3.35449086719 -0.542117044632)
(-3.64142864891 3.26949224141 -0.801672348522)
(-3.18365361721 3.19184408874 -1.09470475475)
(-2.26700477126 3.1604529827 -1.29861136874)
(-0.95591174378 3.16614011132 -1.1640797618)
(0.0682494793786 3.1110422506 -0.295494255214)
(-0.105205964569 3.54349169758 -0.0404221768359)
(0.973086261281 3.61478955045 -0.93618642164)
(2.32150841584 3.61033491812 -1.04319698764)
(3.26430907958 3.64936720121 -0.801443563556)
(3.7326328129 3.73600041118 -0.473816529938)
(3.6969353904 3.84233533776 -0.165763507092)
(3.26560993223 3.91002758813 0.0609767996673)
(2.5375268895 3.97117430953 0.228672335356)
(1.5920602734 4.02360258465 0.332003429934)
(0.544004278948 4.05282604909 0.376481029131)
(-0.529262540845 4.05290140623 0.376556552538)
(-1.5778029535 4.02404313078 0.33247358127)
(-2.52468772518 3.9721497667 0.229671115175)
(-3.25532867055 3.91194696614 0.0623127141191)
(-3.68945069191 3.8447484215 -0.164837452334)
(-3.72791962623 3.73897175733 -0.473467886054)
(-3.26091934082 3.6519673465 -0.80148839605)
(-2.31911878558 3.61297541816 -1.04346746446)
(-0.971478682629 3.61760346956 -0.93636393426)
(0.105523994178 3.5476213439 -0.0408629646854)
(-0.0927584956303 3.47467167347 0.179483192418)
(1.01966104265 3.57646239835 -0.710313408771)
(2.3880314011 3.58054003335 -0.802660066291)
(3.34897225757 3.61513819741 -0.542003684388)
(3.83881550414 3.6994371542 -0.16536564425)
(3.79077941285 3.79339074226 0.197524436341)
(3.34377853707 3.83122473977 0.473361395433)
(2.59568350198 3.85125493454 0.681089087239)
(1.62291247676 3.86800156477 0.806386220195)
(0.552738849997 3.87430827704 0.85735575727)
(-0.53631748999 3.87504674404 0.857659823697)
(-1.60733400516 3.8693124269 0.807025794089)
(-2.58154190949 3.85273976536 0.681911981507)
(-3.33193351661 3.83266329041 0.47467238956)
(-3.78241015435 3.79579953356 0.198942157432)
(-3.83335519969 3.70233282434 -0.164465159402)
(-3.3458840139 3.61869598291 -0.541752224913)
(-2.38557800043 3.58404222016 -0.802565841708)
(-1.01826657665 3.58069208217 -0.710355548916)
(0.0930916648388 3.48045182488 0.178873936039)
(-0.0860021927928 3.10777097854 0.331431741412)
(1.04159110422 3.1751259622 -0.531344205636)
(2.42355321059 3.16843455551 -0.621189140247)
(3.39560586975 3.19153722361 -0.354053085649)
(3.90667672924 3.26559637136 0.0615799013298)
(3.82823385029 3.34319943992 0.473160093089)
(3.3566801443 3.35521502416 0.774524513041)
(2.58488607574 3.35360382502 0.991335398806)
(1.59670006595 3.34313254751 1.1351850262)
(0.538715319962 3.33190262966 1.19979587924)
(-0.52061630008 3.33220921539 1.20001564215)
(-1.57997201014 3.34487814371 1.13640207701)
(-2.57032188972 3.3551739602 0.993428152907)
(-3.34514415479 3.35690607827 0.776219744505)
(-3.81923777951 3.3448667472 0.474779950778)
(-3.90152145599 3.26875691061 0.0628055375984)
(-3.39175733704 3.19512816792 -0.353448255951)
(-2.42145576833 3.17311943162 -0.620983788787)
(-1.04026149631 3.18053753313 -0.531133732734)
(0.0859364822833 3.11546836244 0.330966559313)
(-0.0397411185727 2.42172173009 0.441250816249)
(1.08241486875 2.46329892018 -0.398760061105)
(2.46960453061 2.45731404321 -0.497472944117)
(3.44425357519 2.47529754976 -0.232792946053)
(3.96718209147 2.53417144706 0.228547293763)
(3.84605728029 2.59165230282 0.677870308072)
(3.35408992356 2.57828042595 0.987292763367)
(2.54286932621 2.53603543341 1.29834667299)
(1.5867978665 2.57765163401 1.20891190573)
(0.536984451269 2.58829747557 1.19230524143)
(-0.518328820214 2.58878615826 1.19253246424)
(-1.5695919863 2.57868308705 1.20961677422)
(-2.52874617185 2.53808352229 1.29925657185)
(-3.34223972813 2.57993554888 0.988225862089)
(-3.83771521013 2.59402236157 0.678731771491)
(-3.96093475854 2.53716029885 0.229486164475)
(-3.44101195163 2.47989190683 -0.232392509179)
(-2.46702838417 2.46248895609 -0.497163219856)
(-1.08136112013 2.47017174373 -0.398573769217)
(0.0396360108871 2.43104278076 0.440914733986)
(0.00628877914698 1.51817511953 0.498587765043)
(1.12004675093 1.54045209319 -0.323542135449)
(2.51430252739 1.53785547591 -0.429988802851)
(3.49228292979 1.54805872957 -0.167155956247)
(4.02014251555 1.58682486147 0.332469758933)
(3.86119032123 1.61962797125 0.802374096619)
(3.34189763254 1.5928360159 1.12543760077)
(2.58589897645 1.58328811086 1.20664409556)
(1.60834621243 1.60323937797 1.18871229071)
(0.537498924063 1.60631210601 1.1995557977)
(-0.518711182582 1.60720816651 1.19896181273)
(-1.59018000555 1.60560079923 1.18863645636)
(-2.57050618907 1.58636412486 1.2077740816)
(-3.33115484579 1.59628045778 1.1267763823)
(-3.85243564002 1.62314773437 0.802853408909)
(-4.01468638447 1.59110857141 0.3327182034)
(-3.48815576447 1.55319388876 -0.167213577565)
(-2.51219222052 1.54427874764 -0.429920235798)
(-1.1188519565 1.54839627586 -0.323315053618)
(-0.00646276608133 1.52904648689 0.498364041396)
(0.0322585361973 0.507909938233 0.51971534283)
(1.13945264346 0.515879669999 -0.293879920961)
(2.53912438727 0.516074252275 -0.405281035106)
(3.51830365004 0.520155911397 -0.149484502411)
(4.05258084871 0.535980456958 0.378937252604)
(3.86852526874 0.547403703449 0.8571844494)
(3.33124813512 0.53511942326 1.19482239221)
(2.59534327074 0.533180480616 1.19382998699)
(1.61015238177 0.531987839894 1.20057696868)
(0.53291219083 0.526979256117 1.21094373643)
(-0.511557148618 0.528534686702 1.21155672832)
(-1.59076312777 0.535826673662 1.20184783225)
(-2.58001696863 0.537648598607 1.19591146065)
(-3.31980443648 0.539475792333 1.19606144783)
(-3.86073140006 0.552572197064 0.858102044386)
(-4.04683448667 0.541731486513 0.378577280844)
(-3.51446298122 0.526694785344 -0.150239532101)
(-2.53647103831 0.523825137807 -0.40535825375)
(-1.13854443052 0.525360144853 -0.293797350315)
(-0.0323086592935 0.520039958524 0.519695470601)
(0.0328471727121 -0.536522477287 0.518843970401)
(1.14035114902 -0.538841917658 -0.294264054946)
(2.54075231341 -0.534931828544 -0.405420004621)
(3.52076832719 -0.533291505605 -0.148453656574)
(4.05362000255 -0.541544901097 0.37995929376)
(3.86983071857 -0.547024849321 0.857671287012)
(3.33166373379 -0.529767492455 1.19479507757)
(2.59558074283 -0.526576723798 1.19328213553)
(1.61055530236 -0.525844384497 1.19808376518)
(0.534286931237 -0.519114020366 1.20903003197)
(-0.510264751875 -0.51834095444 1.20994776138)
(-1.58921928432 -0.522864344593 1.20118451792)
(-2.57933517075 -0.522418928322 1.19653433514)
(-3.32000282174 -0.525234269639 1.19642954324)
(-3.8614387216 -0.541064950882 0.858875286897)
(-4.04844380888 -0.533986411108 0.379582931145)
(-3.51629969849 -0.52428842673 -0.150538196928)
(-2.53801404088 -0.525168581947 -0.405600989346)
(-1.13958131068 -0.527846497675 -0.294253780074)
(-0.0329690511824 -0.52318099272 0.518946261544)
(0.00806484563397 -1.54588194885 0.496002687396)
(1.12245420685 -1.56264885185 -0.324856108401)
(2.51923028305 -1.55663802149 -0.431037723642)
(3.49866763708 -1.561678788 -0.166138499337)
(4.02595397816 -1.59298700656 0.335558956415)
(3.86466408883 -1.61874954776 0.803891639411)
(3.34579476287 -1.58728593622 1.12658953089)
(2.58767051383 -1.57503414806 1.2072909386)
(1.61057911721 -1.59295370312 1.18779466025)
(0.540855708518 -1.59391807173 1.19887730469)
(-0.515599753961 -1.5931632885 1.19917080721)
(-1.58765923967 -1.59102637864 1.19034746975)
(-2.56975787674 -1.57191549257 1.21047705237)
(-3.33253372104 -1.58318664583 1.12848629049)
(-3.85468039487 -1.61243198487 0.805288252134)
(-4.01899387439 -1.5840634784 0.335624466593)
(-3.49393991126 -1.55080238181 -0.166164622602)
(-2.5169905972 -1.54528299624 -0.430538499421)
(-1.12222137319 -1.55043730849 -0.324621389205)
(-0.00834933269396 -1.53163334791 0.496284064262)
(-0.0374058529049 -2.44713439507 0.437314666858)
(1.08665469825 -2.48430812536 -0.401211556479)
(2.47698813921 -2.47518534893 -0.499242986154)
(3.45545275485 -2.4890971438 -0.23235670225)
(3.976731039 -2.54132825161 0.232769359378)
(3.85284728129 -2.59147051255 0.680983506985)
(3.35930673945 -2.573291957 0.989007186754)
(2.5474939057 -2.52829069166 1.30032962135)
(1.59219198926 -2.56802707597 1.21072947177)
(0.541777541979 -2.57699502537 1.19570144762)
(-0.515628550901 -2.57640576076 1.196415255)
(-1.56865618068 -2.56659622136 1.21303773342)
(-2.52846701471 -2.52569337602 1.30256569524)
(-3.34351565541 -2.56886083891 0.990569842912)
(-3.84119416048 -2.58512506119 0.682578555734)
(-3.96800845491 -2.53189630043 0.233740069234)
(-3.44994986757 -2.47808564813 -0.231015312511)
(-2.47492445421 -2.46340032843 -0.498043566059)
(-1.08669944359 -2.47142001211 -0.400471372499)
(0.036821890907 -2.43267047843 0.437855976691)
(-0.0833447776345 -3.12975519551 0.326587190753)
(1.04705944548 -3.19373708812 -0.534829619706)
(2.43398668059 -3.18537414765 -0.624064971404)
(3.40973572845 -3.20487306828 -0.354243759923)
(3.92094878766 -3.27436817907 0.0651349699916)
(3.83833472714 -3.34472305963 0.477748722978)
(3.36398362273 -3.35170654991 0.777511409431)
(2.59079981401 -3.34733626139 0.992392871967)
(1.60333606384 -3.3356242131 1.13393877749)
(0.5442552428 -3.32302860595 1.19936907135)
(-0.51843690783 -3.32300348932 1.20020984562)
(-1.57985301873 -3.33446365873 1.13584863222)
(-2.57031192406 -3.34419804314 0.994263333905)
(-3.34704484015 -3.34766186852 0.779118166271)
(-3.82416199648 -3.33805243908 0.479703768089)
(-3.91057498836 -3.26525612262 0.0675946541897)
(-3.40353738105 -3.19440971412 -0.351636274484)
(-2.43159763066 -3.17385456929 -0.621886936124)
(-1.04748926147 -3.18128945736 -0.533471515249)
(0.0824883579245 -3.11597042009 0.327413493059)
(-0.0902908358202 -3.49254168197 0.174116405435)
(1.0261522804 -3.59209286376 -0.71494920124)
(2.40020565676 -3.5952664093 -0.806674051659)
(3.3662681051 -3.62821698895 -0.543850440019)
(3.85701703117 -3.70971595669 -0.163750364694)
(3.80550397794 -3.79796877799 0.201676433088)
(3.35493652129 -3.83047025598 0.477679732484)
(2.60444298691 -3.84714642961 0.683696225367)
(1.63093094061 -3.86171700205 0.80823018133)
(0.559460532847 -3.86779337683 0.860442770783)
(-0.532547743488 -3.86720322694 0.861363412891)
(-1.60591559565 -3.86023129306 0.81028444212)
(-2.58248317454 -3.84494575548 0.686063014668)
(-3.33542693745 -3.82619380666 0.479979071599)
(-3.7894566083 -3.7919878553 0.204930776462)
(-3.84475902904 -3.7014616724 -0.159580286262)
(-3.35919262986 -3.61914983276 -0.539751876044)
(-2.39760018891 -3.58521619479 -0.803463831674)
(-1.0267002101 -3.58098432689 -0.712776738738)
(0.089105891255 -3.48039018535 0.175339990843)
(-0.102996096645 -3.55714426809 -0.045805723825)
(0.979780285873 -3.62690231882 -0.941570541004)
(2.33439988335 -3.62222423666 -1.04835931969)
(3.28287781411 -3.66107747589 -0.805089507128)
(3.75325873474 -3.74636719975 -0.47467596418)
(3.71627516289 -3.8498157617 -0.163652682266)
(3.28180100928 -3.91373699953 0.0648989542344)
(2.55029928606 -3.97180639952 0.233036430488)
(1.60249874582 -4.02314939732 0.336367174281)
(0.552018033956 -4.05146552892 0.381216383319)
(-0.523927272667 -4.05119057356 0.381854785802)
(-1.57576178574 -4.02215160454 0.338202917609)
(-2.52583512841 -3.96972192876 0.235650641187)
(-3.26023824807 -3.91059021627 0.0683610214243)
(-3.69812869782 -3.84503687085 -0.159074608804)
(-3.74036799962 -3.74084198822 -0.469242367145)
(-3.27496192319 -3.65427008962 -0.799887660135)
(-2.33159979027 -3.61467714905 -1.04419629141)
(-0.980458138123 -3.6181485382 -0.938705092332)
(0.101767240664 -3.54722927178 -0.0443649570174)
(-0.0658273235366 -3.1174224527 -0.300142637593)
(0.964025064095 -3.17241846382 -1.16933622306)
(2.28219346971 -3.16694341771 -1.3038720266)
(3.20523157874 -3.19833655679 -1.09923218357)
(3.66761826952 -3.27591649682 -0.804705945217)
(3.63408891155 -3.35923431142 -0.543313655233)
(3.21044067257 -3.40308078216 -0.353762787386)
(2.4950914196 -3.45021760709 -0.232128926017)
(1.56831037678 -3.49517831579 -0.165970337161)
(0.540863150406 -3.51856571609 -0.147355535815)
(-0.512182674068 -3.51861474786 -0.146851169076)
(-1.54067027901 -3.49496637425 -0.164292795668)
(-2.46936916777 -3.44940727845 -0.229307175521)
(-3.18775447516 -3.40209156969 -0.349809269058)
(-3.61550611321 -3.35778368562 -0.538321477977)
(-3.65349761596 -3.27314119831 -0.799002722852)
(-3.19705910271 -3.19521205816 -1.09373179048)
(-2.27908281208 -3.1628096023 -1.29927724294)
(-0.964689216762 -3.16706364446 -1.16610892787)
(0.0644628584148 -3.11094609635 -0.298448840466)
(0.0335163804709 -2.33991231445 -0.529908309875)
(1.02131282589 -2.3163338362 -1.30689316162)
(2.28340768751 -2.27667040817 -1.46238003865)
(3.17434739502 -2.27582271021 -1.30333379353)
(3.6292157002 -2.32794681854 -1.04740998501)
(3.60136579834 -2.39386297294 -0.805535592453)
(3.19037989462 -2.42794469624 -0.622912093474)
(2.47964590224 -2.47199543087 -0.498388341247)
(1.56094384351 -2.51546386682 -0.430512653498)
(0.53953799609 -2.5386637919 -0.404956491641)
(-0.511343267147 -2.53895853529 -0.404526418767)
(-1.53340911793 -2.51577614061 -0.429036094967)
(-2.45397242936 -2.47297895353 -0.495961679189)
(-3.16753685942 -2.42905275198 -0.619488779308)
(-3.58213092311 -2.39451312007 -0.801082926695)
(-3.61504625126 -2.32843872362 -1.04251671273)
(-3.16563763245 -2.27582884187 -1.2984435222)
(-2.27979602779 -2.27583002764 -1.458207101)
(-1.02156562763 -2.31434699637 -1.30397804163)
(-0.0346679405376 -2.33681760396 -0.528452271266)
(0.171294566679 -1.28469763185 -0.661330690519)
(1.12804972911 -1.12285085454 -1.19351545891)
(2.32385526777 -1.01640031788 -1.3063202511)
(3.18089754792 -0.959267099482 -1.16813344049)
(3.63527349794 -0.974950040222 -0.939973560669)
(3.59948356502 -1.02142447589 -0.713061128775)
(3.19978163759 -1.0428253841 -0.532978701728)
(2.48894891331 -1.08304888073 -0.399580560049)
(1.56633627207 -1.11972766453 -0.323599367923)
(0.54187650628 -1.13860208959 -0.293282686744)
(-0.513264912386 -1.13889003893 -0.292930612872)
(-1.53858841394 -1.12084702363 -0.32254244487)
(-2.46303647127 -1.08469675462 -0.397683614175)
(-3.17673888041 -1.04484812801 -0.530273784402)
(-3.58053618972 -1.02382658225 -0.709748606485)
(-3.62097827036 -0.977332749935 -0.936408699828)
(-3.17188053741 -0.96157016109 -1.16458193633)
(-2.31969542599 -1.01813080599 -1.30337870501)
(-1.12752479746 -1.12360239984 -1.19150826091)
(-0.171969463613 -1.28446437876 -0.660397743996)
(0.373526924627 -0.371166564861 -0.684828316204)
(1.29024065669 -0.169334589645 -0.66097503697)
(2.34775152743 -0.0315679532702 -0.528912152648)
(3.12618972631 0.067814079681 -0.29852204562)
(3.56560331765 0.105101753671 -0.0435800612095)
(3.50011176425 0.0923935430872 0.176716055951)
(3.13561931314 0.0853906697686 0.32939236466)
(2.4511091761 0.0392325721712 0.440031119689)
(1.54822551568 -0.00662063863021 0.498195988627)
(0.537690541736 -0.0320815511337 0.5203955981)
(-0.50772206568 -0.0322606657292 0.520650794613)
(-1.51927402467 -0.00708229329091 0.49909167669)
(-2.42432595757 0.0384775218522 0.441599715267)
(-3.11238845698 0.0843276629222 0.331338356508)
(-3.48117580275 0.0908260124806 0.179057384276)
(-3.55129396864 0.103759544914 -0.0414789644119)
(-3.11693868229 0.0662882225342 -0.296460963759)
(-2.343021793 -0.032767622021 -0.527462423639)
(-1.28870230851 -0.170022160534 -0.660172832827)
(-0.373485933343 -0.371368834114 -0.68467833959)
(0.66597031416 0.666356527374 -2.83011460937)
(1.9276857775 0.789337877877 -2.82016663546)
(3.04471500741 0.88171559391 -2.48908856938)
(3.79586754691 0.959170957799 -1.92226122105)
(4.13237791723 1.03233774107 -1.26693258818)
(3.98563745952 1.07974767999 -0.6779578586)
(3.50901315364 1.10214222779 -0.207212611592)
(2.71262099307 1.13693593979 0.137609654293)
(1.69870052357 1.16958266678 0.336036599159)
(0.57917797649 1.18815394961 0.418465664283)
(-0.572421531769 1.18807604017 0.418639990242)
(-1.69230279244 1.1693265033 0.336607298098)
(-2.70686633814 1.13652019156 0.138425895688)
(-3.50410990421 1.10149166273 -0.206015750387)
(-3.98175582212 1.07884090519 -0.676758563562)
(-4.12929885114 1.03117266853 -1.26591572233)
(-3.79295793344 0.957688299771 -1.92132092492)
(-3.04196027137 0.880194668554 -2.48802629549)
(-1.92518577603 0.788064505256 -2.81828163381)
(-0.66518989089 0.665705588266 -2.82758292764)
(0.789052203139 1.92917501903 -2.81924782188)
(2.06204583366 2.06483835489 -3.28460837424)
(3.09614008965 2.16510616833 -3.10292854455)
(3.72833918652 2.26577667722 -2.60146269748)
(3.96494795642 2.36520300669 -1.98874302436)
(3.80783897269 2.44380384437 -1.40424099468)
(3.32033953214 2.49750776084 -0.921986829526)
(2.559897429 2.55171919857 -0.567613592604)
(1.60835180341 2.5993073175 -0.349473614775)
(0.551761600012 2.62595288443 -0.250258287817)
(-0.538885506858 2.62572626898 -0.249991406264)
(-1.59592333915 2.59872865025 -0.348749562927)
(-2.54833264642 2.55061076329 -0.566290241998)
(-3.31003735748 2.49587475819 -0.920295722279)
(-3.79891161232 2.4415123069 -1.40256329741)
(-3.95728425422 2.36220702653 -1.98737669053)
(-3.72181424801 2.26224157716 -2.60067646059)
(-3.09081994379 2.16154194775 -3.10209281977)
(-2.05839929324 2.06194124998 -3.2831238065)
(-0.787934182498 1.9276115789 -2.8174528765)
(0.88106485659 3.04673045182 -2.48702986914)
(2.16120405191 3.10143662536 -3.10147479186)
(3.14958796626 3.15709385522 -2.91378095757)
(3.70543287792 3.23121486088 -2.36475217757)
(3.87459489953 3.31129597826 -1.71099093405)
(3.6859303009 3.37546810797 -1.0976214559)
(3.19275087006 3.41923703575 -0.598345256859)
(2.45589887742 3.45998882022 -0.23065112143)
(1.54375031293 3.49781850833 0.00323163230707)
(0.530709703283 3.50969077825 0.116515432992)
(-0.514666025126 3.50970906723 0.116717241396)
(-1.52823660165 3.49707655467 0.00392015326154)
(-2.44140356813 3.45855536237 -0.229394561988)
(-3.17969862642 3.4169265294 -0.596614712369)
(-3.67456000614 3.37217677374 -1.09610984031)
(-3.86478182198 3.3069445337 -1.71006659452)
(-3.69706796622 3.22616711692 -2.36439454492)
(-3.14289827245 3.15214072281 -2.9136427013)
(-2.15675285724 3.09786175364 -3.10087924032)
(-0.879549713897 3.04574244353 -2.48626556505)
(0.958218499999 3.7979237323 -1.91888209469)
(2.26120257711 3.73545495397 -2.59839542197)
(3.22245352142 3.71605102405 -2.36313700398)
(3.71321169626 3.72595807802 -1.76119375147)
(3.82094899657 3.74816327248 -1.0713576653)
(3.5938708948 3.75762708451 -0.443104108168)
(3.09088962942 3.75702096617 0.0497503823468)
(2.37017111012 3.75198725916 0.416018227466)
(1.48046782749 3.74818364042 0.650476807001)
(0.503872238348 3.74695184852 0.776592662898)
(-0.486242772732 3.74628006406 0.777015629613)
(-1.46384983666 3.74705709536 0.651365633621)
(-2.35466102968 3.75002869884 0.417787303058)
(-3.0769823864 3.7543295998 0.0519406711901)
(-3.58205274535 3.75416063923 -0.441009114274)
(-3.81096236783 3.74303989706 -1.07012636309)
(-3.70473147166 3.71996575834 -1.7607667625)
(-3.21571548062 3.71047500441 -2.36315606179)
(-2.25666893977 3.73209825201 -2.59817894424)
(-0.956601515841 3.79853477513 -1.91882358158)
(1.03137409079 4.13329437385 -1.26239593905)
(2.36041916765 3.97259334957 -1.98447264929)
(3.30229281965 3.88706324482 -1.70769280895)
(3.73461040059 3.83654433629 -1.06935472217)
(3.78317746135 3.79947019147 -0.352369651659)
(3.51614866562 3.76704161631 0.278501840994)
(2.99911706308 3.72292951772 0.759543042227)
(2.28532257263 3.67406069529 1.11991181586)
(1.4293343024 3.63021810954 1.35847910611)
(0.490932600832 3.61541873288 1.47487790336)
(-0.4734679289 3.61486336542 1.4749359928)
(-1.41227056037 3.62838537519 1.35939241476)
(-2.26937185261 3.67148156449 1.12221058237)
(-2.98480734037 3.71950903117 0.763204694983)
(-3.50498989379 3.76247371683 0.281975173958)
(-3.77467106964 3.79410158259 -0.349893158097)
(-3.72730174255 3.82979886075 -1.06830151372)
(-3.2963042813 3.88102690461 -1.70716395446)
(-2.35650986586 3.96983234844 -1.98415554042)
(-1.03002748859 4.13563887816 -1.2626931673)
(1.07880785592 3.98467810176 -0.672581261804)
(2.43947741604 3.81455612658 -1.39901239663)
(3.36706617283 3.69834764191 -1.09273981834)
(3.74356598282 3.61046102343 -0.438699187018)
(3.74958037381 3.53495213977 0.281608056151)
(3.45623596112 3.47511506065 0.90476817022)
(2.92492462408 3.41313080692 1.3762267694)
(2.21556010103 3.34326847655 1.7283635406)
(1.37851267841 3.27585012916 1.94464511568)
(0.47299716999 3.23773449046 2.04588425494)
(-0.455964744038 3.23713846587 2.04610014501)
(-1.36208646652 3.27455580971 1.9459261774)
(-2.20008980837 3.34015135201 1.73091163371)
(-2.91190015013 3.40853817139 1.38112152002)
(-3.44560518633 3.46850159883 0.909658245427)
(-3.74256308723 3.52761555711 0.284531188217)
(-3.73838524698 3.60265297799 -0.436836484598)
(-3.36249905704 3.69204563314 -1.09176081555)
(-2.43628661184 3.81222164421 -1.39846866856)
(-1.07761278302 3.98892884376 -0.673348608707)
(1.10155643049 3.50502512228 -0.201297664446)
(2.49408489678 3.32420741318 -0.915909011331)
(3.4123422677 3.20279279769 -0.591679534885)
(3.74487337099 3.10535652257 0.0573309485841)
(3.70601936228 3.01738195735 0.765159314083)
(3.39306385165 2.94364299306 1.3778671385)
(2.85814535466 2.87698266523 1.85347420728)
(2.14233109343 2.79271655886 2.15691144879)
(1.31796113247 2.71944753898 2.3202919325)
(0.449488905044 2.67799866106 2.38770244977)
(-0.432932086617 2.6781536766 2.38886776948)
(-1.3023051544 2.71792191607 2.3225870463)
(-2.12883606267 2.78975186726 2.16128468836)
(-2.84655029716 2.8706896079 1.85792141887)
(-3.38527563585 2.9358453673 1.38357929553)
(-3.70054780167 3.00744678888 0.768833396945)
(-3.7410894258 3.09665083601 0.0593536151999)
(-3.40904445207 3.19601332089 -0.590424962437)
(-2.49192225416 3.32246869886 -0.915371916572)
(-1.10073576045 3.51075883586 -0.202111208786)
(1.13662605954 2.70478589647 0.143352502111)
(2.54936788881 2.55931432959 -0.561105180592)
(3.45419404636 2.46082686433 -0.222153810443)
(3.74150491972 2.37884047418 0.426142618318)
(3.65816312421 2.29776411389 1.12796934481)
(3.32341958637 2.22964601938 1.7314846394)
(2.77334149087 2.15526572059 2.15635547596)
(2.06854066294 2.08159379966 2.33304427783)
(1.2592292001 2.00298968669 2.50605015718)
(0.427634038978 1.96335364941 2.59041308128)
(-0.411826797338 1.96295599726 2.5917641149)
(-1.24540859274 2.00180353487 2.50960110039)
(-2.05694119034 2.07788352124 2.33625567052)
(-2.76504161716 2.14937099053 2.15955256852)
(-3.31679333938 2.22067866818 1.73407424758)
(-3.65461872844 2.28800163259 1.13049320529)
(-3.73868754591 2.36910604611 0.42810763641)
(-3.45253282635 2.4541323446 -0.221222377526)
(-2.54797171145 2.55813545102 -0.560719242713)
(-1.1361729818 2.71213372849 0.142297733655)
(1.16957218364 1.68710443104 0.341259388184)
(2.59738646282 1.60208124662 -0.343003842252)
(3.4925976181 1.54168628024 0.012663214768)
(3.73936851157 1.47935640466 0.664809810443)
(3.61636346546 1.43532222991 1.36943932638)
(3.2548594468 1.3867101199 1.94749464054)
(2.69912279529 1.32609693392 2.31047680751)
(1.99040157725 1.26818136456 2.49533100822)
(1.21049106574 1.21869776445 2.70010626234)
(0.408151647724 1.1867283248 2.80887103033)
(-0.393399663368 1.18649086645 2.80944661155)
(-1.19726176784 1.21739882581 2.70163806974)
(-1.98078717514 1.26555010145 2.49970520976)
(-2.69215331789 1.32076137992 2.31347323329)
(-3.25148137149 1.37917418883 1.95009233902)
(-3.61440329369 1.4257674378 1.37091278817)
(-3.73848880179 1.46954548169 0.666352319492)
(-3.49157880791 1.53528775587 0.0133767481925)
(-2.59723395962 1.60201887014 -0.343114570415)
(-1.1693264413 1.69579760774 0.339943061675)
(1.18816499706 0.563810140837 0.422615982532)
(2.62395986471 0.540050736025 -0.245105352494)
(3.50248287774 0.522457604166 0.124878153818)
(3.74034235424 0.49733681936 0.792404234996)
(3.60662279325 0.490269966882 1.48891910059)
(3.21884237009 0.47492874736 2.05196578925)
(2.65875790127 0.452889438054 2.38024960603)
(1.95144091402 0.432118278058 2.58477922019)
(1.17826527163 0.412228813073 2.80898304313)
(0.394167767501 0.398389592321 2.91634982101)
(-0.379582778974 0.398243500918 2.91766532105)
(-1.16609226232 0.411642472995 2.8135956703)
(-1.94291383061 0.429833300817 2.59032532651)
(-2.65446955994 0.448494613473 2.38503037868)
(-3.21703359604 0.46833849743 2.05496386762)
(-3.60794266656 0.481832772239 1.49062260768)
(-3.74066797179 0.487051606653 0.794693146282)
(-3.50229198066 0.517101804509 0.12557135849)
(-2.62443347048 0.541191338743 -0.245268544264)
(-1.18844524887 0.574066213641 0.420940300483)
(1.18831693899 -0.591144324178 0.420618192191)
(2.62420870135 -0.555306716069 -0.246723024411)
(3.50423106012 -0.527396272005 0.123129131989)
(3.74136422779 -0.493113858911 0.790235326609)
(3.60737866471 -0.480199095541 1.48877779043)
(3.21919539385 -0.460903020382 2.05157121386)
(2.65981856319 -0.435945706349 2.38009232132)
(1.95150705487 -0.413877266268 2.58308026226)
(1.17868105211 -0.394273791722 2.80553289377)
(0.394271009859 -0.379866896061 2.9130530465)
(-0.3801880239 -0.38041287153 2.91578643552)
(-1.16725784435 -0.395855322566 2.81337290444)
(-1.94455118652 -0.41695672002 2.59194061103)
(-2.65677665623 -0.440706387658 2.38646809407)
(-3.21978776139 -0.466861361959 2.05636428891)
(-3.61179915416 -0.487091324939 1.49186273522)
(-3.74351052691 -0.499301376862 0.795513836772)
(-3.50344034532 -0.530742207223 0.124683174381)
(-2.625736 -0.552599711353 -0.246864436011)
(-1.18902276453 -0.579372606849 0.418848884612)
(1.16987466375 -1.71338086277 0.335665586435)
(2.59830737481 -1.61645992283 -0.348226443906)
(3.49521442438 -1.54601800427 0.0076831934123)
(3.74355176765 -1.47658080682 0.660850444934)
(3.61962929455 -1.42455489783 1.36987501172)
(3.25832568237 -1.37148085714 1.94768729946)
(2.70135597902 -1.30764729447 2.31059232234)
(1.99212200281 -1.24856752527 2.49588784912)
(1.21067172337 -1.19749958367 2.69619083757)
(0.407842251743 -1.16571139382 2.80746282539)