/*--------------------------------*- C++ -*----------------------------------*\
| =========                 |                                                 |
| \\      /  F ield         | OpenFOAM: The Open Source CFD Toolbox           |
|  \\    /   O peration     | Version:  3.0.1                                 |
|   \\  /    A nd           | Web:      www.OpenFOAM.org                      |
|    \\/     M anipulation  |                                                 |
\*---------------------------------------------------------------------------*/
FoamFile
{
    version     2.0;
    format      ascii;
    class       volVectorField;
    location    "3";
    object      U;
}
// * * * * * * * * * * * * * * * * * * * * * * * * * * * * * * * * * * * * * //

dimensions      [0 1 -1 0 0 0 0];

internalField   nonuniform List<vector> 
7968
(
(0.001043525142 0.00104833462556 -0.00191214062452)
(0.00328605239705 0.000469714180253 -0.001919814104)
(0.00626866731589 0.000180751751524 -0.00167302147401)
(0.00860363986606 0.000162028187862 -0.00127468611557)
(0.0100021229749 0.000401486383656 -0.000887078092642)
(0.0100744737995 0.000803473558098 -0.000585972194456)
(0.00912352561321 0.00119068084109 -0.000414390845684)
(0.0071675742525 0.00158733570968 -0.000308349809947)
(0.004540887904 0.00187720902847 -0.000273561589805)
(0.00155101500526 0.00202690498824 -0.000269593879894)
(-0.00155478058489 0.0020272176799 -0.000269638734717)
(-0.00454544302258 0.0018780967717 -0.000273765796765)
(-0.00717344960339 0.00158870533444 -0.00030883166055)
(-0.00913073381378 0.00119233135708 -0.000415293454951)
(-0.010082606834 0.000805155979503 -0.000587240164183)
(-0.0100104514576 0.000402948803095 -0.000888821026511)
(-0.00861069702537 0.000163191176611 -0.00127666522524)
(-0.00627384220413 0.000181839010721 -0.00167526085331)
(-0.00328929970972 0.000470999894059 -0.00192301188544)
(-0.00104391667021 0.00104998717675 -0.00191588306688)
(0.00046543781446 0.00329471549713 -0.00191932230319)
(0.00282053385921 0.00282647343178 -0.0038409896976)
(0.0065081455849 0.00282351737765 -0.00443947978664)
(0.00936334991723 0.00335110091248 -0.00434160083834)
(0.0110284931704 0.00434590700598 -0.0040428934595)
(0.0112100142217 0.00556070042752 -0.00374579844696)
(0.0101039577825 0.00670924592251 -0.00353785404505)
(0.00790840979878 0.00770929796337 -0.00342094123623)
(0.00498804813687 0.00840912119606 -0.00339270540897)
(0.00169919685986 0.00876216554585 -0.00340128480554)
(-0.00170124828975 0.00876262651416 -0.0034011527441)
(-0.00499086810218 0.00841042047082 -0.00339240887262)
(-0.00791254878778 0.00771129180688 -0.00342059433044)
(-0.0101096809831 0.00671161954054 -0.00353761628191)
(-0.0112171018645 0.00556303667003 -0.00374595739363)
(-0.0110360528388 0.00434776860696 -0.00404396399596)
(-0.00936979137801 0.00335249303622 -0.00434356268088)
(-0.00651247879955 0.00282510809808 -0.00444211647305)
(-0.00282261515702 0.00282922389466 -0.00384428323198)
(-0.000465335343578 0.0032995011023 -0.00192259974773)
(0.000177304756473 0.00628003252223 -0.00167138418989)
(0.00282020780416 0.00651331142737 -0.00443873794146)
(0.00717933205479 0.00717924463669 -0.0053061127024)
(0.0105565594854 0.00850139718341 -0.00515398848915)
(0.0125121210585 0.0103675869787 -0.00467918952017)
(0.0127652520839 0.0124609414227 -0.00418042257336)
(0.0114751332851 0.0144162171679 -0.00379957491477)
(0.00895299575912 0.0160600188305 -0.00357576846223)
(0.00562818804671 0.0172111633268 -0.00350076327068)
(0.00191367050953 0.0177933028214 -0.00349789459408)
(-0.00191260184935 0.0177936642132 -0.0034975211293)
(-0.00562795517578 0.0172122218377 -0.00349978270945)
(-0.0089542801253 0.0160616741202 -0.00357424924368)
(-0.0114785225473 0.0144181395507 -0.0037977501384)
(-0.0127707296391 0.012462809727 -0.00417896086855)
(-0.0125187712276 0.0103691273745 -0.00467889947028)
(-0.010562685192 0.00850281711263 -0.00515508587619)
(-0.00718363524667 0.00718140966179 -0.00530824688905)
(-0.00282223911197 0.00651741940264 -0.00444144544961)
(-0.000177474932676 0.00628757961481 -0.00167395896158)
(0.000159156371017 0.00861348395576 -0.00127139020757)
(0.00334950777676 0.00936443181741 -0.00434008444942)
(0.00850503677894 0.010550408767 -0.00515386288789)
(0.0125252400644 0.0125137389535 -0.00470423194023)
(0.0148374197645 0.0150861664746 -0.00382572530979)
(0.015115985061 0.0178883915677 -0.00291073667622)
(0.0135366281744 0.0204766469345 -0.00217263891302)
(0.0105123786862 0.0226136959081 -0.0016961146421)
(0.00657581391029 0.0240970410318 -0.00148561248692)
(0.00222883425989 0.0248430995381 -0.00143076049326)
(-0.0022255677938 0.0248431109005 -0.00143015320073)
(-0.00657329553055 0.0240970730193 -0.0014838221681)
(-0.0105114981009 0.0226137413874 -0.0016931950655)
(-0.0135383516974 0.0204764535768 -0.00216899977114)
(-0.0151204961475 0.0178880039952 -0.00290740207607)
(-0.0148437927922 0.0150857913827 -0.00382382964792)
(-0.0125316140002 0.0125137726216 -0.00470409718505)
(-0.00850986939674 0.0105518606539 -0.0051550896137)
(-0.00335209620927 0.00936870172938 -0.00434205317561)
(-0.000159828071815 0.00862239662114 -0.001273417052)
(0.000399137672928 0.010007758032 -0.000882007277867)
(0.00434459077668 0.011024051983 -0.00404105033578)
(0.0103723233586 0.0124990122766 -0.00467998452442)
(0.0150999771959 0.0148168252021 -0.003827419987)
(0.017800194589 0.0177747819172 -0.00241327646137)
(0.0180704376974 0.0209601594783 -0.000904245320401)
(0.0161256752616 0.0238806417167 0.000340295298325)
(0.0124697158811 0.0262711099468 0.00119494768825)
(0.00776775077098 0.0279292306743 0.00162049650727)
(0.00262638009194 0.0287662346606 0.00176301905929)
(-0.00262244484207 0.028765525232 0.00176384073215)
(-0.00776459159899 0.0279271317564 0.00162290092729)
(-0.012468340923 0.026267868493 0.00119891649758)
(-0.0161270955295 0.0238764324825 0.000345115638701)
(-0.0180747245995 0.0209556645874 -0.000899667589173)
(-0.0178064418539 0.0177707051744 -0.00241005823854)
(-0.0151067308129 0.0148140137862 -0.00382593981105)
(-0.0103778231272 0.0124984581459 -0.0046800806756)
(-0.00434791559391 0.0110272238006 -0.00404201601716)
(-0.000400441716538 0.0100165837057 -0.00088320911925)
(0.000800246274365 0.0100755544437 -0.000580187815938)
(0.00555766378481 0.0112012308526 -0.00374456251766)
(0.0124635967285 0.012747549636 -0.00418363028187)
(0.0179001773945 0.0150893300535 -0.00291701573803)
(0.0209854296015 0.0180366434231 -0.000910975799074)
(0.0211978606756 0.0211623490182 0.00120440158617)
(0.0188371634661 0.0239617556901 0.00297165430406)
(0.0145145889335 0.0262454304765 0.00419111242867)
(0.00901131454551 0.027816301056 0.00482009703753)
(0.00304019747452 0.0286026777811 0.00504784132218)
(-0.00303776918127 0.0286012355109 0.00504826794447)
(-0.00900923627674 0.027811955204 0.00482165010827)
(-0.0145138289429 0.0262385369098 0.00419441563369)
(-0.0188388736201 0.0239529815348 0.00297610810887)
(-0.0212019701446 0.0211526713295 0.00120917680695)
(-0.0209915053168 0.0180276339502 -0.000906830484841)
(-0.0179068642017 0.0150821585792 -0.00291445978224)
(-0.0124692687684 0.0127435063615 -0.00418271400351)
(-0.00556120462608 0.0112016710881 -0.00374452967322)
(-0.000801717863447 0.0100822728879 -0.000580642349524)
(0.00118758035096 0.00912146424309 -0.000407735872849)
(0.00670437239106 0.0100946025743 -0.00353760219474)
(0.0144158226097 0.0114586165811 -0.00380607088354)
(0.0204846486624 0.0135121456007 -0.00218560484916)
(0.0239042494147 0.0160942583647 0.000323622419445)
(0.0239979733168 0.0188045753713 0.00296212552217)
(0.0212500709806 0.0212182103501 0.00512238921311)
(0.016306152681 0.02321559279 0.00663401765223)
(0.010074281692 0.0245848727461 0.00742484848246)
(0.00338752778719 0.025263658938 0.00771184944891)
(-0.00338830975008 0.0252618135362 0.0077119896981)
(-0.0100753097903 0.0245792833345 0.00742548559545)
(-0.016308008666 0.0232063462339 0.00663599474752)
(-0.0212537366705 0.0212057146853 0.00512587365137)
(-0.0240031293896 0.0187900755005 0.00296591869663)
(-0.0239103512999 0.0160798161226 0.000327369241535)
(-0.0204909649573 0.0134999617264 -0.00218292903949)
(-0.014421124327 0.0114503995024 -0.00380475017539)
(-0.00670765404818 0.0100915914408 -0.0035368743978)
(-0.00118929238936 0.00912512718886 -0.000407506657058)
(0.00158387287055 0.00716334733314 -0.000300865622785)
(0.0077031746811 0.00790219713564 -0.00342126785835)
(0.0160571748679 0.00894389110663 -0.00358448779739)
(0.0226182742652 0.0104989499751 -0.0017143449695)
(0.0262934426784 0.0124514182883 0.00116973804639)
(0.0262851909879 0.0144965726369 0.00417522768764)
(0.0232514741563 0.016292147108 0.00663273481978)
(0.0178211777298 0.0178073056703 0.00828231286804)
(0.0109937063678 0.0188557865875 0.00891599908355)
(0.00368415714812 0.0193545283942 0.00913885427568)
(-0.00368969268383 0.0193527318237 0.00913930433892)
(-0.010999279121 0.0188497380682 0.00891745652687)
(-0.017827282757 0.0177959227422 0.00828581384241)
(-0.0232591554624 0.0162766700966 0.00663474325274)
(-0.0262928970911 0.0144782813823 0.004176799768)
(-0.0263001243259 0.0124324537131 0.00117117708536)
(-0.0226238816198 0.0104824084062 -0.00171296905888)
(-0.0160615251942 0.00893175598306 -0.0035835647155)
(-0.00770573070107 0.00789552919374 -0.00342029853022)
(-0.00158539897358 0.00716326259701 -0.000300180941224)
(0.00187363491898 0.00453448840369 -0.000265146135388)
(0.00840274751019 0.00498662828243 -0.00339230655927)
(0.0172071035928 0.00562961063466 -0.00350889045378)
(0.024098966673 0.00657820017782 -0.00150456889168)
(0.0279493801014 0.00776753725708 0.0015920413191)
(0.0278580710797 0.00901009863767 0.00480242299558)
(0.0246249135916 0.0100738245638 0.0074285158881)
(0.0188716654363 0.0109930819943 0.00892344179989)
(0.0115761632795 0.0115759207816 0.0096091049182)
(0.00386429019089 0.0118509809485 0.0098228896654)
(-0.00387397664464 0.011848612622 0.00982416936581)
(-0.0115877581851 0.011568599442 0.0096113907383)
(-0.0188837596544 0.0109801782012 0.00892523530253)
(-0.024636745897 0.0100568167143 0.0074282349669)
(-0.0278685438948 0.00899024154142 0.00480128756395)
(-0.0279567944245 0.00774661781609 0.00159017806909)
(-0.0241035038387 0.00655962078329 -0.00150550195439)
(-0.0172099796494 0.00561519629955 -0.00350908279523)
(-0.00840418432023 0.00497736003049 -0.00339165551968)
(-0.00187466415413 0.00453105055699 -0.00026424034711)
(0.00202357088239 0.00154096225948 -0.000260480859825)
(0.00875609679477 0.0017011141806 -0.0033992419139)
(0.0177892105542 0.00192390405827 -0.00350312291142)
(0.024843093117 0.00224433603247 -0.00144473202496)
(0.0287822658111 0.00264212964917 0.00173791396111)
(0.0286398680368 0.00305333698759 0.00503134944162)
(0.0253005884367 0.00339660082179 0.00771489158401)
(0.019370010639 0.00368937793252 0.00914630505114)
(0.0118524565818 0.00386873216841 0.00982618081339)
(0.0039505962112 0.00395424860322 0.0100246395153)
(-0.00396671797352 0.00395111167492 0.0100247963226)
(-0.0118690724755 0.0038597659625 0.00982640417459)
(-0.0193862429826 0.00367624279889 0.00914592544483)
(-0.0253158341429 0.00338010678394 0.00771234802256)
(-0.02865269366 0.00303438647439 0.00502738709007)
(-0.0287900702955 0.0026223788936 0.00173244361444)
(-0.024846278853 0.00222668372416 -0.00144820594298)
(-0.0177903897334 0.00190969347432 -0.00350486456588)
(-0.0087562507204 0.00169104957708 -0.00339938722303)
(-0.00202392271618 0.0015354003037 -0.000259752256881)
(0.00202435467422 -0.00156993698017 -0.000260733515674)
(0.00875654736225 -0.00169835244654 -0.00339809005531)
(0.0177889906099 -0.00189703586508 -0.00350054578028)
(0.0248411701687 -0.00220210552675 -0.00144069542915)
(0.0287775405256 -0.00259566392184 0.00174254882954)
(0.0286332426699 -0.00301350855471 0.00503463223011)
(0.0252938075002 -0.00336916132007 0.00771677176698)
(0.0193649911597 -0.00367713273169 0.00914762782879)
(0.0118488047543 -0.00386759418896 0.00982894146436)
(0.00394722557348 -0.00396271908888 0.010027124769)
(-0.0039690653757 -0.00396465311774 0.0100264805525)
(-0.0118702071787 -0.00387406609182 0.0098264594657)
(-0.0193845266023 -0.00368719055615 0.00914468481465)
(-0.0253116234344 -0.00338247447653 0.0077114588071)
(-0.0286475466568 -0.00302875037837 0.00502762737914)
(-0.0287851094788 -0.00261105784798 0.00173371162554)
(-0.024842759349 -0.00221607497541 -0.00144651647158)
(-0.0177884018452 -0.00190832943916 -0.00350373288474)
(-0.00875537426002 -0.00170691424702 -0.00339898257016)
(-0.00202398665824 -0.00157575136411 -0.000260321639867)
(0.0018754781375 -0.00456534400479 -0.000266073316663)
(0.00840384241462 -0.00498759860951 -0.00338906571241)
(0.0172063491768 -0.00560853678776 -0.00350164265368)
(0.0240929696672 -0.00654319249872 -0.00149263852686)
(0.027934776432 -0.00772904106747 0.0016049228284)
(0.0278372404955 -0.00897753839638 0.00481063854183)
(0.0246030629251 -0.0100530227503 0.00743166749366)
(0.0188536272176 -0.0109861255815 0.00892404477943)
(0.0115626932283 -0.0115821685148 0.00960954760902)
(0.00385419461402 -0.0118663169494 0.0098216320576)
(-0.00387878931078 -0.0118673963758 0.00982120187264)
(-0.0115871673988 -0.0115849496538 0.00960706896338)
(-0.0188762047511 -0.010990855211 0.00892051781655)
(-0.024623192664 -0.0100605198789 0.00742398285787)
(-0.0278524174823 -0.00898612711737 0.00480088456887)
(-0.0279417849494 -0.00773705801314 0.00159337152388)
(-0.0240929663328 -0.00655058292836 -0.00150087693395)
(-0.0172038969361 -0.00561454879173 -0.00350593231842)
(-0.00840139535596 -0.00499261604281 -0.00339054494581)
(-0.00187456368742 -0.00456967111074 -0.0002659498474)
(0.00158593097417 -0.00719678658491 -0.000302597751096)
(0.00770424431671 -0.00790902801731 -0.00341693683601)
(0.0160548975088 -0.00893218501042 -0.0035744907914)
(0.0226077816238 -0.0104759359431 -0.00169830937693)
(0.0262698728671 -0.012425153933 0.00118667941601)
(0.0262520668676 -0.0144734731126 0.00418485198725)
(0.0232174025654 -0.0162777627026 0.00663435526235)
(0.0177912918369 -0.0178020219086 0.00828286437744)
(0.0109701137585 -0.0188604396948 0.00891252577728)
(0.00366866887186 -0.0193651000179 0.0091313266635)
(-0.00369438074896 -0.0193652526463 0.0091307735305)
(-0.0109952360578 -0.0188600278557 0.00891066255424)
(-0.0178146320731 -0.0178011331103 0.00828065295148)
(-0.0232382802308 -0.0162779290182 0.00662601668448)
(-0.0262670761162 -0.0144734911817 0.00417382975332)
(-0.0262759229092 -0.0124240455114 0.00117439293406)
(-0.0226065965815 -0.0104749200964 -0.00170693382097)
(-0.0160513001693 -0.00893161437505 -0.00357895322713)
(-0.00770100505381 -0.00790936653267 -0.00341851027879)
(-0.00158473995343 -0.0071985097472 -0.000302670800702)
(0.00118910028663 -0.00915646473412 -0.000410453877255)
(0.00670464979329 -0.0101074449072 -0.00353339435835)
(0.0144112137561 -0.0114568517817 -0.00379571062411)
(0.0204700371456 -0.0135016162683 -0.00216923099079)
(0.0238745887505 -0.0160802601982 0.000340655957154)
(0.0239567254528 -0.0187903062703 0.00297124494091)
(0.021207509931 -0.0212084333931 0.00512191389776)
(0.0162699842916 -0.0232124978615 0.00662762667357)
(0.010046301655 -0.0245872227549 0.00741520042824)
(0.0033693928476 -0.0252685104464 0.0076986500535)
(-0.00339403232598 -0.025267556018 0.00769780208673)
(-0.0100704674237 -0.0245841064709 0.00741274879714)
(-0.0162930551326 -0.0232074021199 0.00662330153304)
(-0.0212273678716 -0.0212017268834 0.00511469250651)
(-0.023970459472 -0.0187819858598 0.00296103787365)
(-0.023879491603 -0.0160705148798 0.000329871996629)
(-0.0204683139863 -0.0134928183688 -0.00217653582603)
(-0.0144073458298 -0.0114501285436 -0.00379923299232)
(-0.00670129591106 -0.0101032976245 -0.00353438399259)
(-0.00118789491024 -0.00915542740238 -0.000410439299902)
(0.000801488508557 -0.0101098925796 -0.000583596495419)
(0.0055565141245 -0.0112179180279 -0.0037414542463)
(0.0124563320453 -0.0127531799033 -0.00417502436831)
(0.017882635513 -0.0150883581516 -0.0029034467355)
(0.020953358365 -0.0180319357963 -0.000896719930855)
(0.0211536048154 -0.0211544679817 0.00121221405388)
(0.0187903590686 -0.0239540752599 0.002969900448)
(0.0144734719693 -0.0262405646723 0.00418208419829)
(0.00898020509594 -0.0278138941603 0.0048062535553)
(0.00302106580912 -0.0286005048784 0.0050310979194)
(-0.00304368710837 -0.0285987874727 0.00503052433618)
(-0.00900216191701 -0.0278087805742 0.00480458623543)
(-0.0144940509238 -0.0262322585605 0.00417899182128)
(-0.01880747837 -0.0239428037434 0.00296437342053)
(-0.0211646760844 -0.0211403964257 0.0012047523126)
(-0.0209568681744 -0.0180163611372 -0.00090364970722)
(-0.0178810788742 -0.0150745011542 -0.00290757430993)
(-0.0124531118363 -0.0127425622159 -0.00417658770102)
(-0.00555379002932 -0.011211005499 -0.00374147110366)
(-0.000800509364634 -0.0101070778574 -0.000583412285095)
(0.000398532486789 -0.0100386378348 -0.000886764424593)
(0.00434118019893 -0.0110414002277 -0.00403944595531)
(0.0103622937657 -0.0125084179752 -0.00467386380078)
(0.0150806458274 -0.0148215371236 -0.00381753783746)
(0.0177683380901 -0.0177754667661 -0.00240263687387)
(0.0180278603489 -0.0209561597631 -0.00089792703378)
(0.0160799521635 -0.0238729715442 0.000338708318555)
(0.0124286555258 -0.0262612890622 0.00118599139493)
(0.00773670141111 -0.0279174400576 0.00160613496017)
(0.00260787232353 -0.0287523015902 0.00174618392092)
(-0.00262751454031 -0.0287502977304 0.00174597457472)
(-0.00775560535091 -0.0279114665193 0.0016054515559)
(-0.0124459270889 -0.026251554467 0.00118447956508)
(-0.0160937885453 -0.0238597411617 0.000335940022644)
(-0.01803638983 -0.0209402138373 -0.000901215924847)
(-0.017771259819 -0.0177587672072 -0.00240477597591)
(-0.0150800332909 -0.0148068605865 -0.00381803332073)
(-0.0103604391821 -0.0124972011001 -0.00467325588503)
(-0.00433959557835 -0.0110340275246 -0.00403842497594)
(-0.000397879452071 -0.010035323508 -0.00088641705104)
(0.00015762408484 -0.0086374934964 -0.00127581274471)
(0.00334377260333 -0.0093794903728 -0.00433928037251)
(0.00849277735554 -0.0105603871772 -0.00514994203645)
(0.0125053650268 -0.0125207760099 -0.00469793496131)
(0.0148083091534 -0.0150901366645 -0.00381835679792)
(0.0150787925317 -0.0178874208159 -0.00290526073997)
(0.0134969141862 -0.0204704186973 -0.00217173316769)
(0.010476773831 -0.0226029737811 -0.00169970648143)
(0.00654932391306 -0.0240823053744 -0.00149194437654)
(0.00221305491285 -0.0248253765537 -0.00143746199214)
(-0.00223034546661 -0.0248236937014 -0.00143750357472)
(-0.0065655511412 -0.0240772162785 -0.00149200710737)
(-0.0104909889478 -0.0225946110651 -0.00169984730624)
(-0.0135078397148 -0.0204591399624 -0.00217206127668)
(-0.0150854391054 -0.0178741985091 -0.00290527728052)
(-0.0148108902229 -0.0150766921525 -0.0038173700101)
(-0.0125055024948 -0.0125091773368 -0.0046962040739)
(-0.00849192092356 -0.0105516759712 -0.00514797212566)
(-0.00334304828007 -0.00937403493704 -0.00433765618978)
(-0.000157198445076 -0.0086351926919 -0.00127546306827)
(0.000174872074445 -0.0062965940015 -0.00167526063403)
(0.00281303892429 -0.00652450522483 -0.00443838380424)
(0.0071661343354 -0.00718778111936 -0.0053038511157)
(0.0105374942619 -0.00850856608017 -0.00515057427781)
(0.0124868443766 -0.0103731218833 -0.00467506181863)
(0.0127348494374 -0.0124631596796 -0.00417666607628)
(0.0114432061951 -0.0144144298606 -0.00379743697998)
(0.00892418099676 -0.0160544044027 -0.00357549470848)
(0.00560626359329 -0.0172022599222 -0.00350142514425)
(0.00190027852516 -0.0177821036468 -0.00349872903633)
(-0.00191641811323 -0.0177808546599 -0.003498893965)
(-0.00562092273911 -0.0171985848823 -0.00350161927959)
(-0.0089363725156 -0.0160485256573 -0.00357546302188)
(-0.0114520535302 -0.0144067941978 -0.00379697243149)
(-0.0127400343701 -0.0124545659878 -0.00417559993979)
(-0.012488748808 -0.0103646996936 -0.0046731980013)
(-0.0105374545493 -0.00850160585813 -0.00514826181165)
(-0.00716528666019 -0.00718291043315 -0.00530158435967)
(-0.00281230738295 -0.00652193581348 -0.00443677232233)
(-0.000174314353777 -0.00629578443028 -0.00167489335185)
(0.000462702000157 -0.00330431060987 -0.00192303655151)
(0.00281364489242 -0.00283394727687 -0.003841670626)
(0.0064961404132 -0.00283030097222 -0.00443902169382)
(0.0093471358917 -0.00335771017379 -0.00434077336044)
(0.0110082883253 -0.00435211670641 -0.00404165854502)
(0.0111866784686 -0.00556518514114 -0.00374436106381)
(0.0100796603008 -0.00671155122988 -0.00353680595448)
(0.00788628831025 -0.00770928753524 -0.00342063694503)
(0.00497092908491 -0.00840710107343 -0.00339283873271)
(0.00168852874776 -0.00875863312395 -0.00340161384047)
(-0.00170427369633 -0.00875799781347 -0.00340191189138)
(-0.00498491113341 -0.00840533563244 -0.0033935301397)
(-0.00789733361103 -0.00770658779439 -0.00342137915413)
(-0.0100869890271 -0.00670820488736 -0.00353717370537)
(-0.0111904291131 -0.00556161438176 -0.00374410952941)
(-0.0110088269513 -0.00434877589635 -0.00404070606756)
(-0.00934586559024 -0.00335529419649 -0.00433923442549)
(-0.00649429295821 -0.00282893884875 -0.00443743024218)
(-0.00281219019897 -0.00283361020957 -0.00384058250035)
(-0.000461727943457 -0.00330404767851 -0.00192255996608)
(0.00104128203116 -0.00105109527624 -0.00191595653298)
(0.00328191079157 -0.000472597477046 -0.00192301461246)
(0.00626159803268 -0.000184127526278 -0.00167619977314)
(0.00859462470725 -0.00016591321546 -0.00127802381396)
(0.00999111668785 -0.000405844741696 -0.000890362427678)
(0.0100616790646 -0.000807465844396 -0.000588771426481)
(0.0091094566647 -0.00119429572895 -0.000416680895617)
(0.00715387272155 -0.00158998898616 -0.000310370882169)
(0.00452936550213 -0.00187875533344 -0.000275394684975)
(0.00154308022982 -0.00202753490689 -0.000271552351025)
(-0.00155761901672 -0.00202733058275 -0.000272099054263)
(-0.00454166948286 -0.00187819950651 -0.000276991893692)
(-0.00716246427576 -0.00158926820864 -0.000312549295566)
(-0.00911361041088 -0.00119362226203 -0.000418946919897)
(-0.010061924814 -0.000807341580773 -0.000590550958476)
(-0.00998808098525 -0.000405799175417 -0.000891806040774)
(-0.00858993571407 -0.000166491062836 -0.00127853855716)
(-0.00625701472451 -0.000185047137813 -0.00167600597838)
(-0.00327869717971 -0.000473702693977 -0.00192256190676)
(-0.00103959239464 -0.00105158919774 -0.00191461604352)
(0.00175701968356 0.00176224304427 -0.00671406831922)
(0.00471955883169 0.00218127529595 -0.00702763922362)
(0.0078095037261 0.00255449892294 -0.00675010956201)
(0.0101191541831 0.00307386881103 -0.00608886202783)
(0.011352260888 0.00369480013565 -0.00535229920472)
(0.0112535919757 0.00433330965503 -0.00475950759901)
(0.0100498059906 0.00489807304497 -0.00437867137012)
(0.00783130700852 0.00540043186299 -0.00417326611409)
(0.00493247526424 0.00575726670476 -0.00412868758849)
(0.00167915141487 0.00593993091453 -0.00414565086281)
(-0.00168354464002 0.00593995390424 -0.00414553952204)
(-0.00493755592428 0.0057572809358 -0.00412851879018)
(-0.00783745105642 0.00540038429057 -0.004173331664)
(-0.0100570549433 0.00489784130789 -0.00437928539253)
(-0.0112616033907 0.0043327759968 -0.00476080865454)
(-0.0113600576672 0.003693819324 -0.00535480378454)
(-0.0101251589614 0.00307270757943 -0.00609231296166)
(-0.00781309668952 0.0025537446374 -0.00675433409415)
(-0.0047210948982 0.00218151847458 -0.00703331678822)
(-0.00175675237111 0.00176342448707 -0.00672014234107)
(0.00217805087468 0.00472722594306 -0.00702569830536)
(0.00534839871827 0.00535105753509 -0.00942943098081)
(0.00844830015611 0.00609394071797 -0.00995555982397)
(0.0107374716634 0.00721238795732 -0.00955174978276)
(0.0118957583881 0.00858234024419 -0.00881839335341)
(0.0117736359357 0.0100152327273 -0.00808507125685)
(0.010459507829 0.0113343588347 -0.00752468382355)
(0.00813925092799 0.0124421435509 -0.00718874059784)
(0.00512922190681 0.013222846697 -0.00706162470134)
(0.0017495390647 0.0136218689252 -0.00704264470426)
(-0.00174497511968 0.0136217309678 -0.00704207544018)
(-0.00512544129491 0.0132223872191 -0.00706012316421)
(-0.00813683968335 0.0124413448464 -0.00718656294665)
(-0.0104589234402 0.0113331130063 -0.00752227971236)
(-0.011774857258 0.0100133714073 -0.00808330628078)
(-0.0118980373456 0.00857983926908 -0.00881826772894)
(-0.0107396727855 0.00720966543514 -0.00955350600005)
(-0.00844962269823 0.00609192609531 -0.00995892457766)
(-0.00534862910485 0.00535090241114 -0.00943409186651)
(-0.00217749243454 0.00473001119788 -0.00703070878354)
(0.00255358234258 0.00781677909972 -0.0067456817956)
(0.00609521818412 0.00844786444805 -0.00995400444814)
(0.00949468054711 0.00948893398397 -0.0106032527478)
(0.0119450633675 0.0110822033818 -0.00993623515276)
(0.0131379967942 0.0130464874378 -0.00874866565975)
(0.0129528783033 0.015119782091 -0.00749912402825)
(0.0114594843038 0.0170431207564 -0.00646636729076)
(0.00889036038752 0.0186370650607 -0.00577857792399)
(0.00559207197093 0.0197553406155 -0.00543826044095)
(0.00190709530694 0.0203265214383 -0.00532480411519)
(-0.00189677745543 0.020326213173 -0.00532376997335)
(-0.00558266122748 0.0197544015025 -0.00543540569611)
(-0.00888263995888 0.018635483834 -0.00577403316272)
(-0.0114542294004 0.0170407502526 -0.00646077641034)
(-0.0129503290289 0.0151165150111 -0.007493947735)
(-0.0131374906614 0.0130425005841 -0.00874555881395)
(-0.0119454434545 0.0110781146899 -0.0099357590951)
(-0.00949496527959 0.00948585970809 -0.0106050249113)
(-0.00609486041649 0.00844727801594 -0.00995717179208)
(-0.00255294088204 0.00782088252538 -0.00674918347156)
(0.00307473088786 0.0101218653502 -0.00608178359774)
(0.00721647326947 0.010732132075 -0.0095493570456)
(0.0110917000773 0.0119338973476 -0.0099364079356)
(0.0138339109177 0.0138182396595 -0.00866327559397)
(0.015119718109 0.0161587608271 -0.00668682474765)
(0.014832205824 0.0186385463378 -0.0046073200542)
(0.0130578984649 0.0209340316979 -0.00284162767938)
(0.0100841669283 0.0228166965396 -0.0016168595377)
(0.00632039331604 0.0241224205793 -0.00096217339941)
(0.00215187225174 0.0247849799889 -0.000713524130197)
(-0.00213835305875 0.0247842440458 -0.000712068544197)
(-0.00630779401335 0.0241202185323 -0.000958007593808)
(-0.0100734939603 0.0228131347425 -0.00160980391773)
(-0.0130502128271 0.0209290924301 -0.00283270429431)
(-0.0148278635942 0.0186324117672 -0.00459849818425)
(-0.0151180715214 0.0161521667329 -0.00668042221811)
(-0.0138337620137 0.0138119230289 -0.00866012471997)
(-0.0110919252175 0.0119290220824 -0.00993609841229)
(-0.00721628831718 0.0107303844324 -0.0095508580748)
(-0.00307440044978 0.0101261910324 -0.00608409720399)
(0.0036968243669 0.0113487056023 -0.00534382839867)
(0.00858771212823 0.0118852617175 -0.00881694269793)
(0.013057657766 0.0131215444339 -0.00875157990953)
(0.0161767476468 0.0150976786433 -0.00669084470632)
(0.0175914386736 0.017565583877 -0.0037166554875)
(0.0171720856231 0.0201792857529 -0.000598392405913)
(0.0150393488084 0.0225982195166 0.00208114026932)
(0.0115561257986 0.0245610041068 0.00395652108385)
(0.00721095965678 0.0259136372161 0.00497809602425)
(0.00244860849998 0.0265996384613 0.00538324583813)
(-0.00243485634578 0.0265982949874 0.00538478084195)
(-0.00719803874573 0.0259095878041 0.00498274084186)
(-0.0115450852291 0.0245544908401 0.00396462812406)
(-0.0150313596329 0.0225895819445 0.002091528049)
(-0.0171673584847 0.0201692263588 -0.000587466079955)
(-0.0175895125188 0.0175551960529 -0.00370761896301)
(-0.0161767545916 0.0150881573776 -0.00668511945765)
(-0.0130583666323 0.0131140113745 -0.00874908936819)
(-0.0085880795367 0.0118814965861 -0.00881660874502)
(-0.00369708026432 0.0113520042882 -0.0053445589725)
(0.00433493448587 0.0112457372948 -0.00475132848305)
(0.0100198690205 0.0117601661749 -0.00808653755523)
(0.0151297925016 0.01293365821 -0.00750800122136)
(0.0186554798454 0.0148064573576 -0.00462105693797)
(0.0202055071162 0.0171408506195 -0.000611390105282)
(0.0196506000844 0.0196174467339 0.0035791260866)
(0.0171437441672 0.0219135742294 0.0071228183298)
(0.0131209412917 0.0237678184962 0.00957836755907)
(0.00816522515519 0.0250456484352 0.0109324889989)
(0.00276819713524 0.0256946964945 0.0114890794089)
(-0.00275691095137 0.0256927410664 0.0114903178152)
(-0.0081546248786 0.0250398063412 0.0109362296204)
(-0.0131118483397 0.0237584059947 0.00958530792896)
(-0.0171371715477 0.0219011118628 0.00713231131558)
(-0.0196467589475 0.0196029869705 0.00358967142134)
(-0.0202040219301 0.0171259460762 -0.000601380924113)
(-0.0186558237238 0.0147927492348 -0.00461366077821)
(-0.0151310169252 0.0129225195553 -0.00750385096442)
(-0.0100206549925 0.0117534227988 -0.00808458275738)
(-0.00433541913757 0.0112466301454 -0.00475046594786)
(0.00489954547858 0.0100407115472 -0.004371382076)
(0.0113374237355 0.0104473237245 -0.0075300286725)
(0.0170502022428 0.0114430774563 -0.00648302641901)
(0.020947417759 0.0130357722553 -0.00286859523453)
(0.022622324228 0.0150117753504 0.00205031960452)
(0.0219466226713 0.017114251803 0.00710488544662)
(0.0191003174395 0.0190722411435 0.0113557147781)
(0.0145806532144 0.0206696795118 0.0143040083068)
(0.00905368432657 0.0217774465747 0.0159423494769)
(0.00306401440509 0.0223354979247 0.0166200992913)
(-0.00305713167388 0.0223330939238 0.0166207709495)
(-0.00904725344429 0.0217703249389 0.0159446174318)
(-0.0145753552797 0.020658032036 0.014309058928)
(-0.0190969320578 0.0190564413278 0.0113629632257)
(-0.0219448600428 0.0170954204886 0.00711286759365)
(-0.0226218509473 0.0149920791494 0.00205831850245)
(-0.0209482345719 0.01301739908 -0.00286191690983)
(-0.0170516278724 0.0114278715299 -0.00647875877508)
(-0.0113383012677 0.0104370345896 -0.00752727152566)
(-0.00490026563715 0.0100382055279 -0.00436923371765)
(0.00540156868687 0.00782477724366 -0.00416645457487)
(0.0124439390167 0.00813315601145 -0.00719662551342)
(0.0186414366808 0.00888296679072 -0.00580048557567)
(0.0228265475536 0.0100737757106 -0.00165357795156)
(0.0245827312945 0.0115421212155 0.00391114950284)
(0.0238022028839 0.0131054924225 0.00954748802336)
(0.0206997202047 0.0145681739231 0.0143001546447)