/*--------------------------------*- C++ -*----------------------------------*\
| =========                 |                                                 |
| \\      /  F ield         | OpenFOAM: The Open Source CFD Toolbox           |
|  \\    /   O peration     | Version:  3.0.1                                 |
|   \\  /    A nd           | Web:      www.OpenFOAM.org                      |
|    \\/     M anipulation  |                                                 |
\*---------------------------------------------------------------------------*/
FoamFile
{
    version     2.0;
    format      ascii;
    class       volScalarField;
    location    "7.4";
    object      nut;
}
// * * * * * * * * * * * * * * * * * * * * * * * * * * * * * * * * * * * * * //

dimensions      [0 2 -1 0 0 0 0];

internalField   nonuniform List<scalar> 
7968
(
9.27748220863e-05
0.000100099798362
0.00010573597419
0.000109186723085
0.000111133827776
0.000112108347309
0.000112450027186
0.000112481162269
0.000112400285261
0.00011226551313
0.000112208115969
0.000112285568024
0.000112318648911
0.000112236754132
0.000111808566512
0.00011076890342
0.000108785361796
0.000105394002243
9.99111463297e-05
9.2709792054e-05
0.00010008353587
0.000125147830413
0.000140141123073
0.000149005503193
0.000154233618087
0.000157049425543
0.000158308575385
0.000158599746354
0.000158412173503
0.000158101515304
0.000157874862747
0.000157743102946
0.000157500455477
0.000156822362006
0.000155283054081
0.000152357286743
0.000147271316496
0.000138792268379
0.000124367922863
9.99388668043e-05
0.000105687651052
0.000140166901542
0.000159710598874
0.000171191937536
0.000178039472441
0.000181854596416
0.000183659435963
0.000184192135883
0.00018404432868
0.000183639921827
0.000183213055548
0.00018278269801
0.000182161514957
0.000180989355491
0.000178757542891
0.000174811374833
0.000168201184772
0.000157349283498
0.000138750387363
0.000105481630683
0.000109169991233
0.000149104963457
0.000171285986987
0.000184280873068
0.000192044536861
0.000196384595767
0.000198453301062
0.000199084640288
0.000198977099654
0.000198546696149
0.000197894603163
0.000197103945315
0.000196208486779
0.000194736753132
0.000192123444688
0.000187630931522
0.000180192452227
0.000168028593448
0.000147118086407
0.000108868888863
0.000111198167504
0.000154455958867
0.00017831450538
0.000192244990605
0.00020051867789
0.00020512759134
0.000207595783839
0.000208586296229
0.000208523624671
0.000207924301475
0.000207098268891
0.000206118443738
0.000204818696465
0.000202806918735
0.000199826052545
0.000195055941114
0.000187181670095
0.000174259532886
0.000151994826759
0.000110745564988
0.000112235154141
0.000157457693131
0.000182383352133
0.000196879618455
0.00020543838782
0.000210596433092
0.000213317915326
0.000214163409638
0.000213880085307
0.000213074560534
0.000212106629672
0.000211060541171
0.000209736067527
0.000207682906249
0.000204305358228
0.000199062100636
0.000190972761877
0.000177640407532
0.000154580608929
0.000111685052211
0.000112633202578
0.000158929064704
0.000184494058953
0.000199313144071
0.000208225808349
0.000213709116587
0.000216277719086
0.000216857400708
0.000216307744348
0.000215299078767
0.000214225192077
0.000213175655999
0.000211926469321
0.000209983259131
0.000206663064744
0.000201149341734
0.000192714996288
0.000179186217212
0.000155705765336
0.000112041238759
0.000112643643736
0.000159441536193
0.00018536483115
0.000200351198088
0.000209678426905
0.00021507099304
0.000217399648603
0.000217697798457
0.000216895587995
0.000215714470774
0.00021457390678
0.00021356138154
0.000212427655414
0.000210642450549
0.000207479164218
0.000202042772468
0.000193247664672
0.000179628073358
0.000155964267386
0.000112170658165
0.000112550452084
0.000159469047825
0.000185566346306
0.000200625995974
0.000210148100706
0.000215395897983
0.000217505158994
0.000217572929217
0.000216576986765
0.000215273371332
0.000214102573203
0.000213146124085
0.000212124417082
0.000210483504313
0.000207471958973
0.000202162914254
0.00019335526391
0.000179536422747
0.000155813802857
0.000112125180394
0.000112430403314
0.000159355786993
0.000185501180887
0.000200567589668
0.000210114945643
0.000215242296831
0.000217209188922
0.000217143283812
0.000216043105074
0.000214679869478
0.000213503686572
0.000212595689063
0.000211651619253
0.000210101412732
0.000207188044914
0.000201976075579
0.000193237405838
0.000179309032149
0.000155585702055
0.000112006564789
0.000112399357771
0.000159303757181
0.000185385346335
0.000200378537526
0.00020984680059
0.000214917034374
0.000216846324529
0.00021676456368
0.000215667507535
0.000214317491156
0.000213156582812
0.000212264438513
0.000211336115376
0.000209803000325
0.000206914336263
0.000201739535988
0.000193050119359
0.000179150374434
0.000155464678004
0.000111914191466
0.00011250417301
0.000159314117303
0.000185221157605
0.000200075322256
0.000209367070953
0.000214446792523
0.000216442543548
0.00021645761513
0.000215463379937
0.000214194709549
0.00021307069653
0.00021215843464
0.000211181183991
0.000209592094642
0.000206656433817
0.000201459472877
0.000192794603823
0.000179053956922
0.000155471165958
0.000111939017181
0.000112600526834
0.000159177112221
0.000184798534808
0.000199473685034
0.000208447745897
0.000213570284567
0.000215708099827
0.000215904899387
0.000215083954384
0.000213941825771
0.000212869527358
0.000211927511486
0.000210869776722
0.000209178931046
0.000206150482556
0.000200900394937
0.000192279248148
0.000178810991952
0.000155403463188
0.000111941408277
0.000112571195539
0.00015855251902
0.000183732697254
0.000198165974607
0.000206657328705
0.000211790763462
0.000214098892629
0.000214522804982
0.000213918546543
0.000212933355007
0.000211932914418
0.000210973281574
0.000209833534731
0.00020803208468
0.00020490589465
0.000199630911462
0.000191305096066
0.000178042213901
0.000154916627692
0.000111742128475
0.00011214495712
0.000156986588657
0.000181482691075
0.000195557644867
0.000203713994304
0.000208463088887
0.000210877205538
0.000211522897528
0.000211147472692
0.000210340331385
0.000209438248408
0.00020849206178
0.000207302743043
0.000205428011005
0.00020226864596
0.000197124256088
0.000189242616328
0.000176224881463
0.000153579711202
0.000111212083629
0.000111084783649
0.000153933239086
0.000177363485715
0.000190879681573
0.000198762632462
0.000203019502149
0.000205180363044
0.000205957361189
0.000205782515709
0.000205160754887
0.000204386977091
0.000203504068625
0.000202340350959
0.000200499415782
0.000197553889513
0.000192926352106
0.000185282348439
0.000172681318076
0.000150835675722
0.000110214327961
0.000109052789171
0.000148602334201
0.00017040217573
0.000183034270378
0.000190456831664
0.00019449303831
0.000196313842821
0.000196773619564
0.000196597170277
0.000196138946885
0.00019552412917
0.000194784705586
0.000193906251096
0.000192477413652
0.000189939725141
0.000185571773918
0.00017833148723
0.000166450454983
0.00014592095999
0.000108335250606
0.000105587030819
0.000139763005598
0.000159015329763
0.000170226397851
0.00017682383989
0.000180418467324
0.000182045724295
0.000182458112051
0.000182247396554
0.000181825639802
0.0001814056325
0.00018098278345
0.000180361875526
0.000179188266483
0.000176975058713
0.000173084673158
0.000166595203073
0.000155946730282
0.000137649896375
0.000105006552178
0.000100016702449
0.000124903051344
0.000139723177379
0.000148443376219
0.000153560084134
0.000156275261118
0.000157459695857
0.000157714255145
0.000157520990891
0.000157219466303
0.000156985441526
0.000156816366522
0.000156519109264
0.000155772020365
0.000154168282878
0.00015119716848
0.000146104214724
0.000137716157742
0.000123508679974
9.9591956874e-05
9.27433430928e-05
0.000100032078715
0.00010565067921
0.000109092296478
0.000111012006922
0.000111993902356
0.000112355293281
0.000112441443401
0.000112396985287
0.000112287179438
0.000112204251362
0.000112197011644
0.000112167407097
0.000111958921113
0.000111426746129
0.000110298389273
0.000108304000048
0.000104935121321
9.95339482384e-05
9.25450861343e-05
9.96382379816e-05
0.000122776583824
0.000137493699467
0.000146591068326
0.000152214697791
0.000155509601489
0.000157216570719
0.000157848959615
0.000157866863213
0.000157646378781
0.000157391509335
0.000157124814447
0.000156657107229
0.000155641470034
0.000153709771157
0.000150395262125
0.000144996538363
0.000136361733358
0.000122246098326
9.94954568368e-05
0.000122787097975
0.0004494452984
0.000598675111393
0.00068301221044
0.000733732246033
0.000763443283113
0.000779158408659
0.000785635287747
0.000786340256868
0.000783707079035
0.000779176528089
0.000773106011416
0.000764821380922
0.000752625416547
0.000733644011908
0.000703646138564
0.000655999395893
0.000578340824771
0.00043934561507
0.000122203722087
0.000137518068377
0.000598127100554
0.000824480008653
0.00095400248303
0.0010323359508
0.0010783584645
0.00110259131073
0.00111229289218
0.00111277717524
0.00110794422138
0.00110033902202
0.00109053477984
0.00107724628652
0.00105796374729
0.00102820394135
0.000981507050766
0.00090785690762
0.000788740101406
0.000578891715633
0.000136300233855
0.000146672494829
0.000682672197274
0.000954379643485
0.00111057361773
0.00120493027505
0.00125983818359
0.00128781993576
0.00129800762007
0.00129700365301
0.00128941073517
0.00127949184901
0.0012677263887
0.00125144287866
0.00122873197849
0.00119329560081
0.00113729263763
0.00104872774892
0.000905636807621
0.000655250744025
0.000144837412731
0.000152401889421
0.000734328985563
0.00103411822257
0.00120654438544
0.00130990461436
0.0013683773179
0.00139534387266
0.0014009397821
0.00139529809848
0.00138461593934
0.00137261851862
0.00136019989571
0.00134553314907
0.00132427228731
0.00128742231305
0.00122729368901
0.00113068637546
0.000973774852373
0.00069960601754
0.000150023643213
0.000155845041271
0.000765638147965
0.00108254196536
0.00126431300216
0.00137152522693
0.00142810909832
0.00144992100054
0.00145109438843
0.00144145213621
0.0014277001937
0.00141379659291
0.00140081811951
0.00138706372542
0.00136774715285
0.00133466535079
0.00127550600115
0.00117587881412
0.00101186096159
0.000724540790369
0.000153019503299
0.000157735643997
0.000783544484237
0.00111009999563
0.0012963702811
0.0014035115071
0.00145504952058
0.00147231128261
0.00146908317477
0.00145555623955
0.00143893357073
0.00142345425923
0.00141026481384
0.00139762299817
0.00138048225238
0.00135052763457
0.00129574830393
0.00119716965428
0.00103061283092
0.000737155991399
0.00015455879838
0.000158610254127
0.000792695179997
0.00112388960535
0.00131141013985
0.00141514293787
0.00146286945317
0.00147607023391
0.00146883090046
0.00145193055282
0.0014330134525
0.00141644302775
0.0014033274435
0.001391868722
0.00137681173098
0.00134959627251
0.00129817630951
0.0012041994879
0.00103753930503
0.00074230943295
0.00015510847395
0.000158865682895
0.00079645689611
0.00112917816037
0.00131659213421
0.001416520937
0.00146105701759
0.00147103627283
0.00146077609316
0.00144153128308
0.00142113758527
0.00140405356346
0.00139122262321
0.00138067578996
0.00136717304161
0.00134199774792
0.00129305492575
0.00120225528502
0.00103794029661
0.000743440077822
0.000155174514975
0.000158862230612
0.000797055373249
0.00112947398391
0.00131604961961
0.00141332287898
0.00145575471979
0.00146378299326
0.00145188534639
0.00143148367261
0.00141054675479
0.00139342947269
0.00138090661914
0.00137091349144
0.00135821983765
0.00133415210639
0.00128663506475
0.00119769827332
0.00103581545945
0.000742878905089
0.000155070452738
0.000158816943017
0.000795662457117
0.00112673719239
0.00131210287125
0.00140850103149
0.00145017985567
0.00145770019925
0.00144558829716
0.00142525000162
0.00140455493471
0.00138772671777
0.00137542625738
0.00136556192193
0.00135295833395
0.00132905773884
0.00128192119529
0.00119374500278
0.00103320830783
0.000741791460182
0.000154970123146
0.000158731933028
0.000792409434175
0.00112123857203
0.00130513301709
0.00140246839765
0.00144476118302
0.00145317642667
0.00144217469239
0.0014229711589
0.00140315314671
0.00138682361277
0.0013746221386
0.00136449163833
0.00135132021789
0.00132672464631
0.0012789994254
0.0011905509097
0.00103009488295
0.000740181152209
0.000154898156064
0.000158375043523
0.000786380048332
0.0011115567604
0.0012937310571
0.00139309377426
0.00143714101878
0.00144766215723
0.00143894394726
0.00142172731599
0.00140335046717
0.001387721716
0.00137552926212
0.0013647962433
0.00135046420825
0.00132444142809
0.00127530547958
0.00118567288973
0.00102496527538
0.000737044563624
0.000154672640912
0.000157408893949
0.000775596395632
0.00109462467068
0.00127413820093
0.00137545631983
0.00142208594135
0.00143559460617
0.00143000513583
0.00141551794927
0.00139905666993
0.00138439656829
0.00137222588545
0.00136061123645
0.0013447102019
0.00131675890582
0.00126556915037
0.00117331451628
0.00101428529374
0.000730318332437
0.00015397132904
0.000155452084974
0.000756911838872
0.00106556499412
0.00123979537765
0.0013401492723
0.00139100170655
0.00140821880871
0.00140620943518
0.00139486490879
0.0013807015563
0.00136728462391
0.00135528561918
0.00134280881768
0.00132528906055
0.00129527834693
0.00124195319297
0.00114860964666
0.000993377441544
0.000716894891524
0.000152375076681
0.000151993118234
0.000725837746637
0.00101754340692
0.00118244403328
0.00127878121534
0.0013310142531
0.00135291311093
0.00135479961647
0.00134685990217
0.0013352367303
0.00132335297855
0.00131181923587
0.00129866284238
0.00127973126641
0.0012476118323
0.00119263262354
0.00110314108763
0.000955379034757
0.000692267516622
0.000149348632479
0.000146317967127
0.000675485332203
0.000940146895055
0.00108961387685
0.00117756573263
0.00122662536667
0.00124964695248
0.00125612116663
0.00125237788281
0.001243563302
0.0012335579468
0.00122287655048
0.00120881997506
0.00118853804458
0.00115713257739
0.00110642330442
0.00102464855264
0.000889982905113
0.000649524718592
0.000144227119054
0.000137285365472
0.000593245929741
0.000814347932695
0.000938650572697
0.00101191555567
0.00105323757268
0.00107340933479
0.00107994353508
0.00107828100662
0.00107241226619
0.00106479424832
0.0010559186477
0.0010444180537
0.00102770057539
0.00100145111549
0.000959226628412
0.000891070913002
0.000778512364848
0.000576045996727
0.000135849795181
0.00012270273817
0.000447593659215
0.000594004939287
0.000675324733383
0.000723059350408
0.000749995241453
0.000763330455233
0.00076799480547
0.000767550467303
0.00076448186702
0.000760211049437
0.000755021131575
0.000748135599449
0.000737837665956
0.000721242710047
0.000694077082161
0.000649662882575
0.000575559049677
0.000440132479688
0.000121948766426
9.95857376674e-05
0.000122651843772
0.000137206818548
0.000146133671354
0.000151598367153
0.000154756902585
0.000156359092018
0.000156916683704
0.000156910844092
0.000156694851277
0.000156445468598
0.000156174304473
0.000155713132815
0.000154746548624
0.000152867690482
0.000149634824694
0.000144362028094
0.000135900109103
0.000121972699304
9.92218351039e-05
0.000105367707479
0.000138245804805
0.000158499232389
0.000171035104417
0.000178851822018
0.00018347075063
0.000185866530938
0.000186773788994
0.000186779259924
0.000186321426523
0.000185656006386
0.000184829093767
0.000183675700909
0.000181850455655
0.000178881460943
0.000174138678749
0.000166723356854
0.000155138686933
0.000136323006406
0.000104942550998
0.000138287054143
0.000601847298685
0.000827770274494
0.000956202638284
0.00103385597041
0.00107975522209
0.00110423469188
0.00111420215782
0.00111476024888
0.00110965307067
0.00110117867029
0.00109006098387
0.00107545301697
0.00105481564814
0.0010239594933
0.000976595611332
0.00090283682342
0.000784250532032
0.000575602135644
0.000136257229145
0.000158581602842
0.000826667474547
0.00119065388269
0.0014032227615
0.00153320222002
0.00161044397189
0.00165168635708
0.0016684641542
0.00166942203222
0.00166114809914
0.00164773701145
0.00163039562937
0.00160740684257
0.00157420537098
0.00152356514391
0.00144472753078
0.00132123248627
0.00112357348914
0.000785126804785
0.000154980502192
0.000171229515683
0.000955160915505
0.00140326151675
0.00166833617148
0.00183089292388
0.00192685457392
0.0019767711135
0.00199560696474
0.00199431220362
0.00198212692917
0.00196469728985
0.00194362585534
0.00191636115347
0.00187649693008
0.0018149016289
0.00171746404565
0.00156358809641
0.00131735062843
0.00090108865959
0.000166270560894
0.000179239379149
0.00103396329622
0.00153475235668
0.00183261370545
0.00201446369439
0.00211966046891
0.0021709102294
0.00218612354377
0.00217967094854
0.00216245366694
0.00214106559593
0.00211756184482
0.00208917796727
0.00204857453169
0.00198348594644
0.00187684958094
0.00170586536546
0.00143084245111
0.0009682778516
0.000173129346237
0.000184129780581
0.00108199881301
0.00161500444832
0.00193216831255
0.00212359670753
0.00223026528914
0.00227813926867
0.00228685077475
0.00227334640869
0.00225033188748
0.00222512780389
0.00220009867314
0.00217208405359
0.00213299276395
0.00206972428393
0.00196248444451
0.00178386791292
0.00149362151609
0.00100542256914
0.000177068538526
0.000186868967257
0.00110953451795
0.00166073193988
0.00198767995489
0.00218162933309
0.00228581857961
0.00232733485659
0.00232766499504
0.00230641624038
0.00227773111718
0.00224935312152
0.00222371926653
0.0021972080675
0.00216106546489
0.00210169076791
0.00199803707801
0.00181951303996
0.00152327672889
0.00102323414226
0.000179055441763
0.000188182387058
0.00112340170978
0.00168336980555
0.00201393658462
0.00220614732034
0.00230580587513
0.00233999519996
0.0023323104423
0.00230424093567
0.00227097171869
0.00224041753951
0.00221487113551
0.00219034131692
0.00215761668008
0.00210255811488
0.0020036853577
0.00182877694599
0.00153243758504
0.00102920935289
0.000179813076616
0.000188639206204
0.00112855564578
0.0016913472204
0.00202190747775
0.00221093126439
0.00230578241423
0.0023339559173
0.00232031250041
0.00228749203137
0.00225128259395
0.00221959178316
0.00219443963445
0.00217159881968
0.00214165304437
0.00209015080704
0.00199526347746
0.00182418588807
0.001530846543
0.00102895105155
0.000179908688838
0.000188658498986
0.00112846897489
0.00169072869105
0.00201965851092
0.00220587125237
0.00229731154488
0.00232186714277
0.00230503526702
0.00226995801034
0.00223258016512
0.00220063933561
0.00217589937236
0.00215400085683
0.00212550789607
0.00207596692954
0.00198349682437
0.00181521772766
0.00152519233009
0.00102628208399
0.000179741737094
0.000188470743748
0.00112509618424
0.00168500005808
0.00201200295806
0.00219654712858
0.00228662206887
0.00231023635429
0.00229299142991
0.00225798556187
0.00222096975218
0.00218944814684
0.002165011057
0.00214324265043
0.00211481257819
0.00206550373711
0.00197369283684
0.00180673019977
0.00151892839692
0.00102315842608
0.000179530278108
0.000188083784626
0.0011188051736
0.00167477483922
0.00199970457192
0.00218383639886
0.0022746060789
0.00229984789712
0.00228475233466
0.00225187961346
0.00221651871669
0.00218593479519
0.00216164969246
0.00213926683487
0.00210965363534
0.00205901929734
0.00196625530314
0.0017992012453
0.00151255180494
0.00101977721912
0.000179293576413
0.00018728199858
0.00110830710059
0.00165771283191
0.00197936397385
0.00216381179979
0.00225670052409
0.00228571446427
0.0022750667938
0.00224623124025
0.0022137364197
0.00218459035579
0.00216035464893
0.00213677528126
0.00210504245824
0.00205194444176
0.00195701366223
0.00178896540026
0.00150325046769
0.00101461035431
0.000178830731858
0.000185677631732
0.0010907078798
0.00162879343814
0.00194453946628
0.00212828059217
0.00222331482105
0.00225739496528
0.0022529106551
0.00222962215913
0.00220100569382
0.00217382445097
0.00214972342778
0.00212476269766
0.00209064265412
0.00203474427238
0.00193708670699
0.00176833365052
0.00148570299062
0.00100453304402
0.000177762316982
0.000182747418635
0.00106143958333
0.00158023397232
0.00188497094211
0.00206468410659
0.00216080944976
0.00219966262796
0.00220185814417
0.00218478886211
0.00216066800558
0.0021359741077
0.00211238277283
0.00208643671704
0.00205047551748
0.00199223103335
0.00189281956502
0.00172580299348
0.00145141669236
0.000984646859911
0.000175575806476
0.000177814660765
0.0010138485667
0.0015008889869
0.00178640925834
0.00195630540696
0.00205042099545
0.00209215621296
0.00209999297937
0.00208876873135
0.00206925801563
0.00204751938033
0.0020251202821
0.00199908725696
0.00196242832719
0.00190363566842
0.00180592931679
0.00164725608615
0.00138883165899
0.000948055773653
0.000171609028295
0.000169945719123
0.000937611441074
0.0013738038018
0.0016278280972
0.00177938936148
0.00186484608842
0.00190548068366
0.00191686121456
0.00191035412492
0.00189524096327
0.00187691700675
0.00185673860929
0.0018321088313
0.001796889429
0.0017416765864
0.00165332765859
0.00151153046562
0.00128090250193
0.000884342321212
0.000164937139723
0.000157624299521
0.000813571901133
0.00116843306221
0.00137218999334
0.00149321438044
0.00156175588721
0.00159514028808
0.00160546417818
0.0016017652627
0.00159078197745
0.00157652654121
0.00156010574802
0.00153974074731
0.00151096216821
0.00146655893469
0.00139596891239
0.00128287404449
0.00109797452199
0.000774658028971
0.000154036341568
0.000137789323325
0.000594844042762
0.000815119039726
0.000937934688142
0.00100991614232
0.00105033544533
0.00106988342286
0.00107582932301
0.00107355570646
0.00106695619252
0.00105835018768
0.0010484302172
0.00103623542886
0.00101924306748
0.0009931708911
0.000951655508005
0.000884709373026
0.000773796202375
0.000573309416806
0.00013578621665
0.000105232956409
0.000137700043615
0.000157434385763
0.000169475204085
0.000176839692078
0.000181060524378
0.000183127492279
0.000183790481607
0.000183645466916
0.000183126662772
0.00018248100946
0.000181746193123
0.000180754124265
0.000179165621766
0.000176505513405
0.000172149599135
0.000165199521908
0.000154143075539
0.000135841157242
0.000104531572838
0.000110590824276
0.000152623949559
0.000177607700308
0.000192954523059
0.000202486519252
0.000208051169842
0.000210822421797
0.000211696409314
0.000211394951709
0.000210453197935
0.000209186196924
0.000207674119351
0.000205768180388
0.000203087847015
0.000199081440262
0.000193011888667
0.000183842422135
0.000169843806748
0.000147355784746
0.000109244800279
0.000152728966568
0.000723050431187
0.00100057291584
0.00115826826284
0.00125417352366
0.00131121692075
0.0013416119581
0.0013535651392
0.00135333135522
0.0013455927447
0.00133335264302
0.00131772812418
0.00129779525373
0.00127046337897
0.00123053653692
0.00117034909135
0.00107794391353
0.000931016736863
0.000674763678359
0.00014725136364
0.000177800136013
0.000998949510531
0.00145398400059
0.00172182383671
0.00188712187325
0.00198605038683
0.00203883257136
0.00205955536258
0.00205937890383
0.00204687287985
0.00202760033406
0.00200353294138
0.00197277065987
0.00192954168498
0.00186439263916
0.00176364647172
0.00160659842681
0.00135655055226
0.00093206035592
0.000169476808943
0.000193335897376
0.00115648674993
0.00172135936926
0.00205957601753
0.00226895522563
0.00239334523881
0.00245786339765
0.00247993047326
0.00247532009643
0.00245636679789
0.00243068243698
0.00240102417862
0.00236457817531
0.00231343252538
0.00223522880565
0.00211125115927
0.00191472570525
0.00160064174959
0.00107424506058
0.000182767185223
0.000203167817768
0.00125340618513
0.00188777395891
0.00227031343712
0.00250657092712
0.00264423144712
0.00270987330308
0.00272562786665
0.00271192095005
0.00268429963324
0.00265198362577
0.00261830305401
0.00257978225001
0.00252697018101
0.00244502601304
0.002311428696
0.00209401518509
0.00174228412434
0.00115538673024
0.000190692072143
0.000209140434528
0.0013124533897
0.00198946684311
0.00239845675332
0.00264947097486
0.00278933512794
0.00284741049064
0.00285076740839
0.00282457873829
0.00278713236959
0.00274879138743
0.0027129959483
0.00267553543503
0.00262542361823
0.0025459001168
0.00241254001514
0.00218848298276
0.00181790737518
0.00119817002383
0.000195015438587
0.000212425668459
0.0013458004899
0.00204674036161
0.00246995552097
0.00272574764116
0.00285990063882
0.00290509803633
0.00289319761241
0.00285376373677
0.00280732922925
0.00276471197276
0.00272876815384
0.00269453152454
0.0026497660726
0.00257614740324
0.00244763184936
0.00222593252228
0.00184979638466
0.00121582207095
0.000196908277724
0.000213915763488
0.00136169541289
0.00207377109999
0.00250245115289
0.00275623488039
0.00288128187283
0.00291290874879
0.00288695628747
0.00283655219076
0.0027837084224
0.00273893337403
0.00270406034227
0.00267353952046
0.00263437061298
0.00256731317863
0.00244518685281
0.00222873900206
0.00185470418826
0.00121807567935
0.000197300881143
0.000214319653289
0.00136635170163
0.00208150221851
0.00250984919455
0.00275910804389
0.00287578759166
0.00289698469552
0.00286135861761
0.0028040242968
0.00274773065425
0.00270239532792
0.00266880663631
0.00264108660465
0.00260597768658
0.00254385743302
0.00242705077361
0.00221566092582
0.00184595185454
0.00121261218821
0.000196944320992
0.000214153562656
0.0013643105086
0.00207809942015
0.00250388779355
0.00274899297827
0.00286015581486
0.00287557298403
0.00283538856062
0.00277543989836
0.00271835870219
0.00267345252857
0.00264085235327
0.00261442879083
0.00258098000441
0.00252105469765
0.00240703488976
0.00219890883026
0.00183304158734
0.00120489177737
0.000196371932618
0.000213697489712
0.00135825482659
0.00206836303715
0.00249135711825
0.00273405466724
0.00284325996725
0.00285753826072
0.00281724660016
0.00275799298859
0.00270193459155
0.00265794868344
0.00262586880447
0.00259943642533
0.00256562449428
0.00250541223237
0.00239162647783
0.00218464633097
0.00182131453157
0.00119793129861
0.000195873914692
0.000212976299183
0.00134882952971
0.0020533214393
0.00247349569969
0.00271559810726
0.00282625404013
0.00284364721502
0.00280714219187
0.00275130903615
0.00269766501185
0.00265490299207
0.00262289045499
0.00259535784706
0.00255953088114
0.00249698912164
0.0023812834418
0.00217359728483
0.0018115492851
0.00119220564385
0.00019547117181
0.000211753967698
0.00133454539511
0.00203010797616
0.00244573900627
0.00268782644178
0.00280258356681
0.00282698064135
0.00279814668883
0.0027487142941
0.00269907034042
0.00265790893128
0.00262558472841
0.00259593817039
0.00255666293738
0.00249019048697
0.00237101959197
0.00216142403856
0.00180021046013
0.00118575300336
0.000194922506482
0.000209577078938
0.00131184388642
0.00199221344712
0.00239856042978
0.00263878141831
0.00275859776236
0.00279270626996
0.00277477899325
0.00273434400928
0.00269026394305
0.00265130820851
0.00261861672023
0.0025864820319
0.00254336956796
0.00247259891835
0.0023498455587
0.00213849605814
0.00177959417389
0.00117432856446
0.000193767777434
0.00020581814946
0.00127517038646
0.00192987947313
0.00232009450084
0.00255308100832
0.00267573082531
0.0027194321117
0.00271339625733
0.00268328043839
0.00264607091153
0.00261031103298
0.00257788779096
0.00254385818396
0.00249769597871
0.00242386246393
0.00229933578607
0.00208896083567
0.00173863583704
0.00115159773491
0.000191375207448
0.000199667112938
0.00121652055599
0.00182934559125
0.00219313758139
0.00241101275998
0.00253073007046
0.00258035488358
0.00258432912816
0.00256397624515
0.00253406534264
0.00250253654297
0.00247160172604
0.00243717791125
0.00239008672664
0.00231614776239
0.00219393642811
0.00199182957415
0.0016620590093
0.00110876057051
0.000186934257894
0.000190015404407
0.00112353991772
0.00166985281311
0.00199108302078
0.00218340727346
0.00229117043442
0.00234048418966
0.00235019149373
0.00233735060494
0.00231412337465
0.00228745320986
0.0022594458781
0.00222696136309
0.00218228417153
0.00211313530268
0.00200120212748
0.00182069180568
0.00152826418838
0.00103299826691
0.000179346791282
0.000175047640606
0.000972979006751
0.00141387420033
0.00166797204088
0.0018189862675
0.00190377604843
0.00194356198534
0.00195342397412
0.00194526860997
0.00192792688133
0.00190677821849
0.0018835562371
0.00185625186748
0.00181915020817
0.00176282949806
0.0016738156463
0.00153175171005
0.00130075388727
0.000901536273325
0.00016683759979
0.000150934768668
0.00070677854904
0.000975370277892
0.0011241246728
0.00121070314324
0.0012584593061
0.00128019929451
0.00128475593536
0.00127891160713
0.00126766079649
0.00125408757526
0.00123930050975
0.00122232948801
0.00120006936861
0.00116725181571
0.00111612341931
0.00103465882554
0.000900646094256
0.000659825235889
0.000145700725173
0.000110116278628
0.000150779261824
0.000174645737904
0.000189016727182
0.000197657905739
0.000202406706234
0.000204454462286
0.000204731582023
0.000203995968238
0.000202808637963
0.000201500888746
0.000200152026967
0.000198595243368
0.000196454095037
0.00019316568952
0.000187988148909
0.000179871350167
0.000167057457125
0.000145809786012
0.000108488285201
0.000117293715182
0.000170051399248
0.000199605110572
0.000217555139157
0.000228694996002
0.000235181989152
0.000238356566335
0.000239241601281
0.000238656569324
0.00023720515239
0.000235256198555
0.000232923212681
0.000230063592168
0.000226270460957
0.000220922679158
0.000213199762383
0.00020196558698
0.00018531202944
0.000158987704144
0.000113597908794
0.000170261343273
0.000843665338738
0.00116661055472
0.0013516138944
0.00146575681628
0.00153451691569
0.00157141687759
0.00158583224201
0.00158506277098
0.00157473313911
0.00155866979962
0.00153847871584
0.00151319419961
0.00147909229194
0.00142991701692
0.00135682331434
0.00124633185842
0.00107330264357
0.000774390658602
0.000158794456139
0.000199946593563
0.00116449702519
0.00169975373058
0.00201753950341
0.00221530271129
0.00233420826467
0.00239707608037
0.00241934457943
0.00241504552858
0.00239558517645
0.00236824144983
0.00233609948006
0.0022969568454
0.00224413627481
0.00216675708147
0.00204789629256
0.0018632814281
0.00157069363805
0.00107425040446
0.000184520933065
0.00021813527181
0.00134885939678
0.00201651380242
0.00241914168509
0.00267065751514
0.00281939209748
0.00289202886573
0.00290998878678
0.00289441703153
0.00286216754424
0.00282351685046
0.00278269983933
0.00273663310999
0.00267600636496
0.00258593475707
0.00244431856903
0.00221830958385
0.00185369820005