/*--------------------------------*- C++ -*----------------------------------*\
| =========                 |                                                 |
| \\      /  F ield         | OpenFOAM: The Open Source CFD Toolbox           |
|  \\    /   O peration     | Version:  3.0.1                                 |
|   \\  /    A nd           | Web:      www.OpenFOAM.org                      |
|    \\/     M anipulation  |                                                 |
\*---------------------------------------------------------------------------*/
FoamFile
{
    version     2.0;
    format      ascii;
    class       volScalarField;
    location    "3.6";
    object      ddt0(epsilon);
}
// * * * * * * * * * * * * * * * * * * * * * * * * * * * * * * * * * * * * * //

dimensions      [0 2 -4 0 0 0 0];

internalField   nonuniform List<scalar> 
7968
(
-0.000571977793908
-0.000634816750282
-0.000681494449776
-0.000707064794087
-0.000719085139247
-0.000723672763115
-0.000724574761195
-0.000723799985197
-0.000722025983303
-0.000720964174967
-0.0007200827151
-0.000720477696775
-0.000721306889243
-0.000721659213591
-0.000720725496844
-0.00071639231059
-0.000704875738323
-0.000679953186221
-0.000633920961345
-0.000571735655598
-0.000634840530925
-0.000957036454346
-0.00118896860605
-0.00132807262377
-0.00140490785804
-0.00144259723412
-0.00145728580343
-0.00146014997915
-0.0014582472746
-0.00145547682377
-0.00145394180037
-0.00145428582607
-0.00145450531637
-0.00145044803078
-0.00143512554165
-0.00139757356972
-0.00132162202531
-0.00118393641158
-0.000953697542224
-0.000633905730743
-0.000681552681108
-0.00118892642272
-0.00156917694453
-0.00180837645587
-0.00194871699987
-0.00202349843012
-0.00205737037837
-0.00206849842028
-0.00206950645191
-0.00206779475421
-0.00206697296043
-0.00206707149154
-0.0020645400964
-0.00205184606048
-0.00201672422448
-0.00194133671895
-0.00180117154501
-0.00156287391031
-0.00118418712609
-0.000679945274508
-0.00070723110998
-0.00132838882583
-0.00180871331502
-0.00212042554602
-0.00230978452631
-0.00241516713582
-0.00246652805929
-0.00248517211445
-0.00249440629216
-0.00249731271313
-0.00249858719109
-0.00249788447635
-0.00248827111586
-0.00246634451891
-0.00241277199907
-0.00230525333992
-0.00211434661658
-0.0018020040865
-0.00132243977229
-0.000704967606677
-0.000719481022268
-0.00140593721713
-0.00194962065232
-0.00231008474858
-0.00253380087119
-0.00266139010284
-0.0027272750842
-0.00276113308972
-0.00277473328407
-0.00277967301885
-0.00278220611499
-0.00278192810547
-0.00277211431653
-0.0027400435587
-0.00266713081184
-0.00253459977986
-0.00230667567446
-0.0019432959863
-0.00139907002248
-0.000716623682819
-0.000724414501038
-0.00144458313967
-0.00202503906706
-0.00241544776023
-0.00266066726679
-0.00280455967367
-0.0028872279554
-0.00292670584988
-0.00294253622051
-0.00294860588626
-0.00295224766054
-0.00295296996153
-0.00294295107843
-0.0029071915482
-0.0028244630857
-0.00266939649252
-0.00241604772258
-0.00201989338014
-0.00143723629065
-0.000721088083892
-0.000725697876517
-0.00146024181898
-0.00205937954766
-0.00246605377342
-0.0027221606397
-0.00288362068248
-0.00297208975425
-0.00301366894935
-0.00302998982088
-0.00303631586913
-0.00304084459945
-0.00304311589802
-0.0030343073213
-0.00299771166049
-0.00291042489354
-0.00274494961817
-0.00247165202648
-0.00205612075299
-0.00145296844068
-0.000722097689329
-0.000725095413151
-0.00146389413982
-0.00207048846749
-0.00248099718691
-0.00275233843645
-0.00291875138065
-0.00300897683356
-0.00305058955267
-0.00306628329392
-0.00307222251287
-0.00307736450643
-0.00308136545786
-0.00307463234118
-0.00303912928677
-0.00295054894912
-0.00278040996278
-0.00249552993207
-0.00206969877077
-0.00145719558468
-0.00072174372719
-0.000722968482148
-0.00146242031829
-0.0020709585192
-0.00248513892425
-0.00276222867322
-0.00293004795026
-0.00302025371532
-0.00306113303877
-0.00307597619318
-0.00308135255766
-0.00308689547453
-0.00309241869801
-0.00308771643093
-0.00305389530367
-0.00296569462108
-0.00279418186178
-0.00250758020071
-0.00207280579344
-0.00145676520838
-0.000721367261062
-0.000721978899099
-0.00145975884931
-0.00206812073677
-0.00248570979987
-0.00276371249964
-0.00293167666065
-0.00302161495446
-0.00306204457085
-0.00307651821335
-0.00308166287792
-0.00308770448615
-0.00309431884472
-0.0030908707228
-0.00305810069429
-0.00297035281342
-0.00279842318287
-0.00251104940598
-0.00207267345618
-0.00145557207357
-0.000720923776982
-0.000720934540688
-0.00145765697239
-0.00206571755338
-0.00248477109572
-0.00276290973987
-0.002931027015
-0.0030212695926
-0.003062123968
-0.00307708047794
-0.00308296356108
-0.00308973618164
-0.00309668577443
-0.00309322926948
-0.00306018648851
-0.00297200870648
-0.00279962108853
-0.00251178731449
-0.00207296684251
-0.00145544316341
-0.000720648580525
-0.000721159001932
-0.00145696396308
-0.00206417420198
-0.0024823990852
-0.00275997384497
-0.00292822749517
-0.00301936108523
-0.00306161663369
-0.00307812818098
-0.00308545617087
-0.00309271897478
-0.00309909110139
-0.00309432064365
-0.00305967867933
-0.00297023802775
-0.00279736045584
-0.00250712906319
-0.00207341280754
-0.00145649629608
-0.000721028979531
-0.000722710581679
-0.00145626534229
-0.00206035539296
-0.00247397892361
-0.00274897095175
-0.00291619140898
-0.0030078558602
-0.00305170414902
-0.00307010569004
-0.00307882815095
-0.00308620967308
-0.00309131593834
-0.00308436322689
-0.00304752305259
-0.00295699898725
-0.00278480984541
-0.00249759727123
-0.00207002836338
-0.00145659943112
-0.00072120161544
-0.000722847748323
-0.001451507793
-0.00204712860398
-0.00245272442456
-0.00271761549236
-0.00288073179014
-0.00297090645694
-0.0030151918335
-0.00303478038149
-0.00304432200358
-0.0030513378607
-0.00305479283947
-0.00304559267891
-0.00300728381999
-0.00291754057669
-0.00274771336233
-0.00247287931143
-0.00205554928129
-0.00145178646677
-0.000721399875238
-0.000721655964571
-0.00143583983282
-0.00201247097958
-0.00240083571672
-0.00264778884948
-0.00280102988629
-0.00288612517208
-0.00292833801729
-0.00294749796566
-0.00295682376926
-0.00296293778532
-0.00296479628588
-0.00295427843407
-0.00291654851081
-0.00283129677972
-0.00267237396718
-0.00241592602887
-0.00201821585117
-0.00143542353281
-0.000720298211424
-0.00071707583394
-0.00139819997227
-0.00193832317464
-0.00229637800028
-0.00251975970361
-0.00265054794406
-0.00272568797626
-0.0027626012864
-0.00277933551095
-0.00278720864475
-0.00279198822611
-0.00279258886006
-0.00278224699878
-0.00274554557307
-0.0026724146737
-0.00253609797915
-0.00230542553936
-0.00194090240563
-0.00139690971553
-0.000715808596189
-0.000705347971767
-0.00132233302586
-0.001799806189
-0.00210932044619
-0.00229768433835
-0.00240405769221
-0.00245847941526
-0.00248352573125
-0.0024981136461
-0.00250354616457
-0.00250663723471
-0.00250335612153
-0.00249663810625
-0.00247293604944
-0.00241628743518
-0.00230562686861
-0.00211261870093
-0.00179952522338
-0.00132031240464
-0.000704196528174
-0.000680248033984
-0.00118470924513
-0.00156296851376
-0.00180049627404
-0.0019398606019
-0.00201487490431
-0.00205035478237
-0.00206425407341
-0.0020683636199
-0.00206954956187
-0.00207113217732
-0.00207261178715
-0.00207003076748
-0.00205594462239
-0.00201860664875
-0.00194109794376
-0.00179955527567
-0.00156079718147
-0.00118237708987
-0.000679291156378
-0.000634074205538
-0.000954398858649
-0.00118505246134
-0.00132307802029
-0.00139923467421
-0.00143690769456
-0.00145232979053
-0.00145652824464
-0.00145626998983
-0.00145525543834
-0.00145530316762
-0.00145657358079
-0.00145681635943
-0.00145203907943
-0.00143558162944
-0.0013969487738
-0.00132028553429
-0.00118235886556
-0.000952296455518
-0.000633434055204
-0.000571755605377
-0.000634056350278
-0.000680240338138
-0.000705391282627
-0.00071712449741
-0.000721602663972
-0.000722577676278
-0.000722162585945
-0.000721524778781
-0.000720940261741
-0.000720467685905
-0.000720849485398
-0.000721136610146
-0.000721369726167
-0.000720267169385
-0.000715788082625
-0.000704194460814
-0.000679305601744
-0.000633445292886
-0.00057159363321
-0.00063342438025
-0.000950174569447
-0.00117976917687
-0.00131840352388
-0.00139614980344
-0.00143568183413
-0.00145266748817
-0.00145795019876
-0.00145869968835
-0.00145636459967
-0.00145482843046
-0.00145510904545
-0.00145422723278
-0.00144879828638
-0.00143177801243
-0.00139254937965
-0.00131540062166
-0.00117755830888
-0.000948820495387
-0.000632868349552
-0.000950577258786
-0.000749033258432
-0.000886629661542
-0.000977552070073
-0.00103095389445
-0.00105922294908
-0.00107217929378
-0.00107685243559
-0.00107785309462
-0.00107770236702
-0.00107768541803
-0.00107782059636
-0.00107687358687
-0.00107218050653
-0.00105916227957
-0.00103080615577
-0.000977264953632
-0.000886091490198
-0.000748050399595
-0.000948401476909
-0.00118020462668
-0.000886834176089
-0.00104164042144
-0.00115027712192
-0.00121738089414
-0.00125493310037
-0.00127357613792
-0.00128144098964
-0.00128414280205
-0.00128496739562
-0.00128547738787
-0.00128553770953
-0.00128351308746
-0.00127596737258
-0.00125730036349
-0.00121938893818
-0.0011516000226
-0.00104196395593
-0.000885856907573
-0.001176991743
-0.00131879981105
-0.000977793510652
-0.00115018272976
-0.00127541308253
-0.00135540579594
-0.00140188597414
-0.00142621970555
-0.0014374940438
-0.0014425419646
-0.00144476066757
-0.00144597380415
-0.00144596731514
-0.00144252208386
-0.00143189343232
-0.00140746993734
-0.00136017829877
-0.00127878510219
-0.00115166210164
-0.000977040885014
-0.00131502972912
-0.00139659087781
-0.00103111693793
-0.00121688683013
-0.00135477509456
-0.00144470578212
-0.00149818950941
-0.00152771058111
-0.00154258610738
-0.00154940448655
-0.00155260160386
-0.00155442900779
-0.00155465457834
-0.00155069501418
-0.00153758019753
-0.0015079390987
-0.00145286509263
-0.00136055452034
-0.00121973905482
-0.0010307466623
-0.00139256372363
-0.00143630338576
-0.00105925188147
-0.0012538038592
-0.00140011660035
-0.00149666103958
-0.00155584313935
-0.00158932309444
-0.00160630293531
-0.00161414649795
-0.00161793587829
-0.00162027186985
-0.00162092792737
-0.00161694700308
-0.00160263654528
-0.00156987501368
-0.00150872871721
-0.0014085126026
-0.00125811717257
-0.00105935697418
-0.0014322538554
-0.00145356827022
-0.00107205222275
-0.00127165377765
-0.00142287156219
-0.00152381177505
-0.00158675534067
-0.00162229104481
-0.00164020937462
-0.00164838603331
-0.00165236412515
-0.00165506219039
-0.0016562901259
-0.00165277272706
-0.00163825093673
-0.00160399836459
-0.00153956784586
-0.00143386582019
-0.00127739621736
-0.00107268239296
-0.00144972939943
-0.0014593698371
-0.0010765456335
-0.00127860334635
-0.00143203885981
-0.0015361109643
-0.00160076056335
-0.00163705531877
-0.00165510715519
-0.00166310003669
-0.00166694662775
-0.00166985769221
-0.00167170600784
-0.00166895390475
-0.00165488206887
-0.00162027542151
-0.00155432559751
-0.00144560391332
-0.00128566750586
-0.00107770981161
-0.00145552928509
-0.00146101698042
-0.00107734325343
-0.00128039374146
-0.0014351487134
-0.00154047732845
-0.00160569141081
-0.00164206632075
-0.00165986224161
-0.00166746845784
-0.00167106496104
-0.00167410207691
-0.00167650600999
-0.00167454374552
-0.00166114584674
-0.00162675527859
-0.00156036049671
-0.00145064561655
-0.00128853982308
-0.00107897064705
-0.00145569338224
-0.00145934969417
-0.00107690521772
-0.00128031668666
-0.00143584793306
-0.00154157372108
-0.0016069111364
-0.00164320796719
-0.00166079659063
-0.00166817418267
-0.00167165670747
-0.00167482269354
-0.00167759891716
-0.00167613494547
-0.00166318011607
-0.00162900133369
-0.00156248827923
-0.00145235704402
-0.00128935114673
-0.00107911031887
-0.00145490649207
-0.00145736921243
-0.00107648867912
-0.00128006958756
-0.00143589232369
-0.00154174011724
-0.00160716002782
-0.00164355007963
-0.00166126045256
-0.00166879054324
-0.00167245128748
-0.00167577906498
-0.00167864317998
-0.00167717789341
-0.00166414105242
-0.0016298232241
-0.00156314288334
-0.00145283832488
-0.00128968387822
-0.00107929793257
-0.00145463495196
-0.00145676102208
-0.00107623934558
-0.00127965528841
-0.00143522408374
-0.00154093212442
-0.00160639696207
-0.00164305624668
-0.00166122109822
-0.00166927925772
-0.00167336747929
-0.00167682761683
-0.00167945906457
-0.00167747895077
-0.00166383700795
-0.00162903836746
-0.00156215152569
-0.00145182899149
-0.00128941286901
-0.00107946241338
-0.00145526085919
-0.00145416052327
-0.00107499316071
-0.00127745273222
-0.00143186163994
-0.00153674540207
-0.00160184584064
-0.00163860361755
-0.00165724555812
-0.00166593678361
-0.0016705002579
-0.00167399441548
-0.00167613768879
-0.00167331935824
-0.00165883721414
-0.00162358244477
-0.0015568729085
-0.00144739038301
-0.00128678862633
-0.00107830628599
-0.00145517684184
-0.00144839857681
-0.00107027435302
-0.00127016695617
-0.00142196219327
-0.00152432927598
-0.00158801317248
-0.0016241676475
-0.00164283623621
-0.00165188079156
-0.0016567160273
-0.00166007396993
-0.00166160348449
-0.00165793949791
-0.00164285520652
-0.00160776031544
-0.00154225382876
-0.00143568354255
-0.00127845082733
-0.00107317168244
-0.00144917280461
-0.001431401276
-0.00105750508647
-0.00125223856318
-0.00139881157484
-0.00149638504197
-0.00155685342718
-0.00159116633503
-0.00160899078836
-0.00161777952442
-0.00162247960617
-0.00162549518214
-0.00162642756364
-0.00162223307944
-0.0016072515639
-0.00157355826254
-0.00151129740108
-0.00141004472232
-0.00125891841271
-0.00105964935087
-0.00143142280023
-0.0013924777032
-0.00102963058177
-0.00121548042906
-0.001353349065
-0.00144365693636
-0.00149823202287
-0.00152902566741
-0.00154488618898
-0.00155267501614
-0.00155676338247
-0.00155924099785
-0.0015596929964
-0.00155549245562
-0.00154154519778
-0.00151112778506
-0.00145492684566
-0.0013616929679
-0.00122028326057
-0.00103090558519
-0.001391649869
-0.00131576666423
-0.000976685736579
-0.0011490766855
-0.00127414633749
-0.00135412913538
-0.00140104622201
-0.00142627770949
-0.00143885233229
-0.00144502603237
-0.00144809365657
-0.00144990170904
-0.00144992783192
-0.00144640848911
-0.00143525925648
-0.0014099150461
-0.00136166909312
-0.00127956592322
-0.0011520507383
-0.000977194057283
-0.0013142990235
-0.0011782482882
-0.000886048419154
-0.00104077400493
-0.00114918743217
-0.00121613415444
-0.00125380725292
-0.00127294413269
-0.00128163231723
-0.00128523596494
-0.00128691385925
-0.00128807696053
-0.00128846193973
-0.0012863189221
-0.00127828155547
-0.00125888435436
-0.00122028462066
-0.00115205528481
-0.00104224712706
-0.000886051132262
-0.00117658976447
-0.000949476519873
-0.000748349860055
-0.000885713805075
-0.000976341465887
-0.00102951234085
-0.00105776226328
-0.00107099302564
-0.00107619373875
-0.0010778020643
-0.00107833487179
-0.00107888423386
-0.0010793208002
-0.00107833639808
-0.00107328578338
-0.00105977026853
-0.00103099975158
-0.000977268582992
-0.000886113860803
-0.000748124411721
-0.000948199797471
-0.000632968750115
-0.00094883349203
-0.00117749131012
-0.00131527730967
-0.00139240099839
-0.00143173179251
-0.00144905005355
-0.00145492590969
-0.0014556310999
-0.0014548956037
-0.00145473021805
-0.00145568210392
-0.00145540813228
-0.00144939335627
-0.00143158935049
-0.00139175664213
-0.00131439437788
-0.00117671476733
-0.000948309378329
-0.000632634914474
-0.000678414218823
-0.001173795484
-0.0015477707482
-0.00178557855504
-0.00192817550801
-0.00200749104732
-0.00204674933614
-0.00206291978079
-0.00206764031198
-0.00206779307199
-0.00206774053241
-0.00206799761856
-0.00206442850916
-0.00204929776763
-0.00201061775592
-0.00193124989503
-0.0017877893129
-0.00154845669384
-0.00117303934717
-0.000677627645078
-0.00117453745334
-0.000883003709044
-0.00103774099502
-0.0011468574477
-0.00121491927895
-0.00125366126273
-0.00127344222174
-0.00128223327364
-0.00128554546549
-0.00128677937221
-0.00128759056461
-0.00128786080157
-0.0012858831901
-0.0012780935583
-0.00125878025825
-0.00121983066577
-0.00115076667843
-0.00103992782504
-0.000883068543637
-0.00117228904457
-0.00154822379306
-0.00103791307939
-0.00117637434311
-0.00128302183709
-0.00135280504709
-0.0013942835346
-0.00141671606655
-0.00142787896725
-0.00143310074632
-0.00143599074805
-0.00143791164747
-0.00143876659149
-0.00143657037775
-0.00142755120512
-0.00140589657578
-0.0013637526947
-0.00129181434052
-0.00118182882158
-0.00103951109655
-0.0015472821561
-0.00178483715636
-0.00114646302153
-0.00128210654237
-0.00139221955571
-0.00146655979722
-0.00151212594938
-0.00153777134145
-0.00155179566771
-0.00155943649043
-0.0015642047461
-0.00156771028602
-0.00156954795595
-0.00156743733224
-0.00155708681075
-0.00153239986789
-0.00148540408611
-0.00140734290597
-0.00129182579481
-0.00115027433651
-0.00178675057422
-0.00192559647681
-0.00121329934251
-0.00134985102971
-0.00146395300977
-0.00154232610277
-0.00159131705988
-0.00161952609507
-0.00163595398967
-0.00164610827908
-0.00165273833385
-0.00165780031484
-0.00166083827865
-0.00165981316075
-0.00164915569655
-0.00162148801524
-0.0015700464653
-0.0014860244169
-0.00136418577123
-0.00121953305166
-0.00193082864057
-0.00200277800657
-0.00125041928134
-0.00138847648987
-0.00150548411171
-0.00158656686105
-0.0016362983573
-0.00166468359992
-0.00168379212226
-0.00169685661878
-0.0017050981987
-0.00171152692813
-0.00171574563199
-0.001716966187
-0.00170852338196
-0.0016792224054
-0.0016231907295
-0.0015343739799
-0.00140718860648
-0.00125891469873
-0.00201122675974
-0.00203993921633
-0.00126847031228
-0.00140765623648
-0.00152605024383
-0.00160857798794
-0.00165607046579
-0.00168504925232
-0.00170750079613
-0.00172312708115
-0.00173239804819
-0.00173966603224
-0.00174473565008
-0.00174821065428
-0.00174314222131
-0.00171440969494
-0.00165386250152
-0.00156124292413
-0.00143016702136
-0.00127889143682
-0.00205127247558
-0.00205425786741
-0.00127561609673
-0.00141554664384
-0.00153496763459
-0.00161735186073
-0.00166360772211
-0.00169431524384
-0.0017190535829
-0.00173605816909
-0.00174555976551
-0.00175304893166
-0.00175860826378
-0.00176355311361
-0.00176058596962
-0.00173313255631
-0.00166999192471
-0.00157471331464
-0.00144096934581
-0.00128756143698
-0.00206800410912
-0.00205743857995
-0.00127742862318
-0.00141763595972
-0.00153769820421
-0.00162026119392
-0.00166692088243
-0.00169878393322
-0.0017245379734
-0.00174176516009
-0.00175093065635
-0.0017583053017
-0.0017642197499
-0.00177006059949
-0.00176809053015
-0.00174106543958
-0.00167714266018
-0.00158037234297
-0.00144528930283
-0.00129058070306
-0.00207313480718
-0.00205638972879
-0.0012773292644
-0.00141749619848
-0.00153820584104
-0.0016211514573
-0.00166823383993
-0.00170064338767
-0.00172671918155
-0.00174381789235
-0.00175268767338
-0.00176000252075
-0.00176620201195
-0.00177256201391
-0.00177101775195
-0.00174405724926
-0.00167983587518
-0.00158257740405
-0.00144683287968
-0.00129144250959
-0.00207392387881
-0.00205476622957
-0.00127707028831
-0.00141754198827
-0.00153849205108
-0.00162165930024
-0.00166898444926
-0.00170174168521
-0.00172813371258
-0.00174540719425
-0.00175437586598
-0.00176179037901
-0.00176805164597
-0.00177440896222
-0.00177270273167
-0.00174538641316
-0.00168076086398
-0.00158322474566
-0.00144728264469
-0.00129174553542
-0.00207405813918
-0.00205355560536
-0.00127669438071
-0.00141763449835
-0.00153850208024
-0.00162177829729
-0.00166921812079
-0.00170218898522
-0.00172894681368
-0.0017467162098
-0.00175613960653
-0.00176373318673
-0.00176974884522
-0.00177551152367
-0.00177300169244
-0.00174487600427
-0.00167972806768
-0.00158212142274
-0.00144646623217
-0.00129134403772
-0.00207363680368
-0.0020493114218
-0.00127455028468
-0.00141542602815
-0.00153617980272
-0.00161995278765
-0.00166791997926
-0.0017008670629
-0.00172752650332
-0.0017455191001
-0.00175536464284
-0.00176299665588
-0.00176843640312
-0.00177292892887
-0.00176871142597
-0.00173910338092
-0.00167376082964
-0.00157708461512
-0.00144244979141
-0.0012884157283
-0.00206848351728
-0.00203473674028
-0.00126726831658
-0.00140744957043
-0.0015274063497
-0.00161171976135
-0.00166175746222
-0.00169405184055
-0.00171931118201
-0.00173642847112
-0.00174618963771
-0.00175346858659
-0.0017580435745
-0.00176045417481
-0.00175324368161
-0.00172131122166
-0.00165792319651
-0.00156364036862
-0.00143143997401
-0.001279452373
-0.00205115189981
-0.00199796917632
-0.00124925526669
-0.00138808222237
-0.00150620197833
-0.00158904214672
-0.00164120431306
-0.0016728379074
-0.00169497860256
-0.00170983295256
-0.00171881489953
-0.00172531092813
-0.00172889090525
-0.00172869626382
-0.00171768647571
-0.00168521279707
-0.00162670757627
-0.00153624645762
-0.00140793628925
-0.00125901353068
-0.00201034041045
-0.00192176197004
-0.00121234199215
-0.00134933448873
-0.00146397455368
-0.00154343505046
-0.00159417549811
-0.00162442880209
-0.00164297034454
-0.00165481970062
-0.00166246079111
-0.00166786809861
-0.00167051274744
-0.00166830756843
-0.00165570961571
-0.00162592418426
-0.00157263380098
-0.00148712518561
-0.00136437353999
-0.00121929164265
-0.00192956487254
-0.00178219502141
-0.00114577248766
-0.00128152283293
-0.00139165320963
-0.00146628437972
-0.00151271845925
-0.00153990151512
-0.0015553273571
-0.0015643658154
-0.00157023558961
-0.00157431815978
-0.00157608574097
-0.00157323887976
-0.00156163884137
-0.00153538725692
-0.00148689089253
-0.00140772068867
-0.00129166067569
-0.00115000005858
-0.00178576533029
-0.00154653989008
-0.0010373921813
-0.00117572068059
-0.00128202776372
-0.00135154449553
-0.00139312695816
-0.00141620736437
-0.00142834583563
-0.00143482165874
-0.00143876805543
-0.00144150292404
-0.00144261906223
-0.00144011713394
-0.00143023798756
-0.0014074461013
-0.00136425240892
-0.00129166995584
-0.00118156505927
-0.00103946126843
-0.00154703402404
-0.001173377456
-0.000882406583972
-0.00103686544435
-0.00114546828195
-0.00121299166032
-0.00125146457868
-0.00127145858809
-0.00128091965731
-0.00128521770659
-0.00128750087335
-0.0012891370517
-0.00128981789358
-0.00128770218582
-0.00127927955927
-0.00125912382956
-0.00121949459652
-0.00115019198459
-0.0010395957936
-0.000883185938995
-0.00117253555003
-0.000677788702407
-0.00117221766403
-0.00154518817617
-0.00178174351071
-0.00192313857917
-0.00200188055217
-0.00204161333279
-0.00205924383712
-0.00206605946155
-0.00206871647484
-0.0020707343211
-0.00207187822367
-0.00206786403433
-0.00205122621013
-0.00201068775302
-0.00192992529084
-0.00178606506081
-0.00154730107505
-0.00117272594023
-0.000677413189662
-0.000701891628328
-0.00130292819142
-0.00177302583902
-0.0020838702255
-0.00227869893066
-0.00239304380775
-0.00245406646265
-0.0024827481821
-0.00249437867989
-0.00249906958299
-0.00250249552268
-0.0025045248126
-0.0024993441443
-0.00247597752357
-0.00241807083941
-0.00230367150297
-0.00210474285631
-0.00178601082592
-0.00130679941918
-0.0007011940371
-0.00130399223036
-0.000967162408905
-0.00113852584688
-0.00126368645846
-0.00134489706283
-0.00139371640668
-0.00142087097871
-0.00143487750056
-0.00144194291688
-0.00144622338541
-0.00144956960466
-0.00145167879099
-0.00145018796365
-0.00144054212265
-0.00141577549891
-0.00136662044498
-0.00128197744173
-0.00115085447001
-0.000972681771357
-0.00130583081232
-0.00177256082112
-0.00113801558348
-0.0012704075549
-0.00137645131386
-0.00144772934076
-0.00149216721776
-0.00151864056293
-0.0015343920043
-0.00154454624339
-0.00155272256905
-0.00156018915793
-0.00156572746632
-0.00156704731559
-0.00155961465921
-0.00153688128435
-0.00149064517652
-0.00141197054638
-0.0012945631297
-0.00115038183278
-0.00178430170466
-0.00207887970984
-0.00126038386079
-0.00137256196764
-0.00146842233681
-0.00153421846413
-0.00157488395335
-0.00159879899517
-0.00161715205725
-0.00163255623518
-0.00164601809461
-0.00165874511907
-0.00166951209161
-0.00167655566915
-0.00167410192287
-0.00165220123913
-0.00160526568885
-0.0015267976334
-0.00141241346385
-0.00128160710156
-0.00210322673816
-0.00226680961218
-0.00133675663185
-0.00143666582197
-0.00152555684939
-0.00158321811196
-0.00161462961004
-0.00163636469945
-0.00166093676773
-0.00168455493018
-0.00170381567421
-0.00172189841254
-0.0017374243331
-0.00175174672088
-0.00175755336542
-0.00173935757653
-0.00168969787359
-0.00160784104197
-0.00149278583457
-0.00136700225729
-0.00230353976699
-0.0023730212706
-0.0013796086542
-0.00147184221118
-0.00155398456202
-0.00159834387211
-0.00162180759264
-0.00164686608414
-0.00168274366791
-0.00171654284774
-0.0017410786582
-0.00176296823424
-0.00178118235606
-0.0018012532236
-0.00181526287752
-0.00180145716041
-0.00174978922642
-0.00166032302368
-0.00154230154355
-0.00141763251165
-0.00242056604181
-0.00242581973641
-0.00140062585003
-0.00148828215816
-0.00156182324786
-0.00159619351291
-0.00161830399073
-0.00165231327273
-0.00170214531451
-0.00174560791316
-0.00177365136886
-0.00179672523759
-0.00181483614838
-0.00183731932597
-0.0018563860367
-0.00184454995789
-0.00179004972051
-0.00169341797291
-0.00157000716604
-0.00144462195447
-0.00248220599851
-0.00244693880227
-0.001408889786
-0.00149397197653
-0.00156165287672
-0.00159326014233
-0.00161874671904
-0.00166337257858
-0.00172436276
-0.00177414368314
-0.00180299860894
-0.00182489411506
-0.00184126992595
-0.00186363075662
-0.00188409964585
-0.00187248797737
-0.00181423444684
-0.00171296964477
-0.00158393882252
-0.00145717195289
-0.0025101189828
-0.0024519191802
-0.00141078180238
-0.00149413032536
-0.0015609397726
-0.00159370533937
-0.00162382555723
-0.00167561763643
-0.00174266438657
-0.00179432639934
-0.00182172330207
-0.00184160132238
-0.00185663262874
-0.0018787794766
-0.00189940693013
-0.00188698798024
-0.00182636049352
-0.00172214441156
-0.00159018466762
-0.00146207623678
-0.00252012310196
-0.00245103999776
-0.00141068998234
-0.00149413174886
-0.0015611859252
-0.00159541061465
-0.00162835221974
-0.0016834897472
-0.00175260965929
-0.00180394378535
-0.00182974326097
-0.00184830699493
-0.00186290512992
-0.00188540335569
-0.00190635702109
-0.00189349624872
-0.00183158824716
-0.00172586478796
-0.00159275777293
-0.00146370700055
-0.00252262717115
-0.00244944627409
-0.00141054758922
-0.00149486884757
-0.00156281616269
-0.00159809863623
-0.00163222172678
-0.00168832516289
-0.00175791917999
-0.00180908867461
-0.00183444555321
-0.00185269622895
-0.0018671274766
-0.00188964693915
-0.00191048553764
-0.00189696851567
-0.00183392559467
-0.00172713418303
-0.00159341643788
-0.00146410485279
-0.00252309314599
-0.00244775154065
-0.00141045425146
-0.00149642267799
-0.00156610944279
-0.00160233351909
-0.00163636671954
-0.001691531935
-0.0017604320485
-0.00181185114906
-0.00183789408156
-0.00185655408905
-0.00187068462639
-0.00189247045868
-0.00191234134913
-0.00189760089875
-0.00183331714874
-0.00172575065453
-0.00159189579922
-0.0014629938364
-0.00252113836825
-0.00244126152548
-0.00140855465724
-0.00149753927335
-0.00157107141198
-0.00160992797692
-0.00164361141314
-0.00169565656593
-0.00176141538601
-0.00181191573531
-0.00183873457039
-0.0018579494053
-0.00187153665388
-0.00189163200303
-0.00190896240659
-0.0018915970994
-0.00182585499839
-0.00171834890528
-0.00158607075699
-0.00145795421993
-0.00251057674144
-0.00241978135704
-0.00140057307315
-0.00149297599864
-0.00157484843765
-0.0016200552865
-0.00165495884854
-0.00170110418928
-0.00175960781241
-0.00180595327497
-0.00183213777833
-0.0018511257242
-0.00186379642389
-0.00188062053742
-0.00189247371944
-0.00187016212659
-0.0018042362769
-0.00169910446467
-0.00157166063982
-0.00144456238903
-0.00248093485399
-0.00236763221258
-0.00137994929145
-0.00147707900805
-0.00156706902606
-0.00162315061741
-0.0016610843614
-0.00170048943125
-0.00174729790395
-0.00178572301086
-0.00180924431975
-0.0018266423019
-0.00183786043848
-0.00184966761203
-0.00185315929352
-0.00182620988161
-0.00176198926429
-0.00166458328581
-0.00154276530593
-0.00141637236136
-0.00241721236099
-0.00226292829595
-0.00133732029618
-0.00144123786881
-0.00153608688125
-0.00160254805347
-0.0016456003561
-0.00167965722997
-0.00171391637846
-0.00174231002669
-0.00176149485458
-0.00177594767922
-0.00178508195288
-0.00179115947056
-0.00178657336614
-0.0017565577128
-0.00169757724449
-0.00160988041757
-0.00149178666332
-0.00136474436617
-0.00229887506183
-0.00207674674892
-0.00126087481474
-0.00137537794261
-0.00147479779733
-0.00154518335813
-0.00159166500872
-0.00162286573561
-0.00164764520638
-0.00166680261809
-0.00168095877459
-0.00169175465056
-0.00169842318623
-0.00169975481679
-0.00169003967021
-0.00166119061666
-0.00160879885996
-0.00152662331908
-0.00141028672904
-0.00127904809304
-0.00209877420826
-0.0017715919817
-0.00113824053374
-0.00127116082148
-0.00137818207731
-0.00145084763052
-0.00149719971086
-0.00152613106945
-0.001544596918
-0.00155733776042
-0.00156682127492
-0.00157398130532
-0.00157817713707
-0.00157710558444
-0.00156640509124
-0.00154018743491
-0.00149085780178
-0.00141012591
-0.00129205130701
-0.00114836217413
-0.00178160586692
-0.00130314728127
-0.000967057621586
-0.00113794283386
-0.0012622174984
-0.00134250604499
-0.00139085676898
-0.00141836235692
-0.00143357093185
-0.001442394145
-0.00144832997414
-0.0014528289142
-0.00145527858959
-0.00145319530367
-0.00144207550864
-0.00141542934102
-0.00136465509414
-0.0012792726826
-0.00114857227358
-0.0009716406069
-0.00130534808147
-0.00070119108555
-0.00130156592081
-0.00177013694436
-0.00207805381137
-0.00226968600084
-0.00238206747115
-0.00244333650337
-0.00247442438127
-0.00248993044216
-0.00249888083338
-0.0025057277183
-0.0025093795055
-0.00250352728922
-0.00247747634907
-0.00241606712196
-0.00229889981271
-0.00209917399268
-0.0017820044618
-0.00130557275255
-0.000701060056741
-0.000710973429234
-0.00136950860831
-0.00189859199058
-0.00225648425746
-0.00248605494596
-0.00262494267617
-0.00270274279717
-0.00274287488764
-0.00276318849164
-0.00277584092022
-0.00278726361646
-0.00279663713193
-0.00279652027521
-0.00277322251395
-0.00270637403824
-0.0025692962948
-0.00232930780944
-0.00194859444465
-0.00139016563409
-0.00071158830374
-0.00137081675814