/*--------------------------------*- C++ -*----------------------------------*\
| =========                 |                                                 |
| \\      /  F ield         | OpenFOAM: The Open Source CFD Toolbox           |
|  \\    /   O peration     | Version:  3.0.1                                 |
|   \\  /    A nd           | Web:      www.OpenFOAM.org                      |
|    \\/     M anipulation  |                                                 |
\*---------------------------------------------------------------------------*/
FoamFile
{
    version     2.0;
    format      ascii;
    class       volVectorField;
    location    "3.6";
    object      ddt0(U);
}
// * * * * * * * * * * * * * * * * * * * * * * * * * * * * * * * * * * * * * //

dimensions      [0 1 -2 0 0 0 0];

internalField   nonuniform List<vector> 
7968
(
(-5.68967618909e-05 -7.24708396855e-05 0.000134338354407)
(-7.45965976343e-05 -0.0001194130274 0.000134371855541)
(-2.86594644161e-05 -0.00014022773385 0.000137453849753)
(-8.58077029134e-06 -0.000155232471518 0.000143973186797)
(1.83042508339e-05 -0.000157635387375 0.000142278061951)
(1.89785161674e-05 -0.000151735283976 0.000132825468995)
(9.43596913725e-06 -0.000142647313453 0.000117393076409)
(-1.33819012408e-05 -0.000130939667694 0.000102118301853)
(-3.97249866299e-05 -0.000118994547553 9.09943741436e-05)
(-6.42214077724e-05 -0.000109930452706 8.42281706404e-05)
(-8.69794080466e-05 -0.000107439752424 8.05161187125e-05)
(-0.000109848159506 -0.000109534164869 7.9997345807e-05)
(-0.000128288090451 -0.000113217079924 8.34914625187e-05)
(-0.000133307021838 -0.000117624368216 8.90741124347e-05)
(-0.000127977445868 -0.000120662640734 9.4950789451e-05)
(-0.000100982290418 -0.00012210844872 9.45519118618e-05)
(-5.4046479421e-05 -0.000116284369897 8.99850970396e-05)
(-1.0422223399e-05 -0.00010003104347 8.03585708231e-05)
(4.90542828293e-05 -7.74981643476e-05 7.52016993679e-05)
(3.92338134859e-05 -3.15145470566e-05 7.59023058986e-05)
(-0.000103582636189 -0.000133415326577 0.000131968644551)
(-0.000109439054847 -0.000168238111739 8.86677812039e-06)
(-1.95981141794e-05 -0.000174467818722 -3.73826506926e-05)
(1.93885992399e-05 -0.000172570851755 -4.48367822555e-05)
(5.51960395226e-05 -0.000154969916768 -4.59212056074e-05)
(5.83344513669e-05 -0.000128780612712 -4.63775384025e-05)
(4.40760279624e-05 -0.000101376411253 -4.95732035234e-05)
(1.46400783587e-05 -7.44611092141e-05 -5.26679809521e-05)
(-2.17600179477e-05 -5.09283565394e-05 -5.68160139477e-05)
(-6.07260128708e-05 -3.30624092085e-05 -6.19263932395e-05)
(-9.8890584929e-05 -2.33181083248e-05 -6.73648879092e-05)
(-0.000132942339486 -2.1727035021e-05 -7.29502359817e-05)
(-0.000157915497452 -2.74795684995e-05 -7.82800237342e-05)
(-0.000167210035729 -3.8566236548e-05 -8.18864906592e-05)
(-0.000161565633708 -5.39878108075e-05 -8.50471549236e-05)
(-0.000129743178147 -6.92874694499e-05 -8.81842961874e-05)
(-7.32536679355e-05 -7.69761031097e-05 -8.81381620903e-05)
(-1.22068787084e-05 -7.19240194778e-05 -8.14792198718e-05)
(8.59080532642e-05 -5.87902725494e-05 -3.98357508701e-05)
(8.32789111815e-05 -1.97004252952e-05 7.78969985233e-05)
(-0.000123575360584 -0.000121073494299 0.000131576646377)
(-0.00011384625994 -0.000111432160228 -4.06523416904e-05)
(-5.70853405253e-07 -9.35552492394e-05 -9.05220138507e-05)
(4.88953195255e-05 -6.91003843083e-05 -8.92031273941e-05)
(8.91463264193e-05 -3.09905118038e-05 -8.0325618085e-05)
(9.28607893237e-05 1.50727911554e-05 -7.30985489679e-05)
(7.56940539537e-05 6.13336278934e-05 -7.14285178724e-05)
(4.23551541305e-05 0.000105201310045 -7.24509283053e-05)
(3.01671461036e-07 0.000141940589307 -7.60842966219e-05)
(-4.59933739875e-05 0.00016883654683 -8.11775316225e-05)
(-9.23904413587e-05 0.000183830266714 -8.69048402133e-05)
(-0.000134243225173 0.000186637960418 -9.28197943166e-05)
(-0.000165932742071 0.000177448176874 -9.95111196445e-05)
(-0.000181284511446 0.000157901423109 -0.00010624273725)
(-0.000178567139842 0.000130181866693 -0.000114194485125)
(-0.000147644546568 9.95846950359e-05 -0.000123005548413)
(-8.76074834067e-05 7.58325988709e-05 -0.000129487183872)
(-1.85684855977e-05 6.29595709919e-05 -0.000128121442339)
(9.76917119899e-05 5.60311260806e-05 -8.09311774166e-05)
(0.000104240062496 5.48213168067e-05 8.32139560296e-05)
(-0.000138299299773 -0.000124455063873 0.000133871456746)
(-0.000110836320216 -9.41245407367e-05 -5.16982243564e-05)
(2.43483576532e-05 -6.57665720416e-05 -9.25636934801e-05)
(8.2430738466e-05 -3.27750262052e-05 -7.93359223759e-05)
(0.000127427263657 1.31462596986e-05 -6.13281160021e-05)
(0.00013263267936 6.82574764153e-05 -4.85684766824e-05)
(0.00011420615339 0.000126126124912 -4.29766266408e-05)
(7.76953145959e-05 0.000183215434935 -4.14244543655e-05)
(3.10815590621e-05 0.000232366699154 -4.34858109967e-05)
(-2.16760978859e-05 0.000269159991291 -4.80279469823e-05)
(-7.60210492707e-05 0.000290945745129 -5.29680285355e-05)
(-0.00012633478315 0.00029704213446 -5.88657789147e-05)
(-0.000168092918513 0.000287310263889 -6.726573986e-05)
(-0.000193099079957 0.000265327779604 -7.77034237092e-05)
(-0.000196748804106 0.000233942066084 -9.05994179312e-05)
(-0.000168568262442 0.000197986504965 -0.000105736927748)
(-0.000106028170765 0.000168159917898 -0.000120099591297)
(-3.0267794286e-05 0.000147202119769 -0.000128160258671)
(0.000102275800739 0.000130210871338 -8.70060569872e-05)
(0.000119457359935 0.000109531516779 9.22369442998e-05)
(-0.000140960592191 -0.000109437465348 0.000125437500343)
(-9.42801201766e-05 -6.88811958001e-05 -5.94907669546e-05)
(6.00607927316e-05 -3.72797463357e-05 -8.96186120015e-05)
(0.000126694648619 -1.3539605099e-06 -6.70853547071e-05)
(0.000177512367874 4.82021361159e-05 -4.19022745774e-05)
(0.000186714550054 0.000109505757112 -2.39487678394e-05)
(0.000168582138552 0.000176786622879 -1.08174154453e-05)
(0.000128480366952 0.000244736751152 -4.75903106445e-06)
(7.4245722376e-05 0.000304128827877 -3.66390846172e-06)
(1.11679040797e-05 0.000349049455092 -5.45083528707e-06)
(-5.52680905052e-05 0.000376408709135 -9.36483015765e-06)
(-0.000119402259141 0.000385004931416 -1.57470812376e-05)
(-0.000174418347243 0.000375297640919 -2.5684584488e-05)
(-0.000210231379363 0.000352428047151 -3.9665098666e-05)
(-0.0002218899008 0.000319286129783 -5.90545391679e-05)
(-0.000198068823401 0.000281928145122 -8.16594943472e-05)
(-0.000134491327164 0.000249648892486 -0.000103642613711)
(-5.36604851345e-05 0.000224410155202 -0.000119834009371)
(9.33081856065e-05 0.000201791638715 -8.6256604419e-05)
(0.000123631507847 0.000169198049638 9.50450957261e-05)
(-0.000136436989651 -0.000101830416762 0.000108082053164)
(-7.13376601142e-05 -5.92446893405e-05 -6.76673901568e-05)
(0.000101603396978 -2.90039046955e-05 -8.96381953489e-05)
(0.000178176457424 4.33655885271e-06 -6.15934156704e-05)
(0.000237681007431 5.30097886892e-05 -3.13932444392e-05)
(0.000252082528505 0.000114805454258 -4.63310220758e-06)
(0.000236015223053 0.00018624119658 1.33138428662e-05)
(0.000191761950351 0.000259682337984 2.46827684381e-05)
(0.00012783434826 0.000324596733311 3.17931851118e-05)
(5.1564605474e-05 0.00037450343756 3.40890107086e-05)
(-3.0189490751e-05 0.000405251686378 3.23506369734e-05)
(-0.000111031651694 0.000416715439033 2.43428674224e-05)
(-0.000181896968327 0.000409329172156 1.31791053937e-05)
(-0.000231180761311 0.000388515257378 -3.32753115048e-06)
(-0.000252777951956 0.000358256600889 -2.70511711061e-05)
(-0.000233281460408 0.000323247723567 -5.77339532735e-05)
(-0.00016961370875 0.000293633727586 -8.67664920539e-05)
(-8.39439965564e-05 0.000269095239295 -0.000109233542861)
(7.64238968696e-05 0.000245463040098 -8.21839483837e-05)
(0.00012019628704 0.000207206511957 9.29166673148e-05)
(-0.000130629915447 -8.21531227973e-05 8.20003422569e-05)
(-5.15921308683e-05 -4.51768294093e-05 -8.11903976599e-05)
(0.000138076729906 -2.11204137153e-05 -9.79956200199e-05)
(0.000226141063778 5.80761136312e-06 -6.64255380839e-05)
(0.000297545241296 4.90047074902e-05 -2.92456627423e-05)
(0.00032152949578 0.000107206125868 1.53320875311e-06)
(0.00030896010006 0.000176306710813 2.69894480935e-05)
(0.000260619382875 0.000248583038423 5.01695370402e-05)
(0.000187430181018 0.00031589552664 5.49818182718e-05)
(9.55211832056e-05 0.000366875108353 5.92618508646e-05)
(-4.33059441241e-06 0.000398015723109 6.05320791216e-05)
(-0.000101959868367 0.000408783435893 6.11997666836e-05)
(-0.000189035434267 0.000403816879011 4.5194118316e-05)
(-0.000251014491275 0.000386422803285 2.47486484462e-05)
(-0.000281363290538 0.000361663564191 -2.28758894534e-06)
(-0.000266063309241 0.000332624821082 -3.85509984908e-05)
(-0.000201042705343 0.000308217528996 -7.39741627389e-05)
(-0.000111351744553 0.000287875472115 -0.000101078352628)
(6.01067085403e-05 0.000267101312869 -7.91985399397e-05)
(0.000114440834143 0.000229085509999 8.54745398541e-05)
(-0.000123132598953 -4.80965814274e-05 5.57119420541e-05)
(-3.42681197709e-05 -2.01248884741e-05 -9.41533448032e-05)
(0.000168665189193 -3.82806768138e-06 -0.000109958621352)
(0.000268776309876 1.44578972206e-05 -7.77638076097e-05)
(0.000352846357431 4.7663590343e-05 -3.60360332006e-05)
(0.00038714569746 9.49364049097e-05 -1.54527867779e-07)
(0.000378815521664 0.000152718196043 3.74763959316e-05)
(0.000330606299001 0.000218545286394 5.65318005811e-05)
(0.000245860538624 0.000277853103332 7.35168288061e-05)
(0.000138025354902 0.000323950041963 8.38980164718e-05)
(2.02193348734e-05 0.000352685505384 8.59001067255e-05)
(-9.52280133913e-05 0.000364481654013 8.20633286664e-05)
(-0.000194651361486 0.000361508574224 7.4471339067e-05)
(-0.000268001121633 0.000351091076893 4.58901836692e-05)
(-0.00030479770521 0.000334978413428 1.58383382221e-05)
(-0.000292735529571 0.00031591448757 -2.43515535148e-05)
(-0.000226701212068 0.000298671384762 -6.40828115885e-05)
(-0.00013362581228 0.000286661381188 -9.37409527926e-05)
(4.51004160212e-05 0.000271218112861 -7.46665419441e-05)
(0.000106290556638 0.000238042869124 7.9016967474e-05)
(-0.000115800406399 6.31089782025e-06 3.4094008332e-05)
(-2.28475720298e-05 2.19694645043e-05 -0.000106136523716)
(0.000188595303792 2.8941525776e-05 -0.000122519920724)
(0.000298969553882 3.75589608594e-05 -8.98715257792e-05)
(0.00039428094821 5.71626482904e-05 -4.73761695239e-05)
(0.000438300063906 8.79478103481e-05 -6.76110081529e-06)
(0.000438314757861 0.000129244921248 2.84713665863e-05)
(0.000388371724806 0.000176817806017 6.10659596235e-05)
(0.000295234077674 0.000221312046693 8.59345701187e-05)
(0.000174088670972 0.000257352218854 0.000100706518741)
(4.14158837798e-05 0.000281300340931 0.000102949594813)
(-8.73455843672e-05 0.000293893287039 9.65814581184e-05)
(-0.000197941250265 0.00029734450149 8.18375263732e-05)
(-0.000276897073523 0.000294978989473 5.76485971647e-05)
(-0.000318367195052 0.000289285022538 2.52209545755e-05)
(-0.000309866541093 0.000282325118365 -1.62002564017e-05)
(-0.000241513867598 0.000275476341157 -5.48689378026e-05)
(-0.000144782658762 0.000270980191945 -8.79511370028e-05)
(3.56351008086e-05 0.00026186722683 -7.06397124946e-05)
(9.86998161265e-05 0.000237497885533 7.35598776215e-05)
(-0.000110450392581 8.25462292519e-05 2.46586247202e-05)
(-1.83848339548e-05 8.15006093111e-05 -0.000113496064028)
(0.000196242736787 7.83769563051e-05 -0.000131750123001)
(0.000312683654384 7.70004287898e-05 -0.00010097672995)
(0.00041539668644 8.0537004583e-05 -5.80244664869e-05)
(0.000467414289199 9.12815006133e-05 -1.53824825065e-05)
(0.000473841334147 0.000109237303437 2.11153784368e-05)
(0.000425146598274 0.000132414591378 6.04333348032e-05)
(0.000328291630173 0.000155932081244 8.97886943495e-05)
(0.000200369042349 0.000177791033148 0.00010711940705)
(5.97465878223e-05 0.00019587558935 0.000109666016773)
(-7.60962523944e-05 0.000210382671853 0.000102439759201)
(-0.000192383136209 0.000221515638694 8.5507454887e-05)
(-0.000274486762544 0.000229823856378 6.32969595674e-05)
(-0.000318467403699 0.000235753703609 2.85462244834e-05)
(-0.000311035141441 0.000241931105447 -1.32180643785e-05)
(-0.000243551109157 0.000246758833917 -5.27038204511e-05)
(-0.000147776017801 0.000247920160003 -8.44276736144e-05)
(3.14762780598e-05 0.000245660054693 -6.70244759673e-05)
(9.3068621467e-05 0.000233528932359 7.23122574544e-05)
(-0.000111709776086 0.000168615505072 2.49315587611e-05)
(-2.24674628901e-05 0.000149182226187 -0.000115108006184)
(0.000190388277463 0.000136258999146 -0.00013512944807)
(0.000307980142366 0.000124582541113 -0.000106306024095)
(0.000413371235062 0.00011213078618 -6.43470393032e-05)
(0.000469632160339 0.000101976895133 -2.22479464966e-05)
(0.000480434289376 9.43600588024e-05 1.50596104267e-05)
(0.000435041504735 9.01950495856e-05 5.59126990773e-05)
(0.000340428959649 9.04518743383e-05 8.61773016904e-05)
(0.00021419313621 9.61021320486e-05 0.000104265497748)
(7.46735328208e-05 0.000107362708435 0.000107660143571)
(-6.06054677272e-05 0.000123307673193 0.000101520835779)
(-0.000177024028779 0.000142004202849 8.59846676477e-05)
(-0.000260121272432 0.000161028540155 6.23517968948e-05)
(-0.000304400896863 0.000178550921084 2.89128774384e-05)
(-0.000297756947271 0.000196943887843 -1.18956648074e-05)
(-0.000232962283977 0.000211025410482 -5.05263963721e-05)
(-0.000140493946189 0.000220052221295 -8.09159811121e-05)
(3.4039240667e-05 0.000225408656721 -6.34509429296e-05)
(9.22607778228e-05 0.000226811501816 7.35971629935e-05)
(-0.000118622959675 0.000245052690141 3.58294012629e-05)
(-3.40498718124e-05 0.000213779826755 -0.00010969400667)
(0.000172013952507 0.000192923457182 -0.000131483607687)
(0.000285563942091 0.000172357841288 -0.00010389028948)
(0.000389070299041 0.000144883103159 -6.50609997062e-05)
(0.000444896737565 0.00011492560772 -2.42187114306e-05)
(0.000457997512931 8.31500044942e-05 1.22853013913e-05)
(0.000417931095144 5.32432335255e-05 4.92731325015e-05)
(0.000331296066395 3.14296442747e-05 7.72597309751e-05)
(0.000214798182125 2.1067216653e-05 9.44652338146e-05)
(8.50594060138e-05 2.45449156597e-05 9.92047147529e-05)
(-4.23686277025e-05 3.996936395e-05 9.60933132677e-05)
(-0.000153227384455 6.439639942e-05 8.56539035705e-05)
(-0.000234578170665 9.17916864025e-05 5.90453669993e-05)
(-0.000277514458572 0.000120191018659 2.75367085878e-05)
(-0.000271292895113 0.000150066217407 -1.12593596019e-05)
(-0.000209653646099 0.000175028068036 -4.72980808696e-05)
(-0.000122322657565 0.000190850314138 -7.69145782099e-05)
(4.33481860205e-05 0.000202841956192 -5.94195364925e-05)
(9.5931379642e-05 0.00021510588652 7.78705692909e-05)
(-0.000124628392178 0.000309843645379 6.2760826079e-05)
(-5.0118810346e-05 0.000268723740164 -9.70752022136e-05)
(0.000142686746305 0.000241691380675 -0.000121519744604)
(0.000247600734523 0.000213546521358 -9.7158329286e-05)
(0.000344536442976 0.000173167897188 -6.1713084686e-05)
(0.000397816738884 0.00012591580744 -2.66671424145e-05)
(0.000409979861478 7.56746384166e-05 1.38991091209e-05)
(0.000377362000858 2.4310402036e-05 4.07894595317e-05)
(0.00030297905737 -1.57923354606e-05 6.32140543231e-05)
(0.000202240007508 -4.00613535538e-05 7.7871673311e-05)
(8.8894536857e-05 -4.51834038231e-05 8.40925183919e-05)
(-2.41880123993e-05 -3.2417915461e-05 8.60640799516e-05)
(-0.000125655503631 -6.59501273849e-06 7.28986196987e-05)
(-0.000200071714284 2.73695801777e-05 5.07411023113e-05)
(-0.000239043664999 6.52926785142e-05 2.17361304087e-05)
(-0.000230737449705 0.000105312179579 -1.42976880117e-05)
(-0.000174402321247 0.00013975951321 -5.00246010496e-05)
(-9.59766565788e-05 0.000163273198014 -7.4125406811e-05)
(5.78651761729e-05 0.000180909606347 -5.48081220173e-05)
(0.000101654573344 0.000200215430216 8.63329177621e-05)
(-0.000135031525229 0.000357027566676 8.7893874567e-05)
(-7.49585543738e-05 0.000308512378502 -8.06943146985e-05)
(0.000104415964594 0.000277076311878 -0.000108100294805)
(0.000198371060401 0.000242240705979 -8.75127965725e-05)
(0.000285961556493 0.000193469223387 -5.69956307786e-05)
(0.000334328657643 0.000133855968586 -2.76128828738e-05)
(0.000347615789878 6.88836928465e-05 1.21269761543e-06)
(0.000320627233709 5.45803618353e-06 3.00642513448e-05)
(0.000260568339951 -4.72400018141e-05 4.77024969394e-05)
(0.000178121633692 -8.19048244438e-05 5.82486218926e-05)
(8.48505559838e-05 -9.40884187988e-05 6.63963733775e-05)
(-1.08728540419e-05 -8.68358039442e-05 6.20725500548e-05)
(-9.72574586377e-05 -6.10502274584e-05 5.24080139555e-05)
(-0.000160685991052 -2.29132615645e-05 3.47494874253e-05)
(-0.000192988320458 2.24691015472e-05 9.54869277516e-06)
(-0.000182625245823 7.08591608674e-05 -2.02018035627e-05)
(-0.000129805816819 0.000110906325829 -5.04076560422e-05)
(-5.97813734583e-05 0.000141412382708 -7.08574658821e-05)
(7.74854762925e-05 0.0001633524331 -4.91747038241e-05)
(0.000108070329999 0.000186322528489 9.63099747377e-05)
(-0.000142319081286 0.000374437051626 0.000117691483114)
(-0.000100019306137 0.000326933032641 -6.09729293966e-05)
(6.12272781889e-05 0.000293883915449 -9.37711100338e-05)
(0.000144242258167 0.000255264420829 -7.73654562486e-05)
(0.000221827717847 0.000202487862654 -5.38853292121e-05)
(0.000263831898413 0.000137891999236 -2.94887908695e-05)
(0.00027674030711 6.68982061856e-05 -8.04406295275e-06)
(0.000256857672803 -2.83524763637e-06 1.12137561983e-05)
(0.000209941702762 -6.0819205449e-05 2.47112152924e-05)
(0.000145315890235 -0.000100770214926 3.20848884333e-05)
(7.19365383012e-05 -0.000119022824676 3.43218951646e-05)
(-3.16341826181e-06 -0.000114910210044 3.30434391098e-05)
(-7.12197228933e-05 -9.05537385886e-05 2.59854540495e-05)
(-0.000120383794337 -5.10572427164e-05 1.20239606807e-05)
(-0.000142578778222 -1.37655894973e-06 -8.49050500587e-06)
(-0.000129555359936 5.15113032958e-05 -3.20760032602e-05)
(-8.15305707521e-05 9.51371323439e-05 -5.29827966606e-05)
(-2.02944074388e-05 0.00012772157711 -6.74741749965e-05)
(9.80522306648e-05 0.000150949713016 -4.18852324566e-05)
(0.000112739240265 0.000174123317554 0.000107247111458)
(-0.000147651792507 0.000372118772748 0.000140653845199)
(-0.00012576549127 0.00033070500832 -4.40401376013e-05)
(1.56559665423e-05 0.000299496838985 -8.320227778e-05)
(8.72814216649e-05 0.000261305335218 -7.22889437348e-05)
(0.000156199747774 0.00020835329181 -5.59987817261e-05)
(0.000192741350043 0.000143597957626 -3.99867714882e-05)
(0.000204770258287 7.36578103586e-05 -2.57091247269e-05)
(0.000191902421007 4.42732651047e-06 -1.37988617413e-05)
(0.000158208056955 -5.40010878745e-05 -6.34783927821e-06)
(0.000111216647643 -9.45960101275e-05 -2.91391867825e-06)
(5.76618441271e-05 -0.000114087687599 -2.2143476673e-06)
(2.81110113196e-06 -0.000111661921025 -3.27073606519e-06)
(-4.62957029591e-05 -8.84952272882e-05 -8.28768401786e-06)
(-8.00080979301e-05 -5.0011158336e-05 -1.66994939803e-05)
(-9.23567845242e-05 -4.88321113894e-07 -3.06471948539e-05)
(-7.72320242534e-05 5.09706895466e-05 -4.45539695178e-05)
(-3.31116870193e-05 9.43579829775e-05 -5.68601742105e-05)
(1.85600333199e-05 0.000125233384949 -6.47831580253e-05)
(0.000117360654243 0.000146515824213 -3.48339062497e-05)
(0.000115270051227 0.00016588803858 0.000114031191998)
(-0.000145110400131 0.000357215557642 0.00015659602085)
(-0.000142183366464 0.000327851164163 -2.64374918154e-05)
(-2.0552532876e-05 0.000302067495342 -7.34599608641e-05)
(4.02205591619e-05 0.00026958722678 -6.99097788191e-05)
(0.000100905440432 0.000222094097747 -6.02170926659e-05)
(0.000132948205098 0.000163198330757 -5.13026579434e-05)
(0.000143773973271 0.000101602590665 -4.53225457989e-05)
(0.000134723037764 4.09963740102e-05 -3.9201533784e-05)
(0.000110999675666 -1.01262459416e-05 -3.68347890321e-05)
(7.79398829196e-05 -4.64483729216e-05 -3.69605798885e-05)
(4.06842454834e-05 -6.52089225476e-05 -3.79884670117e-05)
(3.79597248807e-06 -6.53898664347e-05 -3.8908643733e-05)
(-2.86284324864e-05 -4.70274273182e-05 -4.30872844386e-05)
(-4.9221372424e-05 -1.39826050411e-05 -4.62530173058e-05)
(-5.27367225337e-05 2.91775251322e-05 -5.12552068322e-05)
(-3.50150235185e-05 7.47926608954e-05 -5.63829408921e-05)
(4.73342005084e-06 0.000112039796012 -6.0597669596e-05)
(4.75526609006e-05 0.000136453660044 -6.13432646329e-05)
(0.00012798849021 0.000152198021115 -2.64866672555e-05)
(0.000111342622884 0.000164026795471 0.00011662557717)
(-0.000130561541448 0.000307898927606 0.000162707031534)
(-0.000143804607188 0.00029960429899 -6.19965954563e-06)
(-4.37586015161e-05 0.000284620880069 -5.93272295994e-05)
(5.9645370133e-06 0.000262293893355 -6.50860473961e-05)
(5.82048186566e-05 0.000224498643914 -6.30879559433e-05)
(8.55612187849e-05 0.000176219134302 -6.02295429506e-05)
(9.5882738981e-05 0.000126076107084 -5.97408670176e-05)
(9.0394587971e-05 7.80716232401e-05 -5.93275078501e-05)
(7.31732946074e-05 3.84910837252e-05 -6.07316520248e-05)
(4.91623241605e-05 9.85648626222e-06 -6.31736881017e-05)
(2.30188397437e-05 -5.47190441121e-06 -6.55510081645e-05)
(-1.19102044833e-06 -7.21917609094e-06 -6.65289129429e-05)
(-1.98709428911e-05 6.08354777291e-06 -6.75185849703e-05)
(-2.89071600672e-05 3.1730827582e-05 -6.69180293561e-05)
(-2.59708487933e-05 6.56307145411e-05 -6.58961498021e-05)
(-7.0877862437e-06 0.000101016200635 -6.4197278449e-05)
(2.77851655391e-05 0.000128570221048 -6.11172738514e-05)
(6.19661593125e-05 0.000143421753861 -5.41034493325e-05)
(0.000125327716468 0.000150292117538 -1.5031729399e-05)
(9.85135067037e-05 0.000148438001311 0.000113979199175)
(-0.000108990394561 0.000255678824954 0.000169480563148)
(-0.000135446131014 0.000292204177453 4.87628016939e-05)
(-5.85391664621e-05 0.000300278657473 1.24131371152e-06)
(-2.12165644049e-05 0.000299410993537 -1.09166530106e-05)
(2.27436990094e-05 0.000281746475218 -1.70126811879e-05)
(4.57689001971e-05 0.000253567767215 -2.12148248524e-05)
(5.6055682913e-05 0.00022270015705 -2.65114741688e-05)
(5.37585554542e-05 0.000191367807844 -3.02240675516e-05)
(4.27700128034e-05 0.000166311893851 -3.45481737232e-05)
(2.7292067313e-05 0.0001459050147 -3.85415101266e-05)
(1.06433753082e-05 0.000132989469828 -4.20036207954e-05)
(-3.54815934435e-06 0.000126251526094 -4.31405897124e-05)
(-1.29013309766e-05 0.000132453768091 -4.38965314874e-05)
(-1.48911406564e-05 0.000143758127694 -4.14288844305e-05)
(-8.81636804725e-06 0.00015989320706 -3.70747347209e-05)
(1.01599473892e-05 0.000175697770446 -3.13644698334e-05)
(4.04418359315e-05 0.000184572266715 -2.38604034689e-05)
(6.66957745321e-05 0.00018142826236 -1.31544784785e-05)
(0.000113806204236 0.000170358297103 2.11452233128e-05)
(8.02478315418e-05 0.000137489292034 0.000112742538842)
(-5.99356471545e-05 0.000112013773402 0.000176379866696)
(-9.50397231745e-05 0.000159097509009 0.000177697104652)
(-6.26772526602e-05 0.000180239880656 0.000178740488148)
(-4.65649068853e-05 0.000194763887383 0.00018155025168)
(-1.57044615274e-05 0.000196508346681 0.000176439411575)
(5.74660848342e-07 0.000189354994873 0.00016491937157)
(1.14466144817e-05 0.000178547628859 0.000148443503139)
(1.57811867238e-05 0.000164682205896 0.000133721947013)
(1.48229159515e-05 0.000152974828273 0.000117818676761)
(1.0514427083e-05 0.000142662528309 0.000109695218491)
(4.93934847958e-06 0.000137013073107 0.000106216658046)
(3.40020322012e-06 0.000133482340549 0.00011117081728)
(3.25933884657e-06 0.000136407405896 0.000111213223739)
(3.80437378328e-06 0.000138998537286 0.000116747565461)
(9.51518522126e-06 0.000140959584779 0.000122974718671)
(2.48161813599e-05 0.000141483218035 0.000125315731967)
(4.75547058639e-05 0.000136190612921 0.000124200414227)
(6.0578179454e-05 0.000122429300705 0.000118596557529)
(7.85945035138e-05 0.000103487154249 0.000114821848552)
(4.30120715416e-05 6.66139666542e-05 0.00011342835815)
(-1.97844801902e-06 -2.02840835218e-05 0.000228906836933)
(1.64681496413e-05 -1.05262888612e-05 0.000193686554061)
(4.6131301825e-05 8.97605898782e-06 0.000175246068202)
(3.54352552765e-05 1.88015328452e-05 0.000174781256542)
(2.18838784406e-05 2.42567564127e-05 0.000170118560388)
(-4.67714392504e-06 2.74593365551e-05 0.000155082597102)
(-3.11345038109e-05 2.93630339323e-05 0.000132396933623)
(-5.34107370713e-05 3.10407493602e-05 0.000107031002617)
(-6.99590020215e-05 3.11488514448e-05 8.45355136116e-05)
(-8.45670710204e-05 3.3531353529e-05 6.58258498931e-05)
(-9.78453036092e-05 3.95457545634e-05 5.39409221105e-05)
(-0.000109990262841 4.79546821937e-05 4.83828169031e-05)
(-0.000120385455506 5.51851575153e-05 4.7948524485e-05)
(-0.000128276490288 5.92173325012e-05 4.9203163734e-05)
(-0.000133329229818 5.95919574628e-05 4.80015673222e-05)
(-0.000127671252333 5.58259282865e-05 4.22520920995e-05)
(-0.000109447841372 4.93318766996e-05 3.50787049791e-05)
(-8.77749613066e-05 3.89136417579e-05 2.87390746379e-05)
(-3.80812916624e-05 2.30889675858e-05 4.0718469346e-05)
(-1.06623842165e-05 1.93084292399e-05 7.29032594538e-05)
(1.96249544119e-06 -4.90028196558e-05 0.000189183638902)
(2.3094404038e-05 -3.20423637847e-05 2.65489220885e-05)
(4.61435429362e-05 -8.35940632386e-06 -2.41622752024e-05)
(1.44458254122e-05 1.1316997127e-06 -2.72579390406e-05)
(-1.48961510298e-05 7.71554669569e-06 -2.3759972401e-05)
(-4.66060259307e-05 1.5894008742e-05 -2.60433909349e-05)
(-7.15302183932e-05 2.73974180676e-05 -3.68735046916e-05)
(-8.65823204125e-05 4.19720672243e-05 -5.29801064838e-05)
(-9.13830735364e-05 5.67529402906e-05 -7.10662657719e-05)
(-8.94475997193e-05 7.32416020295e-05 -8.77224871213e-05)
(-8.59513390249e-05 8.95368781964e-05 -0.000100913770255)
(-8.49877875097e-05 0.000104015465778 -0.000110936175887)
(-8.75404256452e-05 0.000113472125582 -0.000119266965068)
(-9.2846338028e-05 0.000116426627046 -0.000126996291596)
(-9.92519772107e-05 0.000114213687256 -0.000136403473086)
(-0.000102174580389 0.000108244154701 -0.000148173441716)
(-9.91832640882e-05 0.000100716346731 -0.000157294100245)
(-9.63156091681e-05 9.03404439593e-05 -0.000156550357259)
(-5.63063071745e-05 7.23496129726e-05 -0.00011099515882)
(-2.41997098461e-05 6.59317240829e-05 4.23261283422e-05)
(2.1019935414e-05 -5.29656712877e-05 0.000160159652143)
(4.32981513424e-05 -4.31030681714e-05 -3.3059192129e-05)
(5.31298389267e-05 -3.14474606398e-05 -7.61166162874e-05)
(3.55815796974e-06 -2.95519174873e-05 -6.55580886336e-05)
(-3.42713980774e-05 -2.45382246078e-05 -5.01234462677e-05)
(-6.59842294699e-05 -1.1008390108e-05 -4.38165249401e-05)
(-8.50443330184e-05 1.20870642994e-05 -4.99805507815e-05)
(-9.02199031068e-05 4.38725949439e-05 -6.40454476567e-05)
(-8.42137049609e-05 7.81284037938e-05 -8.0687663469e-05)
(-7.27882642352e-05 0.000110078427035 -9.56020551791e-05)
(-6.17050509135e-05 0.000135334073598 -0.000108009038196)
(-5.53794677568e-05 0.000151991355132 -0.000117237638367)
(-5.53913122641e-05 0.000158974057251 -0.000126302079516)
(-6.12154335813e-05 0.000159157731757 -0.000137100473423)
(-7.10963779681e-05 0.000154316284698 -0.000152378026498)
(-8.15112264276e-05 0.000147943071728 -0.000171965738549)
(-9.01794595758e-05 0.000143244223308 -0.000190743493635)
(-0.000104150056092 0.000139720261521 -0.000199066249076)
(-7.61673600587e-05 0.000131188921197 -0.000155198276565)
(-4.32791246049e-05 0.000127856728362 2.98285258901e-05)
(3.14948081879e-05 -8.76755932598e-05 0.000145443698352)
(5.04918156407e-05 -9.86460219596e-05 -4.77178402642e-05)
(5.10915889026e-05 -0.000106609300855 -7.65575296826e-05)
(-9.74406703843e-06 -0.000118483149314 -5.58953286052e-05)
(-4.74040216951e-05 -0.000119501030581 -3.47860220822e-05)
(-7.08211287008e-05 -0.000102518491315 -2.40595258389e-05)
(-7.66554785231e-05 -6.68032983717e-05 -2.6020234644e-05)
(-6.86763247275e-05 -1.91142696641e-05 -3.45129297887e-05)
(-5.42022460557e-05 3.23178932764e-05 -4.61488634857e-05)
(-3.90647799193e-05 7.90281782635e-05 -5.63104290974e-05)
(-2.78263132167e-05 0.000114408068983 -6.47357814099e-05)
(-2.38608247294e-05 0.000135975411359 -7.24405563073e-05)
(-2.61331985316e-05 0.000144581227232 -8.26882169891e-05)
(-3.46827962903e-05 0.000143696525432 -9.67075151393e-05)
(-4.8364769943e-05 0.000138372910247 -0.000117453697779)
(-6.36536755295e-05 0.000134446720722 -0.000143888268859)
(-7.96069703294e-05 0.000135596831216 -0.000170729777869)
(-0.000105129286519 0.000141908766839 -0.000188855648406)
(-8.44465414198e-05 0.000147367738841 -0.000154765471511)
(-5.3682779821e-05 0.000158511550431 3.49186938121e-05)
(3.637634206e-05 -0.000115024032166 0.000119272824879)
(5.25490915036e-05 -0.000143755620949 -6.33221650031e-05)
(4.96402244938e-05 -0.000165116454455 -7.96565665803e-05)
(-1.47304887019e-05 -0.000183309267521 -5.41850762797e-05)
(-4.36849298518e-05 -0.000182669305733 -2.92228338047e-05)
(-5.09187928021e-05 -0.000155374746173 -1.14421405685e-05)
(-4.15012988128e-05 -0.00010512047224 -4.57267680341e-06)
(-2.35108470098e-05 -4.12919757654e-05 -2.40467357677e-06)
(-4.60288673999e-06 2.57004504448e-05 -2.68777242626e-06)
(8.02451067727e-06 8.43117440532e-05 -4.0926917097e-06)
(1.19151971512e-05 0.000126634522771 -6.78804084798e-06)
(7.24442750138e-06 0.000150459010551 -1.21721020725e-05)
(-4.37032397402e-06 0.000158131652008 -2.39524743527e-05)
(-2.0495565242e-05 0.000153976605452 -4.31682509713e-05)
(-3.83152724451e-05 0.000145676476468 -7.22020852454e-05)
(-5.64366924546e-05 0.000139248523873 -0.000106826432442)
(-7.62656745378e-05 0.000140621843683 -0.000142050396577)
(-0.000108459167936 0.000150549117746 -0.000168727719303)
(-9.00825282842e-05 0.00016420883275 -0.000145149802294)
(-5.94512745236e-05 0.000186764071579 3.92415796399e-05)
(3.69895095936e-05 -0.000138023401546 7.74384514625e-05)
(5.22586540923e-05 -0.000175690891512 -9.15989758001e-05)
(5.18383566926e-05 -0.00020354396249 -0.000100646549832)
(-7.82994851757e-06 -0.000221989333018 -7.36790902805e-05)
(-2.01376152644e-05 -0.000214134104033 -4.35785378993e-05)
(-7.85329455756e-06 -0.000176776281211 -1.65072210846e-05)
(1.74983945836e-05 -0.000114643234917 6.29191767651e-06)
(4.4620205481e-05 -3.67814190078e-05 2.6186816566e-05)
(6.219478293e-05 4.24958799755e-05 4.23452395909e-05)
(6.45361014493e-05 0.000109389227072 5.08153962937e-05)