/*--------------------------------*- C++ -*----------------------------------*\
| =========                 |                                                 |
| \\      /  F ield         | OpenFOAM: The Open Source CFD Toolbox           |
|  \\    /   O peration     | Version:  3.0.1                                 |
|   \\  /    A nd           | Web:      www.OpenFOAM.org                      |
|    \\/     M anipulation  |                                                 |
\*---------------------------------------------------------------------------*/
FoamFile
{
    version     2.0;
    format      ascii;
    class       surfaceVectorField;
    location    "3.6";
    object      Uf_0;
}
// * * * * * * * * * * * * * * * * * * * * * * * * * * * * * * * * * * * * * //

dimensions      [0 1 -1 0 0 0 0];

internalField   nonuniform List<vector> 
22672
(
(0.000285007224758 6.52797743801e-05 -0.000257687882301)
(3.5413746222e-05 0.000335941306455 -0.000253817480464)
(0.000178471948382 0.000212265192035 -0.000620948225139)
(0.000794138932986 -3.16365294319e-05 -0.000260519537767)
(0.000429880027748 0.000206136850932 -0.000489866954973)
(0.000643246592459 0.000182152182796 -0.000715268216113)
(0.00132738886325 -7.37403097338e-05 -0.000204832239642)
(0.00110838640606 0.000163439094835 -0.000550328309003)
(0.00125477555211 0.000186252551462 -0.000696688670041)
(0.00172947128523 -7.17184700059e-05 -0.000116613744347)
(0.00165080294883 0.00018036331905 -0.000498742943424)
(0.00173484322226 0.000215433955055 -0.000582445382801)
(0.00190471536185 -3.2716467197e-05 -2.27691095395e-05)
(0.00199686383121 0.000253561604276 -0.000406113604455)
(0.00202253543073 0.000265562054345 -0.000428805322601)
(0.00181390102151 2.24293005265e-05 6.24086508565e-05)
(0.00205463490996 0.000354767688135 -0.000296838646727)
(0.00204081846134 0.000322340986522 -0.000263952990561)
(0.00147599953289 7.7584001996e-05 0.000131811190194)
(0.0018275881112 0.000451451758874 -0.000193771893194)
(0.0017918506981 0.000370265449952 -0.000113549914654)
(0.000937030824671 0.000121774216264 0.000179592332734)
(0.00134825699062 0.000530729970881 -0.000104681468601)
(0.00130580804963 0.000405635355918 8.23909058295e-06)
(0.000266396140271 0.000146904530199 0.000201123663543)
(0.000685593789077 0.000578698893213 -4.64569169869e-05)
(0.000649751034281 0.000424542660664 9.19361407167e-05)
(-0.0004483605897 0.000150578501931 0.000200008014093)
(-7.36040931996e-05 0.000593786423031 -2.32575250874e-05)
(-9.35583358865e-05 0.000427902004403 0.00012097065051)
(-0.00112432932278 0.000132702505388 0.000179813520754)
(-0.000834807551524 0.000576855337596 -3.38328488068e-05)
(-0.000835267515785 0.00041689064898 9.91137297369e-05)
(-0.0016866812852 9.56363221886e-05 0.000140546615976)
(-0.00151033754171 0.000530111051167 -7.45347856443e-05)
(-0.00149422256526 0.000392526619086 3.22412313376e-05)
(-0.00207536940257 4.47741178766e-05 8.3434054228e-05)
(-0.00202980709458 0.000457197484011 -0.000142442223951)
(-0.00200474817722 0.00035665855897 -6.85090673971e-05)
(-0.00224879526149 -1.05192787123e-05 1.47622680792e-05)
(-0.00233434242481 0.000366494910752 -0.000228230543286)
(-0.00231128464158 0.000311577789272 -0.000193068781912)
(-0.00218897283173 -6.05773393094e-05 -6.27041313757e-05)
(-0.00239432996616 0.000270530441666 -0.000320459755006)
(-0.0023863136189 0.000261860320798 -0.000330352640132)
(-0.00189878577369 -9.173829222e-05 -0.000144279360473)
(-0.00219647170933 0.000181685963662 -0.000413818524568)
(-0.00222091501738 0.000211141630748 -0.000471872837031)
(-0.00142549237118 -8.81601448685e-05 -0.000218653217124)
(-0.00176324355795 0.000124888693775 -0.000490892476912)
(-0.00183752378528 0.000171379372451 -0.000598181961945)
(-0.000856076697662 -4.65749523469e-05 -0.000263253684852)
(-0.001175370686 0.000118492568772 -0.000530781635012)
(-0.0013058560944 0.000150657649587 -0.000687908154482)
(-0.000323475111508 4.05463829949e-05 -0.000254794255493)
(-0.000488690322766 0.000161117156816 -0.000471489087873)
(-0.000680389861975 0.000148643731542 -0.0006937186869)
(-6.47418038633e-05 0.000274277013971 -0.000251889206353)
(-0.000193616833488 0.000172303460622 -0.000597752095236)
(0.000164140133197 0.000494103986123 -0.000485996553136)
(-6.01893143104e-05 0.000875834506442 -0.000251453104789)
(0.000158547334491 0.000715619119706 -0.000704032999971)
(0.000764008244983 0.000419014082428 -0.000779675726209)
(0.000364102604281 0.000827813664785 -0.000781457131035)
(0.000650409373644 0.000701378063149 -0.00122154456358)
(0.00143369098362 0.000436363753983 -0.000844239012785)
(0.00119024330081 0.000868889269115 -0.000958420939794)
(0.00135009976012 0.000754411732325 -0.00137513254134)
(0.00193666991165 0.000528063702291 -0.000788242803532)
(0.00183453073404 0.000992048929138 -0.000926694501476)
(0.00188884740101 0.000866051382366 -0.00131466416399)
(0.00216548793121 0.000668586687577 -0.000680183141643)
(0.00223892837266 0.00117868150443 -0.000812199725396)
(0.00220808708669 0.00101565230795 -0.0011539375455)
(0.00208261106789 0.000816244927293 -0.000553019190778)
(0.00231017787155 0.00138234515641 -0.000660350564189)
(0.00223414464882 0.00116860282158 -0.000944700231566)
(0.00170899949145 0.000940899498529 -0.000430264551989)
(0.00205511909157 0.00155596968404 -0.000507614818856)
(0.00196678713962 0.00129316768621 -0.000730905976515)
(0.00110111540038 0.00102636762819 -0.000330730718322)
(0.00151854130345 0.001682586436 -0.000373779339796)
(0.00144194771159 0.00137852838065 -0.000543972003659)
(0.000344228676384 0.0010651845659 -0.000270838105618)
(0.000780385447091 0.00174961074008 -0.00028048593229)
(0.000731235638754 0.00141949152675 -0.000414024755601)
(-0.000464175093411 0.00105939678003 -0.000257098387988)
(-6.03238030689e-05 0.00175968169071 -0.000239056035122)
(-7.47166843288e-05 0.00142115722896 -0.000357491135928)
(-0.00122913963825 0.00101229896127 -0.000288181155205)
(-0.00090116884073 0.00171910568093 -0.000251411690002)
(-0.000880055268749 0.00138966768179 -0.000377285445284)
(-0.00186583457712 0.000927285225148 -0.000357523625572)
(-0.00164800324724 0.00163273627475 -0.000312215784371)
(-0.00159607419836 0.00132810470717 -0.000465929945495)
(-0.00230467108858 0.000810991150332 -0.000454106821465)
(-0.002222782065 0.00150507994409 -0.000411524433427)
(-0.00214946271608 0.00123809437713 -0.000609045630895)
(-0.00249776760553 0.000675232983806 -0.000563452566371)
(-0.00256125243272 0.00134519093431 -0.000535387462262)
(-0.0024818900909 0.0011229954725 -0.000785599220094)
(-0.00242096802656 0.000535521142046 -0.000671574148199)
(-0.00262863192606 0.00116537132803 -0.000667506054474)
(-0.00256327357956 0.000990053427875 -0.000971640220612)
(-0.00207779939288 0.000416360622903 -0.000760431641007)
(-0.00240621244565 0.000982320473844 -0.000792401803843)
(-0.00238413889931 0.000850018516046 -0.00114380294968)
(-0.00151354245994 0.000346744957285 -0.000803020894799)
(-0.00191518079848 0.00083007729654 -0.000883235494415)
(-0.0019687794609 0.000725809100642 -0.00126944539552)
(-0.000824795540722 0.000341011856023 -0.000739017038032)
(-0.00123773448035 0.000736978540012 -0.000901799243259)
(-0.00138508904922 0.000638217486884 -0.00130723279917)
(-0.000213424563789 0.000409670975428 -0.000468584038733)
(-0.000425112230051 0.000709355841897 -0.000738346356319)
(-0.000684481869021 0.000597160196863 -0.0011596096032)
(2.01898618132e-05 0.000746731115261 -0.000255937926994)
(-0.000178139254572 0.000605150791548 -0.000685878633008)
(0.00012376948805 0.00118943774294 -0.000546913682687)
(-0.000104574881577 0.00143725849147 -0.00019458408216)
(0.000166832771146 0.00134656587288 -0.000685193155359)
(0.000813520425442 0.00125437334353 -0.00096020234462)
(0.000383996622443 0.00151978541483 -0.000853916125716)
(0.000713855913174 0.00141789343521 -0.0013817223474)
(0.00158818062162 0.00139856830942 -0.00104087642848)
(0.00134260914284 0.0016625794467 -0.00104895101419)
(0.00149777788859 0.00155384487536 -0.00156835002575)
(0.00215671711866 0.00161343541131 -0.00095065142334)
(0.00206925003371 0.00188741798542 -0.000970791467176)
(0.00207968444521 0.00175910847125 -0.00146390520234)
(0.00240318194314 0.00185981081039 -0.000792367147943)
(0.00250362720744 0.00216319800966 -0.000790838501701)
(0.00240658799033 0.00200026582857 -0.00123098097743)
(0.00229820748015 0.00208641807076 -0.000614946192266)
(0.00255676404176 0.00243428054516 -0.000576527262709)
(0.00241180375763 0.00223097152082 -0.000946960572527)
(0.00187436898758 0.00225966412154 -0.000451129606663)
(0.00224993597367 0.00264972472996 -0.000374590995496)
(0.00210359772748 0.00241202057588 -0.000669916199131)
(0.00120155760318 0.00236632399725 -0.000323534553765)
(0.00164443147446 0.00279447668466 -0.000210163957287)
(0.00152936643253 0.00253000783622 -0.000439078509286)
(0.000374896221528 0.00240415558391 -0.000248703861794)
(0.000833249106286 0.002860890335 -0.00010126125015)
(0.000767650088108 0.00258230783898 -0.000284617858473)
(-0.000501370732884 0.00237997680378 -0.000233369337136)
(-7.6469844658e-05 0.00285772872095 -5.7261375336e-05)
(-8.66585280752e-05 0.0025767517801 -0.000221779723046)
(-0.00132816497419 0.00230145738415 -0.000275446319168)
(-0.000979732684814 0.00279562565481 -7.76132579846e-05)
(-0.000936151918132 0.0025228465438 -0.00024972538497)
(-0.00201718598296 0.0021745163156 -0.000366216592227)
(-0.00178181482333 0.00268259140317 -0.000155550366742)
(-0.00169131882881 0.00242691692154 -0.000360833782397)
(-0.00249544939378 0.00200592834448 -0.000492805074224)
(-0.00240281036354 0.00252262011287 -0.00027978284044)
(-0.00227776727545 0.00229223578216 -0.000539276439058)
(-0.00271108623841 0.00180491945414 -0.000639440950364)
(-0.00277635843725 0.00232354946498 -0.000438838069262)
(-0.00263643287797 0.00212221728459 -0.000762721396199)
(-0.0026337215389 0.00158483867479 -0.000788333710119)
(-0.00286205122153 0.0020929614039 -0.000614773103247)
(-0.00273375095716 0.00192367472306 -0.00100495452645)
(-0.0022615375559 0.00137173274189 -0.000915205657251)
(-0.00263316217573 0.00184648703396 -0.000789148970453)
(-0.00255625189471 0.00170946923565 -0.001236350345)
(-0.00163530753691 0.00119861265969 -0.000982013842875)
(-0.00210344809991 0.0016194231703 -0.000929003145339)
(-0.00212380101585 0.0015067623157 -0.00141557574945)
(-0.000857888816331 0.00108581683774 -0.000901128561546)
(-0.00135327037759 0.00144301322418 -0.000981264737168)
(-0.00150057310625 0.00134243986076 -0.00148345331087)
(-0.000174003919723 0.00102983246477 -0.00052570024458)
(-0.000433088786676 0.0013296044986 -0.000800576157543)
(-0.000731764196526 0.00123245879028 -0.00130413349175)
(6.02952349096e-05 0.00124851834795 -0.000208395196774)
(-0.000184665796953 0.00116228522677 -0.00067579111816)
(0.000138883312632 0.00176258193425 -0.000501586525189)
(-0.000106450646906 0.00187528980762 -0.000107023009573)
(0.000196959525385 0.00185980923629 -0.000576914348998)
(0.000939097382438 0.00192751718326 -0.000942664795286)
(0.000474708793968 0.00205867581533 -0.000811168471493)
(0.000830064123952 0.00199198606864 -0.00133910417433)
(0.00181805713851 0.00215366576957 -0.00097886605288)
(0.00156153897918 0.00226872704908 -0.000975928790416)
(0.00170901502287 0.00217405433829 -0.00148510705569)
(0.0024381084348 0.0024397347629 -0.000810978545537)
(0.00235957156578 0.00254737680389 -0.000820128822592)
(0.00233474045513 0.00242579566972 -0.00128000980824)
(0.00267875634961 0.0027387404279 -0.000574998616467)
(0.00280372285946 0.00285749787135 -0.000555543488042)
(0.00265715823094 0.00270693075416 -0.00093494746686)
(0.00252551537442 0.002996792984 -0.000336172065938)
(0.00281471559212 0.00314260530968 -0.000271836978274)
(0.00262075051633 0.00296627823481 -0.000555083476125)
(0.00203066322144 0.00318192401869 -0.00013362534612)
(0.00243641407068 0.00335646545173 -2.47332152812e-05)
(0.00225090780008 0.00316392952292 -0.000211888251283)
(0.00128004978847 0.00328511097708 1.21093463267e-05)
(0.00174880115564 0.00348754234606 0.000162991309813)
(0.00161023659861 0.00328714443339 5.75480937247e-05)
(0.000381145267779 0.00331012798008 9.0181236308e-05)
(0.000860960149804 0.00353565029036 0.000276902164599)
(0.000788109529065 0.00333496511266 0.000224144891712)
(-0.000558999415296 0.003269203652 9.84947038156e-05)
(-0.000113720723417 0.00351487976884 0.000314481957556)
(-0.000117075397961 0.0033187290781 0.000282993964454)
(-0.0014415539058 0.00317336808735 4.2282694441e-05)
(-0.00107143019438 0.00343998812598 0.000281783340018)
(-0.00100948991524 0.00325068832238 0.000238192348712)
(-0.00218046636719 0.00302925376799 -6.91166149555e-05)
(-0.00192137746961 0.00332046515671 0.000186916545009)
(-0.00180299992401 0.00313892343829 0.000101039032194)
(-0.00270054785788 0.00284112405809 -0.000225815835478)
(-0.00258642188879 0.00315977903487 3.94390001607e-05)
(-0.0024255464655 0.00298658648736 -0.000117077120414)
(-0.00294794527444 0.00261462036258 -0.000414170222144)
(-0.00299903850237 0.00295879550302 -0.000151631402343)
(-0.00281753899103 0.0027962588767 -0.000387848335699)
(-0.00288321981541 0.00235996731239 -0.000615588363582)
(-0.0031122929756 0.00272287867976 -0.000370144088734)
(-0.00294064963817 0.00257356586352 -0.000694642487323)
(-0.00249455145203 0.00210091928046 -0.000802946458541)
(-0.00288991465177 0.00246244893299 -0.000600043274948)
(-0.00277415647125 0.00233044852201 -0.00100463006408)
(-0.00181469127286 0.0018701291432 -0.000928254039632)
(-0.00233396242169 0.00220853144044 -0.000802643058805)
(-0.00232900789668 0.00209438142601 -0.00126896830485)
(-0.000950376790637 0.00169043570277 -0.000880712333165)
(-0.00151937020811 0.00198991148138 -0.000911852607925)
(-0.00166294322079 0.00189371409588 -0.00141121264356)
(-0.000180499513778 0.00154732781761 -0.000483271109737)
(-0.000498552623041 0.0018208622799 -0.000754376638405)
(-0.000818089240057 0.00174703037211 -0.00126113499351)
(6.41249690192e-05 0.00164919193556 -0.00013154282803)
(-0.000206264931309 0.00162193012453 -0.000581173064484)
(0.000208969152635 0.00215080942095 -0.000416604955877)
(-7.13396501532e-05 0.00209639795232 -1.31809434867e-05)
(0.000247580914993 0.00219128637026 -0.000430077067323)
(0.00112652101798 0.00237799272348 -0.000844432466623)
(0.000614569590005 0.00233895993774 -0.000715725268048)
(0.00098326836045 0.00236145548937 -0.00119783574731)
(0.00209716151789 0.00263869154485 -0.000817191560129)
(0.00181297354682 0.00257254642282 -0.000833596010072)
(0.00195589431399 0.00255728776221 -0.00127445962746)
(0.00274940119686 0.00293930184982 -0.000564693765098)
(0.0026646862317 0.00285173414323 -0.00059937153009)
(0.00261966930877 0.00281045536624 -0.000956596767409)
(0.00296338522861 0.0032337151505 -0.000252381849849)
(0.00310005140153 0.00314168269292 -0.000257308444341)
(0.00292642614387 0.00308155876552 -0.000498168597125)
(0.0027441298135 0.00347332260709 3.9601872383e-05)
(0.00305302573793 0.00339191504728 8.17767390384e-05)
(0.002835647379 0.00332321487245 -3.00540594816e-05)
(0.00216591519813 0.00363242464002 0.000271883440652)
(0.00259428008096 0.00356680683597 0.000359362457851)
(0.00239420118531 0.00349978340622 0.000367873502554)
(0.00133393288839 0.0037080353248 0.000427784128085)
(0.00182250152502 0.00366099067178 0.000557343399615)
(0.00167997599634 0.00360185442155 0.000658534264837)
(0.000365550656355 0.00371014837976 0.000501202885847)
(0.000863463799501 0.00367906127099 0.000664339798186)
(0.000794401594977 0.00363110909494 0.0008249715417)
(-0.000630491714076 0.00365568029539 0.000497770593758)
(-0.000165085554719 0.00364065713476 0.000688241779033)
(-0.000160346989255 0.00360202124527 0.000870265303331)
(-0.00155959375154 0.00355787566375 0.000426417190586)
(-0.00116388829554 0.00356292252761 0.000642901701097)
(-0.00109189911641 0.00352867100723 0.000806167940642)
(-0.00234083362495 0.00342267127533 0.000295472160125)
(-0.00204964523485 0.00345580842855 0.000536229717383)
(-0.00192011425536 0.00341988712869 0.000645896907186)
(-0.00290281851191 0.00325049849104 0.000113623433295)
(-0.00275155711799 0.00331981136918 0.000373567951411)
(-0.00257730698311 0.00327769156458 0.000401952850139)
(-0.00318575380017 0.00304210448034 -0.000107605268933)
(-0.00320178264824 0.00315214040309 0.000162654903817)
(-0.00300399439428 0.00310246039568 8.95906650288e-05)
(-0.00314284725599 0.00280243478616 -0.0003545990001)
(-0.00334711553288 0.00295267956933 -8.56846861812e-05)
(-0.0031573165317 0.00289685111979 -0.000272707191681)
(-0.0027505645117 0.00254917361736 -0.000599739875211)
(-0.00314136722462 0.00272436388463 -0.000359138639538)
(-0.0030081527907 0.00266968448318 -0.00065419750044)
(-0.00203117619264 0.002309467776 -0.000786241627097)
(-0.00257294457417 0.00249132633813 -0.000616134710522)
(-0.0025560547711 0.00244416254007 -0.0010021830729)
(-0.00109165621441 0.00210321182539 -0.000785516913165)
(-0.00170886583438 0.00227551963793 -0.000780152222363)
(-0.00185030101743 0.00224488788546 -0.00122512803737)
(-0.000233065812571 0.00190677172009 -0.000402648356699)
(-0.000604079744689 0.00208833823359 -0.000658668969627)
(-0.000931486996736 0.00208822590036 -0.00112606628731)
(3.58876686331e-05 0.00186524536757 -4.82645584891e-05)
(-0.00024314261381 0.00192890998375 -0.000449119204573)
(0.000308449781771 0.00226332041293 -0.000312301255658)
(-1.85707143116e-05 0.00205506637293 7.41178637085e-05)
(0.000305552418494 0.00226341199662 -0.00026711802624)
(0.00133395703898 0.0025116965293 -0.000704888811496)
(0.000764714103935 0.00231539921683 -0.00059665048806)
(0.00114192575579 0.00244936368845 -0.00100194635453)
(0.00237614276221 0.00276193673392 -0.000615775980032)
(0.00204947978788 0.00253530738807 -0.00066596980436)
(0.00219644781611 0.0026314851788 -0.00100494650167)
(0.00304154987105 0.00302841999622 -0.000291986209333)
(0.00293515292559 0.00277479492204 -0.000368208349382)
(0.0028886956433 0.00285044304142 -0.000588467694794)
(0.00321511969352 0.00327256136515 7.68501445457e-05)
(0.00334866533152 0.00300771856335 2.95594907035e-05)
(0.00317324744976 0.00307494566163 -3.96054920621e-05)
(0.0029229338363 0.00345682115419 0.000401537324507)
(0.00323921799869 0.00319364743472 0.000401869490682)
(0.00302438043979 0.00326592246594 0.000490453681288)
(0.00226258537717 0.00356571584365 0.000644822416815)
(0.00270392318895 0.0033104080896 0.000691739602977)
(0.00251129404693 0.0033966466776 0.000916747430072)
(0.00135647791164 0.00360167803564 0.000793899069716)
(0.00185785074084 0.00335761895135 0.0008824774525)
(0.00172691598156 0.00346212420249 0.00120947942506)
(0.000332264933001 0.00357923356984 0.000851378691372)
(0.000841943431357 0.00334349187568 0.000970223970682)
(0.000785057024298 0.00346632341769 0.00135978262794)
(-0.000702898084807 0.00351792908511 0.000833372886372)
(-0.000222857183418 0.00329177053504 0.000976680778154)
(-0.000209300955254 0.00342631035746 0.00138404988562)
(-0.00166244236718 0.00343142109768 0.000752714227894)
(-0.00124433230684 0.00322018026743 0.000920300279081)
(-0.00116918785927 0.0033564618695 0.00130228682215)
(-0.00247386899031 0.0033244813253 0.000614325508669)
(-0.00214938373904 0.00313831510523 0.000810237074989)
(-0.00202233474944 0.00326569241668 0.00112892023201)
(-0.00306956498963 0.00319423183344 0.000422599421933)
(-0.00287525073965 0.00304407929367 0.00064669301882)
(-0.0027071858057 0.00315441015668 0.000871428356846)
(-0.00338676797158 0.00303669656185 0.000184575486568)
(-0.00335551899853 0.00293037242605 0.000430910037882)
(-0.00316495323814 0.00302003756408 0.000538971224234)
(-0.00337139680994 0.00285017291605 -9.02243256194e-05)
(-0.00353130392527 0.00279162339084 0.000170062866422)
(-0.0033482009721 0.0028616860413 0.000145685250685)
(-0.00298656948793 0.00264412444701 -0.000375533474849)
(-0.00334776921064 0.00262521443647 -0.000128286499093)
(-0.0032192398279 0.00268303890799 -0.000285677683459)
(-0.00224396349272 0.00243714735476 -0.000610045305787)
(-0.0027789059793 0.00244521716146 -0.000420778606703)
(-0.002766206938 0.00250105538029 -0.000696496676717)
(-0.00124767314223 0.00224228313881 -0.000653304278825)
(-0.00188337019424 0.00226572998945 -0.000626469708922)
(-0.00202898346929 0.00233285633763 -0.000986500603503)
(-0.000310483528085 0.00202928545639 -0.000304285171417)
(-0.00071796862552 0.00209207312241 -0.000541953725913)
(-0.0010474046358 0.00218895064446 -0.000940924430973)
(-7.92359759361e-06 0.00185631957512 2.95715074232e-05)
(-0.000285578459973 0.00201640978358 -0.000301557692433)
(0.000406571016893 0.00208972536919 -0.000210231368693)
(3.65420892979e-05 0.001761800885 0.000147661756535)
(0.000355916658815 0.00206535893516 -0.000113305403831)
(0.00151644777909 0.00232047543242 -0.000557731480923)
(0.000896209105726 0.00199805891446 -0.000476204559354)
(0.00127543239486 0.0022422254609 -0.000792536332337)
(0.00260611439201 0.00252818717178 -0.00041840217371)
(0.00223861252798 0.00217668263054 -0.000504317790038)
(0.00239300391123 0.00239074653367 -0.000731041722781)
(0.00327003470396 0.00273263560498 -4.66626493457e-05)
(0.00314032992214 0.00235395243327 -0.000164038766579)
(0.00310358347526 0.00255549246741 -0.000243077682588)
(0.00339947954127 0.00290612406841 0.00035457883684)
(0.00352531945478 0.00251278048273 0.000267139419376)
(0.00336359953961 0.00271666934157 0.000365493395251)
(0.00304091181161 0.00302359945334 0.000692071769152)
(0.00335934244291 0.00262645138479 0.000652477712714)
(0.00316210157523 0.00284490504115 0.000925763946508)
(0.00231120588011 0.0030781369279 0.000929394638662)
(0.00276003696234 0.00268331391636 0.000937378859876)
(0.00258747454281 0.00292308146682 0.00135680028955)
(0.00134759410211 0.00307545569424 0.00105880235347)
(0.00185606262415 0.00268751072113 0.00110815682804)
(0.00174544430294 0.00295007815054 0.00163372021257)
(0.000286369445864 0.00303246035315 0.00109552605746)
(0.000800973213292 0.00264786223041 0.00117087148923)
(0.000760673130242 0.00293043474458 0.00175685452573)
(-0.000768804723113 0.00297072029677 0.00106360817086)
(-0.000280869244755 0.00258981114589 0.00115858824148)
(-0.000258848556906 0.00288344575894 0.00175713380112)
(-0.00173979049562 0.00290391237156 0.000977823126177)
(-0.00130600032338 0.00253098975876 0.00109283582621)
(-0.00123239982212 0.00282381879632 0.00166017653996)
(-0.00256436814697 0.00283484810383 0.000842604585141)
(-0.00221284198206 0.00247981060216 0.000985064949831)
(-0.00209675901474 0.0027596811631 0.00148308242278)
(-0.00318086820739 0.00275754974241 0.000655003634769)
(-0.00294778294381 0.0024322678268 0.00083192160251)
(-0.00279751356968 0.00268935399564 0.00122831179507)
(-0.00352468084896 0.00266346947824 0.000416397417735)
(-0.00344729624971 0.00237831202222 0.000625456860429)
(-0.00327776838882 0.00260747930002 0.000895873298898)
(-0.00353476778016 0.00254580407041 0.000132000692948)
(-0.00364734135196 0.00230777353502 0.000368248198388)
(-0.00348547455848 0.00250928574124 0.000493937011605)
(-0.00316434568372 0.00240671013737 -0.000173531630948)
(-0.00348682138442 0.00221366140191 6.25203830796e-05)
(-0.00337613652507 0.00239389552515 4.11311220931e-05)
(-0.00241328293825 0.00225595279402 -0.000437203009838)
(-0.00292617173368 0.0021014630638 -0.000246428610385)
(-0.00292663817181 0.00227103077112 -0.00040730850906)
(-0.00138208148464 0.00209934157623 -0.000515119156011)
(-0.00201675466749 0.00197733298298 -0.00047847555119)
(-0.00216907134503 0.00215039125562 -0.000742804348238)
(-0.000387045455287 0.00190395538659 -0.000208097047073)
(-0.00081627300336 0.0018406208246 -0.000425394104737)
(-0.00114215825977 0.0020355569258 -0.000743583656365)
(-5.36328395771e-05 0.00163007439773 9.57938064031e-05)
(-0.000321998186326 0.00187265517702 -0.000160800232106)
(0.000490704671279 0.0016572108201 -0.000118311434126)
(8.34380587437e-05 0.0012529126659 0.000201997907003)
(0.000395044219469 0.00162128618512 1.81836305083e-05)
(0.00165731601399 0.00184101767149 -0.000422790868469)
(0.000993324080858 0.00143200188761 -0.000372452067797)
(0.00137318012856 0.00176736719147 -0.000600554232204)
(0.0027723254901 0.0019882794954 -0.000249954382907)
(0.00236741776204 0.00155352483748 -0.000370772398724)
(0.00253191247854 0.00187209364102 -0.000491851593176)
(0.00342438281344 0.00211927451414 0.000149763302143)
(0.00327149681777 0.00166019844948 -7.20858801415e-06)
(0.00325167058389 0.00197642516373 4.16967610458e-05)
(0.00351305288319 0.00221805847046 0.000565038295251)
(0.00362787756353 0.00174532510859 0.000439745378594)
(0.00348865190167 0.00207131761328 0.0006787854202)
(0.00309962117864 0.00227100482372 0.000897784803438)
(0.00341693837373 0.00179393150182 0.000822511860168)
(0.00324462357131 0.00213809456598 0.00124595172277)
(0.00231706721976 0.00227763791852 0.00111614104925)
(0.00277001276517 0.00180241045595 0.00108990898472)
(0.00262253399331 0.00216782255016 0.00166345757697)
(0.0013138144641 0.00224475446967 0.0012202259638)
(0.00182552559371 0.00177711209898 0.00123690123134)
(0.00173789917636 0.00216240024344 0.00191365155934)
(0.000233848208547 0.00218971109722 0.00123393367325)
(0.000748512436248 0.00172513817171 0.00127150631254)
(0.000725097275471 0.00212548357705 0.00200269051952)
(-0.000822787378506 0.00213441264736 0.00118781589682)
(-0.000332951156359 0.00167089809784 0.00123824185612)
(-0.000304127759041 0.00207781801195 0.00197554886246)
(-0.00178783272882 0.0020913212981 0.00110007764986)
(-0.00134544086124 0.00162968492888 0.0011648688483)
(-0.00127662246503 0.00203303792507 0.00186635042579)
(-0.00260999628044 0.00206184871554 0.000974381967201)
(-0.00223891749609 0.0016085358695 0.0010635260269)
(-0.00213847936319 0.00199841714448 0.00169343854099)
(-0.00323407816884 0.00203777205627 0.000802374828171)
(-0.00296974829003 0.00160292060505 0.000926840016839)
(-0.00284312680729 0.0019709377952 0.00145342936702)
(-0.0035954459782 0.00200753052644 0.000577307641082)
(-0.00347743620109 0.00160170981799 0.000740634404042)
(-0.00333581022965 0.00194260662185 0.00113797025683)
(-0.00362733895822 0.00196100450084 0.000298767888519)
(-0.00369441810824 0.00159283376379 0.000498454978962)
(-0.00356110401794 0.00190577937003 0.000746832966727)
(-0.00327409557781 0.00189471726582 -1.03765963577e-05)
(-0.00355433045474 0.00156772764803 0.000198848313705)
(-0.00346891191339 0.00185592570582 0.000292690550396)
(-0.00252618630852 0.00180996826805 -0.000287701151737)
(-0.00300760899508 0.00152462657259 -0.000114031288756)
(-0.0030266954613 0.00179555684898 -0.000171072643478)
(-0.00148098371694 0.00170626314915 -0.000388750499917)
(-0.00209914452897 0.00146077583848 -0.000357194171964)
(-0.00226020204861 0.00172794539342 -0.000528645349088)
(-0.000451580712247 0.00155462615752 -0.000121503251261)
(-0.000885837715447 0.00137425124964 -0.000326402847359)
(-0.00120750015518 0.00165099437421 -0.000563033352979)
(-9.17266004924e-05 0.00121857017538 0.000145286130979)
(-0.00034927701402 0.0015180962227 -4.00764429465e-05)
(0.000547621925542 0.00102013160927 -5.21427266681e-05)
(0.000114137780104 0.000589116895652 0.00023171068217)
(0.000419053936006 0.00098549471818 0.000116173897056)
(0.0017443800394 0.00113761673366 -0.000320433598053)
(0.00104792823511 0.000690934229775 -0.000302268303221)
(0.00142967495693 0.0010834365502 -0.000455690402237)
(0.00286738069651 0.00121843391025 -0.000128026603832)
(0.00243256911557 0.000748031930007 -0.000282402752751)
(0.00261013229474 0.00114089781513 -0.000317507687548)
(0.00350450311693 0.00127893874638 0.000282773488437)
(0.00333057013587 0.000786808959862 9.03556067451e-05)
(0.00333119515786 0.00118860425491 0.000236267145359)
(0.00356053271727 0.00131348303234 0.000697218943511)
(0.00366421760892 0.000806660051523 0.000539602886847)
(0.00354956138704 0.00122482849742 0.000882635552121)
(0.00310812763989 0.00131760344467 0.00101463604145)
(0.00342435182969 0.000804997039835 0.000911429292165)
(0.00327600816542 0.00124200953498 0.00144133965829)
(0.00229115045689 0.00129396627242 0.0012106691668)
(0.00274881846071 0.000782997240122 0.00116107892733)
(0.00262247784466 0.00123692886857 0.00183639054391)
(0.00126510213999 0.00124903933532 0.00128818158008)
(0.00178259597894 0.000746457506349 0.00128783292605)
(0.00171075397775 0.00121301470041 0.00205670308155)
(0.000182533465392 0.00119751424208 0.00127581449541)
(0.0006991069853 0.000701042466477 0.00129650976547)
(0.00068433587758 0.00117317485921 0.00210666457797)
(-0.000860560923332 0.00115733353914 0.0012152948076)
(-0.00037071988991 0.000663748761893 0.00124488002934)
(-0.000340931215662 0.0011350832225 0.00205024394636)
(-0.00180576116681 0.00113833739039 0.00112831722534)
(-0.00136192778366 0.000644877351254 0.00116543107915)
(-0.00129972126981 0.00110959115192 0.00193000806139)
(-0.00261278619454 0.0011414502236 0.00101598407654)
(-0.0022336832073 0.000649354112312 0.00107126767465)
(-0.0021468837944 0.00110243034668 0.00176620703558)
(-0.00323285900022 0.00115890019163 0.00086509959271)
(-0.00295115124718 0.000674278195697 0.000950446628743)
(-0.00284432272956 0.00111077891291 0.00154871546452)
(-0.00360228034642 0.00117899398417 0.000661781741922)
(-0.00345713887282 0.000710872514342 0.000784605511194)
(-0.00333997832983 0.00112628502012 0.00126025888452)
(-0.00365008995795 0.00119145881575 0.000398535404148)
(-0.00368214324407 0.000748423985968 0.000560612785548)
(-0.00357566716407 0.00114019197305 0.000892219596029)
(-0.00331359531711 0.00118921752144 9.51936213066e-05)
(-0.00355681800477 0.000779375450769 0.000273249026465)
(-0.00349712394328 0.00114657501902 0.000451857725573)
(-0.00257920135868 0.00116723447054 -0.000183524308983)
(-0.00302557152493 0.000794930669879 -3.5491181231e-05)
(-0.00306484611492 0.00114169195907 -4.69792676186e-06)
(-0.00153503162694 0.00112128156183 -0.000294846519406)
(-0.00212823014069 0.000790270086384 -0.000279025488322)
(-0.00229980851787 0.00112382505849 -0.000373663884638)
(-0.000492881002994 0.00103077006591 -5.9613465119e-05)
(-0.000919460256925 0.000759947304099 -0.000260908744859)