/*--------------------------------*- C++ -*----------------------------------*\
| =========                 |                                                 |
| \\      /  F ield         | OpenFOAM: The Open Source CFD Toolbox           |
|  \\    /   O peration     | Version:  3.0.1                                 |
|   \\  /    A nd           | Web:      www.OpenFOAM.org                      |
|    \\/     M anipulation  |                                                 |
\*---------------------------------------------------------------------------*/
FoamFile
{
    version     2.0;
    format      ascii;
    class       volScalarField;
    location    "0.1";
    object      rAU;
}
// * * * * * * * * * * * * * * * * * * * * * * * * * * * * * * * * * * * * * //

dimensions      [-1 3 1 0 0 0 0];

internalField   nonuniform List<scalar> 
7968
(
6.60998761266e-06
6.59130389467e-06
6.5912688587e-06
6.59138178774e-06
6.59151651764e-06
6.59092768355e-06
6.5905869995e-06
6.5910029245e-06
6.59113520711e-06
6.59118773211e-06
6.59118918834e-06
6.59113633421e-06
6.59099069725e-06
6.59058363274e-06
6.59093969301e-06
6.59151123227e-06
6.59136513304e-06
6.59126870277e-06
6.59130031463e-06
6.60997750607e-06
6.59131749365e-06
6.54912190108e-06
6.54305863457e-06
6.54244892325e-06
6.54240194715e-06
6.54223203082e-06
6.54209336427e-06
6.54214546775e-06
6.54222836117e-06
6.542276177e-06
6.54227734243e-06
6.54222904702e-06
6.54214019261e-06
6.54209619151e-06
6.54225441192e-06
6.54241644406e-06
6.54244604872e-06
6.5430567732e-06
6.54911072646e-06
6.59131074253e-06
6.59129773161e-06
6.54308319402e-06
6.53345261246e-06
6.53223293741e-06
6.53211220337e-06
6.5320243047e-06
6.53196063065e-06
6.53199137481e-06
6.53206770638e-06
6.53212462135e-06
6.53212502709e-06
6.5320670153e-06
6.53198764214e-06
6.53196293355e-06
6.53203883419e-06
6.53212499671e-06
6.532235077e-06
6.533452229e-06
6.5430814895e-06
6.59130074293e-06
6.59141424628e-06
6.54248596518e-06
6.53224284599e-06
6.53091380918e-06
6.53078773673e-06
6.53072778054e-06
6.53069881423e-06
6.53075516747e-06
6.53085831742e-06
6.53093715809e-06
6.53093786695e-06
6.53085876008e-06
6.53075360808e-06
6.5307031422e-06
6.53074232351e-06
6.53080152271e-06
6.53091872783e-06
6.5322444703e-06
6.54248637824e-06
6.59141368278e-06
6.59157248517e-06
6.54245396429e-06
6.53212463508e-06
6.53078655818e-06
6.53065991046e-06
6.53059279974e-06
6.53056084906e-06
6.53069258048e-06
6.53095703439e-06
6.53116029856e-06
6.53116392201e-06
6.53096280623e-06
6.53069515751e-06
6.53056462139e-06
6.530606451e-06
6.53067338573e-06
6.53079189704e-06
6.53212706392e-06
6.5424547948e-06
6.59157553257e-06
6.59096462161e-06
6.54223319671e-06
6.5320013982e-06
6.5306933133e-06
6.53055299661e-06
6.53038978393e-06
6.53034689721e-06
6.53044122225e-06
6.53059180396e-06
6.53064481233e-06
6.53064203156e-06
6.53059020766e-06
6.53043775674e-06
6.53034761408e-06
6.53039798733e-06
6.53056102907e-06
6.53069455264e-06
6.53200081279e-06
6.54222922233e-06
6.59096196342e-06
6.5905892503e-06
6.54205997896e-06
6.53191251635e-06
6.53063697872e-06
6.53047700389e-06
6.53029941748e-06
6.53006108261e-06
6.5299606374e-06
6.52989902371e-06
6.52975030197e-06
6.52974041859e-06
6.52988293648e-06
6.52994252397e-06
6.53005065672e-06
6.53030455094e-06
6.53047852305e-06
6.53063277127e-06
6.53190893732e-06
6.54205181863e-06
6.59058026802e-06
6.59101307549e-06
6.54214507315e-06
6.53196548458e-06
6.53070775437e-06
6.53062084395e-06
6.53039566379e-06
6.52997599924e-06
6.52990221309e-06
6.529973867e-06
6.52997428972e-06
6.5299710435e-06
6.52996449356e-06
6.52988186549e-06
6.52996018941e-06
6.5304011679e-06
6.53062645954e-06
6.53070180792e-06
6.53196295815e-06
6.54213977093e-06
6.5910076681e-06
6.5911477804e-06
6.54224039776e-06
6.53206601254e-06
6.53083703363e-06
6.5309123015e-06
6.53056762376e-06
6.52994227489e-06
6.53000598963e-06
6.53033460891e-06
6.5305086765e-06
6.53051223943e-06
6.53033891682e-06
6.52999154925e-06
6.52992395762e-06
6.53057487823e-06
6.53092133793e-06
6.53083093431e-06
6.53206523037e-06
6.54223735753e-06
6.59114487046e-06
6.59119744411e-06
6.54228845462e-06
6.53213250793e-06
6.53092984982e-06
6.53113959834e-06
6.53062748613e-06
6.52978707189e-06
6.53000987628e-06
6.53051422671e-06
6.53075318911e-06
6.53075827799e-06
6.53052261047e-06
6.52999693817e-06
6.52976530344e-06
6.53063232145e-06
6.5311478211e-06
6.53092364279e-06
6.53213244571e-06
6.54228671535e-06
6.5911957435e-06
6.5911982438e-06
6.54228899511e-06
6.53213330799e-06
6.53093099689e-06
6.53114664869e-06
6.53062048346e-06
6.52976627638e-06
6.53000269461e-06
6.53051712947e-06
6.53075773447e-06
6.53076198752e-06
6.53052353961e-06
6.5299929415e-06
6.52976577749e-06
6.53063780526e-06
6.53115000825e-06
6.53092458302e-06
6.53213366776e-06
6.54228843626e-06
6.59119780526e-06
6.59115045608e-06
6.54224209343e-06
6.53206856908e-06
6.53084061753e-06
6.53092613339e-06
6.53056672988e-06
6.52991652029e-06
6.52999296928e-06
6.53034056268e-06
6.53051938663e-06
6.53052105805e-06
6.5303415649e-06
6.52998684931e-06
6.52992911926e-06
6.53058761284e-06
6.53092639113e-06
6.53083369653e-06
6.53206849574e-06
6.54224181723e-06
6.59115041065e-06
6.59102137845e-06
6.54214819851e-06
6.53196917337e-06
6.53071268209e-06
6.53063214225e-06
6.53039664189e-06
6.52995585746e-06
6.52988470909e-06
6.52997098306e-06
6.52998115651e-06
6.52998046849e-06
6.52996908583e-06
6.5298833376e-06
6.52996884653e-06
6.53041230275e-06
6.5306323029e-06
6.5307054257e-06
6.53196759645e-06
6.54214679962e-06
6.59102037577e-06
6.59060049668e-06
6.54205912157e-06
6.53191438339e-06
6.53064046359e-06
6.530479546e-06
6.5302941239e-06
6.53003816614e-06
6.52992892898e-06
6.52985855402e-06
6.52969620963e-06
6.52970203861e-06
6.52986855257e-06
6.52993806597e-06
6.53005235139e-06
6.53030846577e-06
6.53048036254e-06
6.53063489312e-06
6.53191175795e-06
6.54205579932e-06
6.59059962765e-06
6.59096060517e-06
6.54222347351e-06
6.53199934853e-06
6.53069413079e-06
6.5305520788e-06
6.53037815454e-06
6.53032593433e-06
6.53041342871e-06
6.53055429088e-06
6.53058973447e-06
6.5305964558e-06
6.53056522852e-06
6.53042232451e-06
6.53033856547e-06
6.53039231567e-06
6.53055742129e-06
6.53069221173e-06
6.53199839741e-06
6.54222320738e-06
6.59096409185e-06
6.59156272248e-06
6.54244572573e-06
6.53212292063e-06
6.53078707569e-06
6.53065988149e-06
6.53058573514e-06
6.53054614369e-06
6.53068310426e-06
6.53095371383e-06
6.53116102078e-06
6.53116125038e-06
6.53095373231e-06
6.53068447475e-06
6.53055310402e-06
6.53059712063e-06
6.53066591372e-06
6.53078595802e-06
6.53212303837e-06
6.54244803988e-06
6.5915667699e-06
6.59140941855e-06
6.54248357115e-06
6.5322423891e-06
6.53091389365e-06
6.53078748073e-06
6.53072307233e-06
6.53069000531e-06
6.53074706919e-06
6.5308538997e-06
6.53093418299e-06
6.5309338807e-06
6.53085274751e-06
6.53074540811e-06
6.53069314565e-06
6.53073049791e-06
6.53079042748e-06
6.53091202754e-06
6.53224283842e-06
6.5424856692e-06
6.59141162458e-06
6.59130159143e-06
6.54308528195e-06
6.53345565432e-06
6.53223643353e-06
6.53211623758e-06
6.53202447563e-06
6.5319575673e-06
6.53199011221e-06
6.53206907242e-06
6.53212694759e-06
6.53212680891e-06
6.53206765208e-06
6.53198714151e-06
6.53195880426e-06
6.53203022821e-06
6.53211830503e-06
6.53223481413e-06
6.53345756384e-06
6.5430872241e-06
6.5913006655e-06
6.59131639967e-06
6.54911814974e-06
6.54306465852e-06
6.54245649418e-06
6.54241122261e-06
6.54223650165e-06
6.5420926964e-06
6.54214694223e-06
6.54223210476e-06
6.54228071262e-06
6.54228252506e-06
6.54223510464e-06
6.54214851072e-06
6.54210119827e-06
6.54225289328e-06
6.54241914084e-06
6.54245711626e-06
6.54306930184e-06
6.54912265862e-06
6.59131727864e-06
6.60997941802e-06
6.59130311473e-06
6.59127728261e-06
6.59138445272e-06
6.59152456056e-06
6.59093036004e-06
6.59058203212e-06
6.59100081647e-06
6.59113588448e-06
6.59118930633e-06
6.59119184732e-06
6.5911406806e-06
6.59100124335e-06
6.59059409041e-06
6.59094524042e-06
6.59152149702e-06
6.59138002327e-06
6.59127832696e-06
6.5913077868e-06
6.60998596901e-06
6.59137407142e-06
6.54922000413e-06
6.54315243459e-06
6.54258172162e-06
6.54264497376e-06
6.54214015016e-06
6.54185007663e-06
6.54220437654e-06
6.54233929859e-06
6.54239559079e-06
6.54239701086e-06
6.54234028564e-06
6.54219166343e-06
6.54179001024e-06
6.54210608343e-06
6.542651603e-06
6.54257205254e-06
6.54315337595e-06
6.5492181131e-06
6.59136852429e-06
6.54922236196e-06
6.33720820761e-06
6.26655829359e-06
6.25571245558e-06
6.25475116104e-06
6.2546108766e-06
6.25454975959e-06
6.25462910771e-06
6.2547332383e-06
6.25479502422e-06
6.25479583129e-06
6.25473327849e-06
6.25462444532e-06
6.25455295275e-06
6.25463136151e-06
6.25476587416e-06
6.25571375476e-06
6.26655701918e-06
6.33720339086e-06
6.54922127663e-06
6.54317413551e-06
6.26657394711e-06
6.16115724063e-06
6.14267765046e-06
6.14076452998e-06
6.14058737957e-06
6.14055426807e-06
6.14059502762e-06
6.14067011435e-06
6.14072583559e-06
6.14072548132e-06
6.14066802381e-06
6.14059091518e-06
6.14055610052e-06
6.14059949681e-06
6.14077552867e-06
6.14268046963e-06
6.1611541877e-06
6.26657123449e-06
6.54317807639e-06
6.5426042725e-06
6.25573382174e-06
6.14268133769e-06
6.12245884941e-06
6.12031692541e-06
6.12012030563e-06
6.12008850734e-06
6.12012391159e-06
6.12019636161e-06
6.12025358637e-06
6.12025320641e-06
6.1201945664e-06
6.12012142493e-06
6.120091342e-06
6.12013138896e-06
6.12032755421e-06
6.12246233441e-06
6.14267833873e-06
6.25573071011e-06
6.54260424459e-06
6.5426780747e-06
6.25477563452e-06
6.14076448237e-06
6.12031025348e-06
6.11813190694e-06
6.11792736765e-06
6.11792727487e-06
6.11805025724e-06
6.11822863998e-06
6.11834684568e-06
6.11834745441e-06
6.11822880582e-06
6.11804912908e-06
6.11792934934e-06
6.11793735255e-06
6.11814205873e-06
6.1203144467e-06
6.14076207216e-06
6.25477149611e-06
6.54267790457e-06
6.54212381331e-06
6.2546075688e-06
6.14056910914e-06
6.12009592612e-06
6.11790744477e-06
6.11775808188e-06
6.11803909391e-06
6.1184281606e-06
6.11871187396e-06
6.11886520516e-06
6.11886625844e-06
6.11871265913e-06
6.11842780763e-06
6.11804220766e-06
6.1177666381e-06
6.1179163357e-06
6.12009924468e-06
6.14056711263e-06
6.25460349971e-06
6.54212432843e-06
6.54181458486e-06
6.25453023704e-06
6.14052642806e-06
6.12005178078e-06
6.11788897082e-06
6.11802330497e-06
6.11864623992e-06
6.11923977433e-06
6.11958894303e-06
6.11976183907e-06
6.11976147684e-06
6.11958559207e-06
6.11923364416e-06
6.11864661976e-06
6.1180336605e-06
6.11789535852e-06
6.1200535859e-06
6.14052401033e-06
6.25452590104e-06
6.54181354014e-06
6.54221310868e-06
6.25462950606e-06
6.14058082905e-06
6.12009323268e-06
6.11802226224e-06
6.11841741304e-06
6.11924244657e-06
6.11994645703e-06
6.120357135e-06
6.12057204975e-06
6.12057113946e-06
6.12035166006e-06
6.11993591111e-06
6.11923982812e-06
6.11843021181e-06
6.11803277922e-06
6.12009385539e-06
6.14057890594e-06
6.25462597499e-06
6.5422114962e-06
6.54235438725e-06
6.25474489075e-06
6.14067018454e-06
6.12017632622e-06
6.1182178129e-06
6.11871438141e-06
6.11960348405e-06
6.1203692669e-06
6.12085196926e-06
6.12112899255e-06
6.12112944546e-06
6.12084882938e-06
6.12036060959e-06
6.1196026779e-06
6.11873071729e-06
6.11823215515e-06
6.12017766219e-06
6.14066890775e-06
6.25474301006e-06
6.54235496384e-06
6.54241220792e-06
6.25480923336e-06
6.14073129568e-06
6.1202391862e-06
6.11834754803e-06
6.1188771293e-06
6.11978460878e-06
6.12059266638e-06
6.12113769665e-06
6.12146821672e-06
6.12146943734e-06
6.12113652145e-06
6.12058639877e-06
6.11978647659e-06
6.11889545056e-06
6.11836336717e-06
6.12024063321e-06
6.14073042492e-06
6.25480862632e-06
6.54241403232e-06
6.54241370966e-06
6.25481007013e-06
6.14073140236e-06
6.12023929992e-06
6.11834968116e-06
6.11888019361e-06
6.11978509787e-06
6.12059225649e-06
6.12113923665e-06
6.12147035365e-06
6.12147093274e-06
6.12113724119e-06
6.12058738478e-06
6.11978874944e-06
6.11889697476e-06
6.1183636653e-06
6.12024081064e-06
6.14073067022e-06
6.25481046589e-06
6.54241627528e-06
6.54235896683e-06
6.25474722669e-06
6.14067108977e-06
6.12017763855e-06
6.11822346735e-06
6.11872093058e-06
6.11960341572e-06
6.12036651999e-06
6.12085220349e-06
6.12113121738e-06
6.1211309252e-06
6.12084911472e-06
6.12036306685e-06
6.11960807947e-06
6.118734217e-06
6.11823334844e-06
6.12017810397e-06
6.14066998176e-06
6.25474773941e-06
6.54236122816e-06
6.54222329597e-06
6.25463316133e-06
6.14058328173e-06
6.12009658395e-06
6.11802849004e-06
6.11842416918e-06
6.11924014865e-06
6.11993877015e-06
6.12035172557e-06
6.1205690822e-06
6.1205694321e-06
6.1203514226e-06
6.11994019317e-06
6.11924741495e-06
6.11843504377e-06
6.1180345321e-06
6.12009506997e-06
6.14058097293e-06
6.25463278101e-06
6.54222419689e-06
6.54184898206e-06
6.25453291527e-06
6.14052991142e-06
6.12005669947e-06
6.11789267829e-06
6.11802672288e-06
6.11864381742e-06
6.11923293542e-06
6.11958298593e-06
6.11975773892e-06
6.1197589505e-06
6.11958532585e-06
6.11923728302e-06
6.11865210836e-06
6.11803663362e-06
6.11789586041e-06
6.12005502559e-06
6.14052642767e-06
6.2545314975e-06
6.54184665766e-06
6.54214103467e-06
6.25460547739e-06
6.14057119243e-06
6.12009995818e-06
6.11791026734e-06
6.11775650026e-06
6.11803721365e-06
6.1184265365e-06
6.11871135873e-06
6.11886533339e-06
6.1188656903e-06
6.11871148177e-06
6.11842732727e-06
6.11804187586e-06
6.11776404903e-06
6.11791378843e-06
6.12009862294e-06
6.14056812179e-06
6.25460498457e-06
6.54214109422e-06
6.54266732367e-06
6.25477192744e-06
6.14076421245e-06
6.12031131027e-06
6.11813224803e-06
6.11792496632e-06
6.11792088163e-06
6.11804640396e-06
6.11822765364e-06
6.11834666489e-06
6.11834637918e-06
6.1182259261e-06
6.11804448546e-06
6.11792215986e-06
6.11792969285e-06
6.11813483635e-06
6.12031022601e-06
6.1407616951e-06
6.2547728522e-06
6.54266986834e-06
6.54260348247e-06
6.2557326998e-06
6.14267913166e-06
6.12245607016e-06
6.12031363521e-06
6.1201152723e-06
6.12008194993e-06
6.12011689362e-06
6.12019012971e-06
6.12024801156e-06
6.12024724085e-06
6.12018775022e-06
6.12011344425e-06
6.12008107581e-06
6.12011849054e-06
6.12031581346e-06
6.12245574513e-06
6.14267918762e-06
6.25573532134e-06
6.5426061866e-06
6.54317831273e-06
6.26657499663e-06
6.1611550969e-06
6.1426741313e-06
6.14076036322e-06
6.14058227593e-06
6.14054808101e-06
6.14058945081e-06
6.14066547312e-06
6.14072123517e-06
6.14072044226e-06
6.14066268809e-06
6.14058474418e-06
6.14054606982e-06
6.14058540353e-06
6.14076409575e-06
6.14267769799e-06
6.16115930436e-06
6.26657924147e-06
6.54317841193e-06
6.54922487114e-06
6.33720960859e-06
6.26656188361e-06
6.25571560777e-06
6.25475339547e-06
6.2546109193e-06
6.2545477509e-06
6.25462746335e-06
6.25473251098e-06
6.25479458003e-06
6.25479586944e-06
6.25473434764e-06
6.25462775269e-06
6.25455218554e-06
6.25462409966e-06
6.25476507622e-06
6.25572313089e-06
6.26657006092e-06
6.33721789615e-06
6.54922900706e-06
6.59137121149e-06
6.54922316369e-06
6.54316070606e-06
6.54258490537e-06
6.54265145907e-06
6.54213401177e-06
6.54183656053e-06
6.54220061625e-06
6.54233758948e-06
6.5423945222e-06
6.5423964729e-06
6.5423411872e-06
6.54219927693e-06
6.54181294915e-06
6.54212257191e-06
6.54265818687e-06
6.5425859746e-06
6.54316249211e-06
6.54922687845e-06
6.59138067477e-06
6.59134002368e-06
6.54320600758e-06
6.53361262434e-06
6.53247752408e-06
6.53248837567e-06
6.53205016734e-06
6.5317764257e-06
6.53207568672e-06
6.53221642352e-06
6.53227671835e-06
6.53227804225e-06
6.53221695297e-06
6.53206151284e-06
6.53174021212e-06
6.53204181584e-06
6.53249536508e-06
6.53246765139e-06
6.53361439538e-06
6.54320720977e-06
6.59133615146e-06
6.5432098067e-06
6.26676090317e-06
6.16148239845e-06
6.14310360628e-06
6.14126687777e-06
6.1411219464e-06
6.14111308782e-06
6.14120734263e-06
6.1413242388e-06
6.14139694381e-06
6.14139759405e-06
6.14132385823e-06
6.14120317527e-06
6.14111628988e-06
6.1411389755e-06
6.14127881047e-06
6.14310438142e-06
6.16148056012e-06
6.26675898551e-06
6.54321100767e-06
6.53363160454e-06
6.16149533548e-06
5.99152759206e-06
5.95646319415e-06
5.95222691644e-06
5.95185568542e-06
5.95182698114e-06
5.95186584879e-06
5.95193367859e-06
5.95198682584e-06
5.95198617186e-06
5.95193104432e-06
5.9518620358e-06
5.95182807875e-06
5.95186447958e-06
5.95223436532e-06
5.95646179576e-06
5.99151989134e-06
6.16149266375e-06
6.53363488635e-06
6.53249956357e-06
6.14312089202e-06
5.95646297549e-06
5.91686129342e-06
5.91191201146e-06
5.91146607691e-06
5.9115148927e-06
5.91164019517e-06
5.91171696532e-06
5.91175500962e-06
5.91175437673e-06
5.91171471173e-06
5.91163709908e-06
5.91151606393e-06
5.91147314617e-06
5.91191776281e-06
5.91685916076e-06
5.95645309702e-06
6.14311607213e-06
6.53249883649e-06
6.5325192778e-06
6.14128519082e-06
5.95222146371e-06
5.91190329572e-06
5.90690050621e-06
5.90674501689e-06
5.90749418306e-06
5.90836395455e-06
5.90872161819e-06
5.90876477656e-06
5.90876413094e-06
5.90871925749e-06
5.90836086857e-06
5.90749503765e-06
5.906751496e-06
5.90690639752e-06
5.91190116882e-06
5.95221236418e-06
6.14127900539e-06
6.5325168932e-06
6.53204887226e-06
6.14112286393e-06
5.95183979204e-06
5.91144674123e-06
5.90673333049e-06
5.90793059192e-06
5.91114155088e-06
5.9140862815e-06
5.91514972825e-06
5.91523538422e-06
5.91523482147e-06
5.91514792763e-06
5.91408440573e-06
5.9111415444e-06
5.90793573029e-06
5.90673828364e-06
5.91144521965e-06
5.95183179751e-06
6.14111792961e-06
6.53204962962e-06
6.53176064666e-06
6.14110499498e-06
5.95180868516e-06
5.91149113208e-06
5.90747376203e-06
5.91113381354e-06
5.91804275958e-06
5.92344672327e-06
5.92525329251e-06
5.92538686325e-06
5.92538501032e-06
5.92524791751e-06
5.92343988339e-06
5.91804253742e-06
5.91113745643e-06
5.90747668504e-06
5.91148860953e-06
5.9518015469e-06
6.1411007754e-06
6.53176167169e-06
6.53209163653e-06
6.14121430554e-06
5.95185976719e-06
5.9116222882e-06
5.90834459866e-06
5.9140764445e-06
5.92343760091e-06
5.93021934795e-06
5.93246689227e-06
5.93262332177e-06
5.93261997566e-06
5.93245691642e-06
5.93020739378e-06
5.92343150002e-06
5.91408085784e-06
5.90834663961e-06
5.91161903412e-06
5.9518530213e-06
6.14121115607e-06
6.53209015615e-06
6.53224173985e-06
6.14134307901e-06
5.95194036369e-06
5.91170749924e-06
5.90871450615e-06
5.91514551092e-06
5.92524031326e-06
5.93246198475e-06
5.9348546021e-06
5.93501464451e-06
5.93501089982e-06
5.93484376275e-06
5.93244840653e-06
5.92523521187e-06
5.91514916821e-06
5.90871773455e-06
5.91170538821e-06
5.95193472234e-06
6.14134151988e-06
6.53224255617e-06
6.53230570506e-06
6.14141972331e-06
5.95199892721e-06
5.91175089071e-06
5.90876812988e-06
5.91523884509e-06
5.92537988347e-06
5.93262387544e-06
5.93502033816e-06
5.93521045465e-06
5.93520673281e-06
5.93501019496e-06
5.93261222269e-06
5.92537569837e-06
5.91524411848e-06
5.90877212902e-06
5.91174887684e-06
5.95199399817e-06
6.14141951432e-06
6.5323079075e-06
6.53230757062e-06
6.14142054852e-06
5.95199899581e-06
5.91175117201e-06
5.9087695007e-06
5.91524004427e-06
5.9253771859e-06
5.93261961272e-06
5.93501691282e-06
5.93520737361e-06
5.93520352649e-06
5.93500683733e-06
5.93261027871e-06
5.9253751285e-06
5.91524352517e-06
5.90877152893e-06
5.91174891658e-06
5.95199407105e-06
6.14142136021e-06
6.53231014079e-06
6.53224739172e-06
6.14134539201e-06
5.95194138636e-06
5.91170975187e-06
5.90871786045e-06
5.91514549753e-06
5.92523260113e-06
5.93244804951e-06
5.93484154604e-06
5.9350031822e-06
5.93499961016e-06
5.93483347019e-06
5.93244182905e-06
5.92523225287e-06
5.91514747735e-06
5.90871706701e-06
5.91170561154e-06
5.95193579256e-06
6.14134599115e-06
6.53224916718e-06
6.53210320566e-06
6.14121804411e-06
5.95186314267e-06
5.91162697705e-06
5.90834920115e-06
5.91407782215e-06
5.92342629138e-06
5.93019951344e-06
5.93244777895e-06
5.93260750255e-06
5.93260582028e-06
5.93244553434e-06
5.93020199554e-06
5.92343135884e-06
5.91408120509e-06
5.90834624216e-06
5.91162058928e-06
5.95185550133e-06
6.14121745477e-06
6.53210300533e-06
6.53178890303e-06
6.14110867736e-06
5.95181395326e-06
5.91149794431e-06
5.90747833811e-06
5.91113647711e-06
5.91803950028e-06
5.92343525603e-06
5.9252413741e-06
5.92537671474e-06
5.925375837e-06
5.92524082842e-06
5.92343801539e-06
5.91804433469e-06
5.91113723795e-06
5.90747608012e-06
5.91149021107e-06
5.95180487047e-06
6.14110675235e-06
6.53178705007e-06
6.53205995258e-06
6.14112268112e-06
5.95184375756e-06
5.91145259766e-06
5.90673753004e-06
5.90793194802e-06
5.91114226168e-06
5.91408563049e-06
5.91514797738e-06
5.91523318158e-06
5.91523191307e-06
5.91514500027e-06
5.91408288742e-06
5.91113965988e-06
5.90793146964e-06
5.90673481625e-06
5.91144474533e-06
5.95183403049e-06
6.14112133128e-06
6.53205960247e-06
6.53250784001e-06
6.14128131515e-06
5.9522207262e-06
5.91190310344e-06
5.90690014839e-06
5.90674260083e-06
5.90748863899e-06
5.90835674611e-06
5.90871478e-06
5.90875834702e-06
5.90875735459e-06
5.90871179594e-06
5.90835241757e-06
5.90748573003e-06
5.90674102495e-06
5.90689702107e-06
5.9118954153e-06
5.95221217287e-06
6.14128128422e-06
6.5325083704e-06
6.53249671854e-06
6.1431168326e-06
5.95645586697e-06
5.91685273235e-06
5.91190205621e-06
5.9114559239e-06
5.91150349014e-06
5.91162778878e-06
5.91170514983e-06
5.9117433999e-06
5.91174238548e-06
5.91170203076e-06
5.91162284089e-06
5.91149901317e-06
5.91145485701e-06
5.91190020305e-06
5.91684800957e-06
5.9564522207e-06
6.14312019668e-06
6.53249811923e-06
6.53363483464e-06
6.16149318624e-06
5.99151850194e-06
5.95645064755e-06
5.95221317991e-06
5.95184106081e-06
5.95181209043e-06
5.95185110195e-06
5.95191894086e-06
5.95197195398e-06
5.95197103857e-06
5.9519157714e-06
5.9518458688e-06
5.95180893925e-06
5.95184172685e-06
5.95221541584e-06
5.95645367817e-06
5.99152325178e-06
6.16150059114e-06
6.53363369984e-06
6.54321299218e-06
6.26676190744e-06
6.16148263976e-06
6.14310182332e-06
6.14126220129e-06
6.14111510158e-06
6.14110416678e-06
6.14119764576e-06
6.14131478497e-06
6.14138764085e-06
6.14138896421e-06
6.14131670893e-06
6.14119832908e-06
6.14110756167e-06
6.14112609878e-06
6.14127428648e-06
6.14311144897e-06
6.16149314363e-06
6.26677342632e-06
6.54321518656e-06
6.59133725222e-06
6.54320950888e-06
6.53361747235e-06
6.53247731712e-06
6.53248954825e-06
6.53203468954e-06
6.53175179309e-06
6.53206161405e-06
6.53220454812e-06
6.53226558449e-06
6.53226744062e-06
6.53220820502e-06
6.53206057188e-06
6.53173933755e-06
6.5320356768e-06
6.53249791218e-06
6.53247796501e-06
6.53361921026e-06
6.54321121967e-06
6.59134138768e-06
6.59132855654e-06
6.54253583054e-06
6.53237333006e-06
6.53113269129e-06
6.53114474048e-06
6.53075878076e-06
6.53048402604e-06
6.53074372364e-06
6.53089702855e-06
6.5309644329e-06
6.53096526596e-06
6.53089580163e-06
6.53072633636e-06
6.53047691308e-06
6.5307754685e-06
6.53114467981e-06
6.53112281589e-06
6.53237555505e-06
6.54253995258e-06
6.59132635216e-06
6.54253983881e-06
6.25588410715e-06
6.14306939293e-06
6.12300025236e-06
6.12097520503e-06
6.12085865126e-06
6.12088385492e-06
6.12098450475e-06
6.12111019836e-06
6.12119307164e-06
6.12119325112e-06
6.12110862142e-06
6.12098000357e-06
6.12088621774e-06
6.12087158625e-06
6.12098395263e-06
6.1230008529e-06
6.14306811883e-06
6.25588519902e-06
6.54254468126e-06
6.53238886303e-06
6.14308004933e-06
5.95655654039e-06
5.91703751119e-06
5.91214579013e-06
5.91176738265e-06
5.91189255831e-06
5.91207862862e-06
5.91218984982e-06
5.9122444171e-06
5.91224342296e-06
5.91218641609e-06
5.91207401107e-06
5.91189273172e-06
5.91177380248e-06
5.91215004411e-06
5.91703378768e-06
5.95654688563e-06
6.14307824048e-06
6.5323952652e-06
6.53115935004e-06
6.12301875779e-06
5.91703707625e-06
5.8720586225e-06
5.86647245465e-06
5.86694582556e-06
5.86912078204e-06
5.87114669648e-06
5.87180821933e-06
5.8718410887e-06
5.87183907343e-06
5.87180302343e-06
5.87114117271e-06
5.86911967591e-06
5.86695034165e-06
5.86647626094e-06
5.87205382934e-06
5.9170246998e-06
6.12301365036e-06
6.53116134002e-06
6.5311900074e-06
6.12099750916e-06
5.91214077408e-06
5.8664649138e-06
5.86251247879e-06
5.86795813322e-06
5.87631596478e-06
5.88191526724e-06
5.88338001606e-06
5.88334236137e-06
5.8833399309e-06
5.88337259474e-06
5.88190522297e-06
5.87631305994e-06
5.86796411819e-06
5.86251643902e-06
5.86646118233e-06
5.91212983368e-06
6.12099191396e-06
6.53119145103e-06
6.5307559923e-06
6.1208697721e-06
5.91175691877e-06
5.86693446181e-06
5.86795620642e-06
5.8816852689e-06
5.89543254366e-06
5.90302658786e-06
5.90509075135e-06
5.90505636627e-06
5.90505172937e-06
5.9050713841e-06
5.90299469585e-06
5.89541013491e-06
5.88168377421e-06
5.8679628897e-06
5.86693230438e-06
5.9117477983e-06
6.1208654248e-06
6.530755585e-06
6.53046085292e-06
6.12088984376e-06
5.91188617101e-06
5.86911678269e-06
5.87630754618e-06
5.89544131545e-06
5.91125101387e-06
5.92005306218e-06
5.92272551383e-06
5.92268020471e-06
5.92267121414e-06
5.92270053185e-06
5.92001104269e-06
5.91120595008e-06
5.89542315154e-06
5.87630784942e-06
5.86911324357e-06
5.91187851015e-06
6.12088602735e-06
6.53045915807e-06
6.53077216741e-06
6.12100611227e-06
5.91208816391e-06
5.87115710353e-06
5.88192423122e-06
5.90305442252e-06
5.92005546317e-06
5.93029260799e-06
5.93381924934e-06
5.93367439406e-06
5.93366032913e-06
5.93378146415e-06
5.9302512276e-06
5.92001518846e-06
5.90302631102e-06
5.88192701064e-06
5.87115453941e-06
5.9120812033e-06
6.12100324621e-06
6.53077251412e-06
6.53093891032e-06
6.12114634607e-06
5.91221590781e-06
5.8718313622e-06
5.88341162047e-06
5.90509505277e-06
5.92270016485e-06
5.93378864797e-06
5.93684974548e-06
5.93630272904e-06
5.93629528101e-06
5.93685314866e-06
5.93373533607e-06
5.92266485672e-06
5.90507912461e-06
5.88340870459e-06
5.87182839039e-06
5.91221117435e-06
6.12114510597e-06
6.53094148435e-06
6.53101094313e-06
6.12123488649e-06
5.91227963128e-06
5.87187476604e-06
5.88337676125e-06
5.90506037188e-06
5.92265257176e-06
5.93364352045e-06
5.9362939939e-06
5.93557576814e-06
5.93557153234e-06
5.93627982476e-06
5.93360194235e-06
5.92262848433e-06
5.90505245531e-06
5.88337787268e-06
5.87187130173e-06
5.91227503474e-06
6.1212351312e-06
6.5310142964e-06
6.53101284462e-06
6.1212357714e-06
5.91228036299e-06
5.87187559743e-06
5.88338090199e-06
5.90505962637e-06
5.92264326357e-06
5.933630509e-06
5.93628393345e-06
5.9355687862e-06
5.93556893397e-06
5.93627942773e-06
5.93360258962e-06
5.92262774155e-06
5.90505080511e-06
5.88338045494e-06
5.87186955329e-06
5.9122756252e-06
6.12123637064e-06
6.53101602042e-06
6.53094470608e-06
6.12114877582e-06
5.91221917501e-06
5.87183588276e-06
5.88341218722e-06
5.90509142151e-06
5.92267663789e-06
5.93374259493e-06
5.93684423962e-06
5.93628064013e-06
5.93628369956e-06
5.93684339609e-06
5.9337285749e-06
5.9226647725e-06
5.90507791661e-06
5.88339764314e-06
5.87182798291e-06
5.91221246346e-06
6.12114849791e-06
6.530946274e-06
6.53078394858e-06
6.12100998287e-06
5.91209423237e-06
5.87116457652e-06
5.8819281323e-06
5.90304970664e-06
5.92002580132e-06
5.93024793376e-06
5.93376231751e-06
5.93362839515e-06
5.93362904759e-06
5.93375727332e-06
5.93024705313e-06
5.92001486451e-06
5.90301993727e-06
5.88191953663e-06
5.8711541393e-06
5.91208475763e-06
6.12100763134e-06
6.53078238672e-06
6.53048144983e-06
6.1208935205e-06
5.91189400962e-06
5.86912520503e-06
5.87630216467e-06
5.89543756793e-06
5.91123032861e-06
5.92001652497e-06
5.92268718616e-06
5.92264986318e-06
5.92264581761e-06
5.92267967766e-06
5.91999960301e-06
5.91119632734e-06
5.89541834617e-06
5.8762920591e-06
5.86911558963e-06
5.91188332663e-06
6.12089051121e-06
6.53047612589e-06
6.53076181448e-06
6.12087006544e-06
5.91176304034e-06
5.86694094973e-06
5.86795558317e-06
5.88165816251e-06
5.89541129639e-06
5.90299946179e-06
5.9050580442e-06
5.90502878677e-06
5.90502222688e-06
5.90503680292e-06
5.90296568429e-06
5.89538651207e-06
5.8816528367e-06
5.86795673968e-06
5.86693371945e-06
5.91175188249e-06
6.12086867461e-06
6.5307610302e-06
6.53118097903e-06
6.12099414888e-06
5.91214034e-06
5.86646517374e-06
5.86251053627e-06
5.86794762197e-06
5.87628418304e-06
5.88187375912e-06
5.88333715455e-06
5.88330176344e-06
5.88329772411e-06
5.88332889337e-06
5.88186773148e-06
5.87628376331e-06
5.86795432415e-06
5.86251040411e-06
5.86645709492e-06
5.91213120814e-06
6.12099388924e-06
6.53118410501e-06
6.53115685264e-06
6.12301420208e-06
5.91702849128e-06
5.8720480864e-06
5.86646130357e-06
5.86693393963e-06
5.8691040504e-06
5.87112541266e-06
5.87178406869e-06
5.87181561511e-06
5.87181519397e-06
5.87178223013e-06
5.87112273455e-06
5.86910555414e-06
5.86693522172e-06
5.86646045363e-06
5.87204439363e-06
5.91702391874e-06
6.12301820221e-06
6.5311595966e-06
6.53239194068e-06
6.14307707936e-06
5.95654435281e-06
5.91702168929e-06
5.91212830697e-06
5.91174966449e-06
5.91187548238e-06
5.91206074769e-06
5.91217199332e-06
5.91222667417e-06
5.91222609321e-06
5.91217017284e-06
5.91205838773e-06
5.91187412296e-06
5.91175244166e-06
5.9121324352e-06
5.91702486246e-06
5.95654998334e-06
6.14308551189e-06
6.53239222137e-06
6.54254330593e-06
6.25588549713e-06
6.14306796881e-06
6.12299583383e-06
6.12096767004e-06
6.12084941654e-06
6.12087249567e-06
6.12097215899e-06
6.12109819765e-06
6.12118168947e-06
6.12118323976e-06
6.12110089495e-06
6.12097440292e-06
6.12087763687e-06
6.12085958845e-06
6.12097939264e-06
6.1230079791e-06
6.14307935995e-06
6.25589716383e-06
6.54254590614e-06
6.59132503232e-06
6.54254010145e-06
6.53237833113e-06
6.53113257587e-06
6.53114342335e-06
6.53074592262e-06
6.53046338525e-06
6.53072890656e-06
6.53088541069e-06
6.53095463468e-06
6.530956895e-06
6.53089000317e-06
6.53073047336e-06
6.53046790625e-06
6.53076071712e-06
6.53115182848e-06
6.5311349459e-06
6.53237941171e-06
6.54254144357e-06
6.59133056235e-06
6.5912682927e-06
6.54243326513e-06
6.53221810636e-06
6.53095401137e-06
6.53096230154e-06
6.53071466055e-06
6.5304604967e-06
6.53061205755e-06
6.53078095132e-06
6.53086124732e-06
6.53086184153e-06
6.53077928206e-06
6.53059701582e-06
6.53048993855e-06
6.53075993243e-06
6.53095819506e-06
6.53094749532e-06
6.53222305999e-06
6.54243916872e-06
6.59127074313e-06
6.54243517011e-06
6.2548317511e-06
6.14111206154e-06
6.12083412731e-06
6.11880612456e-06
6.11874630526e-06
6.11886643152e-06
6.11905383211e-06
6.11922508152e-06
6.11932625425e-06