/*--------------------------------*- C++ -*----------------------------------*\
| =========                 |                                                 |
| \\      /  F ield         | OpenFOAM: The Open Source CFD Toolbox           |
|  \\    /   O peration     | Version:  3.0.1                                 |
|   \\  /    A nd           | Web:      www.OpenFOAM.org                      |
|    \\/     M anipulation  |                                                 |
\*---------------------------------------------------------------------------*/
FoamFile
{
    version     2.0;
    format      ascii;
    class       volVectorField;
    location    "0.1";
    object      U;
}
// * * * * * * * * * * * * * * * * * * * * * * * * * * * * * * * * * * * * * //

dimensions      [0 1 -1 0 0 0 0];

internalField   nonuniform List<vector> 
7968
(
(0.000135161417567 0.000133691322602 -0.000293256323391)
(0.000432950988555 0.000134436622128 -0.000328544402546)
(0.000745630118873 0.000149347888155 -0.000330154577773)
(0.000996170570795 0.000182471925592 -0.000319554486658)
(0.00115276674456 0.000224315215369 -0.000308041249269)
(0.00119271407229 0.000271166082588 -0.000294426893016)
(0.0011059338772 0.000319150934966 -0.000279615511288)
(0.000897357912637 0.000362240998594 -0.000265495633249)
(0.000586700311978 0.000394716503048 -0.000254375425083)
(0.000207765687709 0.000412192174475 -0.000248305706898)
(-0.000194929150794 0.000412482057318 -0.000248260525216)
(-0.000573757509921 0.000395217587793 -0.000254641560791)
(-0.000885061394963 0.000362954539724 -0.000266008451241)
(-0.00109432102543 0.000320005560759 -0.000280351260779)
(-0.00118177192791 0.000272065102054 -0.000295373342678)
(-0.00114288467732 0.000225225932034 -0.000309132425111)
(-0.000988396723316 0.000183847311096 -0.000320242862807)
(-0.000740452670483 0.000152164238161 -0.000329252353114)
(-0.00043473074866 0.000133985080091 -0.00033137828933)
(-0.000126343167044 0.000128671569828 -0.000301491768885)
(0.00013527280993 0.000428872853957 -0.000328833725554)
(0.000453614602025 0.000451324087075 -0.00040160566692)
(0.000791056853798 0.000508813861444 -0.000410450397937)
(0.0010632757217 0.000606278362115 -0.000398323812621)
(0.00123359117011 0.000734691912145 -0.000383624947193)
(0.00128012037899 0.000880108278444 -0.000366294304915)
(0.00119011664723 0.0010277922101 -0.000347073756848)
(0.000966970749567 0.0011598895014 -0.000328616567488)
(0.000632038315165 0.00125930436086 -0.000314032673639)
(0.000222487638717 0.00131280236479 -0.000306022962667)
(-0.000213238484741 0.00131344204793 -0.000305945064714)
(-0.000622904837337 0.00126079721865 -0.000314167724568)
(-0.000958340915614 0.00116217650272 -0.000328926306089)
(-0.001182111464 0.00103070606928 -0.000347566984463)
(-0.00127279974512 0.000883451156208 -0.000366985170834)
(-0.00122725091102 0.000738343043818 -0.000384477940376)
(-0.00105823879422 0.00061041600729 -0.000399063670759)
(-0.000787298080446 0.000513404905164 -0.000409935483368)
(-0.000450815968392 0.000455435645114 -0.000403598487066)
(-0.00012644063454 0.000436514902401 -0.00033493831427)
(0.000150091002284 0.000740900928421 -0.000330767351508)
(0.000510941784379 0.000788814096332 -0.000410745376822)
(0.000899002511436 0.000897091870443 -0.000419621213014)
(0.00121812369344 0.00106592915873 -0.000400874048002)
(0.00142181206701 0.00128518804362 -0.000375481080414)
(0.00148124853315 0.00153436553866 -0.000345149760551)
(0.00138156988827 0.00178728626357 -0.00031188611959)
(0.00112516403037 0.00201364084013 -0.000280351290044)
(0.000736376640082 0.00218401243189 -0.000255803188807)
(0.000259181616818 0.00227565505853 -0.000242402793561)
(-0.000249112006147 0.00227634444217 -0.000242226180982)
(-0.000726601888318 0.00218593341901 -0.000255686869033)
(-0.0011160742963 0.00201664854055 -0.000280292103597)
(-0.00137334440747 0.00179116416183 -0.000311951917158)
(-0.00147391049754 0.00153888445492 -0.000345427581889)
(-0.00141546058726 0.00129019528686 -0.000375985154646)
(-0.00121351080923 0.00107142748171 -0.000401279333448)
(-0.000896254835951 0.000902345094371 -0.000418913194293)
(-0.000510006479828 0.000794723870679 -0.000411503101266)
(-0.000145201930256 0.000748194333131 -0.000333255690778)
(0.000182796653335 0.000991107265428 -0.000320663855123)
(0.000608253339825 0.00106122217892 -0.000399178536605)
(0.00106798342382 0.00121622780883 -0.000401520761143)
(0.00145148548123 0.00144959821042 -0.00036925632198)
(0.00170184502483 0.00174878929397 -0.000324533311392)
(0.00178202335272 0.00209031807675 -0.000270019176055)
(0.00166924177834 0.00243915961785 -0.000210322367531)
(0.00136354450358 0.00275303872458 -0.000154484781826)
(0.00089388602366 0.00299042485442 -0.000111709096151)
(0.000314640026225 0.0031183841475 -8.85286312575e-05)
(-0.000303164065607 0.00311913767187 -8.82310252455e-05)
(-0.000882831727758 0.0029926080692 -0.000111277364183)
(-0.00135337898566 0.00275649543255 -0.000153950971614)
(-0.00166019425121 0.00244365122655 -0.000209819599772)
(-0.00177411549643 0.00209558707071 -0.000269706801405)
(-0.00169514504557 0.00175458946801 -0.00032446597221)
(-0.00144686741679 0.00145574180512 -0.000369055989094)
(-0.00106510414471 0.00122246852792 -0.000400320548615)
(-0.000607915939021 0.00106837827535 -0.000399714085254)
(-0.000178779306062 0.00100025261839 -0.00032297733446)
(0.000224565209685 0.00114800892909 -0.000309566154163)
(0.000736527788099 0.00123214778897 -0.000384869902527)
(0.00128711037366 0.00142020761537 -0.000376569616404)
(0.00175068542394 0.00170023443553 -0.000325070494418)
(0.00206232046801 0.00206071510211 -0.000252175578265)
(0.00217142252073 0.00247510654358 -0.000161812653652)
(0.00204415826952 0.00290237355954 -6.29979498102e-05)
(0.00167633296549 0.00328902627112 2.87885636433e-05)
(0.00110165112773 0.00358326328008 9.8160398648e-05)
(0.000387863596699 0.00374262324803 0.000135486464829)
(-0.000374875588792 0.00374336544586 0.000135867277654)
(-0.00108919457685 0.00358543612055 9.88359569292e-05)
(-0.00166495927752 0.0032925012386 2.97306389965e-05)
(-0.00203414619046 0.00290694613254 -6.1969608853e-05)
(-0.00216280229829 0.00248052103744 -0.000160928338221)
(-0.00205512297742 0.00206673605923 -0.00025156027054)
(-0.00174569335225 0.00170666187864 -0.000324385361632)
(-0.00128420781011 0.00142691732982 -0.000375042406135)
(-0.000736770180897 0.00123939760989 -0.000385085165233)
(-0.000220982704946 0.00115811498865 -0.000311431952246)
(0.000271376303447 0.00118897678811 -0.000296245855295)
(0.000881868155156 0.00127931305806 -0.00036788372483)
(0.00153619554514 0.00148029980813 -0.000346583835331)
(0.00209220043992 0.00178106632812 -0.000270908198881)
(0.00247670409133 0.00217048513282 -0.000162157281203)
(0.00262368974024 0.0026227753286 -2.53467720409e-05)
(0.00248322675997 0.00309223505717 0.000123913967378)
(0.00204457402967 0.00352240354602 0.00026446534583)
(0.00134764610842 0.00385436644965 0.000372556052966)
(0.000474826094425 0.00403572866239 0.000430765643955)
(-0.000460435475566 0.00403637564508 0.000431184938985)
(-0.00133385673597 0.00385628770205 0.000373334153442)
(-0.00203200702764 0.00352553400674 0.000265589000691)
(-0.00247223929091 0.00309646581308 0.000125261786194)
(-0.00261433452997 0.00262786093037 -2.40192856635e-05)
(-0.00246899390081 0.00217619048077 -0.000161087772836)
(-0.00208693430663 0.00178716978751 -0.000269802670346)
(-0.00153333202082 0.00148659584725 -0.000344694478428)
(-0.000882394486715 0.00128619087161 -0.000367810128191)
(-0.000268081486295 0.0011993715358 -0.000297824442312)
(0.000319359250493 0.00110348895056 -0.000281648756778)
(0.00102955303589 0.00119004947262 -0.000348862753327)
(0.00178911824751 0.00138137977791 -0.000313498543683)
(0.00244106154184 0.00166907497238 -0.000211365489289)
(0.00290398388399 0.00204402501839 -6.34553416893e-05)
(0.00309314590777 0.00248313254689 0.000123828832723)
(0.00294380863137 0.00294373205549 0.000335582474131)
(0.0024385156883 0.00337458775067 0.000537033926727)
(0.00161500606396 0.00371471229216 0.000694817279437)
(0.000569879487295 0.00390279185852 0.000780746461625)
(-0.000554347063794 0.0039033073526 0.000781188385372)
(-0.00160008016823 0.0037162689514 0.000695621978839)
(-0.00242483797084 0.00337717682065 0.000538223479061)
(-0.00293183935037 0.00294732661256 0.000337012494034)
(-0.00308304815106 0.0024875888636 0.000125347050726)
(-0.00289576998983 0.00204909496781 -6.20712791172e-05)
(-0.00243551796308 0.00167455748627 -0.000209926940021)
(-0.00178625057163 0.00138710093121 -0.000311280894999)
(-0.00103008662074 0.00119645573753 -0.000348485002204)
(-0.000316082174916 0.00111364107519 -0.000283107500935)
(0.000362495988574 0.000896202584599 -0.000267663941195)
(0.00116172136892 0.000967599571251 -0.000330488585693)
(0.00201554148992 0.00112567989176 -0.000282010717664)
(0.00275499712492 0.00136408182302 -0.000155531187606)
(0.00329068161216 0.00167687990673 2.83981066277e-05)
(0.00352334103304 0.00204514442787 0.000264491593229)
(0.00337467772191 0.00243909507735 0.000537201687287)
(0.00281557979934 0.00281614063848 0.000802711242462)
(0.00187582773284 0.00312136309363 0.00101928289854)
(0.000663405658723 0.00329235722061 0.00113945962747)
(-0.000646945192764 0.00329276312452 0.00113989462345)
(-0.00185996972028 0.00312259922959 0.00102002733691)
(-0.00280098073961 0.00281819970002 0.000803848874083)
(-0.00336182035964 0.00244196649842 0.000538637601721)
(-0.00351250308427 0.00204878890682 0.000266029316377)
(-0.00328194606142 0.00168111204165 2.99451823464e-05)
(-0.00274911742186 0.00136877146049 -0.000153860248092)
(-0.0020125187312 0.00113068828116 -0.000279541844902)
(-0.00116218718706 0.000973412514972 -0.000329904239526)
(-0.000359279067574 0.000905706228676 -0.000268995163469)
(0.000395029700548 0.000586670416916 -0.000256612201443)
(0.00126120945862 0.000633183544914 -0.000315915059502)
(0.00218597100392 0.000737421555582 -0.000257436444909)
(0.00299240019815 0.000894899866876 -0.000112710003254)
(0.0035849199325 0.00110259760497 9.78534812183e-05)
(0.00385530567107 0.00134853696148 0.000372718202589)
(0.00371479367873 0.00161583690766 0.000695204271536)
(0.0031207961225 0.00187658720301 0.00101954189501)
(0.00209117238663 0.00209188628169 0.00129545785242)
(0.000741273404067 0.00221366924807 0.00145100794216)
(-0.000724073170735 0.00221397822376 0.00145143913779)
(-0.00207457617506 0.00209284093182 0.00129614807228)
(-0.0031054789858 0.00187816819839 0.00102059342066)
(-0.0037012300942 0.00161803630963 0.00069658861277)
(-0.00384383541298 0.001351342296 0.000374223811512)
(-0.00357565899812 0.001105936294 9.94170040562e-05)
(-0.00298611124726 0.000898720556731 -0.000110921971632)
(-0.00218269560221 0.000741620863586 -0.00025479516047)
(-0.00126152261435 0.000638241432358 -0.0003151791209)
(-0.000391837553757 0.000595438494817 -0.000257831565645)
(0.000412553877304 0.000208817443464 -0.000250549467038)
(0.0013147527206 0.000224015407006 -0.000307868890783)
(0.00227760527335 0.000260596589291 -0.000243976434098)
(0.00312028609395 0.000315927532124 -8.94843854397e-05)
(0.00374417223916 0.000388979916996 0.00013522155185)
(0.00403655628285 0.000475757668516 0.000431002075634)
(0.00390276549501 0.000570628698098 0.000781241940452)
(0.00329169704892 0.000663986680195 0.00113985437162)
(0.00221291726214 0.000741725731779 0.00145113674733)
(0.000785521319891 0.000785923300498 0.00162787230729)
(-0.000767773079234 0.000786119526695 0.00162830967332)
(-0.00219576975123 0.000742358211974 0.00145179420787)
(-0.00327585029367 0.000665038906374 0.00114084503241)
(-0.00388867300376 0.000572099496882 0.000782555100197)
(-0.0040245656791 0.000477668348659 0.000432435644525)
(-0.0037344178309 0.000391349175697 0.000136739476496)
(-0.00311356975739 0.000318744386728 -8.76827544927e-05)
(-0.00227401761104 0.000263796478196 -0.000241258506241)
(-0.00131481368425 0.000227995566423 -0.000307043825796)
(-0.000409327063906 0.000216235116002 -0.00025169448298)
(0.000412777680383 -0.000193077893319 -0.000250560880478)
(0.00131527807317 -0.00021154095399 -0.000307816549902)
(0.00227815527467 -0.00024749723647 -0.000243817858029)
(0.00312084204419 -0.000301766395163 -8.92279112009e-05)
(0.00374467227608 -0.000373747078127 0.00013552648635)
(0.00403694855834 -0.000459623945558 0.000431306360294)
(0.00390304267591 -0.000553852878977 0.000781540252028)
(0.00329190505888 -0.000646729062391 0.00114010838758)
(0.00221309136418 -0.000724078726371 0.00145135420714)
(0.000785668460278 -0.000767922559997 0.00162806265344)
(-0.000767630509512 -0.00076782863563 0.0016285359498)
(-0.00219563167705 -0.00072373545745 0.00145205114646)
(-0.00327574750094 -0.000646152790636 0.00114113223765)
(-0.00388861360857 -0.000553034744185 0.000782858874656)
(-0.00402457235633 -0.000458501290974 0.000432743355651)
(-0.00373450456438 -0.000372227665622 0.000137098198421)
(-0.00311374358534 -0.000299814540773 -8.72663446318e-05)
(-0.00227435362982 -0.000245142375718 -0.000240823192612)
(-0.00131540155058 -0.000208397434838 -0.000306637773032)
(-0.000409790519029 -0.000186542260339 -0.000251315511462)
(0.00039550369402 -0.000571298368961 -0.000256855558806)
(0.0012625708394 -0.000621147922376 -0.000315965073343)
(0.00218756287871 -0.000724842179286 -0.000257217244967)
(0.00299403355256 -0.000881328607667 -0.000112241133472)
(0.00358639494907 -0.00108801705262 9.8444634614e-05)
(0.00385647562699 -0.00133307721682 0.000373290307138)
(0.0037156401458 -0.00159970510043 0.000695705757096)
(0.00312143877094 -0.00185993594143 0.00101989157073)
(0.00209172424011 -0.00207482513469 0.00129566018908)
(0.000741764327393 -0.00219623369664 0.00145111014614)
(-0.000723587146292 -0.00219623573386 0.00145159709288)
(-0.00207409968338 -0.00207475864613 0.00129637735473)
(-0.00310511496763 -0.00185980604819 0.00102089944868)
(-0.00370100418358 -0.00159946798004 0.0006969324574)
(-0.00384378813201 -0.00133264186448 0.00037459231765)
(-0.0035758141173 -0.00108720906783 9.98712661877e-05)
(-0.00298650245387 -0.000880093380044 -0.000110365576796)
(-0.00218340184908 -0.000723176690148 -0.000254218533731)
(-0.00126237006067 -0.000618609374601 -0.000314721999139)
(-0.000392448674612 -0.000565225599249 -0.000257533264718)
(0.000363207186096 -0.000881849761106 -0.000268108827049)
(0.00116385625022 -0.000956420371021 -0.000330635734811)
(0.00201806866891 -0.00111406322514 -0.000281754605501)
(0.00275760944244 -0.00135160400382 -0.000154894637587)
(0.00329307308849 -0.00166350896445 2.92755030108e-05)
(0.00352529729395 -0.00203093464308 0.000265335442886)
(0.00337614594518 -0.00242414212268 0.00053795172789)
(0.00281669987711 -0.00280060329005 0.000803260639643)
(0.00187677256625 -0.00310537222076 0.00101959905373)
(0.000664228799669 -0.00327598615087 0.0011396149733)
(-0.000646152763828 -0.00327610005377 0.00114010539497)
(-0.00185919910366 -0.00310564077947 0.0010203002059)
(-0.00280037537367 -0.00280098639736 0.000804212809958)
(-0.00336142251037 -0.00242454450417 0.00053905611125)
(-0.00351236230017 -0.00203123201079 0.000266513556361)
(-0.00328211037476 -0.00166348018321 3.05889597038e-05)
(-0.00274967294369 -0.00135117443982 -0.000153076801073)
(-0.00201357368683 -0.00111323221524 -0.000278721730983)
(-0.00116340417777 -0.00095475071714 -0.000329282877661)
(-0.000360153913748 -0.000876845805361 -0.000268640331023)
(0.000320234930713 -0.00109039270747 -0.000282302041874)
(0.00103232014273 -0.00117997573399 -0.000349146561116)
(0.00179242154923 -0.00137100595297 -0.000313292744771)
(0.00244450141946 -0.00165800245802 -0.000210692241395)
(0.00290719291086 -0.00203218302457 -6.24388838202e-05)
(0.00309590163787 -0.00247057235979 0.000124900186257)
(0.00294598050494 -0.00293040366377 0.000336498961619)
(0.00244018415949 -0.00336058742571 0.000537748995624)
(0.00161638311765 -0.00370019083661 0.000695285580273)
(0.000571037463944 -0.00388786089751 0.000781005423829)
(-0.000553274982571 -0.00388807339122 0.00078147366796)
(-0.00159904702366 -0.00370075626633 0.000695911936162)
(-0.00242400008548 -0.00336142415834 0.00053858029794)
(-0.00293126897348 -0.00293138055605 0.000337449524461)
(-0.0030827954963 -0.00247148939998 0.000125972713886)
(-0.00289588985198 -0.00203284823152 -6.12166290717e-05)
(-0.0024361829894 -0.00165831950328 -0.000208906972807)
(-0.00178762348858 -0.00137098392961 -0.000310208631538)
(-0.00103165876867 -0.00117910765497 -0.000347680553669)
(-0.000317226948365 -0.00108642021651 -0.000282667493282)
(0.000272309360948 -0.0011772223068 -0.00029714309352)
(0.000885092691301 -0.00127045542361 -0.000368370302273)
(0.00154010244709 -0.00147125686129 -0.000346551501466)
(0.00209632719389 -0.00177148623772 -0.000270370665407)
(0.00248058310424 -0.00216024584777 -0.000161228089687)
(0.00262712779721 -0.0026119084592 -2.41749451741e-05)
(0.00248612549116 -0.00308073679378 0.000124947656642)
(0.00204687320288 -0.00351024691456 0.000265247606229)
(0.00134951353018 -0.00384165206731 0.00037307199813)
(0.000476358514966 -0.00402255548609 0.00043105394612)
(-0.000459061803829 -0.00402286183382 0.000431481144618)
(-0.00133256034676 -0.00384246445457 0.000373585904872)
(-0.0020309564971 -0.00351143278625 0.000265932202405)
(-0.00247148736819 -0.00308214401452 0.000125794546858)
(-0.00261389115848 -0.00261330921606 -2.31815218032e-05)
(-0.00246902249058 -0.00216149486668 -0.000160074203324)
(-0.00208771321918 -0.00177251376808 -0.000268584845188)
(-0.00153502474699 -0.00147206709837 -0.00034340776536)
(-0.000884275632059 -0.00127040180767 -0.00036684659335)
(-0.00026942351682 -0.00117411596499 -0.00029734453859)
(0.000225521753299 -0.00113792705592 -0.000310697386518)
(0.00074010129289 -0.0012248040449 -0.000385587299416)
(0.00129149834251 -0.00141264654545 -0.000376783740004)
(0.0017553635256 -0.00169227068147 -0.000324765518043)
(0.00206681758022 -0.0020521898795 -0.000251478241723)
(0.00217543228735 -0.00246600244056 -0.000160847305021)
(0.00204760798032 -0.00289276127724 -6.19324598507e-05)
(0.0016792018094 -0.00327887709064 2.97755278977e-05)
(0.00110403269616 -0.00357257004646 9.8896364985e-05)
(0.000389816957962 -0.00373143967423 0.000136005073599)
(-0.000373148288458 -0.00373180789958 0.000136422375802)
(-0.00108756047953 -0.00357352350369 9.93269863921e-05)
(-0.00166360651545 -0.00328027538299 3.03472983153e-05)
(-0.00203311317909 -0.00289444329635 -6.1200087571e-05)
(-0.00216217138025 -0.00246780168862 -0.00015995767973)
(-0.00205514078996 -0.0020539804568 -0.000250355778645)
(-0.00174661261953 -0.00169402787403 -0.000322942590465)
(-0.00128622366511 -0.00141441542992 -0.000373533626927)
(-0.000738985348419 -0.00122566857861 -0.000384046531153)
(-0.000222532229081 -0.00113525974915 -0.000310939253996)
(0.000184192573917 -0.000983372642792 -0.000321542388811)
(0.000612308221712 -0.00105570832167 -0.000399867871152)
(0.00107286925852 -0.001210872142 -0.00040170296746)
(0.0014566159988 -0.00144417176955 -0.000368864478664)
(0.00170686775903 -0.00174287250422 -0.000323754933457)
(0.00178654949121 -0.00208397232508 -0.000268952151718)
(0.001673184305 -0.00243238453249 -0.00020907267794)
(0.00136691909238 -0.00274581578846 -0.000153163678673)
(0.00089678220919 -0.00298269848974 -0.000110432353992)
(0.000317036274114 -0.00311018049002 -8.7371415262e-05)
(-0.000301053982544 -0.0031105741456 -8.69461846063e-05)
(-0.000880855509727 -0.00298369600493 -0.000110063481001)
(-0.00135172776548 -0.00274731698704 -0.000152690901167)
(-0.00165894413049 -0.00243425572273 -0.000208432759239)
(-0.00177341824717 -0.00208610290451 -0.000268121426978)
(-0.00169526243599 -0.00174516676912 -0.000322637437654)
(-0.0014479842162 -0.00144660417488 -0.000366979457776)
(-0.00106750326389 -0.00121336372984 -0.00039826718362)
(-0.000610457162244 -0.00105794939637 -0.00039832971765)
(-0.000180548902914 -0.000981657529978 -0.000322429010674)
(0.00015267308853 -0.000735900629887 -0.00033017513915)
(0.000515283816412 -0.000785011775292 -0.000410464282777)
(0.000903671290246 -0.000894035606195 -0.000418860976218)
(0.00122342777118 -0.00106272113665 -0.000399608709149)
(0.00142726663449 -0.00128186081786 -0.00037389420677)
(0.00148615314012 -0.00153092194401 -0.000343266329523)
(0.0013859313782 -0.00178366297308 -0.000309753662447)
(0.00112901408823 -0.0020097004829 -0.0002780597974)
(0.000739763246559 -0.00217967924184 -0.000253443284045)
(0.000261992212141 -0.00227092579654 -0.000240066818726)
(-0.000246657979267 -0.00227140126281 -0.000239653371969)
(-0.000724335323769 -0.00218070804672 -0.000253141004486)
(-0.00111422186578 -0.00201124473369 -0.000277682133329)
(-0.0013719911967 -0.00178565931972 -0.000309213644399)
(-0.00147323973573 -0.00153333051188 -0.000342519394894)
(-0.0014158160394 -0.00128462821938 -0.000372849479029)
(-0.00121481233537 -0.00106586396508 -0.000397861595574)
(-0.000898737206953 -0.000897276559186 -0.000415778227977)
(-0.000513392000958 -0.000788583834385 -0.000408578390571)
(-0.000148589189115 -0.000734987416045 -0.000331426220058)
(0.000134549271089 -0.000430908940644 -0.000332012577341)
(0.000457424592473 -0.000448835789261 -0.000403866733006)
(0.000796389538518 -0.000508108653401 -0.000411246884884)
(0.0010695374531 -0.000606064491892 -0.00039874991157)
(0.00123967424244 -0.00073498901239 -0.000383746121415)
(0.00128573107819 -0.000880578366196 -0.000366172844326)
(0.00119529510138 -0.0010281454622 -0.000346688973626)
(0.000971734411181 -0.00116004641233 -0.000328068248812)
(0.000636343094259 -0.00125918609404 -0.000313391442706)
(0.000226063958946 -0.0013123536048 -0.000305363959689)
(-0.00021008536977 -0.00131302890937 -0.000304974380568)
(-0.000619918442676 -0.00126009789139 -0.000313184979335)
(-0.000955844965204 -0.00116133081887 -0.000327853584779)
(-0.00118011327737 -0.00102979992355 -0.000346369841697)
(-0.00127140077012 -0.000882552185187 -0.000365686124357)
(-0.00122668527274 -0.000737318871875 -0.000383117861316)
(-0.00105923632954 -0.000608770575689 -0.000397685553303)
(-0.000790061758529 -0.000511754458648 -0.000408205572946)
(-0.000454444049939 -0.000452864787665 -0.000402615981811)
(-0.000131040600242 -0.000429064634085 -0.000334320051613)
(0.00012981914714 -0.000124990324766 -0.000301709729799)
(0.000440148797872 -0.000125699394972 -0.000334920016534)
(0.000752374677087 -0.000144625326026 -0.000332788978794)
(0.00100443831419 -0.000178506977435 -0.000322005062247)
(0.00116156038016 -0.000220736652301 -0.000310092286127)
(0.00120168675889 -0.000267810393312 -0.000296216825881)
(0.0011147209418 -0.00031576109684 -0.000281310844091)
(0.000905693443588 -0.000358861589903 -0.00026708987542)
(0.000594589159608 -0.000391311393957 -0.000255901149715)
(0.000214649568631 -0.000408716652289 -0.000249798159602)
(-0.000188496556733 -0.000409218800571 -0.000249414319717)
(-0.000567325852793 -0.000391888453849 -0.000255752490767)
(-0.00087928203966 -0.00035965635945 -0.00026699208864)
(-0.00108921605068 -0.000316798662349 -0.00028117646474)
(-0.00117731066294 -0.000269019220339 -0.000296037542135)
(-0.00113880785705 -0.000222168314315 -0.000309812561256)
(-0.000985302932189 -0.000180245627829 -0.000321504915577)
(-0.000738396748498 -0.000148057836011 -0.000331001993719)
(-0.000432062948887 -0.000130454470811 -0.000334130065088)
(-0.000127245566072 -0.00012633889307 -0.00029987814803)
(0.000138567609063 0.000137443501987 -0.000827103840728)
(0.000449908010344 0.000159073065315 -0.000907226951547)
(0.000763641361294 0.000183783804258 -0.000910091457904)
(0.0010193330545 0.000224642447893 -0.000889222733447)
(0.00118018098035 0.000275789600061 -0.000861926236763)
(0.00122399983392 0.000332851255596 -0.000827270223125)
(0.00113749868299 0.000391473284013 -0.000788509372903)
(0.000924323892282 0.000444256867502 -0.000750915993111)
(0.00060420889663 0.00048407298761 -0.000720931327292)
(0.000212489113743 0.000505479422679 -0.000704364351381)
(-0.000204401197258 0.000505701464985 -0.000704399050189)
(-0.000596193971949 0.000484408184459 -0.000721470331591)
(-0.000916638822934 0.000444699161067 -0.000751869688003)
(-0.00113020826921 0.000391952093916 -0.000789814854918)
(-0.00121713232089 0.000333293894482 -0.000828834337766)
(-0.00117402575366 0.000276205408916 -0.000863559691133)
(-0.00101418690926 0.00022531054155 -0.000890539686265)
(-0.000760041052083 0.000185585843163 -0.000909788374469)
(-0.000447277103608 0.000158592294044 -0.000908319643796)
(-0.000128980975255 0.000133141628291 -0.000826126393693)
(0.00015922751715 0.000447048132981 -0.00090774843674)
(0.00049052515936 0.000490523085259 -0.00103112968379)
(0.000811481351813 0.000560751396161 -0.00104575374014)
(0.0010816524015 0.000671618471543 -0.00102212467789)
(0.00125447617891 0.000817125008525 -0.00098604317834)
(0.00130428624884 0.000982574718272 -0.000940751195579)
(0.00121523470089 0.00115130548922 -0.000889753021029)
(0.000988667186444 0.001302667621 -0.000840302836405)
(0.000645693482014 0.0014166357271 -0.000800971252717)
(0.000224887851635 0.00147782098759 -0.000779213528776)
(-0.000223343299562 0.0014780828397 -0.000779190278333)
(-0.000644225006806 0.00141714938391 -0.000801190991443)
(-0.000987196846695 0.00130342494265 -0.000840735463044)
(-0.0012138168183 0.00115225826743 -0.00089038717737)
(-0.00130297954492 0.000983683179248 -0.000941552712205)
(-0.00125348846298 0.000818431640874 -0.000986916572793)
(-0.0010808571756 0.00067334185123 -0.00102282334103)
(-0.000811036699617 0.000562765109293 -0.00104554904282)
(-0.000488619007996 0.000492794253471 -0.00103184295296)
(-0.000153923310677 0.000453050396926 -0.000907974586136)
(0.000183773092128 0.000761044437955 -0.000911166625002)
(0.000560258367442 0.000812518118578 -0.00104619868937)
(0.000926208266155 0.000927762248983 -0.00106150103725)
(0.00124010045295 0.00111025750535 -0.00102227672313)
(0.00144687680393 0.00135040062488 -0.000959440522126)
(0.00151148274787 0.00162601614355 -0.000880058295785)
(0.00141360372322 0.00190791709426 -0.000791523466565)
(0.00115286665265 0.00216109041219 -0.000707182700654)
(0.000753678510545 0.00235175785325 -0.000641460210273)
(0.000262022959819 0.00245407263046 -0.000605555564749)
(-0.000262189225131 0.00245421483396 -0.00060538193364)
(-0.000753927383198 0.0023520599499 -0.000641252638102)
(-0.00115303196705 0.00216155337669 -0.000706971854414)
(-0.00141372397414 0.0019085313128 -0.000791383534877)
(-0.00151158563954 0.00162677816426 -0.000880053956092)
(-0.00144706595064 0.00135134808839 -0.000959520972427)
(-0.00124058149737 0.00111152246497 -0.0010221637308)
(-0.000927058468732 0.000928991001172 -0.00106065586409)
(-0.000559854906056 0.00081485597022 -0.00104571646526)
(-0.000181666445387 0.000767140012008 -0.000908708049258)
(0.000224114015814 0.00101687192581 -0.000891217470174)
(0.000670860821539 0.0010832163887 -0.00102325016375)
(0.00110866417837 0.00124197008952 -0.00102289618811)
(0.00149130086498 0.00149310491505 -0.000950200939343)
(0.00175105242392 0.001823317618 -0.000836618189527)
(0.00184079813873 0.00220475194898 -0.000691868589164)
(0.00173021008509 0.0025970160849 -0.000531034759097)
(0.00141572227571 0.002951035804 -0.000380417646162)
(0.000927233812636 0.0032190151789 -0.000265476063318)
(0.00032260023602 0.00336329941058 -0.000203579214822)
(-0.000322889437073 0.00336340639172 -0.000203208133238)
(-0.000927634072579 0.00321928031028 -0.000264721465107)
(-0.00141603101634 0.0029514588109 -0.000379390709584)
(-0.00173046841817 0.00259758114348 -0.000529931443343)
(-0.00184103101392 0.00220544799504 -0.000690867509963)
(-0.00175135085041 0.00182412732478 -0.000835750667795)
(-0.00149208971156 0.0014940489081 -0.000949222594445)
(-0.00110995355666 0.00124297512588 -0.00102141091293)
(-0.000671174472384 0.00108559022664 -0.00102211391854)
(-0.000222856050588 0.00102375112327 -0.000887935573442)
(0.000275138492177 0.00117817304712 -0.000864559638759)
(0.000816119815742 0.00125630563428 -0.000987653575456)
(0.00134859573769 0.0014486894819 -0.000960597700003)
(0.00182144569152 0.00175270025287 -0.000837206253943)
(0.00215298350595 0.00215461224582 -0.000646196055833)
(0.00227839632904 0.00262212559087 -0.000400887103223)
(0.00215335116787 0.00310671819584 -0.000128731252453)
(0.00176944513461 0.00354901197468 0.000124269756407)
(0.00116231943575 0.00388828905829 0.000315805228362)
(0.000405034206464 0.00407231381848 0.000417950986191)
(-0.000405184972178 0.00407240478064 0.000418503093467)
(-0.00116259455268 0.0038885152653 0.000317056183051)
(-0.00176963879283 0.00354936140938 0.000126043445035)
(-0.00215350849487 0.00310719380978 -0.000126696745463)
(-0.00227855001362 0.00262271287834 -0.000398904000996)
(-0.00215323618434 0.00215526092941 -0.000644413298403)
(-0.00182229535801 0.00175339221294 -0.00083543019034)
(-0.00135012645415 0.00144952040709 -0.000958501907455)
(-0.000816827495413 0.00125848314349 -0.000986024946004)
(-0.000274144510365 0.00118559770155 -0.000860565417468)
(0.000332032328049 0.00122274427383 -0.000830426864957)
(0.00098135088478 0.00130595437357 -0.000942747537488)
(0.00162404001077 0.00151295991964 -0.00088162092955)
(0.0022028030492 0.00184210919424 -0.000692889013145)
(0.00262047717381 0.00227968939863 -0.00040131164782)
(0.00279185242175 0.00279315812899 -2.25774461791e-05)
(0.00265603216628 0.00333382277786 0.000401872075197)
(0.00219643112993 0.00383636720625 0.000798195032361)
(0.00144998532686 0.00423060594455 0.00109933214268)
(0.000506523208318 0.00444715772749 0.00126022155139)
(-0.000506514372505 0.00444725139559 0.00126087389622)
(-0.0014501475066 0.00423082514827 0.00110088073872)
(-0.00219651401337 0.00383666663934 0.000800472956273)
(-0.00265607958644 0.00333418008343 0.000404576035213)
(-0.00279194277021 0.00279358338496 -1.97900968404e-05)
(-0.00262073425609 0.00228014663238 -0.000398715314433)
(-0.00220377329739 0.00184252872633 -0.000690405523794)
(-0.00162587443641 0.00151347072508 -0.000878944579785)
(-0.000982440960006 0.00130774915 -0.000940709448541)
(-0.00033138897814 0.00122985531604 -0.000826049935738)
(0.000390596841752 0.00113706171003 -0.000792043383708)