/*--------------------------------*- C++ -*----------------------------------*\
| =========                 |                                                 |
| \\      /  F ield         | OpenFOAM: The Open Source CFD Toolbox           |
|  \\    /   O peration     | Version:  3.0.1                                 |
|   \\  /    A nd           | Web:      www.OpenFOAM.org                      |
|    \\/     M anipulation  |                                                 |
\*---------------------------------------------------------------------------*/
FoamFile
{
    version     2.0;
    format      ascii;
    class       volVectorField;
    location    "5";
    object      U_0;
}
// * * * * * * * * * * * * * * * * * * * * * * * * * * * * * * * * * * * * * //

dimensions      [0 1 -1 0 0 0 0];

internalField   nonuniform List<vector> 
7968
(
(0.00172939634295 0.00173210575422 -0.00293344267466)
(0.00545655925867 0.000882819865455 -0.00292713067849)
(0.0100398279407 0.000382434854243 -0.00249177334889)
(0.0135170964744 0.000192198539956 -0.00173200300093)
(0.0155157857886 0.000371905274477 -0.000893870779337)
(0.0152996341154 0.000756711413722 -0.000296964465841)
(0.0137457033984 0.00117996707956 6.99551597309e-05)
(0.0107466893776 0.00167401684719 0.000297272618306)
(0.00676694518649 0.00208558511761 0.000365573963053)
(0.00230877934067 0.00231114501036 0.000362666843497)
(-0.00229698296444 0.00231162365926 0.000362739151916)
(-0.0067566538768 0.00208693375695 0.000365667928195)
(-0.0107390136157 0.00167598354355 0.000297274014589)
(-0.0137412731575 0.00118215525656 6.98255632531e-05)
(-0.0152983352805 0.000758560286419 -0.000297770188416)
(-0.0155168863006 0.000374103041839 -0.000894379202504)
(-0.0135195953113 0.000193830651283 -0.00173357136053)
(-0.0100421830534 0.000384012945728 -0.00249385633362)
(-0.00545798003182 0.000884615325802 -0.00292996361292)
(-0.00172960090997 0.00173416794324 -0.00293654771014)
(0.000880810849202 0.00545986688777 -0.00292643395641)
(0.00489406489873 0.00489477882008 -0.00583297884001)
(0.0103951343238 0.00478249489903 -0.00661323564802)
(0.0145339767794 0.00521098924243 -0.00623606501518)
(0.0168274842371 0.00619249854554 -0.00544093637503)
(0.0167596644145 0.00741410555112 -0.00467598225619)
(0.0149917265018 0.0085153552778 -0.00411032455911)
(0.0116757143538 0.0095397816876 -0.00369971920304)
(0.00732788892546 0.010297042672 -0.00349636112548)
(0.00249541070251 0.0106916456244 -0.00343603461792)
(-0.00247834231678 0.0106919897737 -0.00343558487012)
(-0.00731228443314 0.0102980735015 -0.00349509601467)
(-0.0116629259075 0.00954150755161 -0.00369779964064)
(-0.0149828810829 0.00851761803996 -0.00410818146746)
(-0.0167548000451 0.0074164917518 -0.00467424114458)
(-0.0168262558409 0.00619526943406 -0.00543994156813)
(-0.0145347717739 0.00521353043717 -0.00623647713233)
(-0.010396492492 0.00478539365607 -0.00661482669783)
(-0.00489492724219 0.00489858853094 -0.00583546882956)
(-0.000880844156311 0.00546503096368 -0.00292919193142)
(0.000381110828237 0.0100417041968 -0.00249040335328)
(0.00478369531488 0.0103918334484 -0.00661246243526)
(0.0110274093536 0.0110206299282 -0.00766314851963)
(0.0157150036341 0.0122466446485 -0.00715952017715)
(0.018278421035 0.0140476296678 -0.00613523058294)
(0.0183219415975 0.016053131002 -0.00512522159842)
(0.0163643586287 0.0178445552509 -0.0043632116441)
(0.0127454738533 0.0194206011191 -0.00384224945129)
(0.00800533582131 0.0205686156757 -0.00358359499498)
(0.00272765432318 0.0211653644966 -0.00350306194883)
(-0.00270511754313 0.0211656674692 -0.00350244787362)
(-0.00798449758264 0.0205693934965 -0.00358177448103)
(-0.0127279766018 0.019421841471 -0.00383926415864)
(-0.0163516474157 0.0178461226424 -0.00435946824247)
(-0.0183141422346 0.0160549162733 -0.00512162292836)
(-0.0182752571296 0.0140499747375 -0.00613263502136)
(-0.0157146340277 0.0122491300929 -0.00715865940383)
(-0.0110281764222 0.0110240734991 -0.00766370782538)
(-0.00478438620311 0.0103969719462 -0.00661409829367)
(-0.000381287179018 0.010049652243 -0.00249269757891)
(0.000191227089261 0.0135155003032 -0.00172976349168)
(0.00521341736601 0.0145249172476 -0.0062348962334)
(0.0122558794602 0.0157013894153 -0.00715963084041)
(0.0175629028538 0.0175458593113 -0.00630987399835)
(0.020447547662 0.0199779100517 -0.0048774959713)
(0.0205215362742 0.0225815853324 -0.00348738935965)
(0.0182909884378 0.024878292375 -0.00242350774795)
(0.014215252309 0.0268444056894 -0.00170650204659)
(0.00890961471618 0.0282606103865 -0.00135062529644)
(0.00303208678843 0.0289858149361 -0.0012415518349)
(-0.0030053280937 0.0289858414211 -0.00124081296414)
(-0.00888467601982 0.0282606934002 -0.00134813800405)
(-0.0141939636449 0.026844490284 -0.00170229790267)
(-0.0182752612413 0.0248781473605 -0.00241801937468)
(-0.0205116139636 0.0225815121046 -0.00348197943874)
(-0.0204431462274 0.0199786238494 -0.00487329139135)
(-0.0175619361567 0.0175470778951 -0.00630756857957)
(-0.0122564993332 0.0157041599919 -0.00715896581404)
(-0.00521431896536 0.0145302187819 -0.00623550808508)
(-0.000191762168355 0.0135251727237 -0.00173161473471)
(0.000371967900657 0.0155077836172 -0.000889998874128)
(0.00619550217328 0.0168118718175 -0.0054400373606)
(0.0140582501579 0.0182578195563 -0.00613667134454)
(0.0199969753312 0.0204226723319 -0.00487937650773)
(0.0232154976259 0.0231873472979 -0.002950228149)
(0.0232769548362 0.0261344146641 -0.00102515865058)
(0.0207100149199 0.0287323293672 0.000504822988765)
(0.0160637864851 0.0309091699707 0.00160801506287)
(0.0100451849556 0.0324622084148 0.00222634551389)
(0.00341113869487 0.0332541180109 0.0024630378969)
(-0.00338199831992 0.0332534033465 0.00246426498593)
(-0.0100179161719 0.0324602681898 0.00223007280991)
(-0.0160406351499 0.0309061547321 0.00161410611935)
(-0.0206930542283 0.0287284953722 0.000512293367809)
(-0.0232663798377 0.0261307498697 -0.00101797603783)
(-0.0232106651523 0.0231845505955 -0.00294410326701)
(-0.0199961167298 0.020420981109 -0.00487552429642)
(-0.014059208367 0.0182583533561 -0.00613453681588)
(-0.00619691409521 0.0168157652377 -0.00543914202884)
(-0.000373396475363 0.0155171441201 -0.00089051393544)
(0.000755669258419 0.0152879663174 -0.00029471026779)
(0.00741623724322 0.0167401936854 -0.00467702639194)
(0.016063190929 0.0182975195499 -0.00512959197156)
(0.022600139198 0.0204924056917 -0.00349325341415)
(0.0261628911202 0.0232430854903 -0.00103023167578)
(0.0261508903264 0.0261157607774 0.00148404326606)
(0.0232126061131 0.0285712862968 0.0035143725301)
(0.0179601495743 0.0305953599614 0.00499231461829)
(0.0111969462979 0.0320194217529 0.00582761303899)
(0.00379199951908 0.0327420674514 0.00615014123649)
(-0.00376307388596 0.0327406976484 0.00615111158392)
(-0.0111694935134 0.0320153773479 0.00583074510857)
(-0.0179364670784 0.0305888225994 0.0049979501776)
(-0.0231948928093 0.028562688746 0.00352182496529)
(-0.0261393816987 0.0261066036292 0.00149197791643)
(-0.0261576934146 0.0232352309594 -0.00102313799869)
(-0.0225988630835 0.0204859161447 -0.00348835554734)
(-0.0160637962253 0.0182939951723 -0.00512648507131)
(-0.00741726569028 0.0167408995619 -0.00467526520849)
(-0.000756835271328 0.0152954739035 -0.000295148179338)
(0.00117999157254 0.0137312418923 7.29316633137e-05)
(0.00851772661284 0.01497162838 -0.004112875669)
(0.0178546074945 0.0163405727718 -0.00437056299368)
(0.0248961922274 0.0182632583404 -0.00243395040014)
(0.0287609092886 0.0206774345385 0.00049293605228)
(0.0286073584264 0.023178484563 0.00350742189048)
(0.0253217191249 0.0252866060219 0.00590466313228)
(0.019521234432 0.0270298459121 0.00766791362577)
(0.0121089227275 0.0282199388851 0.00871955928646)
(0.00408439313819 0.0288152848273 0.00911958187161)
(-0.00405765185161 0.0288135036276 0.00912021022585)
(-0.012083558172 0.0282144202883 0.00872227889124)
(-0.0194996355092 0.0270206319192 0.00767307558866)
(-0.025305781014 0.0252739620007 0.00591143194614)
(-0.0285969104885 0.023164091871 0.00351481239565)
(-0.028756010112 0.0206638012337 0.000500168833761)
(-0.0248949894708 0.0182514758801 -0.002428880884)
(-0.0178550600043 0.0163324434993 -0.00436703563547)
(-0.00851859244376 0.0149685338235 -0.00411023049809)
(-0.0011817117751 0.0137357472087 7.35480706956e-05)
(0.00167418719762 0.010730812855 0.000300636106289)
(0.00954247188499 0.0116585322399 -0.00370350260765)
(0.0194306549348 0.0127272383899 -0.003851499601)
(0.0268610561775 0.0141953514632 -0.00171980855272)
(0.0309370421122 0.0160404452364 0.00158986384732)
(0.0306324987966 0.0179359465248 0.00497862719118)
(0.0270670329448 0.0194970113588 0.00766231400064)
(0.0208036945727 0.0207781904047 0.00959629314568)
(0.0128938172438 0.0217278008531 0.010142381833)
(0.00433755511757 0.0221797349052 0.0103335955341)
(-0.00431536827043 0.0221777185986 0.0103341363451)
(-0.0128731425859 0.0217214691827 0.0101443029118)
(-0.0207870925078 0.020767116423 0.00959955501884)
(-0.0270553832373 0.0194809827831 0.00766734984867)
(-0.0306251282171 0.0179169406728 0.00498373292607)
(-0.0309335451041 0.01602125345 0.00159521723041)
(-0.0268602466668 0.0141782475341 -0.00171603502831)
(-0.0194309003078 0.0127142392946 -0.00384853444411)
(-0.009542849633 0.0116511342849 -0.00370072569636)
(-0.00167588143656 0.0107312822234 0.00030182767631)
(0.00208559643 0.0067499056373 0.000369997540122)
(0.0103001304027 0.00731538536938 -0.00349981090612)
(0.0205784936625 0.0079956174246 -0.00359240428421)
(0.0282760203094 0.00890114660599 -0.00136363624643)
(0.0324885794996 0.0100363187516 0.00220602986914)
(0.0320561766636 0.0111877019981 0.00581146089411)
(0.0282584178828 0.0120993480159 0.00871239671233)
(0.0217556087742 0.012882207916 0.0101453204154)
(0.0134279953431 0.0134142595615 0.0107475745491)
(0.00449723551834 0.0136757751234 0.0109522835967)
(-0.00448039426769 0.0136736272367 0.0109530398907)
(-0.0134133252574 0.0134073521428 0.0107497030741)
(-0.021745031592 0.0128699414348 0.0101482103474)
(-0.0282521881842 0.0120820188984 0.00871495405955)
(-0.0320529424134 0.0111666937901 0.0058132443443)
(-0.0324871022367 0.0100140227285 0.00220772513419)
(-0.0282754933309 0.00888074738536 -0.00136223969399)
(-0.0205784717442 0.00797934828019 -0.00359093730146)
(-0.0103000625527 0.00730469487301 -0.00349777458973)
(-0.00208682000392 0.00674638699509 0.000371480237079)
(0.00231130570027 0.00228885034092 0.000367959588662)
(0.0106945261218 0.0024860040112 -0.00343783121431)
(0.0211741515832 0.0027253410737 -0.00350953760721)
(0.0289996547303 0.00303408167786 -0.00125052296438)
(0.0332779763572 0.00341534633352 0.00244607167657)
(0.0327751576203 0.0037953136228 0.00613663315558)
(0.0288492318587 0.00408509770496 0.00911838415604)
(0.0222057544214 0.00433394680109 0.0103384743156)
(0.0136895473963 0.00448996609924 0.010954797011)
(0.00457476822184 0.00456569930593 0.0111623656918)
(-0.00456342255186 0.00456340360027 0.0111629493334)
(-0.0136803372627 0.00448287930141 0.010956438292)
(-0.0222005440328 0.00432206173771 0.0103404802673)
(-0.0288479294725 0.00406875070665 0.00911897635287)
(-0.0327759494307 0.00377558432491 0.00613494479495)
(-0.0332786019348 0.00339398640122 0.00244321586842)
(-0.0289991704908 0.00301407772024 -0.00125215976368)
(-0.0211736816972 0.00270885216658 -0.00351021184632)
(-0.01069408842 0.002474221748 -0.00343726893156)
(-0.00231175207006 0.00228273234162 0.000369241171428)
(0.00231241143966 -0.00232130810037 0.000367386843166)
(0.0106938573705 -0.00248674723425 -0.00343611399226)
(0.0211727692217 -0.0027027659059 -0.003506915348)
(0.0289969065592 -0.00299580745709 -0.00124675340326)
(0.0332722770176 -0.00336896799753 0.00245153338822)
(0.0327673065053 -0.00375164192318 0.00614052400854)
(0.0288410167228 -0.00405052120303 0.00911988851578)
(0.02219852214 -0.00431459330228 0.0103386229587)
(0.0136844227141 -0.00448579690061 0.0109545646563)
(0.00457164012074 -0.00457278004901 0.0111618608802)
(-0.00456469369443 -0.0045746387908 0.0111621053168)
(-0.0136794736128 -0.00449159961292 0.0109553577163)
(-0.0221973610014 -0.00432446187041 0.0103395880743)
(-0.0288432504526 -0.00406411075029 0.0091187054542)
(-0.0327708545442 -0.00376735862815 0.0061360089884)
(-0.0332742852369 -0.00338546693096 0.00244510728014)
(-0.0289962830172 -0.00301131301876 -0.0012508552847)
(-0.0211717826691 -0.00271603883594 -0.00350953731825)
(-0.010693031662 -0.00249692751924 -0.00343710499739)
(-0.0023121833864 -0.0023278202518 0.000368193713814)
(0.00208826699333 -0.00678418797488 0.000368338436667)
(0.0102983150102 -0.0073195931542 -0.00349529398685)
(0.0205742392024 -0.00797899791673 -0.00358508424659)
(0.0282681358166 -0.00887048411016 -0.00135253209746)
(0.0324725295053 -0.00999836025966 0.00222141585184)
(0.0320331127343 -0.0111507547571 0.00582230745301)
(0.0282333905661 -0.0120702318416 0.00871770292958)
(0.0217332353296 -0.0128660877838 0.0101454996914)
(0.0134113289435 -0.0134120738157 0.0107458459627)
(0.00448715918563 -0.0136836006553 0.0109492732128)
(-0.00448350307887 -0.0136848627136 0.0109494207563)
(-0.0134096297974 -0.0134157059771 0.0107462258802)
(-0.021734860369 -0.0128723158099 0.0101455694414)
(-0.0282379526754 -0.0120790827566 0.00871332099054)
(-0.0320377142705 -0.0111601469733 0.00581558953405)
(-0.0324745087801 -0.0100073344269 0.0022127917345)
(-0.0282670463368 -0.00887892229322 -0.00135865457022)
(-0.0205727756328 -0.00798650575234 -0.0035890117698)
(-0.0102969534411 -0.00732589289025 -0.00349732407533)
(-0.00208765900109 -0.00678902407245 0.0003685496191)
(0.00167692611113 -0.0107673937057 0.000297969023707)
(0.00953984553298 -0.0116685740861 -0.00369781105029)
(0.019423892729 -0.0127203527858 -0.00384153269666)
(0.0268483652343 -0.0141769658294 -0.00170480581997)
(0.0309124485206 -0.0160163992275 0.00161015641035)
(0.0305969487043 -0.0179101871552 0.00499323999285)
(0.0270282002638 -0.0194761115876 0.00766853365553)
(0.0207682595448 -0.02076577 0.00959710997156)
(0.0128670134829 -0.0217259253011 0.0101395293674)
(0.00432145416337 -0.0221850086789 0.0103283290781)
(-0.00432013004218 -0.0221854841972 0.0103283683844)
(-0.012867264324 -0.0217271117736 0.0101396337093)
(-0.0207709541308 -0.0207674639176 0.00959675476512)
(-0.0270329802011 -0.0194783884796 0.00766350206691)
(-0.0306010997759 -0.0179116170512 0.00498597708861)
(-0.0309135582763 -0.0160165751722 0.00160172240067)
(-0.0268466885209 -0.0141772937911 -0.0017108409185)
(-0.0194218478461 -0.0127209742799 -0.00384552194345)
(-0.00953795473311 -0.0116696209598 -0.00369993873965)
(-0.00167628764588 -0.0107691705614 0.000297724289773)
(0.00118189852134 -0.0137683631243 6.9364649422e-05)
(0.00851459780342 -0.0149873552273 -0.00410770929563)
(0.0178458436984 -0.0163436193543 -0.00436036305471)
(0.0248794507403 -0.0182577936046 -0.00241837445433)
(0.0287309107923 -0.020667724661 0.000513052379405)
(0.0285643501022 -0.0231649333659 0.00352252975577)
(0.0252740765225 -0.025274419 0.0059110230022)
(0.0194775166739 -0.0270229273155 0.0076650831399)
(0.0120757938742 -0.0282193505739 0.00870942204918)
(0.00406400352708 -0.0288176069952 0.00911055132356)
(-0.00406409789296 -0.0288173255179 0.00911036592293)
(-0.0120770201866 -0.0282183867082 0.00870875486853)
(-0.0194802549145 -0.0270209561397 0.0076630747131)
(-0.0252773579817 -0.0252708184325 0.00590710412196)
(-0.0285666089926 -0.0231593093135 0.00351685941319)
(-0.0287305210039 -0.0206605011134 0.000507197249611)
(-0.0248773331851 -0.018251222369 -0.00242251583022)
(-0.0178434609155 -0.0163383565681 -0.004363058256)
(-0.00851247594235 -0.0149836620795 -0.00410890810163)
(-0.00118137272101 -0.0137671096144 6.91876323364e-05)
(0.000757144003093 -0.0153231344924 -0.000298254261048)
(0.00741237557817 -0.0167591730057 -0.00467344277614)
(0.0160525551906 -0.0183075258053 -0.00512116515662)
(0.0225806846714 -0.0204965854319 -0.0034802989689)
(0.0261309515841 -0.0232444028231 -0.00101396887365)
(0.026105748493 -0.0261122097333 0.0014973151966)
(0.02316206534 -0.0285663485745 0.00352011418596)
(0.0179125416732 -0.0305920188283 0.00498946314945)
(0.0111598118105 -0.0320187316332 0.0058177761239)
(0.00376937348813 -0.0327433459182 0.00613651435042)
(-0.00376970314619 -0.0327425367719 0.00613641770738)
(-0.0111604580578 -0.0320162985484 0.00581731992987)
(-0.0179133814658 -0.0305876375493 0.00498824273619)
(-0.0231625062275 -0.0285594328316 0.00351791889023)
(-0.0261050449366 -0.0261025891136 0.00149464474982)
(-0.0261286841234 -0.0232332513667 -0.00101582358904)
(-0.0225780087004 -0.0204864151501 -0.00348134520833)
(-0.0160500369019 -0.0182991075136 -0.00512167292868)
(-0.00741042028934 -0.016752908864 -0.00467322363026)
(-0.000756831531786 -0.015320173744 -0.00029800570734)
(0.000370764483617 -0.0155394663758 -0.000895676918641)
(0.00618962437871 -0.0168313618122 -0.00543851215444)
(0.0140452302285 -0.0182715085061 -0.00613101898501)
(0.0199755093658 -0.0204330880053 -0.00487035727932)
(0.0231829082095 -0.0231955012637 -0.00293869220194)
(0.0232337750094 -0.0261389362059 -0.00101574111917)
(0.0206618192889 -0.0287338849662 0.000509239644753)
(0.016017679545 -0.0309090917926 0.00160578592082)
(0.0100083374963 -0.0324613576279 0.00221798326241)
(0.00338841439752 -0.0332531315711 0.00245090742035)
(-0.00338821690589 -0.0332520849385 0.00245075551535)
(-0.0100076862367 -0.0324581643684 0.00221760041987)
(-0.0160161316135 -0.030903583062 0.00160552355714)
(-0.0206593534907 -0.0287258823088 0.000509525796166)
(-0.0232306058256 -0.026128710806 -0.00101459847293)
(-0.0231796648633 -0.0231844757364 -0.00293655557709)
(-0.0199727605468 -0.0204227509549 -0.00486822681643)
(-0.0140430172713 -0.0182627337071 -0.00612916142238)
(-0.00618816040512 -0.0168246516729 -0.00543681583406)
(-0.000370453103757 -0.0155360209086 -0.00089532420026)
(0.000188664138353 -0.0135382845171 -0.00173416155346)
(0.00520453635415 -0.0145410778729 -0.00623452142073)
(0.0122398335842 -0.0157145381944 -0.00715655999594)
(0.0175391222747 -0.0175575749121 -0.00630489446813)
(0.0204149097705 -0.0199885857252 -0.0048714874096)
(0.0204808616194 -0.0225889858763 -0.00348284628035)
(0.0182469937762 -0.0248829133044 -0.00242232522452)
(0.0141736558103 -0.0268465627808 -0.0017090667152)
(0.00887621153101 -0.0282605147447 -0.00135611553704)
(0.00301126529236 -0.0289839380343 -0.00124800382776)
(-0.00301069275702 -0.0289830540678 -0.00124812083616)
(-0.00887464362296 -0.0282578283242 -0.00135618621583)
(-0.014170580023 -0.0268421457231 -0.00170854007188)
(-0.0182427254067 -0.0248768609728 -0.00242069005109)
(-0.020476156895 -0.0225815527465 -0.00348009981386)
(-0.0204105991507 -0.0199806918772 -0.00486776863951)
(-0.0175359235103 -0.0175501298363 -0.0063012220789)
(-0.0122376162677 -0.0157082562103 -0.00715330329163)
(-0.00520339444123 -0.014536495798 -0.00623191088905)
(-0.000188521233346 -0.0135361708917 -0.00173336151993)
(0.000377134771707 -0.0100564024299 -0.0024935061946)
(0.00477270614247 -0.0104030076295 -0.00661228320934)
(0.0110095868598 -0.0110307670873 -0.00766158789629)
(0.0156906273841 -0.0122565679392 -0.0071571775065)
(0.0182473324722 -0.0140572008798 -0.00613254575962)
(0.0182855020925 -0.0160604046906 -0.00512361932508)
(0.0163260085522 -0.0178498455862 -0.0043636094468)
(0.012709595981 -0.019423977712 -0.00384503807508)
(0.00797684869649 -0.0205701943567 -0.00358841086377)
(0.00271015270198 -0.0211651941014 -0.00350913670934)
(-0.00270938472798 -0.0211645722863 -0.00350933161832)
(-0.00797480136282 -0.0205683392212 -0.00358873410892)
(-0.0127056644475 -0.0194209911365 -0.00384473894045)
(-0.0163206215351 -0.017845949487 -0.00436219585508)
(-0.0182796323503 -0.0160558603057 -0.00512097635498)
(-0.018241876362 -0.0140525596461 -0.0061289978307)
(-0.0156864839814 -0.0122524073261 -0.00715335898328)
(-0.0110068104812 -0.0110275465819 -0.0076581697505)
(-0.00477131464178 -0.0104010544816 -0.00660973270004)
(-0.000376771189631 -0.0100559895873 -0.00249270140641)
(0.00087627277182 -0.00546697913283 -0.00292852102899)
(0.00488256208181 -0.00490096949915 -0.00583294943249)
(0.0103773718346 -0.00478897468839 -0.00661274876796)
(0.0145109409775 -0.00521807257396 -0.00623554423019)
(0.0167994942295 -0.00619985321857 -0.00544040506859)
(0.0167285187869 -0.00741995275393 -0.00467617203938)
(0.0149597621322 -0.00852009945247 -0.00411144314826)
(0.0116464739843 -0.00954325256903 -0.00370261088755)
(0.00730533186249 -0.0102993552508 -0.00350084239579)
(0.00248205014462 -0.0106929584507 -0.00344158808709)
(-0.00248080498675 -0.0106927346158 -0.00344202574224)
(-0.0073026759139 -0.0102986691152 -0.00350159593178)
(-0.0116417887046 -0.00954218822115 -0.00370302875353)
(-0.0149534500669 -0.00851877287653 -0.0041109474341)
(-0.0167215721296 -0.00741858385004 -0.00467464787546)
(-0.0167927366434 -0.00619857210051 -0.00543798342191)
(-0.0145055329954 -0.00521723321703 -0.00623265333122)
(-0.0103736075787 -0.00478873394406 -0.00661020882302)
(-0.00488047546605 -0.00490135549583 -0.00583119890201)
(-0.000875435959076 -0.00546768430731 -0.00292777241095)
(0.00172568147642 -0.00173396524479 -0.00293475555422)
(0.00544733278206 -0.000885236304821 -0.00292832428515)
(0.0100257364498 -0.000385567388508 -0.00249378346342)
(0.0134998274954 -0.000196121974755 -0.00173504846711)
(0.0154954402815 -0.000376832908995 -0.000897365763814)
(0.0152782376952 -0.000761344861583 -0.00030135474828)
(0.0137240776593 -0.00118485835485 6.57049208861e-05)
(0.0107268925221 -0.00167833033479 0.000292797668462)
(0.00675161490283 -0.00208866020405 0.000361116159921)
(0.00229994454734 -0.00231296201396 0.000358206502282)
(-0.00229761430304 -0.00231284594242 0.000357723879758)
(-0.00674762272821 -0.00208838997074 0.00035990717517)
(-0.0107204000996 -0.00167808451551 0.000291447186013)
(-0.0137155859662 -0.00118486578184 6.47839717421e-05)
(-0.0152689711897 -0.000761872257278 -0.000301698568496)
(-0.015486142076 -0.000377352464536 -0.000897555575368)
(-0.0134917646612 -0.000197166020158 -0.00173442705941)
(-0.0100198917225 -0.000386733350346 -0.00249311268162)
(-0.00544374662826 -0.000886432129153 -0.00292779644852)
(-0.00172402469287 -0.00173474705801 -0.00293371221607)
(0.00290643077589 0.00290981559957 -0.0112875562448)
(0.00802809206238 0.00369153202257 -0.0116475854228)
(0.0127452993809 0.00428346957415 -0.010785592544)
(0.0160272989407 0.00493793749437 -0.00917490630671)
(0.0175569596353 0.00564351730607 -0.00734686504127)
(0.0170433503949 0.0062760569317 -0.00587113121525)
(0.015029438259 0.00681464700796 -0.00486830801482)
(0.0116184706732 0.00731353306928 -0.00423840923626)
(0.00726145539878 0.00770232975413 -0.00400341997873)
(0.00246646290883 0.00791432224033 -0.00397970248525)
(-0.00245255347512 0.00791426818324 -0.00397908766553)
(-0.00724888110747 0.00770215298303 -0.00400185110064)
(-0.0116083410584 0.00731321119138 -0.0042362316709)
(-0.0150226657123 0.00681413353387 -0.00486590170682)
(-0.0170400016824 0.00627525263664 -0.00586945319792)
(-0.0175560906694 0.00564268717612 -0.00734656937525)
(-0.0160274982578 0.00493707309594 -0.00917646936452)
(-0.0127454522019 0.00428312158981 -0.0107889229934)
(-0.00802779323555 0.00369203936478 -0.0116527564275)
(-0.00290586255012 0.00291112715367 -0.0112932563428)
(0.00369095757162 0.00803017291573 -0.0116450289062)
(0.00911570411176 0.00911243454418 -0.014731887547)
(0.0136198566711 0.0101192478468 -0.014782846619)
(0.0166623589341 0.0114374439321 -0.0134519161929)
(0.0179550746986 0.0129476308109 -0.0116459848649)
(0.0174162411324 0.0144308408876 -0.00995688249783)
(0.0152883041466 0.0157532489084 -0.00864060158246)
(0.0118127703489 0.0168926125714 -0.0077421581691)
(0.0074121981474 0.0177345503583 -0.00727442252475)
(0.00252820947839 0.0181783524861 -0.00710983731746)
(-0.00250599792438 0.0181779490115 -0.00710867937653)
(-0.00739138826396 0.0177333901488 -0.00727108454541)
(-0.0117946678352 0.0168908202457 -0.00773693835793)
(-0.0152740917411 0.015751019601 -0.00863432527356)
(-0.0174062748085 0.0144283473754 -0.0099508731482)
(-0.0179488076182 0.0129452877598 -0.0116415883093)
(-0.0166588070256 0.0114355115618 -0.0134499727592)
(-0.013617945451 0.0101182918439 -0.0147835115284)
(-0.00911463363657 0.00911303808142 -0.0147348343884)
(-0.00369038516729 0.00803296584376 -0.0116496153044)
(0.00428482699567 0.01274332073 -0.0107813215834)
(0.0101255217713 0.0136111927609 -0.0147817017336)
(0.0148695192284 0.0148572527001 -0.0148426293786)
(0.0179514123674 0.0166159637606 -0.0131341366939)
(0.0191759399582 0.0186843738472 -0.0108056859034)
(0.018540551517 0.020774420729 -0.00853682734701)
(0.0162260906117 0.0226649158088 -0.00668887482463)
(0.0125287443568 0.0242459412414 -0.00537764483788)
(0.00787228756952 0.0253840648663 -0.00461665508798)
(0.00268968743625 0.02597485886 -0.00429786184883)
(-0.00266199136631 0.0259743126849 -0.00429630324106)
(-0.00784613283172 0.0253825620233 -0.00461203744921)
(-0.0125056467792 0.0242435719213 -0.00537020398563)
(-0.0162074506907 0.0226618827447 -0.00667960242469)
(-0.0185269322617 0.0207709293089 -0.00852746852106)
(-0.0191668504137 0.0186808752484 -0.0107980806339)
(-0.0179458092584 0.0166129354147 -0.0131293280642)
(-0.0148662992325 0.0148554589141 -0.0148407637065)
(-0.0101236790123 0.0136115682266 -0.0147824279522)
(-0.00428398670375 0.0127475676866 -0.0107843386393)
(0.00494065143977 0.0160188691125 -0.00916911711255)
(0.0114457804289 0.016647900029 -0.0134509539532)
(0.0166307090632 0.017933692725 -0.0131350898979)
(0.0198852780836 0.0198652535035 -0.0107602959097)
(0.0210891876435 0.0221716663031 -0.00765125476624)
(0.0202926797786 0.0245268585245 -0.00461350363817)
(0.0176846157834 0.0266642332565 -0.00210491058192)
(0.0136106048028 0.0284155640595 -0.000296181679884)
(0.00853275076063 0.0296488688433 0.000787757912525)
(0.00291172049423 0.0302828564816 0.00125792851426)
(-0.0028807019207 0.0302820164746 0.00125984978359)
(-0.00850321796334 0.0296464230223 0.000793660313711)
(-0.013584255562 0.0284117400127 -0.000286478388)
(-0.0176631570183 0.0266593332754 -0.00209269742091)
(-0.0202769281735 0.0245212654244 -0.00460088667979)
(-0.0210785823105 0.0221660321752 -0.00764048980552)
(-0.0198786634209 0.0198603163867 -0.0107526143452)
(-0.0166268921817 0.017930321587 -0.0131306091939)
(-0.011443577731 0.0166473156046 -0.0134493360904)
(-0.00493977834358 0.0160236946996 -0.00917048963122)
(0.00564755970642 0.0175408972637 -0.00734184217369)
(0.0129575132224 0.0179355366519 -0.0116474942756)
(0.0187008503363 0.0191540989282 -0.010810140808)
(0.0221933543589 0.0210654610145 -0.00765532328776)
(0.0233887864898 0.0233634772849 -0.00365770949172)
(0.0223907890155 0.0257444683164 0.000267166247059)
(0.0194307535142 0.0279004176898 0.00353206264385)
(0.0149096482347 0.0296433225583 0.00587126249309)
(0.00932931090327 0.0308558989188 0.0072656077229)
(0.0031802731068 0.0314782778895 0.00787441221396)
(-0.00314800157637 0.0314770443937 0.00787657419322)
(-0.00929861183269 0.0308521925312 0.00727223828049)
(-0.01488227279 0.02963744999 0.005882391869)
(-0.0194084678005 0.027892821907 0.0035464840778)
(-0.0223743559316 0.0257359553041 0.000282500162082)
(-0.0233778536684 0.0233549403006 -0.00364424662261)
(-0.0221865833471 0.021057649672 -0.00764492669976)
(-0.018697089423 0.0191481648074 -0.0108031535332)
(-0.0129552997944 0.0179329054885 -0.0116434935705)
(-0.00564700695781 0.017544692652 -0.00734113406946)
(0.0062804425178 0.0170229072182 -0.0058692303368)
(0.0144416602001 0.0173942328148 -0.00996282648879)
(0.0207918225743 0.0185171992169 -0.00854707083977)
(0.0245493299749 0.0202679354432 -0.00462463066392)
(0.0257705482055 0.0223644339734 0.000259014191409)
(0.024592634879 0.0245654177413 0.00505779675892)
(0.0212834932985 0.0265650670442 0.00902433734719)
(0.0162860468676 0.028163748466 0.0118386657006)
(0.0101681017142 0.0292690333506 0.0134963489103)
(0.00346090449622 0.0298349223016 0.0142147100125)
(-0.00342974759473 0.0298332199387 0.0142166077141)
(-0.0101384271214 0.0292639734045 0.0135023522409)
(-0.0162595649654 0.0281555816075 0.0118492345426)
(-0.0212619147312 0.0265542812435 0.00903876921963)
(-0.0245767882955 0.0245530943 0.00507404179195)
(-0.0257601517412 0.0223517680391 0.000274321401827)
(-0.0245431323276 0.0202561021644 -0.00461250640858)
(-0.020788458663 0.0185075820195 -0.00853833158987)
(-0.0144394670605 0.0173884616591 -0.00995702136309)
(-0.00627984715871 0.0170243485207 -0.0058666516222)
(0.0068199792224 0.0150075522977 -0.00486928314089)
(0.0157651633415 0.0152673289181 -0.00865135230004)
(0.0226829175275 0.0162051884213 -0.00670557696103)
(0.0266868835704 0.0176634291346 -0.00212457600726)
(0.0279266638547 0.019408099508 0.00351328078335)
(0.0265927147113 0.0212602589397 0.00901308511958)
(0.0229628373044 0.0229395439936 0.0135120493136)
(0.0175338356697 0.0242999821553 0.016675723192)
(0.0109278254024 0.0252642781166 0.0185335963735)
(0.00371349311056 0.0257571295721 0.0193456655357)
(-0.00368525041738 0.0257551563574 0.0193472981283)
(-0.0109010823696 0.025258428162 0.0185386508871)
(-0.0175103162498 0.0242901590854 0.0166848354267)
(-0.0229439733438 0.0229258531123 0.0135244509106)
(-0.0265790005989 0.0212439127839 0.00902743206925)
(-0.0279178497626 0.0193908067822 0.0035274205499)
(-0.0266818377297 0.0176468098551 -0.00211294191576)
(-0.0226802540956 0.0161911423668 -0.0066967326103)
(-0.0157632559273 0.0152575527858 -0.00864469127669)
(-0.00681962198379 0.0150052296225 -0.00486499949177)
(0.0073195986983 0.0115991913833 -0.00424177899784)
(0.0169054262934 0.0117967503752 -0.00775621935111)
(0.0242644035134 0.012514397064 -0.00539864911227)
(0.0284382112 0.0135974370437 -0.000321997775884)
(0.0296694818903 0.0148959391726 0.00584407226436)
(0.0281921109881 0.0162722876762 0.0118187930335)
(0.0243241508961 0.017520470346 0.0166686601281)
(0.0185723217933 0.0185585996667 0.020173588587)
(0.0115599050423 0.0192692146815 0.0224011370083)
(0.00392202629378 0.0196348721675 0.0233530525235)
(-0.00389771392651 0.0196328220785 0.0233546098904)
(-0.0115373072719 0.0192629152767 0.0224061667101)