/*--------------------------------*- C++ -*----------------------------------*\
| =========                 |                                                 |
| \\      /  F ield         | OpenFOAM: The Open Source CFD Toolbox           |
|  \\    /   O peration     | Version:  3.0.1                                 |
|   \\  /    A nd           | Web:      www.OpenFOAM.org                      |
|    \\/     M anipulation  |                                                 |
\*---------------------------------------------------------------------------*/
FoamFile
{
    version     2.0;
    format      ascii;
    class       volVectorField;
    location    "7.7";
    object      ddt0(U);
}
// * * * * * * * * * * * * * * * * * * * * * * * * * * * * * * * * * * * * * //

dimensions      [0 1 -2 0 0 0 0];

internalField   nonuniform List<vector> 
7968
(
(-1.69231458408e-05 -4.59686258626e-05 6.64516343696e-05)
(-1.89718421809e-05 -5.07350931795e-05 4.48694333558e-05)
(-3.53452199291e-06 -4.87553369173e-05 3.33128115261e-05)
(2.28103065063e-05 -4.94850810586e-05 2.78467033853e-05)
(5.60198260918e-05 -5.09731881975e-05 2.3101559323e-05)
(9.78071488181e-05 -4.74941301902e-05 2.07637934934e-05)
(0.00014415538827 -4.54791020492e-05 1.73858091346e-05)
(0.000202597613267 -4.22149040999e-05 1.61919478463e-05)
(0.000260941438532 -3.85430631222e-05 1.63729178876e-05)
(0.000316677781876 -3.72547343037e-05 1.83249823704e-05)
(0.000367015065446 -3.89369944528e-05 2.23352504001e-05)
(0.00040339958716 -3.28328883759e-05 2.64914037085e-05)
(0.000419241177533 -3.62847097662e-05 3.51936287058e-05)
(0.000415424758241 -3.78527136067e-05 4.78288038795e-05)
(0.000393730382534 -3.98833005254e-05 5.89860322467e-05)
(0.000347639169306 -4.25907126761e-05 6.94035766651e-05)
(0.000286054694988 -4.47086422521e-05 7.75634693586e-05)
(0.000209259639595 -4.51659645663e-05 8.32045241014e-05)
(0.000127362159092 -4.5805976609e-05 9.20486874816e-05)
(5.13086092347e-05 -5.273280669e-05 0.000103384656921)
(-1.95401818385e-05 -0.000106999494218 5.0293319573e-05)
(-4.69984148623e-06 -9.89125315413e-05 5.31102810602e-06)
(7.80758268564e-06 -9.58830849687e-05 1.35846264179e-06)
(1.60085008642e-05 -9.84803109713e-05 7.28935546286e-06)
(3.24129025991e-05 -0.000104135007346 1.05876915967e-05)
(6.56844133459e-05 -0.00010723244268 9.18889725771e-06)
(0.000111605245771 -0.000107662627049 4.58151514941e-06)
(0.000175202216999 -0.000106833495922 -1.14414261566e-06)
(0.000246379444408 -0.000103137169817 -3.73449186287e-06)
(0.000316765145748 -9.90786860999e-05 -3.04202844328e-06)
(0.00039145549774 -9.6747632604e-05 3.54161459669e-06)
(0.000442720652899 -8.96579708891e-05 4.42524553128e-06)
(0.000462267245877 -8.84266438429e-05 1.85236946722e-05)
(0.000463694022263 -8.54090078999e-05 3.26283894187e-05)
(0.000436047555261 -8.23837486647e-05 4.51836676537e-05)
(0.000378223403212 -7.94219357511e-05 5.48322264279e-05)
(0.000300909538045 -7.95278146092e-05 5.89906300762e-05)
(0.000211218646737 -8.29629744069e-05 5.75396367615e-05)
(0.000117953742065 -9.2764125983e-05 5.67076289942e-05)
(4.75992116894e-05 -0.000117092009501 8.14212628562e-05)
(-1.91731379309e-05 -0.000159068776701 3.99298722778e-05)
(-9.68824241818e-07 -0.000156215477495 2.41530374466e-06)
(-3.31045525632e-06 -0.000170312173044 1.93110274315e-05)
(-6.84188873051e-06 -0.000188990101336 3.39601609566e-05)
(6.03725626068e-07 -0.00020664546349 3.65847707295e-05)
(3.02064325521e-05 -0.000218693641705 3.01698826118e-05)
(8.06841008965e-05 -0.000223286038393 1.96009654827e-05)
(0.000152619220853 -0.000222028058665 8.82497106811e-06)
(0.00023623237789 -0.000215170215279 1.66146702909e-06)
(0.00032083375414 -0.000204015818705 -6.0767232636e-08)
(0.000404810663688 -0.000192357617719 5.61776543953e-06)
(0.000466342598186 -0.000188229824296 1.12789937764e-05)
(0.000495796581562 -0.000178341250452 2.78981576722e-05)
(0.000499685909402 -0.00016933836676 4.56244553386e-05)
(0.000470586621921 -0.000159156764779 6.22826665689e-05)
(0.000407007474422 -0.000147724028987 7.49276072473e-05)
(0.000319557671531 -0.000138592559192 7.87199304307e-05)
(0.000217297014086 -0.000133669313992 7.03751009598e-05)
(0.000111817552413 -0.000137590075151 5.26291962264e-05)
(4.45931074455e-05 -0.00015717737027 6.55747821476e-05)
(-2.08821307509e-05 -0.000202551869044 3.42890860509e-05)
(-4.40139336058e-06 -0.000217040637683 7.03710382019e-06)
(-2.12632233863e-05 -0.000244720404543 3.19495867782e-05)
(-3.44125122226e-05 -0.000274555378923 4.32792558199e-05)
(-3.02965920636e-05 -0.000300284944479 3.65441934015e-05)
(1.29392153308e-06 -0.000316069628173 2.09220843301e-05)
(5.88251433491e-05 -0.000321118795789 4.27841683212e-06)
(0.000139724683398 -0.000316883521081 -7.69681333419e-06)
(0.000235022354222 -0.000304692934053 -1.60406455116e-05)
(0.000330173811612 -0.00028996022341 -1.94057371382e-05)
(0.000418585583815 -0.000275175298485 -1.26028530743e-05)
(0.000486131127672 -0.000266378193399 -1.38157935347e-06)
(0.00052290679458 -0.000254557953164 1.77609639677e-05)
(0.000529257089684 -0.000242782521218 4.00296967879e-05)
(0.000499675517067 -0.000229233811151 6.22870738544e-05)
(0.000432453285794 -0.00021322105677 8.1215262235e-05)
(0.000337902918987 -0.000198302915789 8.99885409792e-05)
(0.000225094192395 -0.000186054461999 8.1859516243e-05)
(0.000107662254594 -0.000180640585944 5.50137453867e-05)
(4.17203445809e-05 -0.000189935981865 5.52531026849e-05)
(-2.13670983859e-05 -0.0002322610756 2.80366012432e-05)
(-1.09610571981e-05 -0.000265431988133 6.8361709176e-06)
(-4.03802124422e-05 -0.000303290361707 3.06910397981e-05)
(-6.01261158738e-05 -0.000338136472134 3.2482955849e-05)
(-5.61225501956e-05 -0.000365839553328 1.46143720868e-05)
(-1.85666777693e-05 -0.000380232355695 -9.51792557483e-06)
(4.86214437324e-05 -0.000381443012639 -3.04502110185e-05)
(0.000139870222675 -0.000372159936709 -4.55869751831e-05)
(0.000241634166383 -0.00035469745169 -5.26110604734e-05)
(0.000341708222596 -0.000337336889371 -5.15604036511e-05)
(0.000433546731764 -0.000320872096405 -4.22573211087e-05)
(0.000503683127838 -0.000309568598658 -2.83881457476e-05)
(0.000543715537507 -0.000298760018954 -6.01410262558e-06)
(0.000551537278618 -0.0002884934574 2.08835760474e-05)
(0.000522283903018 -0.000276397426198 4.82247984733e-05)
(0.000453143301444 -0.00026059761734 7.27404294779e-05)
(0.000352846981412 -0.000243799840918 8.81222005262e-05)
(0.000232040937122 -0.000228232009089 8.43917241521e-05)
(0.000104550167426 -0.000216259139097 5.45714791158e-05)
(3.85410740914e-05 -0.00020886462479 4.56180220117e-05)
(-1.98749164305e-05 -0.000245660596762 2.13916658855e-05)
(-1.75491268422e-05 -0.000291397120107 7.78953970966e-07)
(-5.57105515175e-05 -0.000333444507358 1.87348762008e-05)
(-7.90130449069e-05 -0.000367554886198 1.06528945386e-05)
(-7.2231420167e-05 -0.000391122185787 -1.64206347362e-05)
(-2.62661804502e-05 -0.000399120122228 -4.45282842245e-05)
(4.99944027045e-05 -0.000395139073525 -6.73135068994e-05)
(0.00014997535112 -0.000380805338758 -8.1082139046e-05)
(0.000256350691904 -0.000360093541764 -8.39093681827e-05)
(0.000357506952612 -0.000339774038594 -7.84967386224e-05)
(0.000447766230115 -0.000323174897194 -6.66409122215e-05)
(0.000516157830737 -0.000312554214806 -5.11794164474e-05)
(0.000555746451203 -0.000305306893587 -2.76501844539e-05)
(0.000563556647474 -0.000299370515317 -4.5808489757e-08)
(0.000534635488974 -0.000292037656154 2.89562164449e-05)
(0.00046501193544 -0.000279918949189 5.79544238649e-05)
(0.000361345678146 -0.000265925940377 7.82174006251e-05)
(0.000233857410054 -0.000250103228148 7.9519696518e-05)
(0.000102780266364 -0.000233948469186 5.16670692004e-05)
(3.71988206481e-05 -0.00021650570333 3.48349848216e-05)
(-1.94289170061e-05 -0.000241757002084 1.34276758189e-05)
(-2.24529370069e-05 -0.000290671731359 -9.20541811095e-06)
(-6.48369829586e-05 -0.000330065262524 1.62110643972e-06)
(-8.86908509583e-05 -0.000358582025001 -1.39337318796e-05)
(-7.67697498025e-05 -0.000374619002178 -4.59434370743e-05)
(-2.37973186998e-05 -0.000375963784747 -7.54472100057e-05)
(6.02901842476e-05 -0.000366902640762 -9.76224408295e-05)
(0.000166275568452 -0.000348717605582 -0.000107858235115)
(0.000274289221839 -0.000325712420183 -0.00010603562786)
(0.00037351018348 -0.000304581336886 -9.68341786982e-05)
(0.00045968027702 -0.000289592993208 -8.3269606909e-05)
(0.000523678171085 -0.000281374122196 -6.77780845323e-05)
(0.00056046547191 -0.000278994719311 -4.54570153394e-05)
(0.000567319387554 -0.000278624080712 -1.85980051756e-05)
(0.000538361936866 -0.000277267036395 1.04204717879e-05)
(0.000468966138113 -0.000271293201903 4.21464709565e-05)
(0.000362974799534 -0.00026277504944 6.54698428917e-05)
(0.000232781900608 -0.00024973886616 6.98494132181e-05)
(9.93489730574e-05 -0.000233481982031 4.41520025224e-05)
(3.43985254925e-05 -0.000217994994742 2.17340927976e-05)
(-1.80754639127e-05 -0.000217887170481 6.1195989439e-06)
(-2.58614717495e-05 -0.000262042205655 -2.06280020961e-05)
(-6.86900291456e-05 -0.000294248157624 -1.6115250083e-05)
(-9.06771428095e-05 -0.000315200888306 -3.62798751988e-05)
(-7.32481602918e-05 -0.000322559653509 -7.05675970321e-05)
(-1.34817870046e-05 -0.000317373576998 -9.90500308036e-05)
(7.69353237054e-05 -0.000304937289797 -0.00011860050361)
(0.000187072812186 -0.000285363411491 -0.000123283057689)
(0.000294646536439 -0.00026379864861 -0.000113643117255)
(0.0003896905461 -0.000247515389189 -9.403827152e-05)
(0.000470347415293 -0.00023440833637 -8.08848017492e-05)
(0.000526584654441 -0.000226167004756 -7.28972675605e-05)
(0.000558634446084 -0.000227424553327 -5.41222838931e-05)
(0.000563721522492 -0.000231631188934 -3.03393654173e-05)
(0.000534366709524 -0.000235466202092 -3.68830276027e-06)
(0.000465554555708 -0.000235661696022 2.76932419154e-05)
(0.000359468228195 -0.000232636983298 5.07719524498e-05)
(0.0002292230825 -0.000224984681018 5.86043079646e-05)
(9.48257039909e-05 -0.000212869397339 3.50192562883e-05)
(2.91608529241e-05 -0.000201132485355 1.27387872738e-05)
(-1.77832391471e-05 -0.000183003318756 1.82580667776e-06)
(-2.70979944205e-05 -0.00021148493043 -3.05207083545e-05)
(-6.90287387564e-05 -0.000231679567444 -2.99007339266e-05)
(-8.69015816833e-05 -0.000243022506748 -4.97848314687e-05)
(-6.33839215489e-05 -0.000243535385597 -8.69098517631e-05)
(5.61971698601e-07 -0.000235520190051 -0.00011332747755)
(9.53287671583e-05 -0.000223382245381 -0.000129426101615)
(0.000206710191893 -0.000206804684196 -0.000126525182642)
(0.000312674577284 -0.000189600252323 -0.00010771843605)
(0.000402001277508 -0.000174172129914 -9.59110265051e-05)
(0.000474187890756 -0.000165353921018 -8.10900891512e-05)
(0.000524656190534 -0.000161829413552 -7.03345984321e-05)
(0.000552720735617 -0.000165459519892 -5.45419591104e-05)
(0.000555359096629 -0.000171293077901 -3.4792129375e-05)
(0.000525459965672 -0.000177603277069 -1.14347528867e-05)
(0.000457963096006 -0.000182006294388 1.84466451881e-05)
(0.000352324106465 -0.000183513142275 4.13170614145e-05)
(0.000222218782304 -0.000181622411604 5.10103331692e-05)
(8.91966911564e-05 -0.000176740938145 2.86301965093e-05)
(2.42341625171e-05 -0.000172814061264 5.92222382174e-06)
(-1.5781746276e-05 -0.000135607026899 2.88068538643e-06)
(-2.46020124659e-05 -0.00014532421112 -3.63343416714e-05)
(-6.58024213699e-05 -0.000151277432034 -3.86033495434e-05)
(-8.07921260539e-05 -0.00015208333046 -5.67615157863e-05)
(-5.40315223015e-05 -0.000148408256007 -9.53902787621e-05)
(1.25122277297e-05 -0.000140788025646 -0.00011939275269)
(0.000109486143322 -0.000131964286645 -0.000132796010114)
(0.000218731907744 -0.00012182291583 -0.000120536792523)
(0.000325070305059 -0.000111326179179 -0.000108235643733)
(0.000409035796224 -0.000104056513057 -9.02310874154e-05)
(0.000476836270325 -9.99752932036e-05 -7.45649905408e-05)
(0.000522128275076 -9.75178724493e-05 -6.61735173592e-05)
(0.000544084309602 -0.000100108723371 -5.58904631184e-05)
(0.000547009858312 -0.000105289223529 -3.5234645378e-05)
(0.000516006446039 -0.000111452511513 -1.40081823583e-05)
(0.000449188254346 -0.000118247393617 1.43179426791e-05)
(0.000344611676747 -0.000123690114186 3.58779991412e-05)
(0.000215347398953 -0.000126591927317 4.23214570422e-05)
(8.40098227662e-05 -0.000129736263985 2.48526230474e-05)
(2.0969563773e-05 -0.00013624996483 1.23311372559e-06)
(-1.59414572128e-05 -7.81108549089e-05 1.99045249714e-06)
(-2.36724917917e-05 -7.11697656385e-05 -3.85795625359e-05)
(-6.19677341981e-05 -6.34802810001e-05 -4.15138502595e-05)
(-7.51170659158e-05 -5.52037374639e-05 -5.90337143992e-05)
(-4.73720533785e-05 -4.76847667449e-05 -9.61651777831e-05)
(1.94294068669e-05 -4.1724041002e-05 -0.000118696757652)
(0.000115853027135 -3.73831430304e-05 -0.000131163430303)
(0.000224243638799 -3.38715930332e-05 -0.00011850521554)
(0.000328836435192 -3.41610940842e-05 -0.000105677971199)
(0.00041045982642 -3.42081490989e-05 -8.70685490425e-05)
(0.000477212279216 -3.5596172423e-05 -7.1030777132e-05)
(0.000520237849394 -3.2522284201e-05 -6.39914685316e-05)
(0.000538376135951 -3.56576638018e-05 -5.45564814016e-05)
(0.000540678153618 -3.83212663892e-05 -3.28303909509e-05)
(0.000508621267003 -4.28569144838e-05 -1.1821349204e-05)
(0.00044138984403 -5.03030750844e-05 1.57446661872e-05)
(0.00033821410536 -5.7765594622e-05 3.67804654318e-05)
(0.000210336391886 -6.79934288257e-05 4.14744635151e-05)
(8.00473481176e-05 -7.78217892589e-05 2.46901703697e-05)
(1.87173262014e-05 -9.48543597448e-05 -2.02267061781e-06)
(-1.82450141819e-05 -2.57073603728e-05 -3.59623795904e-07)
(-2.449731244e-05 -2.00723017345e-07 -3.70639931076e-05)
(-5.81270624188e-05 2.04235572307e-05 -3.78914545278e-05)
(-7.04507732668e-05 3.7424297032e-05 -5.54601893005e-05)
(-4.3851925396e-05 4.85431324501e-05 -8.88977990742e-05)
(2.09938994406e-05 5.32540113607e-05 -0.000111035606224)
(0.000114329657878 5.36549839363e-05 -0.000124325015934)
(0.000222717625428 4.96831813485e-05 -0.000119477375591)
(0.00032393864997 4.26600906669e-05 -0.00010163534762)
(0.000405397318306 3.51887418935e-05 -8.66144148234e-05)
(0.000475494747493 3.13994993737e-05 -7.03746786307e-05)
(0.000518713414051 2.63773736642e-05 -6.50944767303e-05)
(0.000537487282332 2.76132272461e-05 -4.55648684295e-05)
(0.00053666834709 2.53731584475e-05 -2.68461770374e-05)
(0.000504453149251 2.13641324286e-05 -5.36417853456e-06)
(0.000436702999858 1.24989131804e-05 2.12073062559e-05)
(0.000331637311558 2.31096764057e-06 4.11911401047e-05)
(0.000205166944397 -1.23783181436e-05 4.80621133449e-05)
(7.82203547972e-05 -2.84621741506e-05 2.72200564309e-05)
(1.76469552098e-05 -5.38942668702e-05 -1.8072068952e-06)
(-1.87213974821e-05 1.8227667604e-05 2.36545776048e-06)
(-2.23272265689e-05 5.93751560232e-05 -3.10391099991e-05)
(-5.24524624805e-05 9.05309286082e-05 -2.88796960926e-05)
(-6.47207923369e-05 0.000114944121224 -4.53395321183e-05)
(-4.14792485122e-05 0.000130861272293 -7.3826360138e-05)
(1.94743626626e-05 0.000136180896613 -9.56192810913e-05)
(0.000107464217069 0.000134583892373 -0.000110352895031)
(0.000212651688718 0.000125953208564 -0.000110917642103)
(0.000312736942846 0.000113754402508 -9.88370463084e-05)
(0.000398331496141 0.000102485049364 -8.26074637881e-05)
(0.000465848996268 9.38100500068e-05 -7.12393096896e-05)
(0.000513402966655 8.4857887741e-05 -5.52153156875e-05)
(0.000536143811999 8.40295262769e-05 -3.77087975801e-05)
(0.000533239892784 8.11412746368e-05 -1.69344855435e-05)
(0.000499505308291 7.5271187631e-05 6.19739282337e-06)
(0.000430383766449 6.34252403895e-05 3.23497518597e-05)
(0.000327097523418 4.95358865034e-05 5.16263298273e-05)
(0.000203044966503 3.26200842494e-05 5.81366348936e-05)
(7.72315378716e-05 1.11275753858e-05 3.26899707903e-05)
(1.81126852466e-05 -1.91116301353e-05 9.48305062658e-08)
(-1.978673068e-05 5.43249610166e-05 7.91818477258e-06)
(-1.88987566198e-05 0.00010160747223 -2.24058998438e-05)
(-4.45126572961e-05 0.000138940283872 -1.5577730384e-05)
(-5.56675616236e-05 0.000168735113614 -2.68121806495e-05)
(-3.60936274568e-05 0.000189488490676 -5.16226800973e-05)
(1.8726065375e-05 0.000197601577946 -7.28422118222e-05)
(9.95776978876e-05 0.000196353590523 -8.86055671092e-05)
(0.000199109423479 0.000186348691393 -9.3432840049e-05)
(0.00029735844544 0.000170626641863 -8.72689884916e-05)
(0.000384372215242 0.000155151626666 -7.54740828441e-05)
(0.00045504513315 0.000142983619185 -6.1038426116e-05)
(0.000504934272018 0.000133487671 -4.5438927195e-05)
(0.000529916817032 0.00012824808119 -2.50550570409e-05)
(0.000526464545369 0.000121737221343 -2.76902450358e-06)
(0.000491758237546 0.000112393932468 2.11433729625e-05)
(0.000422300957772 9.74704660007e-05 4.57239542494e-05)
(0.000320573069753 8.01659911711e-05 6.23936582873e-05)
(0.000199451672489 6.03218312707e-05 6.62405376884e-05)
(7.69041863637e-05 3.71337291973e-05 3.88131837451e-05)
(2.0065269916e-05 6.23979731245e-06 3.82994026751e-06)
(-2.08607421129e-05 7.79654442698e-05 1.44676337264e-05)
(-1.35637099338e-05 0.000122595914062 -1.45288578888e-05)
(-3.29702639027e-05 0.000161375614575 -1.86758434537e-06)
(-4.19410190116e-05 0.000193991121841 -5.90243492091e-06)
(-2.60557194592e-05 0.000218376601541 -2.50024834778e-05)
(2.23364446057e-05 0.000229161393573 -4.47573480767e-05)
(9.47682267256e-05 0.000229488667881 -6.06045973479e-05)
(0.000187051564183 0.000220160367658 -6.8694494748e-05)
(0.000281715942305 0.000203952023816 -6.6966410826e-05)
(0.000368484782137 0.000186693819894 -5.85481140254e-05)
(0.000440528213699 0.000171953081658 -4.56186169176e-05)
(0.000492859703483 0.000159989256207 -3.03476963792e-05)
(0.000518802501057 0.000150565169262 -6.8830357592e-06)
(0.000514356956869 0.00014027817418 1.48475588002e-05)
(0.000479075312094 0.000127268543253 3.77905590203e-05)
(0.000409500944855 0.000109868446028 5.94573718695e-05)
(0.000311531160391 9.06291044746e-05 7.50525489382e-05)
(0.000195218767242 7.08165879741e-05 7.34990277455e-05)
(7.70272014806e-05 5.06223210303e-05 4.4022393451e-05)
(2.23448086151e-05 2.19303027275e-05 9.84970161749e-06)
(-2.22805381597e-05 8.56802009724e-05 2.02407167947e-05)
(-7.34591004249e-06 0.000119994491583 -9.10628909914e-06)
(-1.76669779366e-05 0.000154895377544 8.40689637891e-06)
(-2.24759263196e-05 0.000186427361971 1.28665787146e-05)
(-8.72955065064e-06 0.00021164173861 1.83511902476e-06)
(3.27378897194e-05 0.000224537798527 -1.37984696171e-05)
(9.64825284905e-05 0.000226163576335 -2.75963163653e-05)
(0.000179718484083 0.000218701731539 -3.6881233719e-05)
(0.00026840492297 0.000203778415169 -3.83113835946e-05)
(0.000352350116774 0.000186549324333 -3.29889969857e-05)
(0.000423452980456 0.000170732824813 -2.20702112037e-05)
(0.000475247641947 0.000156658373243 -6.838191997e-06)
(0.000500695609597 0.000144656454987 1.2518002299e-05)
(0.00049570678761 0.000131112973744 3.39416038667e-05)
(0.000460304427401 0.000116127367385 5.37418312701e-05)
(0.000392779349831 9.83824364361e-05 7.27526163626e-05)
(0.000299282044071 8.00804323603e-05 8.2753788232e-05)
(0.000190206797708 6.34490541001e-05 7.72067684795e-05)
(7.60035872877e-05 4.84824452536e-05 4.69003068513e-05)
(2.18678367585e-05 2.99640452039e-05 2.03977603815e-05)
(-2.20388848413e-05 8.14028093416e-05 2.48310706752e-05)
(-2.26385171832e-06 0.000100064693322 -8.34538442126e-06)
(-1.61282092085e-06 0.000125966891978 1.02945922171e-05)
(-4.39996353578e-07 0.000151858359454 2.22911980919e-05)
(1.33604244579e-05 0.000173281028064 2.03152566847e-05)
(4.91578439807e-05 0.000184791958676 1.10462043123e-05)
(0.000104246662826 0.000186121814757 2.50994818728e-07)
(0.000178522212019 0.000179685399213 -8.75146733746e-06)
(0.000259656343847 0.000166073894602 -1.22256635653e-05)
(0.000338220666494 0.00015012925415 -9.49999192899e-06)
(0.000405713054733 0.000134881114887 -1.09201934511e-06)
(0.000455967209452 0.000120495092057 1.20468540808e-05)
(0.000479038691047 0.000109149327345 2.63139962647e-05)
(0.000472887669861 9.66019396056e-05 4.69069332542e-05)
(0.000438889817181 8.32720472462e-05 6.41789978638e-05)
(0.00037361392061 6.78493882053e-05 7.76002489711e-05)
(0.000286948654582 5.43903126733e-05 8.28401549025e-05)
(0.000185434678737 4.35166900481e-05 7.41216953993e-05)
(7.98833386625e-05 3.67143242273e-05 4.69332625726e-05)
(2.53793600858e-05 3.63129061638e-05 2.77699730597e-05)
(-1.99864821048e-05 6.55319182976e-05 2.78136946713e-05)
(-5.16108792235e-08 7.02700317852e-05 -1.21291049483e-05)
(1.17701127627e-05 8.35933151067e-05 2.61475749478e-07)
(2.090544779e-05 9.90742601452e-05 1.4571960212e-05)
(3.70629741986e-05 0.000112790995017 1.95717367492e-05)
(7.05965785375e-05 0.000118788149313 1.73314875674e-05)
(0.000118936258452 0.000118110334472 1.13171112049e-05)
(0.000184241687437 0.000112528008615 4.01852731013e-06)
(0.000256387849993 0.000101018443719 8.23964441867e-07)
(0.000327224928484 8.7973814706e-05 2.42477103738e-06)
(0.000387921588556 7.54847963422e-05 8.84019673957e-06)
(0.000434263859442 6.31103198211e-05 1.97421812528e-05)
(0.000455355189656 5.47529145164e-05 3.10655687246e-05)
(0.000447233544557 4.58036521331e-05 4.65571337698e-05)
(0.000414501490757 3.61826401281e-05 5.96247851738e-05)
(0.000354236987746 2.67220856478e-05 6.85676221265e-05)
(0.000274853863992 2.0193237798e-05 7.06554398706e-05)
(0.000182984239406 1.79359478995e-05 6.2755551137e-05)
(8.66967289684e-05 2.16887123109e-05 4.34109896935e-05)
(2.9781264925e-05 3.37564784136e-05 3.53058438458e-05)
(-1.85170633984e-05 4.39837300576e-05 3.44996593788e-05)
(-4.815138976e-06 3.96596092795e-05 -1.16656054178e-05)
(1.61799569671e-05 3.96629938273e-05 -1.61446116752e-05)
(3.57311591107e-05 4.10551851829e-05 -1.01944599566e-05)
(5.83756320175e-05 4.25441332125e-05 -6.42297785252e-06)
(9.44330813353e-05 4.316743215e-05 -5.04386724942e-06)
(0.000139096885506 3.96048265132e-05 -7.06851795332e-06)
(0.000197280078393 3.48301941185e-05 -1.15888103664e-05)
(0.000259266469063 2.67879295033e-05 -1.28752515597e-05)
(0.000319481136466 1.86739486093e-05 -1.1200775033e-05)
(0.000370141832723 1.07709491558e-05 -6.53797510846e-06)
(0.000410206704711 3.65723220588e-06 1.91949194783e-06)
(0.000427585994104 -3.6491242514e-06 9.20881043586e-06)
(0.000417452177379 -7.39508054867e-06 2.16327443593e-05)
(0.000388008133611 -1.1611457824e-05 3.20865976146e-05)
(0.000334363637095 -1.45500011816e-05 3.99165408205e-05)
(0.000264796888971 -1.23402021133e-05 4.40038113816e-05)
(0.000183782448405 -5.85625134008e-06 4.29347902702e-05)
(9.65842214417e-05 7.33933085865e-06 3.90526756399e-05)
(3.45974665137e-05 3.02952764671e-05 4.60275361301e-05)
(-2.05904661762e-05 2.31390111612e-05 4.59978004421e-05)
(-2.2694953327e-05 2.50413909255e-05 2.41780744754e-05)
(1.17699961056e-06 2.56013427386e-05 1.10500842652e-05)
(3.10348200311e-05 2.55616135332e-05 4.96834994039e-06)
(6.92942948039e-05 2.44210187614e-05 7.94379262665e-07)
(0.000114748628309 2.28596685563e-05 -3.48572392603e-06)
(0.000155413195658 1.9052003613e-05 -7.62619937155e-06)
(0.000208794635482 1.50744401254e-05 -1.17876659632e-05)
(0.00025904736199 9.44340623066e-06 -1.38020589887e-05)
(0.000305585916559 4.52892551013e-06 -1.46639914858e-05)
(0.000343968112279 8.42764059307e-07 -1.35387884176e-05)
(0.000371747686201 -1.17194560741e-06 -1.06891037166e-05)
(0.000383822767161 -4.74996315906e-06 -5.68268575654e-06)
(0.000375016645821 -4.12208376666e-06 2.95683779165e-06)
(0.000349998955456 -3.98139855841e-06 1.40862826778e-05)
(0.000308475511033 -3.47843116831e-06 2.47902579344e-05)
(0.000254858077946 -1.43017389862e-06 3.3745542921e-05)
(0.00018859876334 2.0456181177e-06 4.1042459668e-05)
(0.00011406489072 8.27664696439e-06 4.92604273946e-05)
(4.41297448246e-05 2.00353494032e-05 5.8359169871e-05)
(1.72421784306e-06 -2.34233840723e-05 0.000121580240907)
(6.61502803624e-06 -1.41770422136e-05 8.23283096581e-05)
(3.3424700714e-06 -1.19445266409e-05 6.56962020203e-05)
(5.96620629783e-07 -1.67535159795e-05 5.71975502327e-05)
(1.19688503381e-05 -2.39146250055e-05 4.64170378814e-05)
(4.49600943908e-05 -2.87297153254e-05 3.5068829471e-05)
(9.74262136146e-05 -3.07611329739e-05 2.241483537e-05)
(0.000167672335959 -3.02468774146e-05 1.21935700204e-05)
(0.000245396144394 -2.81528106802e-05 8.99559696374e-06)
(0.000324113028354 -2.54791872077e-05 1.25545398102e-05)
(0.000395456077424 -2.34360084691e-05 2.39396259129e-05)
(0.000452266345801 -2.06062505836e-05 4.09046560594e-05)
(0.00048727389427 -1.92252116843e-05 6.83141795639e-05)
(0.000490679532208 -1.81995291684e-05 0.000101222379183)
(0.00046232958034 -1.54102914069e-05 0.000133878994278)
(0.000403416599655 -1.10454019234e-05 0.000164873431622)
(0.000317549011291 -7.12848256281e-06 0.000188139644964)
(0.000213787463164 -6.41011558e-06 0.000203419944383)
(0.00010927215058 -1.6714853113e-05 0.000219134128627)
(3.16099740255e-05 -4.05464948907e-05 0.00023996477577)
(2.2638789904e-05 -7.97785368823e-05 9.05183964753e-05)
(8.77223645308e-06 -9.50411691816e-05 9.110859201e-05)
(-2.44112199765e-05 -0.000116129740358 0.000111691947665)
(-4.59189048598e-05 -0.00013926311983 0.000120956407485)
(-4.43802029588e-05 -0.000160372589078 0.000114587961934)
(-1.35557731445e-05 -0.000174435750813 9.65796929284e-05)
(4.52079993693e-05 -0.000180935470866 7.32769703359e-05)
(0.00012717611511 -0.000179739305486 5.18692258362e-05)
(0.000223239315061 -0.000174591154873 3.92333298783e-05)
(0.000323388779994 -0.000167718699491 3.81031157802e-05)
(0.000416293524497 -0.000161055029472 5.14564865949e-05)
(0.000491895170301 -0.000151862218831 6.6959832183e-05)
(0.000539904512651 -0.00014506346798 0.000103177790532)
(0.000552305123915 -0.000137917188843 0.0001425234549)
(0.000527834902374 -0.000126966425028 0.000180852401372)
(0.000467111247328 -0.000112951165366 0.000212542494933)
(0.000374851656142 -9.7817917269e-05 0.000231425618959)
(0.000259690044868 -8.62902931998e-05 0.00023223022115)
(0.000138452088083 -8.65859160011e-05 0.00021699531416)
(3.66270736588e-05 -0.000104407671879 0.000200814273668)
(2.85575276277e-05 -0.00015593935957 7.44175311307e-05)
(-5.71252751192e-06 -0.000199561610641 0.000111770892962)
(-5.34615110938e-05 -0.000235566600959 0.000145097024246)
(-8.06606684731e-05 -0.000268157598651 0.000150121013266)
(-8.05954591673e-05 -0.00029534644696 0.000131809625139)
(-4.7525830979e-05 -0.000314069671157 0.00010105136472)
(1.69943250536e-05 -0.000322907490897 6.74393478535e-05)
(0.000106166686619 -0.00032246619945 3.91091654772e-05)
(0.000210521402008 -0.00031599714202 2.275580272e-05)
(0.000319940478198 -0.000307604370604 2.06686188725e-05)
(0.000422328934734 -0.000296840281124 3.48770948221e-05)
(0.000506651230856 -0.000284723299056 5.66851022709e-05)
(0.000561972272045 -0.000272109503478 9.97429930749e-05)
(0.000580441185433 -0.000257555465305 0.000146024780637)
(0.000560568642427 -0.000239680299451 0.000192972589077)
(0.00050172105575 -0.000219033276571 0.00023289167288)
(0.000409041706072 -0.000196994254743 0.000257604057279)
(0.000289025094975 -0.000176744201088 0.000257137156505)
(0.000157082906014 -0.000164166487467 0.000225809324538)
(3.86891530457e-05 -0.000159178288581 0.000175172677449)
(2.43773214239e-05 -0.000230153601784 6.25564359176e-05)
(-2.70528091221e-05 -0.000291296627569 0.000116978254801)
(-8.3931929903e-05 -0.000332375816456 0.00014483946206)
(-0.000114116444708 -0.000367788993175 0.000133732875081)
(-0.000112101451946 -0.000396596908028 9.8530070201e-05)
(-7.34007436553e-05 -0.000416256073293 5.29025512781e-05)
(-1.4333065787e-06 -0.000425682388399 8.89479020915e-06)
(9.52638591208e-05 -0.000425948103012 -2.43047904702e-05)
(0.000204632903795 -0.000419170087475 -3.96830005781e-05)
(0.000319118794741 -0.000408151227451 -4.02625032321e-05)
(0.000427485246441 -0.000395325437752 -2.28266163688e-05)
(0.000516547209632 -0.000381534597239 6.60757094091e-06)
(0.000576637140015 -0.000367236838928 5.33706205336e-05)
(0.000600298289057 -0.000349116385269 0.000110226421871)
(0.000584809283241 -0.000328314644077 0.000167169010878)
(0.000529035510706 -0.000305399599369 0.000218154851507)
(0.000436223478387 -0.000280210522985 0.000253528360573)
(0.000312862711635 -0.00025585660439 0.000261957348178)
(0.000173031931878 -0.000235368090554 0.000226468611579)
(4.28451191871e-05 -0.000213437492152 0.000155723286547)
(1.74059990723e-05 -0.000285214403502 4.53016068193e-05)
(-4.84840568523e-05 -0.000355354241324 0.00010155643543)
(-0.000111626458428 -0.00039653657611 0.000117088107597)
(-0.000143746804939 -0.000429346583304 8.86310809409e-05)
(-0.000138492976752 -0.000454862367239 3.54660167091e-05)
(-9.36619035592e-05 -0.000471536271784 -2.3694747689e-05)
(-1.48563677915e-05 -0.000479237309434 -7.48141395502e-05)
(8.86368588836e-05 -0.000478324072041 -0.000109274690374)
(0.000205356799429 -0.000470685008789 -0.000123551451127)
(0.000324541971289 -0.000457415602235 -0.000119313166236)
(0.000434446715722 -0.000443817282855 -9.73552796699e-05)
(0.000525424839987 -0.00043020048285 -6.2054547662e-05)
(0.000589401713636 -0.000415972684102 -1.23656745921e-05)
(0.000617188240462 -0.000399800343525 5.44399130244e-05)
(0.000603907872676 -0.000381252297956 0.000118697810519)
(0.000550338842203 -0.000359781098424 0.000180768607226)
(0.000458534960301 -0.000335864315217 0.000227380430181)
(0.000331906981493 -0.000310884789311 0.000245447528218)
(0.000186546745817 -0.000286859807847 0.000213818199682)
(4.76847517341e-05 -0.000253419482366 0.000134002955893)
(1.19488660944e-05 -0.000311575883689 2.26123338063e-05)
(-6.43790628124e-05 -0.000382786469073 7.13512914e-05)
(-0.000132741389031 -0.000420482002037 7.29961391568e-05)
(-0.000166278753627 -0.000447312945449 2.8817674216e-05)
(-0.000157823033264 -0.000466734970077 -3.9267921135e-05)
(-0.000107203491749 -0.000478642683975 -0.000106869362908)
(-2.12817083408e-05 -0.000482139540542 -0.000160298332079)
(8.91187339686e-05 -0.000478026937952 -0.000192189955447)
(0.000211139911513 -0.000467927530356 -0.000201425648949)
(0.000332946967719 -0.00045480276138 -0.000191373917089)
(0.000443654235784 -0.000441526108489 -0.000165062101899)