/*--------------------------------*- C++ -*----------------------------------*\
| =========                 |                                                 |
| \\      /  F ield         | OpenFOAM: The Open Source CFD Toolbox           |
|  \\    /   O peration     | Version:  3.0.1                                 |
|   \\  /    A nd           | Web:      www.OpenFOAM.org                      |
|    \\/     M anipulation  |                                                 |
\*---------------------------------------------------------------------------*/
FoamFile
{
    version     2.0;
    format      ascii;
    class       surfaceScalarField;
    location    "7.7";
    object      meshPhiCN_0;
}
// * * * * * * * * * * * * * * * * * * * * * * * * * * * * * * * * * * * * * //

dimensions      [0 3 -1 0 0 0 0];

internalField   nonuniform List<scalar> 
22672
(
0
0
0
0
0
0
0
0
0
0
0
0
0
0
0
0
0
0
0
0
0
0
0
0
0
0
0
0
0
0
0
0
0
0
0
0
0
0
0
0
0
0
0
0
0
0
0
0
0
0
0
0
0
0
0
0
0
0
0
0
0
0
0
0
0
0
0
0
0
0
0
0
0
0
0
0
0
0
0
0
0
0
0
0
0
0
0
0
0
0
0
0
0
0
0
0
0
0
0
0
0
0
0
0
0
0
0
0
0
0
0
0
0
0
0
0
0
0
0
0
0
0
0
0
0
0
0
0
0
0
0
0
0
0
0
0
0
0
0
0
0
0
0
0
0
0
0
0
0
0
0
0
0
0
0
0
0
0
0
0
0
0
0
0
0
0
0
0
0
0
0
0
0
0
0
0
0
0
0
0
0
0
0
0
0
0
0
0
0
0
0
0
0
0
0
0
0
0
0
0
0
0
0
0
0
0
0
0
0
0
0
0
0
0
0
0
0
0
0
0
0
0
0
0
0
0
0
0
0
0
0
0
0
0
0
0
0
0
0
0
0
0
0
0
0
0
0
0
0
0
0
0
0
0
0
0
0
0
0
0
0
0
0
0
0
0
0
0
0
0
0
0
0
0
0
0
0
0
0
0
0
0
0
0
0
0
0
0
0
0
0
0
0
0
0
0
0
0
0
0
0
0
0
0
0
0
0
0
0
0
0
0
0
0
0
0
0
0
0
0
0
0
0
0
0
0
0
0
0
0
0
0
0
0
0
0
0
0
0
0
0
0
0
0
0
0
0
0
0
0
0
0
0
0
0
0
0
0
0
0
0
0
0
0
0
0
0
0
0
0
0
0
0
0
0
0
0
0
0
0
0
0
0
0
0
0
0
0
0
0
0
0
0
0
0
0
0
0
0
0
0
0
0
0
0
0
0
0
0
0
0
0
0
0
0
0
0
0
0
0
0
0
0
0
0
0
0
0
0
0
0
0
0
0
0
0
0
0
0
0
0
0
0
0
0
0
0
0
0
0
0
0
0
0
0
0
0
0
0
0
0
0
0
0
0
0
0
0
0
0
0
0
0
0
0
0
0
0
0
0
0
0
0
0
0
0
0
0
0
0
0
0
0
0
0
0
0
0
0
0
0
0
0
0
0
0
0
0
0
0
0
0
0
0
0
0
0
0
0
0
0
0
0
0
0
0
0
0
0
0
0
0
0
0
0
0
0
0
0
0
0
0
0
0
0
0
0
0
0
0
0
0
0
0
0
0
0
0
0
0
0
0
0
0
0
0
0
0
0
0
0
0
0
0
0
0
0
0
0
0
0
0
0
0
0
0
0
0
0
0
0
0
0
0
0
0
0
0
0
0
0
0
0
0
0
0
0
0
0
0
0
0
0
0
0
0
0
0
0
0
0
0
0
0
0
0
0
0
0
0
0
0
0
0
0
0
0
0
0
0
0
0
0
0
0
0
0
0
0
0
0
0
0
0
0
0
0
0
0
0
0
0
0
0
0
0
0
0
0
0
0
0
0
0
0
0
0
0
0
0
0
0
0
0
0
0
0
0
0
0
0
0
0
0
0
0
0
0
0
0
0
0
0
0
0
0
0
0
0
0
0
0
0
0
0
0
0
0
0
0
0
0
0
0
0
0
0
0
0
0
0
0
0
0
0
0
0
0
0
0
0
0
0
0
0
0
0
0
0
0
0
0
0
0
0
0
0
0
0
0
0
0
0
0
0
0
0
0
0
0
0
0
0
0
0
0
0
0
0
0
0
0
0
0
0
0
0
0
0
0
0
0
0
0
0
0
0
0
0
0
0
0
0
0
0
0
0
0
0
0
0
0
0
0
0
0
0
0
0
0
0
0
0
0
0
0
0
0
0
0
0
0
0
0
0
0
0
0
0
0
0
0
0
0
0
0
0
0
0
0
0
0
0
0
0
0
0
0
0
0
0
0
0
0
0
0
0
0
0
0
0
0
0
0
0
0
0
0
0
0
0
0
0
0
0
0
0
0
0
0
0
0
0
0
0
0
0
0
0
0
0
0
0
0
0
0
0
0
0
0
0
0
0
0
0
0
0
0
0
0
0
0
0
0
0
0
0
0
0
0
0
0
0
0
0
0
0
0
0
0
0
0
0
0
0
0
0
0
0
0
0
0
0
0
0
0
0
0
0
0
0
0
0
0
0
0
0
0
0
0
0
0
0
0
0
0
0
0
0
0
0
0
0
0
0
0
0
0
0
0
0
0
0
0
0
0
0
0
0
0
0
0
0
0
0
0
0
0
0
0
0
0
0
0
0
0
0
0
0
0
0
0
0
0
0
0
0
0
0
0
0
0
0
0
0
0
0
0
0
0
0
0
0
0
0
0
0
0
0
0
0
0
0
0
0
0
0
0
0
0
0
0
0
0
0
0
0
0
0
0
0
0
0
0
0
0
0
0
0
0
0
0
0
0
0
0
0
0
0
0
0
0
0
0
0
0
0
0
0
0
0
0
0
0
0
0
0
0
0
0
0
0
0
0
0
0
0
0
0
0
0
0
0
0
0
0
0
0
0
0
0
0
0
0
0
0
0
0
0
0
0
0
0
0
0
0
0
0
0
0
0
0
0
0
0
0
0
0
0
0
0
0
0
0
0
0
0
0
0
0
0
0
0
0
0
0
0
0
0
0
0
0
0
0
0
0
0
0
0
0
0
0
0
0
0
0
0
0
0
0
0
0
0
0
0
0
0
0
0
0
0
0
0
0
0
0
0
0
0
0
0
0
0
0
0
0
0
0
0
0
0
0
0
0
0
0
0
0
0
0
0
0
0
0
0
0
0
0
0
0
0
0
0
0
0
0
0
0
0
0
0
0
0
0
0
0
0
0
0
0
0
0
0
0
0
0
0
0
0
0
0
0
0
0
0
0
0
0
0
0
0
0
0
0
0
0
0
0
0
0
0
0
0
0
0
0
0
0
0
0
0
0
0
0
0
0
0
0
0
0
0
0
0
0
0
0
0
0
0
0
0
0
0
0
0
0
0
0
0
0
0
0
0
0
0
0
0
0
0
0
0
0
0
0
0
0
0
0
0
0
0
0
0
0
0
0
0
0
0
0
0
0
0
0
0
0
0
0
0
0
0
0
0
0
0
0
0
0
0
0
0
0
0
0
0
0
0
0
0
0
0
0
0
0
0
0
0
0
0
0
0
0
0
0
0
0
0
0
0
0
0
0
0
0
0
0
0
0
0
0
0
0
0
0
0
0
0
0
0
0
0
0
0
0
0
0
0
0
0
0
0
0
0
0
0
0
0
0
0
0
0
0
0
0
0
0
0
0
0
0
0
0
0
0
0
0
0
0
0
0
0
0
0
0
0
0
0
0
0
0
0
0
0
0
0
0
0
0
0
0
0
0
0
0
0
0
0
0
0
0
0
0
0
0
0
0
0
0
0
0
0
0
0
0
0
0
0
0
0
0
0
0
0
0
0
0
0
0
0
0
0
0
0
0
0
0
0
0
0
0
0
0
0
0
0
0
0
0
0
0
0
0
0
0
0
0
0
0
0
0
0
0
0
0
0
0
0
0
0
0
0
0
0
0
0
0
0
0
0
0
0
0
0
0
0
0
0
0
0
0
0
0
0
0
0
0
0
0
0
0
0
0
0
0
0
0
0
0
0
0
0
0
0
0
0
0
0
0
0
0
0
0
0
0
0
0
0
0
0
0
0
0
0
0
0
0
0
0
0
0
0
0
0
0
0
0
0
0
0
0
0
0
0
0
0
0
0
0
0
0
0
0
0
0
0
0
0
0
0
0
0
0
0
0
0
0
0
0
0
0
0
0
0
0
0
0
0
0
0
0
0
0
0
0
0
0
0
0
0
0
0
0
0
0
0
0
0
0
0
0
0
0
0
0
0
0
0
0
0
0
0
0
0
0
0
0
0
0
0
0
0
0
0
0
0
0
0
0
0
0
0
0
0
0
0
0
0
0
0
0
0
0
0
0
0
0
0
0
0
0
0
0
0
0
0
0
0
0
0
0
0
0
0
0
0
0
0
0
0
0
0
0
0
0
0
0
0
0
0
0
0
0
0
0
0
0
0
0
0
0
0
0
0
0
0
0
0
0
0
0
0
0
0
0
0
0
0
0
0
0
0
0
0
0
0
0
0
0
0
0
0
0
0
0
0
0
0
0
0
0
0
0
0
0
0
0
0
0
0
0
0
0
0
0
0
0
0
0
0
0
0
0
0
0
0
0
0
0
0
0
0
0
0
0
0
0
0
0
0
0
0
0
0
0
0
0
0
0
0
0
0
0
0
0
0
0
0
0
0
0
0
0
0
0
0
0
0
0
0
0
0
0
0
0
0
0
0
0
0
0
0
0
0
0
0
0
0
0
0
0
0
0
0
0
0
0
0
0
0
0
0
0
0
0
0
0
0
0
0
0
0
0
0
0
0
0
0
0
0
0
0
0
0
0
0
0
0
0
0
0
0
0
0
0
0
0
0
0
0
0
0
0
0
0
0
0
0
0
0
0
0
0
0
0
0
0
0
0
0
0
0
0
0
0
0
0
0
0
0
0
0
0
0
0
0
0
0
0
0
0
0
0
0
0
0
0
0
0
0
0
0
0
0
0
0
0
0
0
0
0
0
0
0
0
0
0
0
0
0
0
0
0
0
0
0
0
0
0
0
0
0
0
0
0
0
0
0
0
0
0
0
0
0
0
0
0
0
0
0
0
0
0
0
0
0
0
0
0
0
0
0
0
0
0
0
0
0
0
0
0
0
0
0
0
0
0
0
0
0
0
0
0
0
0
0
0
0
0
0
0
0
0
0
0
0
0
0
0
0
0
0
0
0
0
0
0
0
0
0
0
0
0
0
0
0
0
0
0
0
0
0
0
0
0
0
0
0
0
0
0
0
0
0
0
0
0
0
0
0
0
0
0
0
0
0
0
0
0
0
0
0
0
0
0
0
0
0
0
0
0
0
0
0
0
0
0
0
0
0
0
0
0
0
0
0
0
0
0
0
0
0
0
0
0
0
0
0
0
0
0
0
0
0
0
0
0
0
0
0
0
0
0
0
0
0
0
0
0
0
0
0
0
0
0
0
0
0
0
0
0
0
0
0
0
0
0
0
0
0
0
0
0
0
0
0
0
0
0
0
0
0
0
0
0
0
0
0
0
0
0
0
0
0
0
0
0
0
0
0
0
0
0
0
0
0
0
0
0
0
0
0
0
0
0
0
0
0
0
0
0
0
0
0
0
0
0
0
0
0
0
0
0
0
0
0
0
0
0
0
0
0
0
0
0
0
0
0
0
0
0
0
0
0
0
0
0
0
0
0
0
0
0
0
0
0
0
0
0
0
0
0
0
0
0
0
0
0
0
0
0
0
0
0
0
0
0
0
0
0
0
0
0
0
0
0
0
0
0
0
0
0
0
0
0
0
0
0
0
0
0
0
0
0
0
0
0
0
0
0
0
0
0
0
0
0
0
0
0
0
0
0
0
0
0
0
0
0
0
0
0
0
0
0
0
0
0
0
0
0
0
0
0
0
0
0
0
0
0
0
0
0
0
0
0
0
0
0
0
0
0
0
0
0
0
0
0
0
0
0
0
0
0
0
0
0
0
0
0
0
0
0
0
0
0
0
0
0
0
0
0
0
0
0
0
0
0
0
0
0
0
0
0
0
0
0
0
0
0
0
0
0
0
0
0
0
0
0
0
0
0
0
0
0
0
0
0
0
0
0
0
0
0
0
0
0
0
0
0
0
0
0
0
0
0
0
0
0
0
0
0
0
0
0
0
0
0
0
0
0
0
0
0
0
0
8.57401457234e-09
-4.31550507243e-09
-8.27428096904e-10
1.54163849776e-08
-1.19853916646e-08
-2.05392795887e-09
1.54134487014e-08
-1.52386303841e-08
-2.18987014571e-09
1.54105122948e-08
-1.51051385832e-08
-1.67325908965e-09
1.54075759581e-08
-1.49714959511e-08
-1.15679886204e-09
1.54046396542e-08
-1.48377024432e-08
-6.40489520897e-10
8.56854960618e-09
-1.14351559819e-08
-1.53285084375e-10
0
-4.06491999307e-09
3.71949128046e-11
0
0
0
0
0
0
0
0
0
0
0
0
0
0
0
0
0
0
0
0
0
0
0
0
0
0
0
0
0
0
0
0
2.42836104727e-08
-1.2414680257e-08
-2.56220486976e-09
7.31359223308e-08
-4.50926173268e-08
-9.13310910415e-09
9.81218179421e-08
-7.32022909015e-08
-1.36123069964e-08
9.80326355636e-08
-8.08768457275e-08
-1.24696125889e-08
9.79434535327e-08
-8.0185349973e-08
-9.19241865125e-09
9.7854271681e-08
-7.94895971128e-08
-5.9193310286e-09
9.77650901471e-08
-7.87895872017e-08
-2.650349866e-09
7.28135608987e-08
-6.92158128674e-08
3.61398380594e-10
2.42246194383e-08
-4.13156757684e-08
1.57074280382e-09
0
-1.13542459214e-08
7.14119639644e-10
0
0
0
0
0
0
0
0
0
0
0
0
0
0
0
0
0
0
0
0
0
0
0
0
0
0
8.50121521456e-09
-4.39167748015e-09
-9.70677157549e-10
8.84376639247e-08
-3.76159924598e-08
-9.88127079057e-09
1.89942487282e-07
-9.70624238682e-08
-2.48871359552e-08
2.33332030946e-07
-1.37849592545e-07
-3.11040734795e-08
2.33006304421e-07
-1.47701902301e-07
-2.65215970687e-08
2.3268057747e-07
-1.46467892858e-07
-1.87239443374e-08
2.32354849989e-07
-1.45219662073e-07
-1.09362572045e-08
2.32029122065e-07
-1.43957209861e-07
-3.15853561668e-09
1.88594402832e-07
-1.29652611837e-07
3.84697111191e-09
8.79741138318e-08
-8.74658265778e-08
6.5417992003e-09
8.49195099208e-09
-3.35372839621e-08
3.56915328914e-09
0
-3.99082301815e-09
4.68040339291e-10
0
0
0
0
0
0
0
0
0
0
0
0
0
0
0
0
0
0
0
0
0
0
0
2.36980236065e-08
-7.90909222094e-09
-2.5915688945e-09
1.44982445076e-07
-5.06209498186e-08
-1.64037086307e-08
2.73425096219e-07
-1.19485633964e-07
-3.49574444303e-08
3.25957913647e-07
-1.64463504522e-07
-4.0014708444e-08
3.2548011597e-07
-1.74890360637e-07
-3.24425740216e-08
3.25002314128e-07
-1.734393268e-07
-2.14775750414e-08
3.24524508072e-07
-1.71968348426e-07
-1.05183003291e-08
3.24046697829e-07
-1.70477425496e-07
4.35250183654e-10
2.71382290059e-07
-1.543554723e-07
9.98565914425e-09
1.44169872835e-07
-1.06991682604e-07
1.30365514174e-08
2.36629651697e-08
-4.47003545354e-08
7.49844980903e-09
0
-7.14951407894e-09
1.43411037445e-09
0
0
0
0
0
0
0
0
0
0
0
0
0
0
0
0
0
0
0
0
0
0
0
3.02833723169e-08
-7.90992485624e-09
-3.10899128852e-09
1.6138436487e-07
-5.06443615388e-08
-1.73111436768e-08
2.95596230304e-07
-1.19553238044e-07
-3.47900348771e-08
3.49961923312e-07
-1.64528995866e-07
-3.81780767076e-08
3.49472088379e-07
-1.74931759196e-07
-2.94217186154e-08
3.48982247883e-07
-1.73475669674e-07
-1.75619350797e-08
3.48492401722e-07
-1.71999635494e-07
-5.70215155832e-09
3.48002549822e-07
-1.70503656917e-07
6.15763192982e-09
2.93500494296e-07
-1.54347537354e-07
1.60317789911e-08
1.60547862159e-07
-1.06953348063e-07
1.79494516233e-08
3.02463211129e-08
-4.46824994868e-08
1.00854743709e-08
0
-7.14883504034e-09
2.06065052748e-09
0
0
0
0
0
0
0
0
0
0
0
0
0
0
0
0
0
0
0
0
0
0
0
3.01476403314e-08
-7.91075736709e-09
-2.84781505195e-09
1.6062851003e-07
-5.06677730532e-08
-1.56300207828e-08
2.94143422525e-07
-1.19620842349e-07
-3.07810854227e-08
3.48198957636e-07
-1.64594489385e-07
-3.25989301958e-08
3.47699149089e-07
-1.74973160549e-07
-2.34376439199e-08
3.47199334906e-07
-1.73512015273e-07
-1.15778603834e-08
3.46699514998e-07
-1.7203092551e-07
2.81923067429e-10
3.46199689554e-07
-1.70529891061e-07
1.21417066245e-08
2.92005017188e-07
-1.54339604369e-07
2.1474239142e-08
1.59774977864e-07
-1.06915013612e-07
2.17205377281e-08
3.01098349545e-08
-4.46646442318e-08
1.16686423497e-08
0
-7.14815608627e-09
2.3182308627e-09
0
0
0
0
0
0
0
0
0
0
0
0
0
0
0
0
0
0
0
0
0
0
0
3.00118320241e-08
-7.91159007569e-09
-2.58656242901e-09
1.59870498236e-07
-5.06911842629e-08
-1.39468174811e-08
2.92683403084e-07
-1.19688446761e-07
-2.6767083922e-08
3.46425874993e-07
-1.64659984848e-07
-2.70168803607e-08
3.45916092733e-07
-1.75014564709e-07
-1.74535692102e-08
3.45406304789e-07
-1.73548363714e-07
-5.59378568533e-09
3.44896511256e-07
-1.7206221809e-07
6.26599777086e-09
3.44386712012e-07
-1.70556128078e-07
1.81257812404e-08
2.90502328477e-07
-1.54331673352e-07
2.69137960055e-08
1.58999936677e-07
-1.06876679347e-07
2.54865717163e-08
2.99732724742e-08
-4.46467888817e-08
1.32497299304e-08
0
-7.14747698208e-09
2.57573484578e-09
0
0
0
0
0
0
0
0
0
0
0
0
0
0
0
0
0
0
0
0
0
0
0
2.98759473347e-08
-7.91242259816e-09
-2.3252334526e-09
1.59110329399e-07
-5.07145951286e-08
-1.22615338112e-08
2.91216172153e-07
-1.19756051223e-07
-2.27480302463e-08
3.44642675159e-07
-1.6472548265e-07
-2.14319272452e-08
3.44122919243e-07
-1.75055971838e-07
-1.14694944868e-08
3.43603157531e-07
-1.73584715062e-07
3.90288994987e-10
3.43083390429e-07
-1.7209351378e-07
1.22500724848e-08
3.42563617516e-07
-1.7058236791e-07
2.41098559768e-08
2.8899242812e-07
-1.54323744265e-07
3.235044959e-08
1.58222738362e-07
-1.06838345343e-07
2.92475535791e-08
2.98366335484e-08
-4.46289333767e-08
1.48287370562e-08
0
-7.14679798862e-09
2.8331623995e-09
0
0
0
0
0
0
0
0
0
0
0
0
0
0
0
0
0
0
0
0
0
0
0
2.31243765e-08
-4.39322717203e-09
-1.63227411999e-09
1.40537788548e-07
-3.77021690517e-08
-9.25971115993e-09
2.63926519631e-07
-9.73494661557e-08
-1.70900644225e-08
3.14213666533e-07
-1.38135199914e-07
-1.47774079761e-08
3.13830835538e-07
-1.47878795234e-07
-5.32962705133e-09
3.13448000457e-07
-1.46623161094e-07
5.58727635463e-09
3.13065161339e-07
-1.45353305571e-07
1.65099040232e-08
3.12682318013e-07
-1.44069228776e-07
2.74382558843e-08
2.62332631668e-07
-1.29609828267e-07
3.44526016891e-08
1.39973940099e-07
-8.72957032937e-08
2.97399093493e-08
2.31119371582e-08
-3.34701138361e-08
1.42076235443e-08
0
-3.98955907257e-09
2.38040848012e-09
0
0
0
0
0
0
0
0
0
0
0
0
0
0
0
0
0
0
0
0
0
0
0
8.2415655642e-09
0
-5.35098044407e-10
8.42414075429e-08
-1.24310099275e-08
-4.45369049429e-09
1.79055098372e-07
-4.52005596305e-08
-8.97315880118e-09
2.19303643953e-07
-7.33251587021e-08
-7.08859488005e-09
2.19186555965e-07
-8.09472125128e-08
-3.3721968308e-10
2.19069467741e-07
-8.02470908879e-08
7.37691367023e-09
2.18952379326e-07
-7.95427122288e-08
1.51010125945e-08
2.1883529065e-07
-7.88340765814e-08
2.28350770659e-08
1.78628885186e-07
-6.91844351739e-08
2.71151927377e-08
8.41693923673e-08
-4.12425615712e-08
2.15269415694e-08
8.24298180638e-09
-1.13409753545e-08
8.74320556705e-09
0
0
9.00307620257e-10
0
0
0
0
0
0
0
0
0
0
0
0
0
0
0
0
0
0
0
0
0
0
0
0
0
0
2.31589675583e-08
0
-9.08650213608e-10
6.86824028736e-08
-4.31800887729e-09
-2.34866441042e-09
9.17147333513e-08
-1.1992277555e-08
-1.65142061248e-09
9.17162934348e-08
-1.52417366711e-08
1.16776114385e-09
9.17178539964e-08
-1.51078631547e-08
4.41066343633e-09
9.17194149462e-08
-1.49738386713e-08
7.65767209131e-09
9.17209765011e-08
-1.48396634681e-08
1.09087870899e-08
6.87017987538e-08
-1.143139323e-08
1.20708931693e-08
2.31675629317e-08
-4.06289247525e-09
8.12525115657e-09
0
0
2.33644780462e-09
0
0
0
0
0
0
0
0
0
0
0
0
0
0
0
0
0
0
0
0
0
0
0
0
0
0
0
0
0
0
0
0
8.16621140724e-09
0
-1.0219985597e-10
1.46392595611e-08
0
-2.73516757344e-11
1.46396658448e-08
0
4.07397510615e-10
1.4640072162e-08
0
9.22752210196e-10
1.46404785097e-08
0
1.43825777862e-09
1.46408847958e-08
0
1.95391418183e-09
8.16696742104e-09
0
1.86192099949e-09
0
0
7.5795554073e-10
0
0
0
0
0
0
0
0
0
0
0
0
0
0
0
0
0
0
0
0
0
0
0
0
0
0
0
0
0
0
0
0
0
0
0
0
0
0
0
0
0
0
0
0
0
0
0
0
0
0
0
0
0
0
0
0
0
0
0
0
0
0
0
0
0
0
0
0
0
0
0
0
0
0
0
0
0
0
0
0
0
0
0
0
0
0
0
0
0
0
0
0
0
0
0
0
0
0
0
0
0
0
0
0
0
0
0
0
0
0
0
0
0
0
0
0
0
0
0
0
0
0
0
0
0
0
0
0
0
0
0
0
0
0
0
0
0
0
0
0
0
0
0
0
0
0
0
0
0
0
0
0
0
0
0
0
0
0
0
0
0
0
0
0
0
0
0
0
0
0
0
0
0
0
0
0
0
0
0
0
0
0
0
0
0
0
0
0
0
0
0
0
0
0
0
0
0
0
0
0
0
0
0
0
0
0
0
0
0
0
0
0
0
0
0
0
0
0
0
0
0
0
0
0
0
0
0
0
0
0
0
0
0
0
0
0
0
0
0
0
0
0
0
0
0
0
0
0
0
0
0
0
0
0
0
0
0
0
0
0
0
0
0
0
0
0
0
0
0
0
0
0
0
0
0
0
0
0
0
0
0
0
0
0
0
0
0
0
0
0
0
0
0
0
0
0
0
0
0
0
0
0
0
0
0
0
0
0
0
0
0
0
0
0
0
0
0
0
0
0
0
0
0
0
0
0
0
0
0
0
0
0
0
0
0
0
0
0
0
0
0
0
0
0
0
0
0
0
0
0
0
0
0
0
0
0
0
0
0
0
0
0
0
0
0
0
0
0
0
0
0
0
0
0
0
0
0
0
0
0
0
0
0
0
0
0
0
0
0
0
0
0
0
0
0
0
0
0
0
0
0
0
0
0
0
0
0
0
0
0
0
0
0
0
0
0
0
0
0
0
0
0
0
0
0
1.5231472301e-08
-7.96741197026e-09
-1.87917554478e-09
4.83992741508e-08
-3.30874012328e-08
-7.03711324986e-09
6.40055108668e-08
-5.74063337514e-08
-1.07954479802e-08
6.39556051432e-08
-6.4388339171e-08
-1.02127965801e-08
6.39056995433e-08
-6.38446649655e-08
-8.05339596341e-09
6.38557941757e-08
-6.32983828475e-08
-5.89660325955e-09
6.38058890565e-08
-6.27494928117e-08
-3.74241850948e-09
4.82270795909e-08
-5.44389961148e-08
-1.5178413601e-09
1.52083837831e-08
-3.05393165936e-08
3.65035516274e-12
0
-7.34693029825e-09
1.94524043214e-10
0
0
0
0
0
0
0
0
0
0
0
0
0
0
0
0
0
0
0
0
0
0
0
0
0
0
3.49853545259e-08
-1.85902076413e-08
-4.64202024741e-09
1.411991859e-07
-8.52367177783e-08
-2.12451547498e-08
2.70161317794e-07
-1.79410592994e-07
-4.25729828455e-08
3.27333281691e-07
-2.41246506997e-07
-5.08260653381e-08
3.26534435788e-07
-2.55833001856e-07
-4.46631730182e-08
3.25735595877e-07
-2.53804549646e-07
-3.42958148655e-08
3.24936762249e-07
-2.51739622371e-07
-2.39624775137e-08
3.24137934816e-07
-2.49638220253e-07
-1.3663160901e-08
2.66662469359e-07
-2.2572832939e-07
-3.39442850548e-09
1.39607267255e-07
-1.59254989714e-07
3.61777050742e-09
3.48320853584e-08
-7.43142015452e-08
4.11316118914e-09
0
-1.66054619576e-08
1.32728825532e-09
0
0
0
0
0
0
0
0
0
0
0
0
0
0
0
0
0
0
0
0
1.51036493314e-08
-8.10600968323e-09
-2.13741419522e-09
1.60285283248e-07
-7.59035600046e-08
-2.27507908144e-08
4.34346880944e-07
-2.32155701081e-07
-6.6882130221e-08
7.03078698776e-07
-4.08547689859e-07
-1.03908221995e-07
8.12039195541e-07
-5.07780958621e-07
-1.0890020542e-07
8.08957281789e-07
-5.2535746268e-07
-9.06940409921e-08
8.05875370488e-07
-5.21400205822e-07
-6.72902689966e-08
8.02793461812e-07
-5.17321326314e-07
-4.39757656493e-08
7.99711555917e-07
-5.13120824078e-07
-2.0750530912e-08
6.88409057085e-07
-4.69193127138e-07
1.81506319625e-09
4.25387539254e-07
-3.49037247429e-07
1.67429697988e-08
1.58180680089e-07
-1.92119009092e-07
1.7304582179e-08
1.50684133266e-08
-6.41632814479e-08
7.85925869953e-09
0
-7.21472164069e-09
9.66513286759e-10
0
0
0
0
0
0
0
0
0
0
0
0
0
0
0
0
0
6.28896713897e-08
-2.59271209243e-08
-8.57593686677e-09
3.4150369352e-07
-1.46426760748e-07
-5.0264888314e-08
7.78551080901e-07
-3.78353037777e-07
-1.15342481352e-07
1.16826600619e-06
-6.14819746245e-07
-1.56654610535e-07
1.3171253395e-06
-7.32374162613e-07
-1.52779618024e-07
1.31142818902e-06
-7.47970823319e-07
-1.21854853289e-07
1.30573099212e-06
-7.42497855611e-07
-8.62699460885e-08
1.30003374928e-06
-7.36808444146e-07
-5.07898469995e-08
1.29433646111e-06
-7.30902588904e-07
-1.54145561144e-08
1.14005850697e-06
-6.70739111316e-07
1.81048266208e-08
7.58717615697e-07
-5.11553656995e-07
3.88672526527e-08
3.3509670122e-07
-3.00749387146e-07
3.81777057539e-08
6.2498156217e-08
-1.18952313983e-07
2.04867668064e-08
0
-2.25209050915e-08
4.38005410752e-09
0
0
0
0
0
0
0
0
0
0
0
0
0
0
0
0
0
1.10011233236e-07
-3.44277393481e-08
-1.44538156877e-08
4.6700156068e-07
-1.78422932145e-07
-6.78297333883e-08
9.91051473458e-07
-4.3979534947e-07
-1.3862735252e-07
1.43215588252e-06
-6.969222845e-07
-1.76707681218e-07
1.59704131561e-06
-8.19279669422e-07
-1.64806090435e-07
1.59051611782e-06
-8.3313357594e-07
-1.26062491818e-07
1.58399081711e-06
-8.27054396614e-07
-8.35728881526e-08
1.57746541405e-06
-8.2071760893e-07
-4.11301838672e-08
1.57093990853e-06
-8.14123212784e-07
1.26562114352e-09
1.3993596911e-06
-7.47400146083e-07
4.02818564506e-08
9.66737417711e-07
-5.73487487649e-07
6.2085953793e-08
4.58099850569e-07
-3.43948933831e-07
5.77767235419e-08
1.09268232372e-07
-1.42565962703e-07
3.27979952327e-08
0
-2.95454968135e-08
8.38739472294e-09
0
0
0
0
0
0
0
0
0
0
0
0
0
0
0
0
0
1.24187368271e-07
-3.44425705998e-08
-1.54563295554e-08
5.00129224206e-07
-1.78640903662e-07
-6.87096648348e-08
1.03859274907e-06
-4.40534797548e-07
-1.35259867008e-07
1.48507862038e-06
-6.98045129252e-07
-1.67338571333e-07
1.65113256962e-06
-8.20166389271e-07
-1.50864602957e-07
1.64480333283e-06
-8.33685860179e-07
-1.09756243464e-07
1.63847398121e-06
-8.27541106502e-07
-6.55466909045e-08
1.63214451492e-06
-8.21138744562e-07
-2.133713828e-08
1.62581493386e-06
-8.14478774174e-07
2.28724143044e-08
1.45317044165e-06
-7.47345662127e-07
6.21104317999e-08
1.01468719763e-06
-5.72944579672e-07
8.08340574529e-08
4.91169265047e-07
-3.43464226892e-07
7.11319183994e-08
1.23418684419e-07
-1.42401060617e-07
4.0005690887e-08
0
-2.95333226342e-08
1.04799321446e-08
0
0
0
0
0
0
0
0
0
0
0
0
0
0
0
0
0
1.23605568279e-07
-3.44574016108e-08
-1.4352398285e-08
4.97556664293e-07
-1.78858869604e-07
-6.32538745038e-08
1.03278428578e-06
-4.41274238009e-07
-1.22790522989e-07
1.47624823891e-06
-6.99167992221e-07
-1.48503691633e-07
1.640989835e-06
-8.21053159703e-07
-1.28922569133e-07
1.63453176512e-06
-8.34238202027e-07
-8.73217878107e-08
1.62807358045e-06
-8.28027874128e-07
-4.31122352158e-08
1.62161528125e-06
-8.21559937834e-07
1.09731737821e-09
1.61515686708e-06
-8.14834393165e-07
4.53068699499e-08
1.44369058692e-06
-7.47291226781e-07
8.29263845431e-08
1.00839214611e-06
-5.7240168988e-07
9.71550662419e-08
4.88414301752e-07
-3.42979517532e-07
8.1463854706e-08
1.22821236243e-07
-1.42236155862e-07
4.46483997979e-08
0
-2.95211484289e-08
1.15216305603e-08
0
0
0
0
0
0
0
0
0
0
0
0
0
0
0
0
0
1.23022447158e-07
-3.44722324352e-08
-1.32471459389e-08
4.94965591202e-07
-1.79076830054e-07
-5.77808215833e-08
1.02691397418e-06
-4.42013670824e-07
-1.10275791762e-07
1.4673076294e-06
-7.00290873438e-07
-1.2961542198e-07
1.63071583708e-06
-8.21939980611e-07
-1.06956617052e-07
1.62412893416e-06
-8.3479060168e-07
-6.48873321564e-08
1.61754191653e-06
-8.2851469944e-07
-2.06777795661e-08
1.61095478422e-06
-8.21981188898e-07
2.35317729898e-08
1.60436753708e-06
-8.15190069925e-07
6.77413255963e-08
1.43410050414e-06
-7.4723683966e-07
1.03718419034e-07
1.00203524633e-06
-5.71858818096e-07
1.13422685091e-07
4.85640825247e-07
-3.42494805648e-07
9.17504038412e-08
1.22222466908e-07
-1.42071248277e-07
4.92738461013e-08
0
-2.95089740518e-08
1.25620079152e-08
0
0
0
0
0
0
0
0
0
0
0
0
0
0
0
0
0
1.22438004938e-07
-3.44870630063e-08
-1.21405724734e-08
4.92356005105e-07
-1.79294785076e-07
-5.22905060611e-08
1.02098181411e-06
-4.42753096054e-07
-9.77156733961e-08
1.45825679197e-06
-7.01413773465e-07
-1.10673762374e-07
1.62031057587e-06
-8.22826852533e-07
-8.49667466979e-08
1.61359483993e-06
-8.35343059026e-07
-4.24528765023e-08
1.60687898921e-06
-8.29001582512e-07
1.75667607462e-09
1.60016302389e-06
-8.22402497699e-07
4.59662286729e-08
1.59344694375e-06
-8.15545804411e-07
9.01757812666e-08
1.42440019342e-06
-7.47182500521e-07
1.24486535215e-07
9.95616498079e-07
-5.71315964171e-07
1.2963691393e-07
4.82848835644e-07
-3.42010091102e-07
1.01991565822e-07
1.21622376448e-07
-1.41906337953e-07
5.38820297685e-08
0
-2.94967996536e-08
1.36010641193e-08
0
0
0
0
0
0
0
0
0
0
0
0
0
0
0
0
0
1.066875257e-07
-2.5978300592e-08
-9.72008304915e-09
4.47494583868e-07
-1.4738693682e-07
-4.29402568347e-08
9.4010237941e-07
-3.81884343548e-07
-8.0027641605e-08
1.35005736398e-06
-6.20391832943e-07
-8.73157623258e-08
1.50273587561e-06
-7.36832205001e-07
-6.06377021485e-08
1.49727281581e-06
-7.50745778639e-07
-1.99492557453e-08
1.49180966045e-06
-7.44942409352e-07
2.21363280338e-08
1.48634640931e-06
-7.38922596254e-07
6.42688111877e-08
1.48088306184e-06
-7.32686339245e-07
1.06448193775e-07
1.322656693e-06
-6.70443683084e-07
1.37624366182e-07
9.19956354077e-07
-5.08834067291e-07
1.38057435222e-07
4.40317625928e-07
-2.98419044906e-07
1.0545550028e-07
1.06198403807e-07
-1.18219804483e-07
5.3747233184e-08
0
-2.24788905403e-08
1.28500461256e-08
0
0
0
0
0
0
0
0
0
0
0
0
0
0
0
0
0
6.00120993454e-08
-8.11287403625e-09
-5.00931092374e-09
3.16577958608e-07
-7.63518692821e-08
-2.63668534656e-08
7.03164109312e-07
-2.34341221188e-07
-5.26385957455e-08
1.03887269772e-06
-4.12503111402e-07
-5.64419280113e-08
1.16664353448e-06
-5.1109526713e-07
-3.38527079318e-08
1.16389131912e-06
-5.27416515081e-07
-4.12434277971e-10
1.16113907344e-06
-5.23212058846e-07
3.4274798967e-08
1.15838679667e-06
-5.18885979937e-07
6.90668403805e-08
1.15563448842e-06
-5.14438278124e-07
1.03963690005e-07
1.02536020732e-06
-4.68918715125e-07
1.2836123605e-07
6.93987415835e-07
-3.47043367324e-07
1.24041917111e-07
3.13956140005e-07
-1.90641753574e-07
8.97385146284e-08
5.99738911687e-08
-6.38096102219e-08
4.10247807751e-08
0
-7.20908571775e-09
7.80040595757e-09
0
0
0
0
0
0
0
0
0
0
0
0
0
0
0
0
0
1.44477711212e-08
0
-1.09158724309e-09
1.47337397911e-07
-1.86347036819e-08
-9.80517850125e-09
3.8535795249e-07
-8.57800423024e-08
-2.37111102681e-08
6.08913633645e-07
-1.80729771399e-07
-2.609753358e-08
6.98905695063e-07
-2.42480191695e-07
-1.16988724646e-08
6.98189818332e-07
-2.56594296842e-07
1.00134325146e-08
6.97473956311e-07
-2.54473336628e-07
3.26600560172e-08
6.96758109114e-07
-2.52315901491e-07
5.53959480835e-08
6.96042276187e-07
-2.50121991548e-07
7.82211088077e-08
6.05606768596e-07
-2.25576383071e-07
9.2849267436e-08
3.8359167962e-07
-1.58536306233e-07
8.49506227379e-08
1.47177175128e-07
-7.39168105103e-08
5.45826467491e-08
1.44526468295e-08
-1.65690522904e-08
1.96663632733e-08
0
0
1.998530058e-09
0
0
0
0
0
0
0
0
0
0
0
0
0
0
0
0
0
0
0
0
3.28322088401e-08
0
-1.62383798669e-09
1.27628742261e-07
-7.97740291616e-09
-5.69854492626e-09
2.38238057534e-07
-3.31837380169e-08
-6.87746539345e-09
2.86539836252e-07
-5.75241562996e-08
-8.63821794771e-10
2.86516198635e-07
-6.44529433626e-08
8.80797336857e-09
2.86492570686e-07
-6.3901343961e-08
1.88897526013e-08
2.8646895242e-07
-6.33471366807e-08
2.90055526303e-08
2.86445343855e-07
-6.27903215357e-08
3.91553734343e-08
2.38186502267e-07
-5.4402954939e-08
4.44511861849e-08
1.27710784971e-07
-3.04707217342e-08
3.65468105524e-08
3.28522838431e-08
-7.33878198157e-09
1.85513184861e-08
0
0
4.26293120417e-09
0
0
0
0
0
0
0
0
0
0
0
0
0
0
0
0
0
0
0
0
0
0
0
0
0
0
1.43115593647e-08
0
-3.1297813494e-10
4.47561761898e-08
0
-4.92466781723e-10
5.87944122938e-08
0
6.68838120795e-10
5.8800574083e-08
0
2.74926499459e-09
5.88067361607e-08
0
4.88693086533e-09
5.8812898754e-08
0
7.0272047029e-09
5.88190615324e-08
0
9.17008645226e-09
4.47774322221e-08
0
9.77430018413e-09
1.43144075073e-08
0
6.38557895527e-09
0
0
1.74318073378e-09
0
0
0
0
0
0
0
0
0
0
0
0
0
0
0
0
0
0
0
0
0
0
0
0
0
0
0
0
0
0
0
0
0
0
0
0
0
0
0
0
0
0
0
0
0
0
0
0
0
0
0
0
0
0
0
0
0
0
0
0
0
0
0
0
0
0
0
0
0
0
0
0
0
0
0
0
0
0
0
0
0
0
0
0
0
0
0
0
0
0
0
0
0
0
0
0
0
0
0
0
0
0
0
0
0
0
0
0
0
0
0
0
0
0
0
0
0
0
0
0
0
0
0
0
0
0
0
0
0
0
0
0
0
0
0
0
0
0
0
0
0
0
0
0
0
0
0
0
0
0
0
0
0
0
0
0
0
0
0
0
0
0
0
0
0
0
0
0
0
0
0
0
0
0
0
0
0
0
0
0
0
0
0
0
0
0
0
0
0
0
0
0
0
0
0
0
0
0
0
0
0
0
0
0
0
0
0
0
0
0
0
0
0
0
0
0
0
0
0
0
0
0
0
0
0
0
0
0
0
0
0
0
0
0
0
0
0
0
0
0
0
0
0
0
0
0
0
0
0
0
0
0
0
0
0
0
0
0
0
0
0
0
0
0
0
0
0
0
0
0
0
0
0
0
0
0
0
0
0
0
0
0
0
0
0
0
0
0
0
0
0
0
0
0
0
0
0
0
0
0
0
0
0
0
1.50406371248e-08
-8.09670807487e-09
-2.0095307197e-09
4.77974194233e-08
-3.36214683636e-08
-7.58164355784e-09
6.3212584875e-08
-5.83487949442e-08
-1.17527417001e-08
6.31635483648e-08
-6.54635212549e-08
-1.12985629169e-08
6.31145121358e-08
-6.49204939746e-08
-9.13851533996e-09
6.30654760816e-08
-6.43748588343e-08
-6.98107571832e-09
6.30164402912e-08
-6.38266157566e-08
-4.82624401155e-09
4.76282244763e-08
-5.53886226808e-08
-2.46611921826e-09
1.5017950778e-08
-3.1080278369e-08
-5.3173848114e-10
0
-7.47697232335e-09
6.51654074666e-11
0
0
0
0
0
0
0
0
0
0
0
0
0
0
0
0
0
0
0
0
0
0
0
9.04865916485e-10
-4.96519478915e-10
-1.44679252033e-10
6.30870605198e-08
-3.51070860537e-08
-9.19572144551e-09
2.10158206906e-07
-1.40228296176e-07
-3.38225966588e-08
3.83015977535e-07
-2.784175752e-07
-6.06095417194e-08
4.55794942485e-07
-3.65142573687e-07
-6.99982859652e-08
4.5436409888e-07
-3.83437583181e-07
-6.19150528895e-08
4.52933274412e-07
-3.8048655994e-07
-4.89263808984e-08
4.51502469182e-07
-3.77475603116e-07
-3.59976424766e-08
4.50071683056e-07
-3.74404712674e-07
-2.31288376023e-08
3.76547886305e-07
-3.40104013766e-07
-9.7830975151e-09
2.06865362191e-07
-2.43496950654e-07
8.50384491575e-10
6.25923529079e-08
-1.20156797746e-07
4.17834567114e-09
9.04739641646e-10
-3.08216614964e-08
1.90534000297e-09
0
-4.47336506438e-10
4.30720421032e-11
0
0
0
0
0
0
0
0
0
0
0
0
0
0
0
0
0
6.37713353376e-08
-3.49274792622e-08
-9.74937801132e-09
3.45234443857e-07
-1.92152071167e-07
-5.31117650772e-08
7.98981985669e-07
-4.81380971709e-07
-1.22508065443e-07
1.20770397256e-06
-7.61562045442e-07
-1.7187748662e-07
1.36409931478e-06
-8.93508625971e-07
-1.74356067746e-07
1.35698365464e-06
-9.08383881659e-07
-1.46348387867e-07
1.34986806592e-06
-9.01860086789e-07
-1.12535124989e-07
1.34275254908e-06
-8.95095347785e-07
-7.89369051008e-08
1.3356371042e-06
-8.88089664675e-07
-4.55537282408e-08
1.17240326707e-06
-8.16571791046e-07
-1.18721421682e-08
7.73958548054e-07
-6.28963602434e-07
1.39211568776e-08
3.36926578033e-07
-3.7806253391e-07
2.19831263016e-08
6.31690186416e-08
-1.54241076409e-07
1.39509569846e-08
0
-3.01121264501e-08
3.4864311433e-09
0
0
0
0
0
0
0
0
0
0
0
0
0
0
1.48489027688e-08
-8.30449286343e-09
-2.39700069087e-09
2.55876355295e-07
-1.17999906612e-07
-3.85462133122e-08
8.74116164538e-07
-4.5110458315e-07
-1.3350723558e-07
1.66203623338e-06
-9.23527239265e-07
-2.39714664866e-07
2.28816388815e-06
-1.30686990403e-06
-2.93997548929e-07
2.51327120487e-06
-1.44956700787e-06
-2.765512402e-07
2.49749091405e-06
-1.44727384271e-06
-2.22691624862e-07
2.48171066593e-06
-1.43739805009e-06
-1.6527607483e-07
2.46593046176e-06
-1.42701510523e-06
-1.08216036185e-07
2.45015030358e-06
-1.41612500806e-06
-5.15115089543e-08
2.20649782682e-06
-1.30395982147e-06
4.43446702543e-09
1.59490683595e-06
-1.02890966985e-06
4.5021080344e-08
8.42484604203e-07
-6.73662316911e-07
5.666162429e-08
2.50457877795e-07
-3.31115099023e-07
4.10340129025e-08
1.48081459374e-08
-9.45878870051e-08
1.51837296981e-08
0
-7.27846958277e-09
1.22311049545e-09
0
0
0
0
0
0
0
0
0
0
0
6.18531871892e-08
-2.65632422006e-08
-9.66832355454e-09
5.15698431777e-07
-2.17910414282e-07
-7.6728541106e-08
1.41570429338e-06
-6.912206602e-07
-2.10621142631e-07
2.42414217086e-06
-1.28511581143e-06
-3.32674694468e-07
3.18102625301e-06
-1.72526067529e-06
-3.78565711761e-07
3.44438580766e-06
-1.8593665642e-06
-3.38289220787e-07
3.42233920807e-06
-1.83793366547e-06
-2.62054380057e-07
3.40029248624e-06
-1.82570029781e-06
-1.85594587182e-07
3.37824564493e-06
-1.81272668006e-06
-1.09472741647e-07
3.35619868707e-06
-1.79901281223e-06
-3.36888434406e-08
3.06452497398e-06
-1.6548226075e-06
3.922778164e-08
2.32140590361e-06
-1.31518743379e-06
8.85549496155e-08
1.35907095125e-06
-8.911106879e-07
9.95018759989e-08
5.01451326286e-07
-4.76897834875e-07
7.52846453515e-08
6.1399567198e-08
-1.64953757348e-07
3.35965217625e-08
0
-2.27287717093e-08
5.43302480047e-09
0
0
0
0
0
0
0
0
0
0
0
1.08188934079e-07
-3.52732616405e-08
-1.6391505496e-08
6.89057616874e-07
-2.61574854922e-07
-1.00386261569e-07
1.70780321607e-06
-7.88848450024e-07
-2.46785850097e-07
2.78764465423e-06
-1.42589175724e-06
-3.66768775396e-07
3.57595160688e-06
-1.88364678992e-06
-3.99834276111e-07
3.84727451443e-06
-2.01074310526e-06
-3.44031437895e-07
3.82524393973e-06
-1.98035779943e-06
-2.55960175212e-07
3.80321309396e-06
-1.96714320711e-06
-1.69814159475e-07
3.7811819786e-06
-1.95309711649e-06
-8.38063095116e-08
3.75915059516e-06
-1.93821952769e-06
2.06337475932e-09
3.45849602835e-06
-1.7810022232e-06
8.22681952303e-08
2.68101687236e-06
-1.41625153813e-06
1.31832524226e-07
1.64529885998e-06
-9.67822436505e-07
1.37229637836e-07
6.70932728665e-07
-5.30544979515e-07
1.03721758921e-07
1.0732468554e-07
-1.93274293178e-07
4.98844243362e-08
0
-2.98234291666e-08
1.02223951532e-08
0
0
0
0
0
0
0
0
0
0
0
1.22105979216e-07
-3.52885331762e-08
-1.76644126052e-08
7.30923840242e-07