/*--------------------------------*- C++ -*----------------------------------*\
| =========                 |                                                 |
| \\      /  F ield         | OpenFOAM: The Open Source CFD Toolbox           |
|  \\    /   O peration     | Version:  3.0.1                                 |
|   \\  /    A nd           | Web:      www.OpenFOAM.org                      |
|    \\/     M anipulation  |                                                 |
\*---------------------------------------------------------------------------*/
FoamFile
{
    version     2.0;
    format      ascii;
    class       volVectorField;
    location    "8.7";
    object      ddt0(U);
}
// * * * * * * * * * * * * * * * * * * * * * * * * * * * * * * * * * * * * * //

dimensions      [0 1 -2 0 0 0 0];

internalField   nonuniform List<vector> 
7968
(
(5.34916633405e-05 1.31920958608e-05 -6.10170199544e-05)
(0.000179272551062 1.75206764327e-05 -8.11489868666e-05)
(0.000302763772597 2.00130436761e-05 -8.83182076854e-05)
(0.000423096945781 2.13295797142e-05 -8.64181067675e-05)
(0.000534967800855 2.29488847349e-05 -8.00854484583e-05)
(0.000637197251099 2.57723392871e-05 -7.12084699315e-05)
(0.000718363994851 2.71932890139e-05 -6.20745072172e-05)
(0.000791640145564 3.10084369676e-05 -4.84566663212e-05)
(0.000843829226802 3.29617134721e-05 -3.96369231243e-05)
(0.000870503702715 3.45292314462e-05 -3.00536893989e-05)
(0.000874298347986 3.55772042431e-05 -2.02559876627e-05)
(0.000857207284425 3.62377995697e-05 -1.05521673946e-05)
(0.000817206991854 3.58430302559e-05 -5.28965984511e-07)
(0.000751589432929 3.48247046568e-05 9.49386878814e-06)
(0.000666619397792 3.34282801619e-05 1.85980206714e-05)
(0.000560978042201 3.20182673344e-05 2.7678031189e-05)
(0.000442939126273 2.98987600246e-05 3.46416156231e-05)
(0.000314916305926 2.70206197385e-05 4.00835347705e-05)
(0.000186346942575 2.2265588716e-05 4.83009085249e-05)
(6.89501192456e-05 8.4834502729e-06 5.7530478519e-05)
(5.97968965541e-05 5.67844003315e-05 -7.53731016701e-05)
(0.00019965269618 7.31046786605e-05 -0.000106912946145)
(0.000311009795842 7.52832752588e-05 -9.72641909826e-05)
(0.000414782439405 7.29095105319e-05 -8.21986913513e-05)
(0.000508139544606 6.83557330222e-05 -7.00673946614e-05)
(0.000598110391919 6.4130264302e-05 -5.98546936571e-05)
(0.000681057140778 6.34641265032e-05 -5.17257961779e-05)
(0.000759466966231 6.60144776066e-05 -4.50933083889e-05)
(0.000824878178703 6.95834298005e-05 -3.78880856492e-05)
(0.000871487906116 7.44116802528e-05 -2.94493125846e-05)
(0.000895218430737 7.9103229625e-05 -1.94649229958e-05)
(0.000894703680207 8.38399086495e-05 -8.03431205801e-06)
(0.000865552870963 8.76296540269e-05 4.37301730987e-06)
(0.00080379118187 9.14548509513e-05 1.62030660078e-05)
(0.000714533207089 9.55036252021e-05 2.60712116086e-05)
(0.00059763877905 0.00010030544281 3.33114534511e-05)
(0.000461815755821 0.000101123373413 3.49389431549e-05)
(0.000316673736445 9.66496022838e-05 3.15062005803e-05)
(0.000170362309026 8.41201626844e-05 2.59772246524e-05)
(5.85991600099e-05 5.34577198552e-05 3.81436859228e-05)
(6.39209937211e-05 9.26490072879e-05 -8.00420641214e-05)
(0.000206021133069 9.45655065657e-05 -9.75707273679e-05)
(0.00029958014032 7.95493273023e-05 -6.86262668768e-05)
(0.000390277553862 6.03982833066e-05 -4.71823955925e-05)
(0.000475768707335 4.13047433145e-05 -3.61548510622e-05)
(0.000563764944728 2.92042830833e-05 -3.14066255133e-05)
(0.000651327527545 2.530588472e-05 -2.89741425868e-05)
(0.000737248056057 2.76141681476e-05 -2.69058871982e-05)
(0.000813562998649 3.55778816777e-05 -2.25986506329e-05)
(0.000872608422473 4.68645162518e-05 -1.57551221389e-05)
(0.000907928420714 5.74985516425e-05 -5.64128381484e-06)
(0.000917474498894 6.7693321722e-05 7.3823651952e-06)
(0.000895527527763 7.69892992795e-05 2.29429521481e-05)
(0.000837769614294 8.6569009755e-05 3.83230600155e-05)
(0.000748113273596 9.74826428063e-05 5.19724383164e-05)
(0.000626449291344 0.000110302919965 6.22626210966e-05)
(0.000481556259161 0.00012056760997 6.42423209287e-05)
(0.000324265108381 0.000126355685398 5.50802152208e-05)
(0.000163568616521 0.000123321090164 3.29925007499e-05)
(5.33009810001e-05 0.000104455638188 2.80032308318e-05)
(6.42856036061e-05 0.000126238677024 -7.90373662077e-05)
(0.000203185793277 0.000105611476002 -8.44450792242e-05)
(0.000281573413733 7.7174793549e-05 -5.00962993528e-05)
(0.000363127811823 4.80141870666e-05 -3.36597493159e-05)
(0.000445295637657 2.26100262838e-05 -3.15036200306e-05)
(0.000535599577231 6.69499347985e-06 -3.43279681655e-05)
(0.000630104012659 2.10898147432e-06 -3.6892724458e-05)
(0.0007247915968 6.34536228968e-06 -3.6777659919e-05)
(0.000811166322386 1.8253159644e-05 -3.11207321958e-05)
(0.00087876430561 3.32700149274e-05 -2.47077831917e-05)
(0.000920866641241 4.79801175183e-05 -1.29434818442e-05)
(0.00093619058994 6.20399211163e-05 2.70533692721e-06)
(0.000918777913722 7.44944430562e-05 2.14480204358e-05)
(0.000864333622282 8.74955282123e-05 4.05562708988e-05)
(0.000775475984917 0.000102264352193 5.86545085282e-05)
(0.000651192118508 0.000120090424105 7.4428224555e-05)
(0.000499877782496 0.000136326496634 8.17885877171e-05)
(0.000332776592078 0.000149605468147 7.3645892375e-05)
(0.000159230857626 0.000156927681439 4.3818462597e-05)
(4.88154674206e-05 0.000151632877431 2.4952444933e-05)
(6.35239341701e-05 0.00015519116044 -7.69113245997e-05)
(0.000195219672778 0.000113708816956 -7.51895840277e-05)
(0.000262434176527 7.61757057636e-05 -4.37689071633e-05)
(0.000337703244244 4.24271527922e-05 -3.66110858258e-05)
(0.000420076896372 1.58930250015e-05 -4.35835313824e-05)
(0.000516626164437 1.63825586395e-06 -5.33453700928e-05)
(0.000620127855779 2.07788316192e-07 -5.90641916556e-05)
(0.000723649034818 8.65014268353e-06 -5.94755415212e-05)
(0.000816366479285 2.47647933849e-05 -5.35279545506e-05)
(0.00088871930079 4.26315182843e-05 -4.30450211372e-05)
(0.000935205548718 5.99543203751e-05 -2.85014631106e-05)
(0.000952742257512 7.54170529628e-05 -1.123123058e-05)
(0.000937062683491 8.79965867654e-05 1.01816487938e-05)
(0.000884753280448 0.000100663927083 3.25549660436e-05)
(0.000796813755616 0.000115024316388 5.41156563922e-05)
(0.000671719499692 0.000132914150893 7.5120542128e-05)
(0.000515320098983 0.000151127106043 8.78608285304e-05)
(0.000341170772131 0.000168214726732 8.46463675962e-05)
(0.000157375085534 0.000182743090119 5.24963814289e-05)
(4.5178328666e-05 0.000194871613807 2.46846680012e-05)
(6.39632843878e-05 0.000181466494309 -7.40467352194e-05)
(0.000186613611514 0.000127405349192 -7.08250894249e-05)
(0.000246532341099 8.63408174871e-05 -4.59537326584e-05)
(0.000318252518469 5.36602103031e-05 -4.71981540271e-05)
(0.000403488115892 3.16777953129e-05 -6.18995879245e-05)
(0.000507881270177 2.29611721364e-05 -7.52554063349e-05)
(0.000619837800885 2.6089980366e-05 -8.16071926048e-05)
(0.000731975056032 3.91203898463e-05 -8.02304889221e-05)
(0.00082970721378 5.88660868158e-05 -7.0594735978e-05)
(0.00090373381386 7.97483963417e-05 -5.59169509844e-05)
(0.000949784055014 9.80298963055e-05 -3.85883636099e-05)
(0.000965787435093 0.000111960400068 -2.01311683556e-05)
(0.000949217731043 0.000122343280635 1.69259709081e-06)
(0.000897414533852 0.000131601185989 2.47811454912e-05)
(0.000810061703116 0.000141986766751 4.82886153927e-05)
(0.000684437363396 0.000156518792882 7.20034078265e-05)
(0.000525167243352 0.000172105284971 8.87033948978e-05)
(0.000345050121584 0.000190196898662 8.95105281436e-05)
(0.000156969831919 0.000208942934829 5.94153586403e-05)
(4.34036697752e-05 0.00023088578384 2.52675742969e-05)
(6.34143469159e-05 0.000205989759261 -7.15789087365e-05)
(0.000180130944718 0.000149635581127 -7.03227096235e-05)
(0.000236810677029 0.000111089216778 -5.20789351111e-05)
(0.000308050888413 8.37205553245e-05 -5.95370071489e-05)
(0.000397516434485 6.84321358902e-05 -7.89690586268e-05)
(0.000508490663968 6.58905493133e-05 -9.24211854302e-05)
(0.000628310782559 7.38450559659e-05 -9.73820067038e-05)
(0.000746815729428 9.02789160816e-05 -9.25189627621e-05)
(0.000847140150424 0.000112207267734 -7.83560597546e-05)
(0.000920254224824 0.000134187982255 -6.00100259026e-05)
(0.000962857865157 0.000151640230469 -4.08276482405e-05)
(0.000974997936347 0.000163316759072 -2.22044069272e-05)
(0.000955953962498 0.000170133200202 -1.5694207725e-06)
(0.000903176870687 0.000174922187906 2.056956554e-05)
(0.000815445741993 0.000180235722751 4.36236673408e-05)
(0.000690211708267 0.000189346745712 6.92381580795e-05)
(0.000528947563819 0.000200783563933 8.7085074537e-05)
(0.000346199513443 0.000216059981089 9.0670083336e-05)
(0.000154498397994 0.000234623139468 6.25862487618e-05)
(4.02205941117e-05 0.000255224520804 2.52482779952e-05)
(6.30514148997e-05 0.000229375004065 -6.8418403599e-05)
(0.000176459622266 0.00017995253551 -7.21336252182e-05)
(0.000232399102418 0.000148545219475 -5.91887477034e-05)
(0.000304704133805 0.000128821765586 -7.03695013474e-05)
(0.000399226771933 0.000120400039795 -9.08743259539e-05)
(0.000517143424735 0.000124217459711 -0.000103479081058)
(0.000642841086023 0.000135440058221 -0.00010576836821)
(0.000766096047539 0.000153440600604 -9.6253261785e-05)
(0.000867495832741 0.000175293499634 -7.59696892999e-05)
(0.000937756672184 0.000194655893736 -5.1577671871e-05)
(0.000975160631794 0.000210039585371 -3.11361260725e-05)
(0.000981112908681 0.000220171295762 -1.55304356863e-05)
(0.000957874287033 0.000224037507992 2.23082548603e-06)
(0.00090329019535 0.00022504065153 2.16780128901e-05)
(0.000814812659839 0.000225953975875 4.23817737797e-05)
(0.000690124286576 0.000229832178139 6.74266741401e-05)
(0.000528297150422 0.000236230375422 8.59886989543e-05)
(0.000344303494832 0.000246827981451 9.02215024455e-05)
(0.000151542511266 0.00026103334013 6.39544260864e-05)
(3.62108891632e-05 0.000278748734436 2.70525320523e-05)
(6.29837181037e-05 0.000246238232194 -6.3125857995e-05)
(0.000175550929554 0.000215002600755 -7.33485292037e-05)
(0.000232468832345 0.000194975351986 -6.43803615127e-05)
(0.000307196396743 0.000183758253454 -7.61163634383e-05)
(0.00040637141784 0.000182121903588 -9.75874098483e-05)
(0.000529343961447 0.000188946601996 -0.000107956453368)
(0.000659441309655 0.000200335048066 -0.000107061397643)
(0.000785749333053 0.000216472668251 -9.21725337286e-05)
(0.000884173154379 0.000231538447595 -5.52973482479e-05)
(0.000952834631109 0.000251383490042 -3.89844308704e-05)
(0.000983131321852 0.000263880887884 -1.851003705e-05)
(0.000983318533337 0.000270464326328 -3.16836942602e-06)
(0.000956809976303 0.000272171740575 1.13008451527e-05)
(0.00089968880953 0.000271781193775 2.74535660605e-05)
(0.000810139794299 0.000270522244587 4.52393493482e-05)
(0.000686105857633 0.000270640491103 6.86202978888e-05)
(0.000524401657466 0.00027307237881 8.63805973677e-05)
(0.000339761954893 0.000278983122227 8.93576508424e-05)
(0.000147482388005 0.000286410726251 6.63453457766e-05)
(3.26327668026e-05 0.000295274534331 2.94113196989e-05)
(6.55153735962e-05 0.000262636331396 -5.27018755472e-05)
(0.000178655073285 0.000251587254943 -7.24009469732e-05)
(0.000235022172556 0.000244774593627 -6.62596331248e-05)
(0.000312470172798 0.000242440742073 -7.74206651115e-05)
(0.000415206589256 0.000245285394839 -9.90396728627e-05)
(0.000540932519777 0.000252375863349 -0.000107253198524)
(0.000673427721591 0.000261170852977 -0.000103991352488)
(0.000799957991053 0.000272200983315 -8.4122280321e-05)
(0.000900290178161 0.000283955945693 -5.39185916234e-05)
(0.000962786798164 0.00029417817524 -2.86637037953e-05)
(0.000988631219091 0.000302108959807 -6.56277672825e-06)
(0.000984397063188 0.000306892790385 7.92034695618e-06)
(0.000952571190643 0.000309545237499 1.72069712014e-05)
(0.000895896250927 0.000309583362168 3.45959794361e-05)
(0.000804891063746 0.000308380278168 5.06332579818e-05)
(0.000681200661955 0.000306233046001 7.2534374653e-05)
(0.000520386590027 0.000305956545967 8.90645706966e-05)
(0.000335564708175 0.000307023124672 8.99558095476e-05)
(0.000143749147388 0.000306941148008 6.98302940965e-05)
(2.99436939362e-05 0.000304094745655 3.21406514826e-05)
(6.53513114211e-05 0.000280774383897 -4.82842136591e-05)
(0.000179677143439 0.000285679923305 -7.03899900667e-05)
(0.000238659666589 0.000291332462476 -6.48509907452e-05)
(0.000318037981207 0.000298003241443 -7.54072901002e-05)
(0.000422013195986 0.00030397521132 -9.58613175441e-05)
(0.000548548413442 0.00030974611808 -0.000102689391195)
(0.000681028463392 0.000314621465086 -9.85696104697e-05)
(0.000807041584552 0.000319183420101 -7.79943159049e-05)
(0.000906564591125 0.000322550228097 -4.77867068613e-05)
(0.000967565354274 0.00032550939501 -2.17935533349e-05)
(0.000991572296648 0.000328761285007 3.6302727043e-07)
(0.00098562000436 0.000332137409506 1.45928227746e-05)
(0.000951771219128 0.000334615128667 2.36980580074e-05)
(0.000893882619137 0.000336994673283 4.16789605237e-05)
(0.000801241079627 0.000337284585018 5.7649169146e-05)
(0.000677396618626 0.000334762909041 7.91231461136e-05)
(0.000517346145556 0.000330712735092 9.47006975119e-05)
(0.000332555301459 0.000325587321998 9.42028833491e-05)
(0.000141430051034 0.000318581540175 7.45223949461e-05)
(2.83942609673e-05 0.000304808963839 3.48803386608e-05)
(6.18571482833e-05 0.000286064560188 -5.15449578019e-05)
(0.000177684009446 0.000310177676607 -6.74753846586e-05)
(0.000242631487452 0.000327913860542 -6.0257110577e-05)
(0.000323446960999 0.000342119180397 -6.9980140959e-05)
(0.000426682339436 0.000352070364373 -8.80978792522e-05)
(0.000551832283407 0.000356884803864 -9.45503160277e-05)
(0.000681950626308 0.000358247261825 -9.10623783464e-05)
(0.000806914763409 0.000356512934614 -7.4081042892e-05)
(0.000903923215971 0.000354614729636 -4.08501588926e-05)
(0.000966737065378 0.000348685270225 -2.00098181452e-05)
(0.000991770843737 0.000347071286927 9.80273050548e-07)
(0.000986214867363 0.000348264975809 1.58526012294e-05)
(0.000953391136292 0.000350648626655 2.93661077071e-05)
(0.000893782116766 0.000353888233027 4.83492391676e-05)
(0.000800773279359 0.000354411533277 6.53488738917e-05)
(0.00067418701941 0.000350345315557 8.62096566514e-05)
(0.000512759960191 0.000343340421732 0.000102735586855)
(0.000330081419124 0.000332556338519 0.000103012685722)
(0.000141165666943 0.000320379136074 8.13791806357e-05)
(2.8546450449e-05 0.000297673969937 3.86020857723e-05)
(6.09708315479e-05 0.000278537577086 -4.96106942528e-05)
(0.000179303207505 0.000320562093678 -6.22907644751e-05)
(0.000248082008765 0.000348451997062 -5.2151589944e-05)
(0.000330504269397 0.000369572130592 -6.02066873009e-05)
(0.000431601163169 0.000385105704523 -7.58592875082e-05)
(0.000552714625661 0.000389868207668 -8.21929230133e-05)
(0.000678381557035 0.000389341554702 -8.00079467238e-05)
(0.000799669031382 0.000383626057059 -6.68355635734e-05)
(0.000896404969324 0.000374342371532 -4.3835497343e-05)
(0.000960213821978 0.000367254765584 -1.68666143009e-05)
(0.000988612142143 0.000358903299381 -6.37032130889e-09)
(0.000987052791519 0.000358977863178 2.08613971322e-05)
(0.000955401972197 0.000359400718191 3.79143306401e-05)
(0.000893187495943 0.000359782207379 5.63359009968e-05)
(0.000798808726931 0.000357918330521 7.53855867006e-05)
(0.000670838497449 0.000350176614537 9.68435469921e-05)
(0.00050931846338 0.000340581952681 0.0001126699428)
(0.000329150758331 0.000326841314099 0.000114399813844)
(0.000143043641812 0.000309744597205 8.82547899459e-05)
(2.98957596355e-05 0.000280949055412 4.25042083771e-05)
(6.0416943763e-05 0.000264476346153 -4.57901233048e-05)
(0.000183164744378 0.000314192529365 -5.60471939487e-05)
(0.000256673856078 0.000348580076607 -4.18073012913e-05)
(0.000341871671281 0.000375197209318 -4.5969613144e-05)
(0.000439233250188 0.000393938066669 -6.09659720086e-05)
(0.000553626819609 0.00040259077532 -6.52538867993e-05)
(0.00067399951312 0.000402542136537 -6.40261065923e-05)
(0.000790022594436 0.00039559841078 -5.44044276286e-05)
(0.000884428596632 0.000383488372627 -3.61637506087e-05)
(0.000949420285047 0.000371086364588 -1.48122941021e-05)
(0.00098182485048 0.000361852252058 6.04330784292e-06)
(0.000982683020739 0.000356524315384 2.62219021722e-05)
(0.000952384555184 0.000354205222585 4.56375752029e-05)
(0.000889533173202 0.000351098573794 6.62743957639e-05)
(0.000793853840007 0.000345367354613 8.67561264174e-05)
(0.000664634013521 0.000334159266289 0.000107514350733)
(0.000504817272732 0.000320710008139 0.000121805616938)
(0.000327677401168 0.00030457828195 0.000123227212049)
(0.000143911641294 0.000284005630263 9.39766958801e-05)
(3.21773625254e-05 0.00025386367689 4.63146282358e-05)
(6.0341317335e-05 0.000241142583847 -4.18982808984e-05)
(0.000189128283257 0.000289692485489 -5.09561284046e-05)
(0.000268780256085 0.000326174231316 -3.17885422376e-05)
(0.000355673429634 0.000355976327445 -2.98079001046e-05)
(0.000451231247505 0.00037753732988 -3.82933196482e-05)
(0.000560819492889 0.000389937011209 -4.36714737146e-05)
(0.000672760645523 0.000391424904196 -4.33825798692e-05)
(0.00078177996551 0.000384782518401 -3.68488772873e-05)
(0.000872663755653 0.000371759793272 -2.26846686614e-05)
(0.000937236407767 0.000357471376199 -4.44810875207e-06)
(0.000971376601629 0.000345184395013 1.5408315158e-05)
(0.000974777525204 0.000335935616689 3.61292411637e-05)
(0.000945204537914 0.000330228384065 5.62797870556e-05)
(0.000881241953564 0.000323219877022 7.81634519912e-05)
(0.000784461479659 0.000313571722458 9.86119505012e-05)
(0.000654979319365 0.000299230864791 0.000117222864933)
(0.000497491424166 0.000283605215852 0.000128894646573)
(0.000323872198122 0.000265707535475 0.000128174689869)
(0.000144849221519 0.00024675709615 9.76503775776e-05)
(3.52294570105e-05 0.000218610652395 5.03326183048e-05)
(5.96977926478e-05 0.000207060759617 -3.85506714027e-05)
(0.000196876933003 0.000245894850263 -4.86562455103e-05)
(0.000285091740589 0.000279697596096 -2.47439761253e-05)
(0.000376200783015 0.000309545491157 -1.53882870048e-05)
(0.000470231019872 0.000333568739335 -1.67894076517e-05)
(0.000573343472477 0.000347215199826 -1.93688142964e-05)
(0.000677306691225 0.000349745683965 -1.80451921663e-05)
(0.000777849604298 0.000344398283355 -1.29523025643e-05)
(0.000863120680476 0.000331753463141 -1.74103965878e-06)
(0.000924972231577 0.000316814222555 1.36536344657e-05)
(0.000958131927315 0.000302942871388 3.17625152883e-05)
(0.000962326908285 0.000291149818701 5.18042145779e-05)
(0.000932828656335 0.000280205916186 7.01526921701e-05)
(0.000867065534911 0.000271997136377 9.21032377518e-05)
(0.000769241601015 0.000259808894807 0.000110150336909)
(0.000640442903597 0.000243845670795 0.000124841546587)
(0.00048667857818 0.000227748778907 0.000134280529131)
(0.000318854941018 0.000212131997735 0.000129761647123)
(0.000144052739846 0.000197771358806 9.85016917406e-05)
(3.6131638871e-05 0.000179080488128 5.77577131043e-05)
(5.97760548462e-05 0.000165601355028 -3.59837294897e-05)
(0.000203236386689 0.000187761686159 -5.08173296958e-05)
(0.000302297689807 0.000214252249631 -2.47339071139e-05)
(0.00039923660497 0.000239608873682 -7.85645203565e-06)
(0.000493381325415 0.000260850419704 -1.60178793761e-06)
(0.000591071601043 0.00027327567855 1.04303056166e-06)
(0.000687148294054 0.000275363433658 4.26025473438e-06)
(0.000779173422801 0.000270372230666 8.86495927762e-06)
(0.000857469925599 0.000258481444942 1.82933006395e-05)
(0.000914715354754 0.000244064875759 3.11236574477e-05)
(0.00094526209835 0.00023015375182 4.68560389438e-05)
(0.000946174413392 0.00021800089846 6.43125575713e-05)
(0.000916757692086 0.000205099998183 7.93977796434e-05)
(0.00085146760003 0.000197833204444 0.00010227553544)
(0.000751373195935 0.000186349319975 0.000116699414087)
(0.00062373927398 0.000172175150981 0.000127730396227)
(0.000475002235372 0.000159181390767 0.000132747225181)
(0.00031394186047 0.000149475500362 0.000124576893086)
(0.000148163827469 0.000142559186047 9.56326685209e-05)
(4.09099799974e-05 0.000141202653655 6.20004738851e-05)
(5.9750307835e-05 0.000118790144305 -3.42902711307e-05)
(0.000205175878719 0.000123816377903 -5.7396588054e-05)
(0.000316753615773 0.000138868587976 -3.53363797318e-05)
(0.000421265514513 0.000155144895831 -1.46870198939e-05)
(0.000517913715508 0.000169737855568 -1.44187484871e-06)
(0.000613513239635 0.000177072538394 6.87206045015e-06)
(0.000703196673888 0.000176658707387 1.34492029515e-05)
(0.000787133376886 0.00017163253377 1.86989911059e-05)
(0.000857395052832 0.000160977445526 2.69221666308e-05)
(0.000907448647251 0.000148391569543 3.79948069148e-05)
(0.000932262835051 0.000136204975327 5.15249830441e-05)
(0.000928874486582 0.000125018667966 6.62337948229e-05)
(0.000898266752931 0.000114683640108 8.01979821664e-05)
(0.000831481777787 0.000112786439528 9.94094794198e-05)
(0.000730320119406 0.000103436934916 0.00011057881174)
(0.000606204299202 9.36392147807e-05 0.000118172349706)
(0.000464325638742 8.67795030941e-05 0.00011910879876)
(0.000311528120648 8.47726461147e-05 0.000111035012616)
(0.000155759341074 8.83663773756e-05 8.90350247363e-05)
(4.70601909551e-05 0.00010019760809 6.73645985744e-05)
(5.76965437837e-05 6.92721200718e-05 -2.89716158948e-05)
(0.000198637461989 5.9727005185e-05 -6.26548117477e-05)
(0.000322596862929 5.99980859736e-05 -5.59695867192e-05)
(0.000437789525887 6.20998126086e-05 -4.14185673607e-05)
(0.00054058746023 6.50734979984e-05 -2.83007896204e-05)
(0.000638181567362 6.66344089412e-05 -1.65164068989e-05)
(0.000724146323936 6.34366767857e-05 -6.52277575071e-06)
(0.000801472438983 5.91930599976e-05 3.55187462795e-07)
(0.000862329608257 5.11335383076e-05 9.41473967024e-06)
(0.000902326672001 4.28264123757e-05 2.01559933467e-05)
(0.000917867790788 3.48105590609e-05 3.15630002585e-05)
(0.000907007989411 2.76581921553e-05 4.2442330758e-05)
(0.000877869617067 2.19250392504e-05 4.52328630435e-05)
(0.000809605409496 2.11972498963e-05 8.18961071004e-05)
(0.000704842171976 1.71164602035e-05 8.2390302934e-05)
(0.000586985288985 1.44782937402e-05 8.75353611835e-05)
(0.000454157599529 1.62656069394e-05 8.9548738351e-05)
(0.000311884466114 2.36127185185e-05 8.69916580487e-05)
(0.000166181109462 3.76336140926e-05 7.96004505811e-05)
(5.36162423387e-05 6.29346446996e-05 7.64835575884e-05)
(4.9825420442e-05 2.81993629597e-05 -1.76129802378e-05)
(0.000175593852317 2.45739177825e-05 -3.71774715738e-05)
(0.000308971858985 2.34365729776e-05 -4.46104277279e-05)
(0.000437205184418 2.22271720172e-05 -4.30914629603e-05)
(0.00055580706174 2.07794606792e-05 -3.77777468e-05)
(0.000663684829104 1.99068728773e-05 -3.13329999384e-05)
(0.00074551926829 1.47624212557e-05 -2.23659290274e-05)
(0.000817797862546 1.24788737848e-05 -1.59906442262e-05)
(0.000866229255436 7.34538458594e-06 -7.57856697789e-06)
(0.000891576807816 2.39130996769e-06 2.28859767643e-07)
(0.000893352657771 -1.21376905152e-06 8.02445269298e-06)
(0.000872688167074 -3.59039370034e-06 1.48958891078e-05)
(0.00083566993501 -4.15557061974e-06 2.03907097787e-05)
(0.000765437714108 -5.86836002715e-06 3.93640399068e-05)
(0.000667662680939 -4.56212962575e-06 4.91275859534e-05)
(0.000560494118198 -3.16702467593e-06 5.76219589008e-05)
(0.000442528604779 -1.55514557148e-07 6.52296200878e-05)
(0.000316073687383 5.1380656468e-06 7.21904609007e-05)
(0.000185606716407 1.3184596201e-05 8.04543286665e-05)
(6.58991230442e-05 2.80860254376e-05 8.79486572493e-05)
(6.89379743033e-05 3.2859988202e-05 -0.000248072242699)
(0.00020026617561 3.9664206842e-05 -0.000274261636708)
(0.000310336226287 3.70097288987e-05 -0.00027055579275)
(0.000409882972903 3.00483170783e-05 -0.000253406853796)
(0.000506460399101 2.31439228903e-05 -0.000232569129099)
(0.000602976967614 2.00436789533e-05 -0.000210575347404)
(0.000694969948723 2.02225336578e-05 -0.000187197816667)
(0.000776811609095 2.17625345178e-05 -0.000160403942449)
(0.000841992222395 2.6558420473e-05 -0.000133934690968)
(0.000889835682356 3.08764579096e-05 -0.000105739999346)
(0.000913333264379 3.38725453863e-05 -7.59708990014e-05)
(0.00091294086193 3.58504552394e-05 -4.52119491625e-05)
(0.000884666610314 3.65948491862e-05 -1.33541680545e-05)
(0.000824214245369 3.75453998723e-05 1.74871565326e-05)
(0.000735378639116 3.95978808821e-05 4.53749656855e-05)
(0.000619682123906 4.34958417816e-05 7.04439198587e-05)
(0.000480884416692 4.76213707941e-05 8.8176701976e-05)
(0.000328262509947 4.93118300186e-05 9.83460267052e-05)
(0.000175603870788 4.14809775335e-05 0.000107922812586)
(5.21853062291e-05 1.86832432518e-05 0.000120517675025)
(8.83573987412e-05 8.00966608399e-05 -0.00026611301368)
(0.000198113623491 5.93298423114e-05 -0.00023730436745)
(0.000281892129628 3.54753120245e-05 -0.000196374593058)
(0.000370518020179 1.40679878854e-05 -0.000165741374025)
(0.000461677115137 -2.14755387399e-06 -0.00014450793519)
(0.000556300740342 -1.14984666451e-05 -0.000127570503587)
(0.000651110373272 -1.40412666488e-05 -0.000112684037999)
(0.00074167557921 -1.18911697137e-05 -9.69346575142e-05)
(0.000821027285774 -3.05007881827e-06 -7.72995644827e-05)
(0.000883737905494 5.83435541211e-06 -5.25888817563e-05)
(0.000923668904661 1.37123779772e-05 -2.29819467506e-05)
(0.000938234181654 2.07018827169e-05 1.16119824781e-05)
(0.000921847019924 2.68448277382e-05 4.70038687288e-05)
(0.000870618459846 3.33698840676e-05 8.36704349032e-05)
(0.000786776883328 4.20543455775e-05 0.000116207691418)
(0.000672001520725 5.38051611435e-05 0.000141367622032)
(0.000531443591865 6.70914986947e-05 0.000154279804471)
(0.000372452828914 7.83610384924e-05 0.000150678397081)
(0.000204973695316 8.06643034088e-05 0.000128969034493)
(5.76739104467e-05 6.55892196299e-05 9.51752958787e-05)
(9.04410531721e-05 9.55702877186e-05 -0.00026119473983)
(0.000182005296876 5.06731967418e-05 -0.000198378891086)
(0.000256266979166 1.82977157035e-05 -0.00015099113834)
(0.000342800972944 -8.58693902198e-06 -0.000127515428044)
(0.000434322797309 -2.96789203924e-05 -0.00011655214169)
(0.000531342776273 -4.29788498582e-05 -0.000110368535594)
(0.000629985901572 -4.80625654791e-05 -0.000103556832615)
(0.00072501507601 -4.64806067071e-05 -9.20754863993e-05)
(0.000809256680568 -3.75160559006e-05 -7.44677373899e-05)
(0.000877009944047 -2.81208661566e-05 -4.99034645337e-05)
(0.000922719127881 -1.78134033138e-05 -1.84427801605e-05)
(0.000943183838353 -7.34497142268e-06 2.01233147795e-05)
(0.000932412029407 4.29413179093e-06 6.04564054407e-05)
(0.000886573091145 1.64591469326e-05 0.000104023895744)
(0.000808111546934 3.11332487318e-05 0.000143543292359)
(0.000697307733449 4.90786210732e-05 0.000176652141138)
(0.000558751975476 6.81679919095e-05 0.000195607238988)
(0.000399517887043 8.65306822356e-05 0.000193697209825)
(0.000224968685735 9.96519777601e-05 0.000158902588803)
(6.22339774028e-05 0.000107030424901 9.00926320579e-05)
(8.43367697869e-05 0.000102536705822 -0.000249134580031)
(0.000162140826082 4.82491851442e-05 -0.000174297250135)
(0.000230982609201 1.52623384926e-05 -0.000134858168147)
(0.000317121291615 -1.11168486146e-05 -0.000124811954996)
(0.000411779050606 -3.12696699603e-05 -0.000127811936585)
(0.000513270300991 -4.41578407472e-05 -0.000133333248126)
(0.000616424359805 -4.90841545728e-05 -0.000134137850953)
(0.000717198611839 -4.6981250181e-05 -0.000124315491261)
(0.000805048559853 -3.93729614071e-05 -0.000107000342453)
(0.000874109326498 -2.86862215109e-05 -8.03389578303e-05)
(0.00092257568806 -1.6786070419e-05 -4.54681531648e-05)
(0.000946044904541 -4.4418628423e-06 -3.16017502827e-06)
(0.000938082162251 8.42609927196e-06 4.20496070778e-05)
(0.00089545048158 2.26216746225e-05 9.37073825868e-05)
(0.000821663443087 3.86571971876e-05 0.000140934424022)
(0.000715366760929 5.80529094313e-05 0.000183614667273)
(0.00057913410076 7.87024387405e-05 0.000211573950784)
(0.000419212744565 9.93044322534e-05 0.00021784841259)
(0.00024006086822 0.000117167435252 0.000182056960311)
(6.75046813951e-05 0.000138153931128 9.52395236313e-05)
(7.69802809661e-05 0.00011186020527 -0.000239071521033)
(0.000144950402438 5.43736703785e-05 -0.000163535103907)
(0.00020863957762 2.3708865544e-05 -0.000136257229729)
(0.000294946426249 1.30821756619e-06 -0.000140590073215)
(0.000392999029745 -1.53954211727e-05 -0.000157804903812)
(0.000499802161807 -2.55209583114e-05 -0.000173396549944)
(0.000608701398904 -2.87421439632e-05 -0.000179301703684)
(0.000713030116724 -2.49515350343e-05 -0.000170980175276)
(0.000804537645616 -1.78523361467e-05 -0.000150029385577)
(0.000877199143852 -5.76225222341e-06 -0.000118860964609)
(0.000926474828272 7.15200566026e-06 -7.97690362403e-05)
(0.000950359781447 1.99964536455e-05 -3.40488068486e-05)
(0.00094378358188 3.1987797851e-05 1.51985647132e-05)
(0.000903327527037 4.55425467262e-05 7.10916480519e-05)
(0.000832552792621 6.0850193631e-05 0.000125778051515)
(0.000729559381346 7.77665856474e-05 0.000176182481792)
(0.000594811465779 9.64445108266e-05 0.000213974232452)
(0.000434153804771 0.000116117949546 0.000227600113138)
(0.000250719189722 0.000136657586717 0.000196651194324)
(7.22968320214e-05 0.000166539296994 0.000101989347989)
(7.24734509855e-05 0.000129627753072 -0.000232451772572)
(0.000133101415015 7.33658515141e-05 -0.000162676077016)
(0.000191879446919 4.67393400092e-05 -0.000147445346241)
(0.000277849296963 2.92390612851e-05 -0.000164543712159)
(0.000378888747753 1.69293841997e-05 -0.00019315237458)
(0.000490454707869 1.02764616869e-05 -0.000215192587905)
(0.00060507272497 9.7927868608e-06 -0.000221861661104)
(0.000714281890348 1.49929323383e-05 -0.000211035453897)
(0.000809681476734 2.46586761055e-05 -0.00018489892883)
(0.00088462988411 3.73673905719e-05 -0.000148140151881)
(0.00093433933683 5.0641074961e-05 -0.000104783090089)
(0.000957523941231 6.30138917092e-05 -5.65016328793e-05)
(0.000950631431859 7.36958232119e-05 -5.46341623392e-06)
(0.0009115598422 8.46377799282e-05 5.07045146546e-05)
(0.000841481701993 9.72362107449e-05 0.000108666239266)
(0.000739524612567 0.00011010791881 0.000164930084149)
(0.000605891470236 0.000124344902527 0.000210040919011)