/*--------------------------------*- C++ -*----------------------------------*\
| =========                 |                                                 |
| \\      /  F ield         | OpenFOAM: The Open Source CFD Toolbox           |
|  \\    /   O peration     | Version:  3.0.1                                 |
|   \\  /    A nd           | Web:      www.OpenFOAM.org                      |
|    \\/     M anipulation  |                                                 |
\*---------------------------------------------------------------------------*/
FoamFile
{
    version     2.0;
    format      ascii;
    class       surfaceScalarField;
    location    "3.8";
    object      alphaPhi;
}
// * * * * * * * * * * * * * * * * * * * * * * * * * * * * * * * * * * * * * //

dimensions      [0 3 -1 0 0 0 0];

internalField   nonuniform List<scalar> 
45932
(
7.88047301759e-06
4.84585156342e-06
-1.27263628174e-05
1.43955682093e-05
5.7664972602e-06
-1.22816264081e-05
1.46880821253e-05
1.20261169635e-05
-1.23186381567e-05
8.12043343416e-06
1.85568287938e-05
-1.19892055832e-05
-2.04785661985e-06
2.22812830953e-05
-1.21130125906e-05
-1.29680288711e-05
2.25057573698e-05
-1.15856037345e-05
-2.15697557358e-05
1.90560607166e-05
-1.04543567071e-05
-2.51734275156e-05
1.26859440459e-05
-9.08229524797e-06
-2.3510902419e-05
5.62425350763e-06
-7.28680904482e-06
-1.89163846293e-05
7.22582661364e-07
-5.31713662084e-06
-1.39046000018e-05
-1.47489394827e-06
-3.53693120968e-06
-9.7046160596e-06
-1.9643194466e-06
-2.23570168419e-06
-6.61105508584e-06
-1.725301051e-06
-1.36828561509e-06
-4.47451295947e-06
-1.28280989783e-06
-8.537598434e-07
-3.03545443146e-06
-8.76699753612e-07
-5.62383508977e-07
-2.0666765095e-06
-5.75104523121e-07
-3.93696393684e-07
-1.40763437439e-06
-3.74614810296e-07
-2.84444453064e-07
-9.48361856156e-07
-2.48330410496e-07
-2.10929647907e-07
-6.23804395321e-07
-1.71275950683e-07
-1.53269791239e-07
-3.95422383913e-07
-1.25174584321e-07
-1.03220999238e-07
-2.38892671377e-07
-9.79150470765e-08
-5.86389336163e-08
-1.38993517143e-07
-8.19706419046e-08
-1.79506943606e-08
-8.54531612104e-08
-7.33766207817e-08
1.98222941067e-08
-6.84593685467e-08
-6.95758621723e-08
5.25692553581e-08
-6.85336999161e-08
-6.94733728158e-08
6.95388222156e-08
-6.41952503917e-08
-7.21151461866e-08
6.77633278189e-08
-4.36448748092e-08
-7.6084940064e-08
5.5525529044e-08
-9.53808668474e-09
-7.95028708085e-08
4.5388099177e-08
4.2604154516e-08
-8.21359970404e-08
2.99884664941e-08
1.1946275755e-07
-8.53122685588e-08
8.4479915289e-09
2.15896863554e-07
-8.69138258377e-08
-9.52731488289e-09
3.14286593817e-07
-8.41691984516e-08
-1.4229241919e-08
3.86913775943e-07
-7.63761040782e-08
3.73899298281e-09
4.28289137302e-07
-6.77178824756e-08
2.63321438516e-08
4.34604526201e-07
-5.84949730376e-08
5.21693933548e-08
4.08225346261e-07
-5.10240943663e-08
7.73936951796e-08
3.54062557215e-07
-4.27775007701e-08
9.69315673275e-08
2.68146048247e-07
-3.6401530926e-08
1.22309896195e-07
1.53175082748e-07
-3.79672016809e-08
1.52929377974e-07
-5.32143337404e-08
2.06379824325e-07
7.770588222e-06
1.41367860208e-05
-1.70615577914e-05
1.52633657132e-05
1.97093455568e-05
-2.14356325044e-05
1.57591857467e-05
3.41821031795e-05
-2.26518125795e-05
8.7798066393e-06
4.78739562882e-05
-2.23377768175e-05
-1.95604400903e-06
5.53325406726e-05
-2.23154188212e-05
-1.34214111584e-05
5.55959106536e-05
-2.16247863081e-05
-2.25088750696e-05
4.83850624032e-05
-2.0241548096e-05
-2.61681010451e-05
3.48330774515e-05
-1.84879225345e-05
-2.40898316942e-05
1.9163712371e-05
-1.56177553274e-05
-1.90429232183e-05
7.43746082144e-06
-1.17618225137e-05
-1.38003283658e-05
1.1655564195e-06
-7.88308492949e-06
-9.53693808393e-06
-1.37722586708e-06
-4.85052409156e-06
-6.45986388923e-06
-1.95102498966e-06
-2.85138200306e-06
-4.36652076905e-06
-1.73083363105e-06
-1.64534441141e-06
-2.96852466769e-06
-1.29484153448e-06
-9.79879429352e-07
-2.02960343545e-06
-8.95766279883e-07
-6.18282684018e-07
-1.38895981439e-06
-6.03476055889e-07
-4.11804560956e-07
-9.41260880367e-07
-4.0917644678e-07
-2.86874443498e-07
-6.23467129271e-07
-2.87159671665e-07
-2.01931012126e-07
-3.98729114792e-07
-2.12372855397e-07
-1.37559871343e-07
-2.43860628742e-07
-1.66512714629e-07
-8.62895602343e-08
-1.44519218027e-07
-1.38788279687e-07
-4.25405965744e-08
-9.11786396986e-08
-1.23588311504e-07
-3.14352132501e-09
-7.42499813192e-08
-1.17871180679e-07
3.13541056244e-08
-7.50140130574e-08
-1.18174784318e-07
4.94546656302e-08
-7.01707823703e-08
-1.22654279639e-07
4.56867221101e-08
-4.85955500741e-08
-1.29509167602e-07
3.18414084135e-08
-1.34604188898e-08
-1.36419026514e-07
2.17749864913e-08
4.01186157874e-08
-1.42656256749e-07
6.93608969647e-09
1.18771857368e-07
-1.49692441412e-07
-1.42785436639e-08
2.18381803434e-07
-1.52299315253e-07
-3.42314575729e-08
3.20021642065e-07
-1.48386958951e-07
-3.74309184055e-08
3.95146653043e-07
-1.37106441641e-07
-1.4404737484e-08
4.36563260882e-07
-1.26405820313e-07
1.72609478819e-08
4.42067006081e-07
-1.12124083177e-07
4.81153076388e-08
4.14207696544e-07
-1.00254922506e-07
7.70807679229e-08
3.58746105117e-07
-8.86406414217e-08
1.01316211151e-07
2.70203557932e-07
-7.96217372609e-08
1.31754661374e-07
1.49433285856e-07
-8.16993060188e-08
1.64493354364e-07
-9.8764078314e-08
1.94973113838e-07
8.99526983746e-06
2.32284486352e-05
-1.80869678495e-05
1.78193695839e-05
3.40521549478e-05
-2.31669226025e-05
1.82319065508e-05
5.56246015323e-05
-2.18550628858e-05
1.01856335756e-05
7.50372045764e-05
-1.91170132746e-05
-1.85277973799e-06
8.53533904512e-05
-1.79824503454e-05
-1.46108129975e-05
8.5598807613e-05
-1.7244870307e-05
-2.47465081165e-05
7.53298086221e-05
-1.68090602551e-05
-2.86701839988e-05
5.58643571786e-05
-1.7107640569e-05
-2.59797048441e-05
3.29299453164e-05
-1.64567385396e-05
-2.00238702596e-05
1.51378484331e-05
-1.36562572951e-05
-1.40879325583e-05
4.87846220067e-06
-9.64888394332e-06
-9.47604887899e-06
1.02102768236e-07
-6.09125224355e-06
-6.28039777404e-06
-1.54206028598e-06
-3.60464779901e-06
-4.18101278971e-06
-1.74457660643e-06
-2.08566989534e-06
-2.82011025289e-06
-1.43631487666e-06
-1.21945433986e-06
-1.92441268757e-06
-1.04067029221e-06
-7.50817272497e-07
-1.31871162306e-06
-7.17228415703e-07
-4.91971292815e-07
-8.95123199261e-07
-4.91929909492e-07
-3.40856762118e-07
-5.92832747916e-07
-3.47403727652e-07
-2.42067579355e-07
-3.77575158672e-07
-2.56703301079e-07
-1.7094741413e-07
-2.2863727304e-07
-1.99624547239e-07
-1.15844890316e-07
-1.33071027285e-07
-1.64472794794e-07
-6.98985867624e-08
-8.2793851856e-08
-1.45369197238e-07
-2.85108869258e-08
-6.78653228949e-08
-1.3749623605e-07
4.68406644522e-09
-7.03480690602e-08
-1.38200909456e-07
2.24982297461e-08
-6.64697937577e-08
-1.43822340636e-07
1.72807825642e-08
-4.53930496759e-08
-1.540671359e-07
3.4739150461e-09
-1.08815035126e-08
-1.64971426063e-07
-5.96483056898e-09
4.23095514142e-08
-1.75083252419e-07
-2.0768831754e-08
1.21562794415e-07
-1.84137646729e-07
-4.48132888431e-08
2.22785632824e-07
-1.87295698995e-07
-6.62334741832e-08
3.25867576884e-07
-1.82697834457e-07
-6.87801585838e-08
4.02152874399e-07
-1.70609032324e-07
-4.2793145441e-08
4.42347737163e-07
-1.57713560483e-07
-8.89789707287e-09
4.46425749359e-07
-1.42168120518e-07
2.59556227458e-08
4.17387192537e-07
-1.27976744431e-07
5.67507360726e-08
3.59741404825e-07
-1.15061849034e-07
8.40582536435e-08
2.6821684768e-07
-1.04846681164e-07
1.16741141012e-07
1.44660208188e-07
-1.05350787858e-07
1.47198625142e-07
-1.14256330547e-07
1.60141932013e-07
1.16170516367e-05
2.97870313039e-05
-1.81756702167e-05
2.22982500654e-05
4.429383454e-05
-2.09229116802e-05
2.23303524493e-05
7.02376618018e-05
-1.46452031185e-05
1.24755536258e-05
9.26304101957e-05
-7.73843411855e-06
-1.76090303904e-06
0.000104419711262
-4.82988277602e-06
-1.67022455071e-05
0.00010466357387
-4.12342986077e-06
-2.85851903218e-05
9.26522655349e-05
-5.43952217354e-06
-3.3073273748e-05
6.98895543783e-05
-9.53714086751e-06
-2.95261357615e-05
4.25665350536e-05
-1.31837680822e-05
-2.21193264553e-05
2.09411052693e-05
-1.32101041868e-05
-1.50345982621e-05
8.01622403365e-06
-1.02225242286e-05
-9.73856075425e-06
1.57554796921e-06
-6.76952059189e-06
-6.24009796325e-06
-9.24804504422e-07
-4.11575320862e-06
-4.04635051753e-06
-1.52607051989e-06
-2.41227927082e-06
-2.68339267083e-06
-1.38444764738e-06
-1.41484900502e-06
-1.81766191572e-06
-1.04627494778e-06
-8.60148827767e-07
-1.24442996366e-06
-7.33172104977e-07
-5.57309585637e-07
-8.46160477833e-07
-5.05416477445e-07
-3.84803461346e-07
-5.60685338239e-07
-3.5628403513e-07
-2.76614712956e-07
-3.55940277214e-07
-2.61260563783e-07
-2.00206822247e-07
-2.13788036352e-07
-2.00227086095e-07
-1.41567315694e-07
-1.22890941974e-07
-1.62231580238e-07
-9.31539365359e-08
-7.59217663414e-08
-1.4170110445e-07
-5.0650632632e-08
-6.36734175736e-08
-1.33913975276e-07
-1.58418512134e-08
-6.78021705915e-08
-1.34353250012e-07
2.71639332864e-10
-6.53387753817e-08
-1.41728889169e-07
-4.56467337037e-09
-4.4845833868e-08
-1.53915571323e-07
-2.06506169128e-08
-1.03939650198e-08
-1.67047516161e-07
-3.23802414832e-08
4.27588037386e-08
-1.79112256531e-07
-4.91273875874e-08
1.23012154855e-07
-1.89331586529e-07
-7.50637424888e-08
2.26044015101e-07
-1.92631459839e-07
-9.77025406327e-08
3.30583710853e-07
-1.87578192861e-07
-9.96681628537e-08
4.0763068435e-07
-1.75637488777e-07
-7.20288667411e-08
4.47353021187e-07
-1.62215527119e-07
-3.52310985551e-08
4.50597136152e-07
-1.465388427e-07
1.11628973874e-09
4.20787392744e-07
-1.31513936267e-07
3.33374525962e-08
3.61471633746e-07
-1.1847639911e-07
6.2721809643e-08
2.67585918909e-07
-1.07559614509e-07
9.65905397973e-08
1.42848570453e-07
-1.05847540929e-07
1.25224735146e-07
-1.0543593797e-07
1.34017606599e-07
1.52295902237e-05
3.27710177546e-05
-1.82136201786e-05
2.80514412527e-05
4.85666476237e-05
-1.7094701131e-05
2.74892768308e-05
7.54835377347e-05
-4.68374289325e-06
1.53652305673e-05
9.76570818284e-05
7.09735228463e-06
-1.68370783373e-06
0.000109361598808
1.21070488914e-05
-1.94278139115e-05
0.000109618860462
1.27888245322e-05
-3.34668901272e-05
9.75071006996e-05
9.18423343381e-06
-3.86966547649e-05
7.45839828158e-05
5.35315936519e-07
-3.41910882853e-05
4.64254716673e-05
-8.36453838486e-06
-2.50418526774e-05
2.37420442202e-05
-1.19502135187e-05
-1.64918863961e-05
9.86107714335e-06
-1.03948556693e-05
-1.02949525142e-05
2.65914853958e-06
-7.28056872317e-06
-6.34539466814e-06
-3.28830455624e-07
-4.54556544413e-06
-3.97840322808e-06
-1.20629033611e-06
-2.68679917566e-06
-2.57474769807e-06
-1.20884648476e-06
-1.57927923195e-06
-1.72140758797e-06
-9.51017896522e-07
-9.48618285857e-07
-1.17420981222e-06
-6.75779369385e-07
-6.04610518237e-07
-7.99140979024e-07
-4.665203597e-07
-4.13984168702e-07
-5.29802285483e-07
-3.27229497508e-07
-2.98411672486e-07
-3.35297159196e-07
-2.37597950475e-07
-2.18185414489e-07
-1.99961372616e-07
-1.78863027417e-07
-1.56716139176e-07
-1.1396969739e-07
-1.41949531136e-07
-1.06288055407e-07
-7.05114768297e-08
-1.22151720731e-07
-6.30196928137e-08
-6.08474680066e-08
-1.15209556436e-07
-2.8378428254e-08
-6.6953879098e-08
-1.16149673249e-07
-1.2105410903e-08
-6.5885584926e-08
-1.24051350324e-07
-1.87524502011e-08
-4.59780884831e-08
-1.36691319389e-07
-3.7136607229e-08
-1.19486079073e-08
-1.50213626366e-07
-5.08665441291e-08
4.20588594889e-08
-1.63377287707e-07
-6.97448450136e-08
1.23670590351e-07
-1.73388999999e-07
-9.7557678313e-08
2.28620747455e-07
-1.76462817911e-07
-1.21124624891e-07
3.34633575709e-07
-1.71292035489e-07
-1.2230751243e-07
4.12387316201e-07
-1.60108741347e-07
-9.32927198169e-08
4.51955368125e-07
-1.47203919521e-07
-5.45903265699e-08
4.54766177171e-07
-1.32201393621e-07
-1.71584924855e-08
4.24480961597e-07
-1.17978726278e-07
1.67406745511e-08
3.64084530688e-07
-1.05722866296e-07
4.76346297095e-08
2.68851389365e-07
-9.47421560216e-08
8.24078356237e-08
1.43488949161e-07
-9.15282255861e-08
1.11033943901e-07
-8.55097300691e-08
1.23552219368e-07
1.9209394229e-05
3.17807591455e-05
-1.8219174198e-05
3.41329868878e-05
4.65134786961e-05
-1.28704556538e-05
3.28348623587e-05
7.12273333893e-05
5.55430270283e-06
1.83023150106e-05
9.05595830372e-05
2.16300332001e-05
-1.61298256491e-06
0.000100949000641
2.83279046313e-05
-2.22085630384e-05
0.000101257240636
2.89572010083e-05
-3.85006816615e-05
9.04280520138e-05
2.33711677393e-05
-4.46109005457e-05
7.00488233725e-05
1.06453708463e-05
-3.92491429754e-05
4.43585857008e-05
-3.29490733313e-06
-2.83279769964e-05
2.3308092042e-05
-1.04872515469e-05
-1.82223780465e-05
1.01735774473e-05
-1.04181379713e-05
-1.1026744101e-05
3.15684516138e-06
-7.69336351183e-06
-6.55297745007e-06
1.15104907968e-07
-4.91773408293e-06
-3.96570945975e-06
-8.69270456335e-07
-2.924316357e-06
-2.49645813936e-06
-9.72709628441e-07
-1.70541052907e-06
-1.64097996527e-06
-7.90884482371e-07
-1.0156315925e-06
-1.11240841933e-06
-5.70549980717e-07
-6.3382000361e-07
-7.57081488058e-07
-3.93714930367e-07
-4.28150468155e-07
-5.01999954444e-07
-2.7395867525e-07
-3.08369821204e-07
-3.16626844635e-07
-1.96933690486e-07
-2.26053943563e-07
-1.87563170104e-07
-1.45509868749e-07
-1.62432085336e-07
-1.06263133871e-07
-1.12782098227e-07
-1.10480776714e-07
-6.62268354801e-08
-9.54084208433e-08
-6.67906969087e-08
-5.90090475904e-08
-8.97832258085e-08
-3.2653168573e-08
-6.70000497764e-08
-9.11104990978e-08
-1.70554906917e-08
-6.72578325796e-08
-9.86684823279e-08
-2.51307531131e-08
-4.78664065118e-08
-1.10477791594e-07
-4.56087888831e-08
-1.35898254282e-08
-1.22986133629e-07
-6.15061610243e-08
4.0882443113e-08
-1.35651240968e-07
-8.219969125e-08
1.23943377098e-07
-1.44563096477e-07
-1.11889388029e-07
2.30763853838e-07
-1.47152711409e-07
-1.36135924488e-07
3.38145643854e-07
-1.42239594644e-07
-1.36442561852e-07
4.16569626637e-07
-1.3237594134e-07
-1.06166989563e-07
4.56142637986e-07
-1.20899607786e-07
-6.58880248474e-08
4.58641288536e-07
-1.07618457689e-07
-2.70918541397e-08
4.28117484409e-07
-9.51464393694e-08
7.68220672846e-09
3.67113178775e-07
-8.44374806292e-08
3.97107516881e-08
2.71372347098e-07
-7.42839851826e-08
7.52749602755e-08
1.45362262128e-07
-7.04824478682e-08
1.04955236709e-07
-6.26891777033e-08
1.22531213262e-07
2.28927348445e-05
2.70850631958e-05
-1.8197073778e-05
3.95780139149e-05
3.89396096609e-05
-9.11143706159e-06
3.75986055278e-05
5.91073191145e-05
1.40994023811e-05
2.09224202727e-05
7.39378209036e-05
3.32979388948e-05
-1.53116615745e-06
8.20744917923e-05
4.13280916064e-05
-2.46481885874e-05
8.24114448245e-05
4.19628106842e-05
-4.29719747293e-05
7.39632739533e-05
3.47885575529e-05
-4.99743949156e-05
5.79847935804e-05
1.90664716108e-05
-4.39861075519e-05
3.71829501691e-05
1.18731897864e-06
-3.1499147648e-05
1.99619499975e-05
-9.14085594231e-06
-1.99542786346e-05
9.01141179773e-06
-1.03827386631e-05
-1.18019923068e-05
3.02526056018e-06
-8.02073769291e-06
-6.80957261063e-06
3.4943063344e-07
-5.22677752861e-06
-3.99103727293e-06
-5.70057837473e-07
-3.1177752817e-06
-2.44481860443e-06
-7.16780891282e-07
-1.80217227309e-06
-1.57876629245e-06
-5.98188574109e-07
-1.0587669e-06
-1.06188146985e-06
-4.38208185192e-07
-6.4924529625e-07
-7.21960654083e-07
-3.01851946616e-07
-4.3180129437e-07
-4.78793211745e-07
-2.08559062895e-07
-3.08583802249e-07
-3.00929110201e-07
-1.48009946347e-07
-2.26803761786e-07
-1.77123841046e-07
-1.07363596281e-07
-1.61966082863e-07
-9.99453359492e-08
-8.121651344e-08
-1.08756727516e-07
-6.29621919487e-08
-6.74782290573e-08
-6.4923803058e-08
-5.78900780317e-08
-6.33919325943e-08
-3.14718681912e-08
-6.7524922396e-08
-6.48109520031e-08
-1.66714472402e-08
-6.89381701063e-08
-7.1234532236e-08
-2.60257540511e-08
-4.99573077308e-08
-8.11271007966e-08
-4.8334678282e-08
-1.50122430777e-08
-9.17190972262e-08
-6.62133954849e-08
3.95928898163e-08
-1.01841484341e-07
-8.84155036147e-08
1.2402193074e-07
-1.09235221223e-07
-1.19758886668e-07
2.32530608732e-07
-1.11121688687e-07
-1.4454473763e-07
3.410918604e-07
-1.06870765409e-07
-1.43938351876e-07
4.20104282732e-07
-9.88149547273e-08
-1.12583700668e-07
4.59704033392e-07
-8.95627767156e-08
-7.09474356305e-08
4.61994805769e-07
-7.88640201237e-08
-3.1055639857e-08
4.31369954459e-07
-6.88800645671e-08
4.34904576237e-09
3.70029930705e-07
-6.03471204605e-08
3.72414532945e-08
2.74297334557e-07
-5.20765542813e-08
7.3517484864e-08
1.47431580052e-07
-4.81538304761e-08
1.04528086446e-07
-4.08422072991e-08
1.25574093613e-07
2.58990115982e-05
1.94554041022e-05
-1.82693860895e-05
4.38705770253e-05
2.74795432695e-05
-6.51152822319e-06
4.14785035131e-05
4.15272231961e-05
1.99721509248e-05
2.31436425224e-05
5.11897698426e-05
4.10829120149e-05
-1.42542135619e-06
5.66920292859e-05
4.99515196557e-05
-2.66178233408e-05
5.69832539151e-05
5.06205874623e-05
-4.65632456247e-05
5.13490133906e-05
4.2559678575e-05
-5.42444944494e-05
4.07294143353e-05
2.49366288063e-05
-4.78393208387e-05
2.63772988555e-05
4.40045190538e-06
-3.41546690323e-05
1.43891707064e-05
-8.11190822732e-06
-2.14492770861e-05
6.64248128675e-06
-1.03364986386e-05
-1.24979154826e-05
2.33474951999e-06
-8.26088420928e-06
-7.05793916923e-06
3.67780385953e-07
-5.45835880363e-06
-4.03369505637e-06
-3.32749411955e-07
-3.26158036401e-06
-2.41409039249e-06
-4.65476426523e-07
-1.87093293721e-06
-1.53464686425e-06
-3.96711484472e-07
-1.0809419577e-06
-1.02399071569e-06
-2.92316266821e-07
-6.56565689926e-07
-6.95156525924e-07
-2.01278511651e-07
-4.29424901866e-07
-4.60909025853e-07
-1.37917321265e-07
-3.04905675761e-07
-2.88819895306e-07
-9.66682696927e-08
-2.23446367197e-07
-1.69078602909e-07
-6.89249217084e-08
-1.58194157905e-07
-9.51703551288e-08
-5.09072885897e-08
-1.04229766773e-07
-6.06469424904e-08
-4.15779873599e-08
-6.04338195923e-08
-5.72782209149e-08
-3.90888728861e-08
-2.76799802477e-08
-6.82116820283e-08
-4.02920923832e-08
-1.35918883084e-08
-7.05514481897e-08
-4.49270547921e-08
-2.39724578154e-08
-5.19112573035e-08
-5.19659165534e-08
-4.78040944906e-08
-1.69601000916e-08
-5.94861342181e-08
-6.71849220338e-08
3.83943528109e-08
-6.64604538985e-08
-9.07356130899e-08
1.24027200208e-07
-7.14968497781e-08
-1.23372844069e-07
2.33920742168e-07
-7.25409686343e-08
-1.48479163173e-07
3.43408891503e-07
-6.93040539604e-08
-1.47063182149e-07
4.22871236779e-07
-6.35271567072e-08
-1.14760603337e-07
4.62459651608e-07
-5.7077572007e-08
-7.20847034808e-08
4.64640099316e-07
-4.96200658629e-08
-3.14350808036e-08
4.33970460783e-07
-4.27316602036e-08
4.51158640272e-09
3.72452581417e-07
-3.68657155949e-08
3.80281217105e-08
2.76530993912e-07
-3.10635525183e-08
7.49008343948e-08
1.49126204121e-07
-2.77260617661e-08
1.06967924647e-07
-2.12924618888e-08
1.29565892006e-07
2.79744970858e-05
9.95651499687e-06
-1.84756412362e-05
4.67651840905e-05
1.39225800886e-05
-5.2337330173e-06
4.41615968449e-05
2.10192462383e-05
2.31115485083e-05
2.46826427782e-05
2.56732188892e-05
4.49955066793e-05
-1.32222964449e-06
2.84970680025e-05
5.419982264e-05
-2.79224169385e-05
2.86674136011e-05
5.49160238194e-05
-4.89780274861e-05
2.58385305263e-05
4.65660716272e-05
-5.71089456784e-05
2.06636309881e-05
2.81967091545e-05
-5.04941839557e-05
1.34544112273e-05
6.30810511365e-06
-3.60254054612e-05
7.39833691471e-06
-7.4779776817e-06
-2.25290432101e-05
3.45074749355e-06
-1.03046644101e-05
-1.3013865941e-05
1.23537752702e-06
-8.41584099112e-06
-7.25054703411e-06
2.13495559252e-07
-5.60906655487e-06
-4.07412978161e-06
-1.55290115388e-07
-3.35390492455e-06
-2.3979870804e-06
-2.28571403954e-07
-1.91307189406e-06
-1.50650613251e-06
-1.96010574205e-07
-1.09220348441e-06
-9.99088094798e-07
-1.43469152289e-07
-6.56283143028e-07
-6.77248532421e-07
-9.81948547077e-08
-4.24940495439e-07
-4.4890974483e-07
-6.62994564615e-08
-2.99973019097e-07
-2.80688175963e-07
-4.56770684348e-08
-2.19228200435e-07
-1.63658768836e-07
-3.18315766337e-08
-1.54136828012e-07
-9.20098903514e-08
-2.29219058679e-08
-9.96464386819e-08
-5.92069070113e-08
-1.850204607e-08
-5.58890158273e-08
-5.69978575737e-08
-1.75669959088e-08
-2.3739086441e-08
-6.88096728908e-08
-1.83291830751e-08
-1.01575474176e-08
-7.1783705215e-08
-2.07258446676e-08
-2.12318376643e-08
-5.33694720672e-08
-2.42773466793e-08
-4.61053460333e-08
-1.8384349666e-08
-2.79792877795e-08
-6.64925169976e-08
3.75351645074e-08
-3.12495605223e-08
-9.11302832866e-08
1.24049140151e-07
-3.34787081449e-08
-1.24533581215e-07
2.3491127155e-07
-3.35934692334e-08
-1.49814513236e-07
3.45022666964e-07
-3.16223307241e-08
-1.478015472e-07
4.24772097618e-07
-2.8495077595e-08
-1.14792159329e-07
4.64305203139e-07
-2.52005011206e-08
-7.14215028238e-08
4.66436013971e-07
-2.14282128956e-08
-3.03336052517e-08
4.35746240118e-07
-1.8109182413e-08
6.0574114505e-09
3.74123104396e-07
-1.52481368166e-08
3.99970322668e-08
2.78036143043e-07
-1.22792922104e-08
7.72948473866e-08
1.50218822023e-07
-9.95551284973e-09
1.10037610301e-07
-4.043936962e-09
1.32959680536e-07
2.90151683783e-05
-3.89596584572e-07
-1.86690928297e-05
4.82257377074e-05
-4.42316554289e-07
-4.84570076829e-06
4.55183276933e-05
-5.20838134341e-07
2.42474816519e-05
2.5410734285e-05
-5.58079951268e-07
4.6338897919e-05
-1.26548533911e-06
-5.81036302977e-07
5.5754319321e-05
-2.85420399478e-05
-5.67331126885e-07
5.65112884313e-05
-5.01577590888e-05
-5.29552764808e-07
4.79837947808e-05
-5.85109848315e-05
-4.70155339586e-07
2.94870206343e-05
-5.18203120182e-05
-3.69616948086e-07
7.13333930105e-06
-3.69729485664e-05
-2.49538167004e-07
-7.19951942832e-06
-2.3084234846e-05
-1.45357386767e-07
-1.02926440464e-05
-1.32827062743e-05
-7.52723531175e-08
-8.49091333344e-06
-7.35277290166e-06
-3.49664188297e-08
-5.68150413477e-06
-4.09697045392e-06
-1.34870719867e-08
-3.3976343391e-06
-2.39086533807e-06
-2.78986955929e-09
-1.93191123304e-06
-1.49261648299e-06
2.31805654815e-09
-1.09659924747e-06
-9.8677355773e-07
4.19176778416e-09
-6.53522285605e-07
-6.6833716656e-07
4.90860105617e-09
-4.21557231786e-07
-4.42941941158e-07
4.98720789693e-09
-2.96698283364e-07
-2.76659414584e-07
4.60784675342e-09
-2.16582852411e-07
-1.60998867553e-07
4.01981674071e-09
-1.51525987687e-07
-9.0506376708e-08
3.36703493346e-09
-9.67935938392e-08
-5.85740584484e-08
2.63352318193e-09
-5.30779968788e-08
-5.69224043694e-08
2.09365515772e-09
-2.13205112841e-08
-6.91457245692e-08
1.91786957819e-09
-8.03022958774e-09
-7.24204886082e-08
1.96151839173e-09
-1.94172611723e-08
-5.40952159259e-08
2.18787447682e-09
-4.47929733336e-08
-1.90680433182e-08
2.6672315616e-09
-6.56741271313e-08
3.71651109304e-08
3.38476235983e-09
-9.08672406921e-08
1.24144886814e-07
4.22250856869e-09
-1.24682404203e-07
2.35484754014e-07
5.01278635514e-09
-1.49951032789e-07
3.45878895291e-07
5.57362247088e-09
-1.47598618275e-07
4.25738833921e-07
5.8392447869e-09
-1.14205055985e-07
4.65210114689e-07
5.80232309901e-09
-7.04856131751e-08
4.67291680363e-07
5.54917194282e-09
-2.90700885983e-08
4.36590901892e-07
5.1315230587e-09
7.45001290891e-09
3.74900049881e-07
4.82704031403e-09
4.16070271579e-08
2.78707012672e-07
4.77507661564e-09
7.9130748569e-08
1.50685240802e-07
5.91336682562e-09
1.12143699786e-07
1.1711808517e-08
1.34918868198e-07
2.90044759918e-05
-1.07138274866e-05
-1.86802799522e-05
4.82106481552e-05
-1.47870265492e-05
-4.86148908519e-06
4.55030509094e-05
-2.20462032004e-05
2.42329510379e-05
2.54023914589e-05
-2.67846505104e-05
4.63272406556e-05
-1.26313164665e-06
-2.96469353317e-05
5.5731406572e-05
-2.85295413111e-05
-2.97869933211e-05
5.64860434059e-05
-5.01384992705e-05
-2.68828788182e-05
4.79622919332e-05
-5.84867081125e-05
-2.15791369496e-05
2.94571881212e-05
-5.17919134448e-05
-1.41674317689e-05
7.10300279357e-06
-3.6947169546e-05
-7.87800315363e-06
-7.21630813271e-06
-2.30661169928e-05
-3.72973776691e-06
-1.02967058618e-05
-1.32718925013e-05
-1.38001285959e-06
-8.48951837605e-06
-7.34690066844e-06
-2.80802086003e-07
-5.67918876795e-06
-4.094011598e-06
1.29414571597e-07
-3.39581967615e-06
-2.38946299102e-06
2.23273224448e-07
-1.9306364735e-06
-1.49205138807e-06
2.00718421751e-07
-1.09583397219e-06
-9.86565995812e-07
1.51947708477e-07
-6.53259819761e-07
-6.68302533489e-07
1.0805268736e-07
-4.21424956734e-07
-4.43020103198e-07
7.62413210729e-08
-2.96552929636e-07
-2.76796247522e-07
5.48682600881e-08
-2.16499643571e-07
-1.61157597562e-07
3.98731525577e-08
-1.51505989205e-07
-9.06725334402e-08
2.95742105849e-08
-9.67043717181e-08
-5.8698151984e-08
2.36916047787e-08
-5.30425631718e-08
-5.69694703853e-08
2.16507884376e-08
-2.12940246908e-08
-6.91363960375e-08
2.20092414784e-08
-7.9309394587e-09
-7.23603929576e-08
2.44958661082e-08
-1.93149817706e-08
-5.39736388628e-08
2.84815923349e-08
-4.46828892481e-08
-1.88827978374e-08
3.31057053004e-08
-6.55296771589e-08
3.73647693465e-08
3.78224421184e-08
-9.06849566363e-08
1.24332592781e-07
4.16729212069e-08
-1.24419629605e-07
2.35622712071e-07
4.33233954117e-08
-1.49605649885e-07
3.45946989785e-07
4.24472735076e-08
-1.47206482597e-07
4.25734412273e-07
3.98283628264e-08
-1.13787383214e-07
4.65152642972e-07
3.6445629338e-08
-7.00731121797e-08
4.67191345624e-07
3.21823493276e-08
-2.86830909178e-08
4.36447583895e-07
2.79970941607e-08
7.86807663679e-09
3.747241303e-07
2.45069982005e-08
4.20348320486e-08
2.78511957799e-07
2.14138887554e-08
7.95654633123e-08
1.50542367763e-07
2.13321803718e-08
1.12541631641e-07
2.70544855907e-08
1.35189121003e-07
2.79416329575e-05
-2.01485023414e-05
-1.85069925152e-05
4.67185044677e-05
-2.82817857782e-05
-5.2821269969e-06
4.41173211288e-05
-4.2501726858e-05
2.30566954995e-05
2.46599134571e-05
-5.2269271564e-05
4.49420530704e-05
-1.31428971683e-06
-5.77979783469e-05
5.41251974454e-05
-2.78860135372e-05
-5.80525421016e-05
5.48372735426e-05
-4.89213779925e-05
-5.23403204953e-05
4.64928125435e-05
-5.70361676507e-05
-4.15712197453e-05
2.81068782569e-05
-5.04101279445e-05
-2.70156784186e-05
6.22219423644e-06
-3.59498015389e-05
-1.48131418445e-05
-7.5252154033e-06
-2.24761787195e-05
-6.88808673099e-06
-1.03153064115e-05
-1.29823017861e-05
-2.4622839108e-06
-8.41163996161e-06
-7.2334362092e-06
-4.27429725925e-07
-5.60227036507e-06
-4.06542464936e-06
3.09899861762e-07
-3.34852560102e-06
-2.39383829772e-06
4.61020712329e-07
-1.90935849779e-06
-1.50481634889e-06
4.01341646764e-07
-1.08966717677e-06
-9.98488025431e-07
3.0063633246e-07
-6.55035284221e-07
-6.77163591521e-07
2.11099026217e-07
-4.24388090846e-07
-4.49146737598e-07
1.4776255893e-07
-2.99554390308e-07
-2.81092824953e-07
1.05782727307e-07
-2.18983659589e-07
-1.6414059705e-07
7.69215765664e-08
-1.54014555483e-07
-9.2506898923e-08
5.73019162576e-08
-9.93734426156e-08
-5.95863141494e-08
4.64417474125e-08
-5.56807344607e-08
-5.71543014662e-08
4.28040707514e-08
-2.35934037562e-08
-6.87842385952e-08
4.35461838563e-08
-9.91338206089e-09
-7.16067889377e-08
4.82339308457e-08
-2.0920018099e-08
-5.3013152589e-08
5.56620199446e-08
-4.57763627294e-08
-1.78408042846e-08
6.40098230048e-08
-6.60767443633e-08
3.81209725635e-08
7.24570631239e-08
-9.05960671836e-08
1.2460192794e-07
7.89931260102e-08
-1.23802534304e-07
2.35319096226e-07
8.14296436868e-08
-1.48828307779e-07
3.45223146283e-07
7.91944245588e-08
-1.4665970096e-07
4.24756632068e-07
7.38524061033e-08
-1.13568308163e-07
4.64134949402e-07
6.7264969029e-08
-7.0209171095e-08
4.66125034805e-07
5.92626562297e-08
-2.90815383053e-08
4.35315593234e-07
5.15224239772e-08
7.27408149437e-09
3.73591214221e-07
4.49834252945e-08
4.12393952162e-08
2.77448661444e-07
3.89721273431e-08
7.85765437898e-08
1.4979165551e-07
3.7766981309e-08
1.1121319531e-07
4.30662474525e-08
1.33769449048e-07
2.5842528408e-05
-2.76767896219e-05
-1.83142766959e-05
4.37899697779e-05
-3.96360389941e-05
-6.59320807503e-06
4.14047075997e-05
-5.99659905152e-05
1.98495127568e-05
2.31040993429e-05
-7.49183744944e-05
4.09497297609e-05
-1.41045391044e-06
-8.30894978048e-05
4.98060449704e-05
-2.65543165989e-05
-8.33832153807e-05
5.04745396534e-05
-4.64662667802e-05
-7.48389179022e-05
4.24105566676e-05
-5.41220503251e-05
-5.86979889828e-05
2.47825509649e-05
-4.77027172572e-05
-3.77049534219e-05
4.26993066174e-06
-3.40342138944e-05
-2.03011364806e-05
-8.18053552517e-06
-2.13658306964e-05
-9.20738507629e-06
-1.03491156254e-05
-1.24481631769e-05
-3.12792083538e-06
-8.25206313892e-06
-7.03091973443e-06
-3.98120498629e-07
-5.44658465568e-06
-4.01989793877e-06
5.51499042715e-07
-3.25264922081e-06
-2.40744144864e-06
7.13688863924e-07
-1.86514913289e-06
-1.53187914673e-06
6.02280776839e-07
-1.07652321968e-06
-1.02298392898e-06
4.45963736754e-07
-6.54240562838e-07
-6.95029386636e-07
3.11257023826e-07
-4.28129820116e-07
-4.61297583965e-07
2.18114811775e-07
-3.04100274178e-07
-2.89492154692e-07
1.56841699809e-07
-2.22879625434e-07
-1.69926949231e-07
1.14971036892e-07
-1.57628469862e-07
-9.60263730699e-08
8.71463892813e-08
-1.03756997885e-07
-6.12926776059e-08
7.18141675685e-08
-6.01160010766e-08
-5.75505421866e-08
6.65279932168e-08
-2.74740092503e-08
-6.81835463753e-08
6.73601731241e-08
-1.31871787696e-08
-7.02739527653e-08
7.38147362595e-08
-2.34947234318e-08
-5.13411086264e-08
8.40532807591e-08
-4.73262715726e-08
-1.60753552226e-08
9.53282744897e-08
-6.65844263428e-08
3.93389821795e-08
1.06991376841e-07
-8.99483262545e-08
1.24914502541e-07
1.1562714847e-07
-1.22210928041e-07
2.34573264542e-07
1.18705619215e-07
-1.46939590609e-07
3.4372335257e-07
1.15286157779e-07
-1.45250221289e-07
4.22836708081e-07
1.07577642557e-07
-1.12849237031e-07
4.62159633255e-07
9.81150758929e-08
-7.01844003511e-08
4.6412305556e-07
8.68981204479e-08
-2.96098738213e-08
4.33243087003e-07
7.59786756608e-08
6.41386281293e-09
3.71548171703e-07
6.67096027342e-08
3.99603700304e-08
2.75531901393e-07
5.80934385752e-08
7.68873793315e-08
1.48390362106e-07
5.60638608233e-08
1.08835830051e-07
6.06214016724e-08
1.30824907889e-07
2.2813351921e-05
-3.22463168441e-05
-1.82438637966e-05
3.94582129715e-05
-4.70625649805e-05
-9.2183484323e-06
3.74960052197e-05
-7.19052958021e-05
1.39014951928e-05
2.08743711276e-05
-9.13471826566e-05
3.30504542707e-05
-1.50587706301e-06
-0.00010176548988
4.10562365626e-05
-2.45590952214e-05
-0.000102028541236
4.16985440613e-05
-4.28348264608e-05
-9.11089887159e-05
3.45458230884e-05
-4.9803579385e-05
-7.05821375922e-05
1.8852902351e-05
-4.38030827387e-05