/*--------------------------------*- C++ -*----------------------------------*\
| =========                 |                                                 |
| \\      /  F ield         | OpenFOAM: The Open Source CFD Toolbox           |
|  \\    /   O peration     | Version:  3.0.1                                 |
|   \\  /    A nd           | Web:      www.OpenFOAM.org                      |
|    \\/     M anipulation  |                                                 |
\*---------------------------------------------------------------------------*/
FoamFile
{
    version     2.0;
    format      ascii;
    class       volScalarField;
    location    "3.8";
    object      p;
}
// * * * * * * * * * * * * * * * * * * * * * * * * * * * * * * * * * * * * * //

dimensions      [1 -1 -2 0 0 0 0];

internalField   nonuniform List<scalar> 
15984
(
4646.89959827
4646.81045623
4646.62495909
4646.45528856
4646.35108059
4646.31195921
4646.345573
4646.46100087
4646.63808824
4646.81634008
4646.9523443
4647.02796604
4647.04657813
4647.02276985
4646.97085945
4646.90242901
4646.82559278
4646.74573265
4646.66572148
4646.58703206
4646.51050313
4646.43688873
4646.36744153
4646.30485202
4646.25408195
4646.2186639
4646.2012523
4646.20168927
4646.22311059
4646.25629293
4646.29737278
4646.33943524
4646.37771802
4646.40896099
4646.43144401
4646.44510099
4646.45123454
4646.4522447
4646.45112276
4646.45030826
4646.91656606
4646.84900967
4646.67088277
4646.49737828
4646.39226558
4646.35141982
4646.3835456
4646.49866541
4646.6754457
4646.84905715
4646.97701191
4647.04499209
4647.05764738
4647.02957646
4646.97494888
4646.90485538
4646.82702578
4646.74653765
4646.66613111
4646.58718528
4646.5104876
4646.4367696
4646.36734526
4646.30472682
4646.25389267
4646.21849224
4646.20126334
4646.20216106
4646.22308831
4646.25645198
4646.29753239
4646.33958043
4646.37775458
4646.40887145
4646.43123068
4646.4447546
4646.45077572
4646.45169984
4646.45061179
4646.45001972
4646.88848778
4646.82091901
4646.61080206
4646.4033597
4646.27980927
4646.23703027
4646.28478986
4646.4306966
4646.64327742
4646.84496059
4646.98771438
4647.05946101
4647.07076877
4647.03961787
4646.98183146
4646.9092568
4646.82967346
4646.74801545
4646.66686188
4646.5874626
4646.5104905
4646.43662556
4646.36715451
4646.30482437
4646.25384084
4646.21848929
4646.20168977
4646.20236555
4646.2235866
4646.25687033
4646.29796435
4646.33998422
4646.37805025
4646.40898884
4646.4311961
4646.44455784
4646.45044185
4646.45127408
4646.4502224
4646.44988158
4646.83892498
4646.75132512
4646.48580302
4646.23638181
4646.09168431
4646.04653533
4646.11136964
4646.29472281
4646.56209813
4646.8129427
4646.98542271
4647.07039212
4647.08366473
4647.05060586
4646.98982917
4646.91446862
4646.83276467
4646.74963355
4646.66755456
4646.58761705
4646.51034919
4646.43635238
4646.36687893
4646.3045919
4646.25404683
4646.21884609
4646.20188477
4646.20271802
4646.22421746
4646.25746002
4646.29855625
4646.34052342
4646.37846282
4646.40922005
4646.4312328
4646.44441486
4646.45013958
4646.45086421
4646.44983054
4646.44968802
4646.77381936
4646.65156828
4646.32533967
4646.0452905
4645.88915715
4645.84006548
4645.91188185
4646.12059855
4646.44252488
4646.7534556
4646.96750563
4647.07313192
4647.09341286
4647.06052873
4646.99759035
4646.91966662
4646.83581056
4646.75113504
4646.66808179
4646.58760117
4646.51005851
4646.43596919
4646.36654818
4646.30437108
4646.25398416
4646.21902815
4646.20227431
4646.20358549
4646.22458451
4646.25811566
4646.29923182
4646.34112979
4646.37893525
4646.40951139
4646.43132397
4646.44433187
4646.44989789
4646.45051261
4646.44948233
4646.44947925
4646.70413142
4646.54381998
4646.16611629
4645.87038418
4645.71354626
4645.6596411
4645.72605985
4645.9437793
4646.30813582
4646.67828051
4646.9385211
4647.06969659
4647.09984545
4647.0687371
4647.00440783
4646.92435312
4646.83851422
4646.75237168
4646.66839473
4646.58741792
4646.509644
4646.43550691
4646.36617913
4646.3041473
4646.25394871
4646.21922277
4646.20273598
4646.20454584
4646.2249176
4646.25876894
4646.2999082
4646.34172945
4646.37940312
4646.40981097
4646.43144623
4646.44428814
4646.44970778
4646.45021864
4646.44917822
4646.4492632
4646.64017466
4646.44646284
4646.0325437
4645.73342555
4645.58701113
4645.52767081
4645.57717584
4645.78963537
4646.18065147
4646.60113027
4646.90534148
4647.06241056
4647.1032748
4647.0749991
4647.00994906
4646.92821038
4646.84071476
4646.7532934
4646.66850825
4646.58711827
4646.50916695
4646.43502018
4646.36580369
4646.30392081
4646.25391822
4646.21940389
4646.2031646
4646.2053008
4646.22535383
4646.25937387
4646.30051903
4646.34226288
4646.3798157
4646.41007624
4646.43156318
4646.44425797
4646.4495546
4646.44997506
4646.44891604
4646.44905342
4646.58949381
4646.37057219
4645.93471753
4645.6408863
4645.51766406
4645.45342317
4645.47321068
4645.67128952
4646.07609116
4646.53371952
4646.87453629
4647.0540913
4647.104827
4647.0793925
4647.0140842
4646.93110032
4646.84235231
4646.75391459
4646.66849198
4646.5867814
4646.50870678
4646.43457334
4646.36546365
4646.3037097
4646.25388182
4646.21954453
4646.20350298
4646.20581594
4646.22580807
4646.25988106
4646.3010123
4646.34268578
4646.38013669
4646.4102785
4646.43164882
4646.44423143
4646.4494296
4646.44977737
4646.44870026
4646.44886629
4646.55555962
4646.32007273
4645.8724686
4645.58445832
4645.48796729
4645.42026704
4645.40784471
4645.59218646
4646.0029856
4646.48461572
4646.85134525
4647.04719264
4647.10530372
4647.08214113
4647.01680273
4646.93301056
4646.8434135
4646.75428435
4646.66842261
4646.58649486
4646.50834456
4646.43422897
4646.36520091
4646.30354041
4646.25384375
4646.2196319
4646.20372729
4646.2061478
4646.22614598
4646.26023968
4646.30134998
4646.34296761
4646.38034303
4646.41040073
4646.43168998
4646.44419804
4646.44932914
4646.44962644
4646.44853544
4646.44871596
4646.539062
4646.29515147
4645.84252625
4645.55699288
4645.47538794
4645.40604078
4645.37538254
4645.55252802
4645.96602757
4646.45926349
4646.83923891
4647.04347994
4647.10543969
4647.08348346
4647.0181528
4646.9339598
4646.84392932
4646.75445593
4646.66837153
4646.58633339
4646.508144
4646.43403653
4646.36504962
4646.30343705
4646.25381033
4646.21966089
4646.20382561
4646.20629973
4646.22631803
4646.26041746
4646.30150805
4646.34309007
4646.38042187
4646.41043454
4646.43168526
4646.44415488
4646.44925248
4646.44952516
4646.44842751
4646.44861361
4646.54003823
4646.29597293
4645.84303365
4645.55713144
4645.47518609
4645.40583479
4645.37559639
4645.55316242
4645.96695011
4646.4601875
4646.83988894
4647.04384975
4647.10562207
4647.08355891
4647.01817909
4646.93396679
4646.84393514
4646.75446399
4646.66838002
4646.58633837
4646.50814151
4646.43402429
4646.3650297
4646.30341393
4646.25378162
4646.21962906
4646.20379234
4646.20626722
4646.22630876
4646.26040009
4646.30147581
4646.34304546
4646.38036849
4646.41037719
4646.43162878
4646.44410127
4646.44920179
4646.44947704
4646.44838164
4646.44856886
4646.55851074
4646.32261228
4645.87416514
4645.58510825
4645.48763954
4645.41996362
4645.40874619
4645.59419204
4646.00578996
4646.48734918
4646.85325361
4647.04827663
4647.105836
4647.08236617
4647.01687969
4646.93302994
4646.84342881
4646.75430751
4646.66844771
4646.58650959
4646.5083368
4646.434193
4646.36514184
4646.30347142
4646.25375862
4646.21953727
4646.20362721
4646.20604752
4646.22612378
4646.26019157
4646.30125578
4646.34283618
4646.38018542
4646.41023139
4646.43152483
4646.4440392
4646.44917977
4646.44948448
4646.44839989
4646.44858263
4646.5944739
4646.37504693
4645.9381424
4645.64277125
4645.51820146
4645.45404685
4645.4754581
4645.67505063
4646.08086537
4646.53814691
4646.87758355
4647.05581293
4647.10567273
4647.07975007
4647.01420687
4646.9311311
4646.84237657
4646.75395125
4646.66853269
4646.58680528
4646.50869337
4646.43451626
4646.3653691
4646.30359705
4646.25374349
4646.21938974
4646.20333481
4646.2056342
4646.22579498
4646.25981373
4646.30086292
4646.34247411
4646.37988214
4646.41000451
4646.43137887
4646.44397419
4646.4491891
4646.44954871
4646.44848217
4646.44865199
4646.64721119
4646.45313427
4646.03837546
4645.7375735
4645.59002776
4645.53077015
4645.58166073
4645.79561417
4646.18741215
4646.60704789
4646.90934308
4647.06466211
4647.10438999
4647.07546911
4647.01010893
4646.92825426
4646.8407494
4646.75334397
4646.66856398
4646.58715141
4646.50915006
4646.43494573
4646.36567908
4646.30376764
4646.25373059
4646.21919233
4646.20292473
4646.20498586
4646.22541374
4646.25930619
4646.30032478
4646.34198154
4646.37947584
4646.4097098
4646.43120306
4646.44391427
4646.44923364
4646.44967075
4646.44862718
4646.44876791
4646.71308574
4646.55272951
4646.17475096
4645.87745068
4645.71977509
4645.66587295
4645.73327208
4645.95216557
4646.3167628
4646.68540121
4646.94325068
4647.07235331
4647.1011551
4647.06929812
4647.00459951
4646.92441639
4646.83855842
4646.75243596
4646.66846454
4646.58746002
4646.50962734
4646.43541944
4646.36603068
4646.30395819
4646.25371521
4646.21895634
4646.20242143
4646.20397406
4646.225189
4646.25871914
4646.29967956
4646.34139126
4646.37899313
4646.40936768
4646.43101204
4646.44387144
4646.44932001
4646.4498532
4646.44883196
4646.448919
4646.78440475
4646.66251298
4646.3367825
4646.0555482
4645.89885331
4645.84960274
4645.92199819
4646.13129752
4646.45267812
4646.761441
4646.97273615
4647.07608789
4647.09489594
4647.06116882
4646.99781585
4646.91975007
4646.83586653
4646.75121368
4646.66816717
4646.58765444
4646.51004505
4646.43587204
4646.36638185
4646.30415183
4646.25370527
4646.21870334
4646.20190049
4646.20282798
4646.22500886
4646.25807844
4646.29897768
4646.34074826
4646.37847159
4646.409008
4646.43083501
4646.44385941
4646.44945898
4646.45010147
4646.44909314
4646.44909013
4646.8507828
4646.76386906
4646.49945849
4646.24947788
4646.10459353
4646.05896165
4646.12400999
4646.3072395
4646.57329306
4646.82146928
4646.99098357
4647.07355339
4647.08528609
4647.0513185
4646.99010843
4646.91457169
4646.83283621
4646.74972925
4646.66765511
4646.58768217
4646.51034084
4646.43624835
4646.36669992
4646.30435063
4646.25371645
4646.2184465
4646.20147146
4646.20202678
4646.22454094
4646.25741483
4646.29828195
4646.34011061
4646.37796174
4646.40867066
4646.43068923
4646.44389725
4646.44966161
4646.45041933
4646.4494088
4646.44926596
4646.90122869
4646.83455209
4646.62596666
4646.41850305
4646.29491625
4646.25170835
4646.29921624
4646.44438948
4646.65508057
4646.85381654
4646.99350403
4647.06282865
4647.07251425
4647.0404237
4646.98214963
4646.90937999
4646.82976046
4646.74812637
4646.66697745
4646.58753908
4646.51048779
4646.43651575
4646.36696647
4646.30458143
4646.25352962
4646.2180106
4646.20121411
4646.20158115
4646.22394642
4646.2568176
4646.29767199
4646.3395483
4646.37752607
4646.40840821
4646.4306153
4646.44400655
4646.44993411
4646.45080218
4646.44977357
4646.44942971
4646.92982761
4646.86322636
4646.68688795
4646.51353286
4646.40843131
4646.36713432
4646.39882306
4646.51292533
4646.68753207
4646.85808282
4646.98296807
4647.0484986
4647.05951591
4647.030456
4646.97531249
4646.90499228
4646.82712108
4646.74665532
4646.66624944
4646.58726292
4646.51048222
4646.43665001
4646.3671418
4646.30446117
4646.25356018
4646.21806873
4646.2008142
4646.2013222
4646.22340959
4646.25638487
4646.29722532
4646.33912939
4646.37722386
4646.4082744
4646.43062876
4646.44418399
4646.45025298
4646.45121403
4646.45015076
4646.44953979
4646.91306394
4646.82487594
4646.64121812
4646.47169354
4646.36755624
4646.3279901
4646.36111584
4646.4754581
4646.65032366
4646.82549539
4646.95841393
4647.03156078
4647.04850352
4647.02367191
4646.97123052
4646.90256546
4646.82569024
4646.74585213
4646.66584128
4646.58710856
4646.51049616
4646.43676586
4646.36722821
4646.30456049
4646.2537302
4646.21825477
4646.20080103
4646.2009125
4646.22339434
4646.25620801
4646.29703333
4646.33893912
4646.37714984
4646.40831579
4646.43079354
4646.44447964
4646.45066156
4646.45170056
4646.45058747
4646.44971986
4157.26940858
4157.15634662
4156.95790456
4156.78014622
4156.67404017
4156.63568369
4156.67268671
4156.79320696
4156.97788637
4157.16694637
4157.31381022
4157.39789799
4157.42225392
4157.4016363
4157.35117924
4157.28331227
4157.20675272
4157.1271095
4157.04731188
4156.96878547
4156.89227753
4156.81846112
4156.74856973
4156.68507022
4156.63342142
4156.59724606
4156.5795228
4156.58066718
4156.60140527
4156.63666238
4156.67937835
4156.72281522
4156.76208457
4156.7939129
4156.81660572
4156.83010523
4156.83577178
4156.83613647
4156.83439792
4156.8332121
4157.26922739
4157.17355073
4156.99448512
4156.82893495
4156.73146989
4156.69413891
4156.72516236
4156.83362046
4157.0027141
4157.17936655
4157.31921391
4157.39941289
4157.42180245
4157.40058018
4157.35004249
4157.28226001
4157.20581521
4157.12626702
4157.04653995
4156.96807526
4156.89162561
4156.81786401
4156.74797542
4156.68465768
4156.63304035
4156.59684731
4156.57916699
4156.58035079
4156.60095308
4156.63635669
4156.67913129
4156.72259873
4156.76186424
4156.79367632
4156.81633549
4156.82980999
4156.83545079
4156.83578276
4156.83408701
4156.83311104
4157.22990954
4157.12053434
4156.91674562
4156.73065772
4156.62297191
4156.58558572
4156.62735026
4156.75454103
4156.9470968
4157.14692256
4157.30457399
4157.39539116
4157.42258729
4157.40269176
4157.35204904
4157.2836273
4157.20647454
4157.12635495
4157.04626005
4156.9675874
4156.89104913
4156.81728189
4156.74745939
4156.68408451
4156.63269705
4156.59645906
4156.57883329
4156.58035433
4156.60137855
4156.63648233
4156.67921726
4156.72267474
4156.7618899
4156.79364271
4156.81621883
4156.82960157
4156.8351617
4156.8354323
4156.83378369
4156.83300518
4157.16966324
4157.03717413
4156.7956877
4156.58668608
4156.46773472
4156.42991326
4156.48106444
4156.62800618
4156.85385113
4157.09124713
4157.27908203
4157.38850462
4157.42425141
4157.4068356
4157.35592269
4157.28638689
4157.20800045
4157.12687535
4157.04611963
4156.96709491
4156.89039925
4156.81661244
4156.74691494
4156.68383304
4156.63215996
4156.59627772
4156.57905926
4156.58065539
4156.60187284
4156.63681928
4156.67949365
4156.72290454
4156.76204497
4156.79369314
4156.81615459
4156.82941097
4156.83485466
4156.8350394
4156.83342496
4156.83282594
4157.098746
4156.94561648
4156.67562229
4156.46635014
4156.35583498
4156.31480377
4156.35813875
4156.50120245
4156.74756425
4157.0220022
4157.24474659
4157.37712888
4157.42409363
4157.4107266
4157.36005186
4157.28942447
4157.20970914
4157.12743705
4157.04592203
4156.96650893
4156.88965997
4156.8158808
4156.74634731
4156.68351719
4156.63211238
4156.59638306
4156.57935731
4156.58116421
4156.60232908
4156.6372583
4156.67988245
4156.72322468
4156.76227212
4156.7937977
4156.81613742
4156.82925287
4156.8345694
4156.83466065
4156.83306807
4156.83261265
4157.0256393
4156.85776232
4156.57718861
4156.38426155
4156.29230066
4156.24811479
4156.27184245
4156.39232527
4156.64144872
4156.94681767
4157.20502047
4157.36228058
4157.42207267
4157.41369724
4157.36385478
4157.29228559
4157.21132009
4157.12792617
4157.0456531
4156.96586075
4156.88888603
4156.81515161
4156.74580704
4156.68319997
4156.6320555
4156.59652894
4156.57972173
4156.58177816
4156.60278477
4156.6377513
4156.68033682
4156.72360078
4156.76254794
4156.79394842
4156.81616603
4156.82914766
4156.83434136
4156.83434013
4156.83275407
4156.83239086
4156.95954305
4156.78156732
4156.5054431
4156.33635942
4156.27019016
4156.22241139
4156.21900487
4156.30675802
4156.54642848
4156.87443131
4157.1651314
4157.3462621
4157.41878537
4157.41566015
4157.36698298
4157.29475837
4157.21267829
4157.12829008
4157.04534206
4156.96521284
4156.88814008
4156.81448423
4156.74532905
4156.68290938
4156.63199164
4156.59667722
4156.58009402
4156.58236183
4156.60325332
4156.63824672
4156.68079619
4156.723982
4156.76283108
4156.79411669
4156.81622252
4156.82909047
4156.83417236
4156.83408666
4156.83249414
4156.83217889
4156.90754933
4156.72232724
4156.45866366
4156.312497
4156.26832652
4156.2165065
4156.18923128
4156.24375506
4156.46859737
4156.81280168
4157.13037929
4157.33168569
4157.41525444
4157.4168112
4157.36930556
4157.29671078
4157.21369444
4157.12852616
4157.0450318
4156.96463888
4156.88749836
4156.81392665
4156.74493956
4156.68265738
4156.6319205
4156.59679979
4156.58041314
4156.58283647
4156.60368301
4156.63868357
4156.68119704
4156.72431254
4156.76307598
4156.79426614
4156.816281
4156.82905631
4156.83405021
4156.83389552
4156.83228915
4156.83199197
4156.87290205
4156.68210076
4156.4293802
4156.29781035
4156.26253967
4156.20739096
4156.16878282
4156.20013558
4156.41405821
4156.76830082
4157.10503967
4157.32080359
4157.41240136
4157.41741578
4157.37083004
4157.2980236
4157.21439342
4157.12866028
4157.04478118
4156.96421342
4156.8870258
4156.81352155
4156.74465963
4156.68246145
4156.6318489
4156.59687805
4156.58063723
4156.5831664
4156.60400241
4156.63900406
4156.68148548
4156.724546
4156.76324426
4156.79436545
4156.81631639
4156.82902799
4156.83396119
4156.83375836
4156.83213817
4156.83184289
4156.85609572
4156.6617527
4156.4137805
4156.28824738
4156.25645584
4156.19947452
4156.15522486
4156.17648224
4156.38617442
4156.74530758
4157.09197743
4157.31517425
4157.41091158
4157.41770655
4157.37159963
4157.2986816
4157.21476156
4157.12872519
4157.04464659
4156.96398775
4156.88677456
4156.81330423
4156.74450506
4156.68234409
4156.63179386
4156.59690326
4156.58073965
4156.58332265
4156.6041691
4156.63916634
4156.68162376
4156.7246494
4156.76330931
4156.79439256
4156.8163097
4156.82899109
4156.83389558
4156.83366869
4156.83204002
4156.83174214
4156.85706018
4156.66240179
4156.4139429
4156.28799591
4156.25596055
4156.19897033
4156.15503534
4156.1766897
4156.3867471
4156.74608478
4157.09260352
4157.31557398
4157.41112624
4157.41780477
4157.37164107
4157.29869886
4157.21476941
4157.1287356
4157.04465906
4156.96399551
4156.88677292
4156.81329332
4156.7444836
4156.68232004
4156.63176297
4156.5968707
4156.58070726
4156.58328752
4156.60416508
4156.63915094
4156.6815934
4156.72460716
4156.76325821
4156.79433721
4156.81625457
4156.82893969
4156.8338483
4156.83362378
4156.83199566
4156.83169629
4156.87582597
4156.68412653
4156.42999619
4156.29717017
4156.26132373
4156.20615989
4156.16833686
4156.20090236
4156.41589551
4156.77063287
4157.10689155
4157.32197489
4157.41302979
4157.4177099
4157.37095193
4157.29807731
4157.21442572
4157.12869441
4157.04481893
4156.96423743
4156.887022
4156.81348958
4156.7445981
4156.68238944
4156.63175782
4156.59678172
4156.58054052
4156.58305975
4156.60399482
4156.63896066
4156.68139638
4156.72442112
4156.76309282
4156.79420142
4156.81615298
4156.82887646
4156.83382099
4156.83362545
4156.83200726
4156.83170705
4156.91251467
4156.72600893
4156.46030607
4156.31228562
4156.26728617
4156.21553994
4156.18935324
4156.24561836
4156.47198794
4156.81668594
4157.13338263
4157.3335641
4157.41625764
4157.41727936
4157.36949867
4157.2967987
4157.21374843
4157.12858679
4157.04509387
4156.96467685
4156.88749518
4156.81387545
4156.74484155
4156.68253879
4156.63177588
4156.59664363
4156.58025348
4156.58265256
4156.60368506
4156.63862014
4156.68105397
4156.72410997
4156.76282981
4156.79399928
4156.81601744
4156.82881046
4156.83382165
4156.83367955
4156.8320778
4156.83177212
4156.96661209
4156.78731005
4156.50910546
4156.33785171
4156.2703443
4156.22271465
4156.22086452
4156.31049036
4156.55166857
4156.87982447
4157.16915977
4157.34874693
4157.42010789
4157.41627916
4157.36724277
4157.29487481
4157.21274643
4157.12837449
4157.0454266
4156.96526455
4156.88813828
4156.81441585
4156.74519875
4156.6827457
4156.63179756
4156.59646674
4156.57987331
4156.58208819
4156.60328866
4156.63817337
4156.68060552
4156.7237087
4156.762498
4156.79375542
4156.81586644
4156.82875717
4156.83386339
4156.83379496
4156.83220984
4156.83188305
4157.03470473
4156.86577333
4156.58360047
4156.388335
4156.29525728
4156.25118385
4156.2761868
4156.39841914
4156.64871584
4156.95358798
4157.20990046
4157.36524995
4157.42364319
4157.41443903
4157.36417646
4157.29240912
4157.21140345
4157.12802907
4157.04575836
4156.96592621
4156.88888342
4156.81506687
4156.7456489
4156.68299327
4156.63181605
4156.59626695
4156.57944474
4156.58140124
4156.60287752
4156.63767481
4156.68010542
4156.72326503
4156.76213812
4156.79350256
4156.8157263
4156.82873581
4156.83396076
4156.83398076
4156.83240527
4156.83202901
4157.10953877
4156.95588696
4156.68534216
4156.47375834
4156.36237873
4156.32122954
4156.36563472
4156.50997345
4156.75676316
4157.02991514
4157.25027246
4157.38044101
4157.42585474
4157.4115688
4157.36041196
4157.28955589
4157.20980168
4157.12755464
4157.04604251
4156.96658478
4156.88965849
4156.81577985
4156.74616625
4156.68327162
4156.63183531
4156.59606565
4156.57903749
4156.58072127
4156.6024501
4156.63717304
4156.67961367
4156.72283416
4156.76179674
4156.79327862
4156.81562338
4156.82876893
4156.83412418
4156.83424027
4156.8326622
4156.83219447
4157.18177336
4157.04939678
4156.80801272
4156.59772726
4156.47899614
4156.44016527
4156.49199821
4156.63935546
4156.86464805
4157.09998205
4157.28502272
4157.39204401
4157.42614991
4157.4077488
4157.35627875
4157.28652802
4157.20809799
4157.12699845
4157.04624654
4156.96717635
4156.89039706
4156.81649381
4156.7467144
4156.68355494
4156.63186267
4156.59587322
4156.57871457
4156.58020671
4156.60196469
4156.63671515
4156.67918896
4156.72246628
4156.76151456
4156.79311122
4156.81557447
4156.82886394
4156.83435135
4156.83456298
4156.83296598
4156.83235805
4157.24292365
4157.13418889
4156.93122381
4156.74455297
4156.63673757
4156.59895855
4156.64086146
4156.76778613
4156.95896408
4157.15612948
4157.31073213
4157.3990537
4157.42455744
4157.40360595
4157.35241312
4157.28376506
4157.20656784
4157.12647513
4157.04638434
4156.96766585
4156.89104073
4156.81714522
4156.74724512
4156.68378017
4156.63231896
4156.59579542
4156.57849032
4156.57986047
4156.60147242
4156.63636014
4156.67888017
4156.72219593
4156.76131796
4156.79300625
4156.8155819
4156.82899769
4156.83460421
4156.83490299
4156.83327088
4156.83248788
4157.28273278
4157.18800267
4157.01032902
4156.84464419
4156.74709406
4156.70939779
4156.74023375
4156.84795529
4157.01510211
4157.18876024
4157.32543751
4157.40310529
4157.42378124
4157.40150288
4157.35040158
4157.28239676
4157.20590701
4157.12638621
4157.0466678
4156.96816075
4156.89162585
4156.81772926
4156.74775933
4156.68434322
4156.63267168
4156.59640212
4156.57880734
4156.57974115
4156.60105041
4156.63622728
4156.67877418
4156.72209801
4156.76128118
4156.79300773
4156.81566346
4156.829169
4156.83485808
4156.83521935
4156.83353721
4156.83254839
4157.28304083
4157.17102447
4156.97435774
4156.79665463
4156.69057211
4156.65180199
4156.68844413
4156.80799431
4156.99047191
4157.17638
4157.32000701
4157.40155214
4157.42420309
4157.40256457
4157.35156438
4157.28347781
4157.20687329
4157.12725351
4157.04746556
4156.96889656
4156.89230005
4156.81833799
4156.7483636
4156.68477678
4156.63307907
4156.59687663
4156.57919421
4156.58014271
4156.60152684
4156.6365522
4156.67901727
4156.72231348
4156.76152391
4156.79321391
4156.81589603
4156.82942626
4156.83514037
4156.83553306
4156.83379925
4156.83258095
3667.70003006
3667.56817652
3667.36238792
3667.17483721
3667.06511967
3667.02722374
3667.06910042
3667.19384368
3667.37952038
3667.5663168
3667.70895645
3667.78889816
3667.8100757
3667.78692263
3667.73456337
3667.66539397
3667.58812427
3667.50829328
3667.42858166
3667.35017679
3667.27360128
3667.19933078
3667.12829775
3667.06261945
3667.00906101
3666.97131438
3666.9529415
3666.95461612
3666.97653414
3667.01480703
3667.06085438
3667.10695836
3667.14806141
3667.18088749
3667.20381523
3667.21684266
3667.22144521
3667.2204247
3667.21742066
3667.21547808
3667.69616356
3667.59250215
3667.42024645
3667.2591408
3667.16596531
3667.1302792
3667.16149819
3667.26355702
3667.41955377
3667.58352808
3667.71383826
3667.78769116
3667.80664448
3667.78337926
3667.73159581
3667.66306167
3667.58627996
3667.50679051
3667.42730712
3667.3490838
3667.2726773
3667.19855284
3667.12762879
3667.06225323
3667.00863587
3666.97087364
3666.95255734
3666.95436954
3666.97631912
3667.01442485
3667.06043898
3667.10659889
3667.1477226
3667.18061258
3667.20353491
3667.21656928
3667.22116841
3667.22010413
3667.21711969
3667.21540478
3667.65272633
3667.53270705
3667.32790956
3667.143265
3667.04274319
3667.00750066
3667.04945211
3667.172398
3667.35391435
3667.54057181
3667.68928387
3667.7758403
3667.80171614
3667.78171947
3667.73117336
3667.66284057
3667.58583322
3667.50604867
3667.42637448
3667.34807834
3667.27170468
3667.19767779
3667.12686315
3667.06190917
3667.00826829
3666.97054528
3666.95240421
3666.95425939
3666.97662563
3667.01446263
3667.06041193
3667.10658081
3667.1476808
3667.1805239
3667.20342672
3667.21639423
3667.2209296
3667.21979309
3667.21685178
3667.21532402
3667.58757702
3667.43511451
3667.17358404
3666.95809782
3666.85262376
3666.81489552
3666.86527267
3667.01235957
3667.23559137
3667.46547716
3667.64882796
3667.75870597
3667.79685985
3667.78190244
3667.73266553
3667.66409148
3667.58629283
3667.50572417
3667.42554181
3667.34700645
3667.27058422
3667.19661976
3667.12604622
3667.06140388
3667.00795425
3666.97033272
3666.95245016
3666.95440098
3666.97722507
3667.01478385
3667.06061206
3667.10672718
3667.14777546
3667.18054905
3667.20339569
3667.21623607
3667.22066558
3667.21943266
3667.21651933
3667.21513343
3667.5141784
3667.33439094
3667.0233537
3666.75000678
3666.66849843
3666.63152507
3666.72786175
3666.85788844
3667.11180801
3667.38296119
3667.60287068
3667.73885488
3667.79120433
3667.78237927
3667.73469007
3667.66577054
3667.58700916
3667.50547122
3667.42464809
3667.34583807
3667.26936558
3667.19548977
3667.12523258
3667.06089251
3667.00773508
3666.97030291
3666.95266742
3666.95477338
3666.97783937
3667.01521428
3667.06092205
3667.10694946
3667.14792069
3667.18059539
3667.2033196
3667.21606676
3667.22037841
3667.21904618
3667.21615052
3667.21488399
3667.44024427
3667.24167132
3666.82488386
3666.43109228
3666.46507899
3666.43035459
3666.67710519
3666.76784437
3666.99791955
3667.30187427
3667.55574625
3667.71765301
3667.78470308
3667.78246839
3667.73668061
3667.66742393
3667.5877245
3667.5051954
3667.42369756
3667.34462428
3667.2681346
3667.19439982
3667.12447458
3667.06042359
3667.00756927
3666.97037932
3666.95299108
3666.95529276
3666.97841185
3667.01569276
3667.06130435
3667.10722936
3667.14810715
3667.18067206
3667.20328965
3667.21592734
3667.22012374
3667.21869617
3667.21580491
3667.2146207
3667.37299471
3667.16265766
3666.56757081
3666.13091648
3666.33235874
3666.29798985
3666.70452421
3666.79502113
3666.90063708
3667.2285088
3667.51165159
3667.69705346
3667.7779193
3667.78207896
3667.73828543
3667.66887793
3667.5883136
3667.50488996
3667.42278646
3667.34346282
3667.26696958
3667.1934296
3667.12382018
3667.0600034
3667.00742879
3666.97047679
3666.95334278
3666.95583865
3666.97893574
3667.01617473
3667.06170749
3667.10753112
3667.148311
3667.18077004
3667.20329252
3667.21583001
3667.21992354
3667.21841041
3667.21551066
3667.21437149
3667.32025738
3667.10374659
3666.384238
3666.00072177
3666.31927864
3666.281414
3666.74648965
3666.86045408
3666.82579177
3667.1687571
3667.47484272
3667.6793537
3667.77178103
3667.7814142
3667.73942496
3667.67000904
3667.58873223
3667.50458575
3667.42198548
3667.3424705
3667.26598344
3667.19263645
3667.12330462
3667.05963593
3667.00729386
3666.97056082
3666.95365649
3666.95632644
3666.97937324
3667.01659904
3667.06206932
3667.10780374
3667.14849548
3667.18086423
3667.20331012
3667.21576457
3667.21977582
3667.21819281
3667.21527694
3667.21415547
3667.28564545
3667.06722386
3666.3257948
3665.98250795
3666.35315272
3666.31110635
3666.76870048
3666.87061269
3666.7767367
3667.12707068
3667.44872538
3667.66654317
3667.76720796
3667.78078884
3667.74013783
3667.6707699
3667.58900076
3667.50435025
3667.42139603
3667.34174823
3667.26526887
3667.19207083
3667.12294791
3667.05934711
3667.00717371
3666.97061472
3666.95388147
3666.95668187
3666.97968541
3667.01691147
3667.06233426
3667.10800087
3667.1486245
3667.18092656
3667.20331844
3667.2157152
3667.21967014
3667.21803792
3667.21510588
3667.21398504
3667.26912969
3667.0505887
3666.31492124
3665.98053099
3666.36478199
3666.32057842
3666.76507697
3666.85433199
3666.7527217
3667.10602161
3667.43548107
3667.66001814
3667.76486827
3667.78046262
3667.74049829
3667.67115282
3667.58914618
3667.50422893
3667.42109445
3667.34137159
3667.26489593
3667.19177267
3667.12275785
3667.05917807
3667.00710932
3666.97063142
3666.95398629
3666.95685098
3666.97985152
3667.01707001
3667.06246161
3667.10808638
3667.14866909
3667.18093443
3667.20329883
3667.21566822
3667.2195964
3667.21793962
3667.21499752
3667.21387244
3667.27013871
3667.05107631
3666.31418513
3665.97977556
3666.36505682
3666.3208275
3666.76652676
3666.85553022
3666.75321099
3667.10680388
3667.43613717
3667.66044516
3667.76509942
3667.78056957
3667.74054593
3667.67117518
3667.58915918
3667.50424526
3667.42111286
3667.34138456
3667.26489726
3667.19176207
3667.12273198
3667.05915421
3667.0070768
3666.97059844
3666.95395546
3666.95680453
3666.97985947
3667.01705308
3667.06242918
3667.10804212
3667.14861494
3667.1808761
3667.20324179
3667.21561645
3667.21954918
3667.21789437
3667.21495204
3667.21382406
3667.28870295
3667.06883056
3666.32385887
3665.9804266
3666.35417258
3666.31206229
3666.7732244
3666.87435716
3666.77831834
3667.12943
3667.45066749
3667.6677925
3667.76788202
3667.78110955
3667.74027571
3667.67083765
3667.5890417
3667.50440094
3667.42145038
3667.34178531
3667.26527407
3667.19204024
3667.12287713
3667.05927518
3667.00707342
3666.97051507
3666.95378929
3666.95654265
3666.97971509
3667.01686434
3667.06223977
3667.10787023
3667.14846442
3667.18075318
3667.20314975
3667.21556142
3667.21952961
3667.21790362
3667.21497121
3667.21384133
3667.32544668
3667.10683816
3666.4038878
3666.05244209
3666.38571713
3666.34561982
3666.80388451
3666.88549873
3666.82885545
3667.17273175
3667.4779958
3667.68134693
3667.77285399
3667.78191971
3667.73963853
3667.6701148
3667.58880105
3667.5046696
3667.4220737
3667.34253
3667.26599449