/*--------------------------------*- C++ -*----------------------------------*\
| =========                 |                                                 |
| \\      /  F ield         | OpenFOAM: The Open Source CFD Toolbox           |
|  \\    /   O peration     | Version:  3.0.1                                 |
|   \\  /    A nd           | Web:      www.OpenFOAM.org                      |
|    \\/     M anipulation  |                                                 |
\*---------------------------------------------------------------------------*/
FoamFile
{
    version     2.0;
    format      ascii;
    class       volScalarField;
    location    "9.6";
    object      p;
}
// * * * * * * * * * * * * * * * * * * * * * * * * * * * * * * * * * * * * * //

dimensions      [1 -1 -2 0 0 0 0];

internalField   nonuniform List<scalar> 
7968
(
5117.39644251
5117.29877366
5117.04857803
5116.78176782
5116.54528652
5116.37991775
5116.28956522
5116.25743083
5116.25258001
5116.25308671
5116.25265491
5116.25126413
5116.25517756
5116.28639038
5116.37589295
5116.5406722
5116.77679997
5117.04336423
5117.29355429
5117.3912655
5117.29845531
5117.24744353
5117.02262237
5116.74897906
5116.4949107
5116.30919915
5116.19690172
5116.14936473
5116.13521841
5116.12944651
5116.1290654
5116.13405913
5116.14734964
5116.19397878
5116.3054257
5116.49054362
5116.74426457
5117.01770828
5117.24256494
5117.29365645
5117.04793166
5117.02224998
5116.80341813
5116.52473758
5116.26490681
5116.06876885
5115.94536527
5115.88914279
5115.87221022
5115.86789234
5115.86759992
5115.87130098
5115.88750159
5115.9429222
5116.06553182
5116.26108663
5116.5205825
5116.79906277
5117.01793496
5117.0436867
5116.78094209
5116.74830961
5116.52438954
5116.24728802
5115.99916264
5115.82063822
5115.71822836
5115.68768349
5115.69353827
5115.70295391
5115.70276176
5115.69291836
5115.68651329
5115.71635602
5115.8180446
5115.99601627
5116.24380733
5116.52069004
5116.74463466
5116.77727178
5116.5442842
5116.49400235
5116.26422907
5115.99879215
5115.78028
5115.64004257
5115.57674599
5115.58111113
5115.61394987
5115.63905774
5115.63894763
5115.61356395
5115.58031207
5115.57536618
5115.63802188
5115.77775366
5115.99594647
5116.26114782
5116.49093644
5116.54119374
5116.37882711
5116.30815285
5116.06784062
5115.81994313
5115.63967567
5115.54492185
5115.52569312
5115.56509744
5115.62302253
5115.66224214
5115.66219019
5115.62280334
5115.56455732
5115.52468285
5115.54335469
5115.63766618
5115.8176313
5116.06529799
5116.30562484
5116.37628052
5116.28852189
5116.19581242
5115.94426947
5115.71726966
5115.57604412
5115.52532697
5115.54677519
5115.61752507
5115.70049533
5115.75220418
5115.75218902
5115.7003897
5115.61715419
5115.54601574
5115.52408586
5115.57442661
5115.71537889
5115.94218057
5116.19376164
5116.2864569
5116.25639968
5116.14821
5115.88785347
5115.68645368
5115.58006855
5115.56434409
5115.61712165
5115.71816856
5115.82183644
5115.88156034
5115.88155505
5115.8217853
5115.71791666
5115.61649226
5115.56330251
5115.57871667
5115.68486719
5115.88611247
5116.14656616
5116.25476965
5116.25156157
5116.13395255
5115.87074293
5115.69206352
5115.61259843
5115.62189576
5115.69966715
5115.82140118
5115.93509745
5115.9977953
5115.99777598
5115.93501677
5115.82115701
5115.69909262
5115.62093561
5115.61136669
5115.69064189
5115.86923979
5116.13261203
5116.25027223
5116.25209776
5116.12817363
5115.86637585
5115.70138904
5115.63757204
5115.66093387
5115.75115641
5115.88088266
5115.99752013
5116.06119744
5116.06115723
5115.99737747
5115.8805549
5115.75051539
5115.65993748
5115.63634123
5115.70001429
5115.86498688
5116.12702543
5116.25107469
5116.25172399
5116.12788947
5115.86619719
5115.70131407
5115.63757316
5115.66097374
5115.75120588
5115.88089064
5115.99744638
5116.06106029
5116.06100726
5115.99726392
5115.88049927
5115.75049589
5115.65992181
5115.63631075
5115.69994118
5115.86486148
5116.12685987
5116.25087744
5116.25044239
5116.13306528
5115.87013199
5115.69174149
5115.61248149
5115.62188203
5115.69969146
5115.82135218
5115.93483788
5115.99736041
5115.99730687
5115.93465655
5115.82096493
5115.69899484
5115.62085593
5115.61125615
5115.6904218
5115.86887329
5116.13213234
5116.24969807
5116.25456172
5116.1466486
5115.88666699
5115.68570292
5115.57961232
5115.56402257
5115.6168349
5115.71782389
5115.82125585
5115.88074852
5115.880704
5115.82110376
5115.71747719
5115.61619593
5115.56307518
5115.57847519
5115.68448439
5115.88551482
5116.14579632
5116.25385172
5116.28602576
5116.19356704
5115.9424453
5115.71592798
5115.57505118
5115.52452626
5115.54604743
5115.61669412
5115.69943226
5115.75090945
5115.75087064
5115.6992925
5115.61636354
5115.54546071
5115.52363653
5115.5739678
5115.71477532
5115.9413484
5116.1927144
5116.28527459
5116.3757821
5116.3052875
5116.06538538
5115.81797218
5115.6380648
5115.54353916
5115.52442293
5115.56376493
5115.62147258
5115.66049003
5115.66044464
5115.62131575
5115.56342674
5115.5238263
5115.54263846
5115.63695774
5115.81677832
5116.06419994
5116.30428728
5116.3748534
5116.54075034
5116.49062172
5116.26122513
5115.99625014
5115.7781046
5115.63813987
5115.57501655
5115.57938807
5115.61208354
5115.63705198
5115.63698836
5115.61187836
5115.57899262
5115.57433042
5115.63713242
5115.77686385
5115.99489463
5116.25982343
5116.48933042
5116.53951346
5116.77703334
5116.74450067
5116.52094415
5116.24427373
5115.99651674
5115.8182901
5115.71609782
5115.68563038
5115.69142567
5115.70078213
5115.70068866
5115.69113671
5115.68511203
5115.71525479
5115.81708567
5115.99503715
5116.24263283
5116.51919848
5116.74280246
5116.77537733
5117.04372054
5117.01810692
5116.79962782
5116.521346
5116.26186892
5116.06604541
5115.94291235
5115.8868406
5115.86995289
5115.86567541
5115.86554795
5115.8695625
5115.8861464
5115.94185343
5116.06457488
5116.26007795
5116.5193492
5116.79747176
5117.0159503
5117.04158656
5117.29395627
5117.24308067
5117.01865443
5116.74542443
5116.49174088
5116.30637956
5116.19440731
5116.14711552
5116.13310082
5116.12746566
5116.12730079
5116.13259835
5116.14622618
5116.19308775
5116.30459431
5116.48960888
5116.74305853
5117.01610313
5117.24050336
5117.2913846
5117.3918311
5117.29430847
5117.04455093
5116.77814574
5116.5420463
5116.37704967
5116.28705136
5116.25520693
5116.25052802
5116.25124083
5116.25105078
5116.24994501
5116.25416175
5116.28558489
5116.37514993
5116.53982529
5116.77568146
5117.04185874
5117.29154754
5117.38904114
4627.55078939
4627.43663732
4627.20327522
4626.97617115
4626.79607809
4626.66615596
4626.60300185
4626.5943704
4626.60037541
4626.60237627
4626.60198524
4626.59918031
4626.59208701
4626.599801
4626.66216447
4626.79150685
4626.97124768
4627.19812522
4627.4314754
4627.5456534
4627.43638585
4627.35493859
4627.14136572
4626.90165794
4626.70231562
4626.55306583
4626.46897466
4626.43994722
4626.43646964
4626.43813061
4626.43778028
4626.43538705
4626.43798247
4626.46611244
4626.54938001
4626.6980496
4626.89702274
4627.13656164
4627.35012752
4627.43158029
4627.2027
4627.14103671
4626.9029215
4626.63934146
4626.42273443
4626.25818839
4626.15958297
4626.12105543
4626.11153902
4626.10830449
4626.10804838
4626.11073666
4626.11961188
4626.15731928
4626.25517183
4626.41915831
4626.63537427
4626.89873644
4627.13682224
4627.19848767
4626.97543174
4626.90101671
4626.63900242
4626.36299231
4626.15680927
4626.01594921
4625.94681736
4625.93382353
4625.9451091
4625.95530154
4625.95513832
4625.94457593
4625.93279342
4625.94513862
4626.01361368
4626.15395137
4626.35973058
4626.63548533
4626.89746302
4626.9717871
4626.79512724
4626.70144329
4626.42206234
4626.15644237
4625.98245499
4625.88697853
4625.86420449
4625.89296209
4625.93339102
4625.9593096
4625.95921441
4625.93306392
4625.89228116
4625.86299983
4625.88518383
4625.98020795
4626.15380255
4626.4191629
4626.69849029
4626.792099
4626.66510231
4626.55204529
4626.2572183
4626.01521766
4625.88658031
4625.84006784
4625.86560664
4625.93771446
4626.00613772
4626.04456941
4626.04451822
4626.00595269
4625.93731441
4625.86476402
4625.83869804
4625.8847986
4626.01308739
4626.25485849
4626.54963702
4626.66265597
4626.6019337
4626.46781182
4626.15835814
4625.9457524
4625.86342553
4625.86519373
4625.93628009
4626.04356394
4626.12932338
4626.17628222
4626.17625447
4626.12921646
4626.04333421
4625.93567741
4625.86412569
4625.86198073
4625.94399905
4626.15643539
4626.46591812
4626.60001534
4626.59318407
4626.43864542
4626.11958732
4625.93242832
4625.89179144
4625.93686918
4626.04311272
4626.16332818
4626.26012889
4626.31368143
4626.31366143
4626.26003395
4626.16309166
4626.04261986
4625.93595842
4625.89053569
4625.93092878
4626.11800585
4626.43717484
4626.59176594
4626.59918463
4626.4350852
4626.1098584
4625.94344906
4625.9319257
4626.00498055
4626.12855405
4626.25976959
4626.36543358
4626.42357
4626.42354555
4626.36532506
4626.25949161
4626.12799871
4626.00406747
4625.93072518
4625.94205984
4626.10844499
4626.4338752
4626.59802619
4626.6011442
4626.43671719
4626.10656693
4625.95356263
4625.95774222
4626.04328359
4626.17534949
4626.31311618
4626.42333934
4626.48355117
4626.48351259
4626.42319503
4626.31278779
4626.17472996
4626.04231891
4625.95651033
4625.9521772
4626.10521567
4626.4356679
4626.60021498
4626.60089515
4626.43652296
4626.10648587
4625.95355845
4625.95777672
4626.04332476
4626.17537047
4626.3130969
4626.42326947
4626.48343598
4626.48338511
4626.42309117
4626.31272115
4626.17469819
4626.04230853
4625.95650005
4625.95214451
4626.10513868
4626.43554415
4626.60005836
4626.59832385
4626.43439942
4626.10950214
4625.94332809
4625.93193769
4626.00504173
4626.12857691
4626.2596624
4626.36517737
4626.42319062
4626.42313463
4626.36498759
4626.25927461
4626.1279041
4626.00403229
4625.93068189
4625.94195302
4626.1082128
4626.43350556
4626.5975741
4626.5916174
4626.43733805
4626.11878205
4625.93197746
4625.89158224
4625.93681377
4626.04307154
4626.16304572
4626.25960423
4626.31298482
4626.31292964
4626.25942015
4626.16269896
4626.04248314
4625.93589708
4625.89042537
4625.93071739
4626.11760875
4626.43652788
4626.59090773
4626.59959057
4626.46579696
4626.15689627
4625.94476661
4625.86275612
4625.86469751
4625.93582054
4626.04295347
4626.12843405
4626.17519854
4626.17514294
4626.12826573
4626.04268821
4625.93531482
4625.86389044
4625.86173261
4625.94362532
4626.15582028
4626.46502941
4626.59892211
4626.66217866
4626.54936304
4626.25511608
4626.01363888
4625.8853367
4625.83900775
4625.86460932
4625.93660401
4626.00480509
4626.0430577
4626.04299695
4626.00462466
4625.93631958
4625.86410518
4625.83821562
4625.8843407
4626.01252386
4626.2540331
4626.54850466
4626.66138116
4626.79174232
4626.69827762
4626.41940948
4626.15430469
4625.98068016
4625.88540742
4625.86272738
4625.89142446
4625.93167134
4625.9574398
4625.9573691
4625.93145472
4625.89104237
4625.86213298
4625.88452662
4625.97959869
4626.15308569
4626.41817089
4626.69716468
4626.79068281
4626.9717245
4626.89747579
4626.6358975
4626.36034517
4626.15451002
4626.01389508
4625.94490824
4625.93193282
4625.94311243
4625.95322163
4625.95313385
4625.94284526
4625.93145973
4625.94416591
4626.01285874
4626.15324764
4626.35891937
4626.63439416
4626.89601369
4626.97031081
4627.19881471
4627.13722193
4626.89948616
4626.63627858
4626.41999109
4626.25572667
4626.15734676
4626.11894844
4626.10940541
4626.10617654
4626.10605902
4626.1090533
4626.11833418
4626.15638905
4626.25442725
4626.41842902
4626.63451591
4626.89760686
4627.13534331
4627.19693715
4627.43231012
4627.35096543
4627.13775938
4626.89840085
4626.69937987
4626.55045518
4626.4666777
4626.43787829
4626.43444693
4626.43620949
4626.43606115
4626.43399436
4626.43699939
4626.46541199
4626.54877405
4626.69739953
4626.89620825
4627.13545876
4627.34866203
4627.42999618
4627.54666738
4627.43257094
4627.19958465
4626.97278881
4626.79301968
4626.66345654
4626.6006881
4626.59237173
4626.5983442
4626.60054318
4626.60038279
4626.59790158
4626.59126621
4626.59924574
4626.66170485
4626.7909604
4626.97052618
4627.19712552
4627.43006028
4627.5441062
4137.54255825
4137.44146765
4137.23456769
4137.05487392
4136.91548529
4136.82054865
4136.76676495
4136.7305001
4136.69337598
4136.66670409
4136.66643764
4136.69255775
4136.72804213
4136.76374321
4136.8167982
4136.91114723
4137.05014554
4137.22963504
4137.43645967
4137.5375949
4137.44115086
4137.39960344
4137.22169658
4137.04840259
4136.89739312
4136.78221016
4136.69807162
4136.62472883
4136.55938121
4136.5154627
4136.51514978
4136.55843375
4136.62288362
4136.6954306
4136.77871882
4136.89329721
4137.04395028
4137.21713688
4137.39497267
4137.4365561
4137.2340521
4137.22144978
4136.94673783
4136.69949016
4136.49075031
4136.3205812
4136.19137032
4136.09937327
4136.03668254
4136.00358756
4136.00335226
4136.03591984
4136.09797504
4136.18933367
4136.31790243
4136.48750359
4136.6958337
4136.94281848
4137.21742732
4137.23001678
4137.05410642
4137.04773447
4136.69912061
4136.42079085
4136.21303732
4136.06720992
4135.97655407
4135.93433936
4135.92036853
4135.91718548
4135.91703887
4135.91987853
4135.93338209
4135.97501632
4136.06506468
4136.21038316
4136.41775097
4136.69583757
4137.04445075
4137.05069721
4136.91442852
4136.89643316
4136.48993276
4136.21258163
4136.03817745
4135.94056489
4135.72968078
4135.42481612
4135.31500391
4135.3365236
4135.33641563
4135.31463358
4135.4253942
4135.73015239
4135.93889689
4136.03604226
4136.21010249
4136.48727785
4136.8937824
4136.91172384
4136.81920603
4136.78092232
4136.3192719
4136.06627426
4135.94009548
4135.39079865
4133.90128853
4132.44970903
4132.00758728
4132.04768488
4132.04750129
4132.00699008
4132.4533898
4133.90925584
4135.3939888
4135.93837034
4136.06426762
4136.31718401
4136.7789048
4136.81718706
4136.76502763
4136.69626829
4136.18965199
4135.97519101
4135.72877528
4133.89966037
4130.23489985
4127.38000053
4126.59168286
4126.64485945
4126.64450588
4126.5905801
4127.38638597
4130.25205604
4133.91322434
4135.72887517
4135.97349527
4136.18793518
4136.69491387
4136.76363983
4136.72815066
4136.62243749
4136.09727536
4135.93259963
4135.42286782
4132.44521382
4127.37644692
4123.78070912
4122.81039849
4122.87165888
4122.8711735
4122.80890513
4123.78836032
4127.39827683
4132.46642311
4135.42589422
4135.93103254
4136.09572005
4136.62149111
4136.72733974
4136.69145556
4136.55692973
4136.03437629
4135.91838179
4135.31225398
4132.00148835
4126.58606472
4122.80819619
4121.79662073
4121.86271382
4121.86217888
4121.79498258
4122.8161007
4126.60902613
4132.02459756
4135.31650089
4135.91679161
4136.03280796
4136.55601651
4136.6903912
4136.66464945
4136.51302736
4136.00129746
4135.91516462
4135.33371028
4132.04157246
4126.63932158
4122.86958316
4121.86283088
4121.93120002
4121.93064629
4121.86114064
4122.87740182
4126.66216922
4132.06456519
4135.33786215
4135.91348436
4135.99963994
4136.51207104
4136.66381886
4136.66454122
4136.51301898
4136.00135736
4135.9152432
4135.33379161
4132.04163816
4126.63931276
4122.86947168
4121.86263239
4121.93094781
4121.93038171
4121.86090783
4122.87722779
4126.66207432
4132.06454271
4135.33787171
4135.91348684
4135.99960846
4136.51198636
4136.66372292
4136.69101178
4136.55679175
4136.03439441
4135.91850114
4135.31240288
4132.00159267
4126.58595842
4122.80780561
4121.79598408
4121.86192667
4121.86135955
4121.79425764
4122.81555827
4126.60871852
4132.02450939
4135.31651377
4135.91678173
4136.03269274
4136.55577989
4136.6902049
4136.72743921
4136.62190425
4136.09700721
4135.93252923
4135.42364616
4132.44795155
4127.38094263
4123.78592279
4122.81555532
4122.87661247
4122.87609568
4122.81398709
4123.7934558
4127.40263308
4132.46905651
4135.42665373
4135.93096474
4136.0954791
4136.62099274
4136.7264372
4136.76350607
4136.69498994
4136.1888804
4135.9746911
4135.7293813
4133.90478161
4130.2456137
4127.3934509
4126.6055901
4126.65854789
4126.65818229
4126.60447874
4127.39985261
4130.26282307
4133.91847901
4135.72972912
4135.97331414
4136.18757995
4136.694257
4136.76274259
4136.81693034
4136.77875138
4136.31788825
4136.06520873
4135.93922177
4135.39274184
4133.90937903
4132.46222887
4132.02100822
4132.06089493
4132.06071684
4132.02046336
4132.4660536
4133.91760503
4135.39634917
4135.93808084
4136.06394179
4136.31671105
4136.77804882
4136.8162002
4136.91157378
4136.89367864
4136.48787945
4136.21091738
4136.03675826
4135.93926191
4135.72931705
4135.42599826
4135.31668841
4135.33802093
4135.33792924
4135.31640727
4135.42682143
4135.73025561
4135.93832773
4136.03560443
4136.20966206
4136.48670067
4136.8927907
4136.91068692
4137.05085386
4137.04460443
4136.6965311
4136.41857876
4136.21109212
4136.0654308
4135.97483408
4135.93253185
4135.91837752
4135.91506486
4135.91496893
4135.91808188
4135.93201237
4135.97406755
4136.06441463
4136.20987454
4136.4172485
4136.69520079
4137.04340356
4137.04966273
4137.23060021
4137.21805241
4136.94376647
4136.69684888
4136.48837926
4136.31842186
4136.18934734
4136.09734103
4136.03454576
4136.00141876
4136.0013009
4136.0341845
4136.09668732
4136.18846673
4136.31732768
4136.48703938
4136.69533623
4136.94214698
4137.21648779
4137.22901912
4137.43759847
4137.39613401
4137.21856698
4137.04558697
4136.89484782
4136.77995937
4136.69612053
4136.62293591
4136.55741838
4136.51356391
4136.51343918
4136.55709398
4136.62207007
4136.69497134
4136.77837637
4136.89296071
4137.04351774
4137.21649454
4137.39410552
4137.43558791
4137.53893134
4137.43793811
4137.23129434
4137.05189267
4136.91285162
4136.81832348
4136.76495379
4136.72918212
4136.69113135
4136.6649515
4136.66486338
4136.69129491
4136.72754801
4136.76347379
4136.81665737
4136.91096464
4137.04982415
4137.22909379
4137.43568708
4137.53667527
3647.50240498
3647.3993803
3647.22180642
3647.03169572
3646.85673285
3646.699222
3646.55826205
3646.4243506
3646.31344287
3646.24450013
3646.24416142
3646.31236743
3646.42234779
3646.55550687
3646.69569543
3646.85260181
3647.02713024
3647.21703651
3647.39450994
3647.49761231
3647.39896685
3647.37804601
3647.21953579
3647.02883532
3646.81882924
3646.58259308
3646.33241667
3646.09278243
3645.88533878
3645.76384882
3645.76351067
3645.884426
3646.09118618
3646.33013578
3646.5796762
3646.8153176
3647.02486832
3647.2152964
3647.37367078
3647.39462297
3647.22117753
3647.21918754
3646.92008963
3646.62713683
3646.35187347
3646.09737572
3645.86960612
3645.67321665
3645.53057129
3645.45556256
3645.45534028
3645.52986066
3645.67194486
3645.86782552
3646.09492577
3646.34885345
3646.62370092
3646.9164222
3647.21544497
3647.21738182
3647.0306407
3647.02790776
3646.62661575
3646.30441075
3646.04728507
3645.52703828
3644.37014616
3643.2603399
3642.87926296
3642.85143683
3642.85119745
3642.87849729
3643.26200547
3644.37476816
3645.5278657
3646.04472164
3646.30150174
3646.62356617
3647.02495676
3647.02756525
3646.85525746
3646.81720277
3646.35074201
3646.04671891
3645.11044123
3642.06497692
3637.23306549
3633.49318862
3632.35979138
3632.36854454
3632.36798661
3632.35807114
3633.49847782
3637.25072871
3642.08243045
3645.11482652
3646.0442368
3646.34823444
3646.81505378
3646.85287074
3646.69728304
3646.58019117
3646.0956181
3645.52592428
3642.06299634
3633.50383221
3622.77945553
3615.4345977
3613.34242824
3613.37697142
3613.37578846
3613.33883824
3615.43954618
3622.80356545
3633.54029115
3642.08753249
3645.52656869
3646.09349216
3646.5787337
3646.69552094
3646.55570673
3646.32932486
3645.86728585
3644.36741562
3637.22661617
3622.77550444
3606.45424654
3595.89653636
3592.99948624
3593.0521613
3593.05028662
3592.99382459
3595.8989575
3606.47701418
3622.81750578
3637.27130775
3644.37703012
3645.86533708
3646.32825796
3646.55449826
3646.42129931
3646.08912253
3645.67044862
3643.25476475
3633.48227591
3615.42670964
3595.89273352
3583.64729327
3580.33302735
3580.39814402
3580.39582784
3580.3260427
3583.64790132
3595.91396308
3615.46843472
3633.53519093
3643.27313984
3645.66837991
3646.08810504
3646.42035591
3646.31028966
3645.88144394
3645.52764097
3642.87238363
3632.3470298
3613.33289454
3592.99435227
3580.33188314
3576.92180236
3576.99549362
3576.99305097
3576.91443227
3580.33193879
3593.01503344
3613.37431658
3632.40128382
3642.89335395
3645.52530897
3645.88015712
3646.30924954
3646.24148588
3645.76013714
3645.45275877
3642.84468283
3632.3561327
3613.36819941
3593.04823074
3580.3984571
3576.99699533
3577.07508601
3577.07263103
3576.98958488
3580.39843746
3593.06877413
3613.40942315
3632.4101499
3642.86541709
3645.45014825
3645.7584904
3646.24026105
3646.24157158
3645.76038915
3645.45290936
3642.8448143
3632.35617095
3613.36803534
3593.04782367
3580.39785218
3576.996276
3577.07431371
3577.07184836
3576.98883667
3580.39777721
3593.06827909
3613.40914113
3632.41004831
3642.86541665
3645.45015423
3645.7584258
3646.24016386
3646.31044477
3645.88198709
3645.52799118
3642.87268272
3632.34706312
3613.33232762
3592.9930657
3580.33001707
3576.91961488
3576.9931602
3576.9906925
3576.91217171
3580.32993464
3593.01352469
3613.37345243
3632.40096499
3642.89333564
3645.52530812
3645.88002411
3646.30895716
3646.42123538
3646.0896062
3645.6707539
3643.25679292
3633.48693416
3615.43197839
3595.89733301
3583.65119194
3580.33649238
3580.4014061
3580.39906515
3580.32944492
3583.65167952
3595.91836489
3615.47343047
3633.53951268
3643.2748801
3645.66833829
3646.0878742
3646.41981893
3646.5550677
3646.3293378
3645.86730169
3644.37116286
3637.23862022
3622.7922678
3606.47117384
3595.9130062
3593.0155342
3593.0679661
3593.0660817
3593.00986326
3595.9154129
3606.49389618
3622.8341992
3637.28322815
3644.38078301
3645.86528763
3646.32797868
3646.55389052
3646.69585366
3646.57949434
3646.0950157
3645.52715636
3642.07439281
3633.52723888
3622.80692518
3615.46224791
3613.36978447
3613.40407215
3613.40289623
3613.36624526
3615.46729479
3622.83116614
3633.56388104
3642.09919893
3645.528215
3646.093341
3646.5784321
3646.69485031
3646.85319817
3646.81565997
3646.34944907
3646.04560505
3645.11346127
3642.08021733
3637.26064606
3633.52578199
3632.39304721
3632.40156458
3632.40102943
3632.39143462
3633.53128526
3637.27862309
3642.09812356
3645.11850567
3646.04401353
3646.34800085
3646.81469806
3646.85218774
3647.02807725
3647.02564362
3646.62468999
3646.30273616
3646.04574383
3645.52726301
3644.37567055
3643.27097526
3642.89128823
3642.86325248
3642.86303574
3642.89063347
3643.27290154
3644.38076088
3645.52886925
3646.04429767
3646.30123647
3646.62328473
3647.02454685
3647.02688084
3647.21827055
3647.2164479
3646.91769725
3646.62501315
3646.34993009
3646.09550134
3645.86768903
3645.67104046
3645.52812894
3645.45296306
3645.45280263
3645.52764663
3645.67025105
3645.86671416
3646.09429652
3646.34854172
3646.62350608
3646.916163
3647.21503899
3647.2167821
3647.39592429
3647.37515988
3647.21697753
3647.02657649
3646.81682836
3646.58076419
3646.33061768
3646.09083729
3645.88310181
3645.76149905
3645.76132938
3645.88268088
3646.0901005
3646.32968999
3646.57967098
3646.81546834
3647.02494926
3647.21515923
3647.37332692
3647.39410014
3647.49924159
3647.39637982
3647.21904493
3647.02925936
3646.85460256
3646.6973575
3646.55657527
3646.42268641
3646.31149206
3646.2425706
3646.24241756
3646.31102769
3646.42161329
3646.55525942
3646.69574731
3646.8527608
3647.02722665
3647.21693069
3647.39424666
3647.49715051
3157.52478821
3157.39911783
3157.19984968
3156.92319233
3156.62428407
3156.30789717
3155.99473829
3155.70479423
3155.4763759
3155.34688048
3155.34647932
3155.47515103
3155.70275409
3155.991967
3156.30443193
3156.62019633
3156.9186288
3157.19498421
3157.39416632
3157.51993575
3157.39862722
3157.34923575
3157.13032814
3156.79019527
3156.38066441
3155.91183331
3155.42346725
3154.96480272
3154.60755571
3154.41416332
3154.41376141
3154.6064089
3154.96295581
3155.42104572
3155.90884176
3156.37709577
3156.78618656
3157.12605171
3157.34488191
3157.39425535
3157.19897221
3157.12966708
3156.78510746
3156.37674475
3155.96196032
3155.23628444
3153.85435159
3152.54475965
3152.02000385
3151.91768607
3151.91735128
3152.01895306
3152.54598498
3153.85846108
3155.23651539
3155.9587608
3156.37314199
3156.78134991
3157.1260288
3157.19516531
3156.92184267
3156.78872288
3156.37606536
3155.95372589
3154.26526112
3149.64547082
3142.98170317
3137.96406688
3136.43414946
3136.38947217
3136.38870092
3136.43177692
3137.96786136
3142.99676629
3149.66358831
3154.2740346
3155.95066319
3156.37275552
3156.78584627
3156.91871589
3156.62226614
3156.37839396
3155.96060687
3154.26459542
3146.91293299
3132.23556611
3115.67626091
3104.95220008
3101.95122054
3101.95504087
3101.95315731
3101.94551123
3104.95282688
3115.69378915
3132.26881995
3146.94672558
3154.27343486
3155.95757672
3156.37608213
3156.61979555
3156.3052711
3155.90872159
3155.23435016
3149.64089989
3132.23240665
3105.01996435
3078.3986174
3062.40836747
3058.10589441
3058.14492862
3058.14154656
3058.09569677
3062.40245244
3078.40985599
3105.05042242
3132.27937471
3149.67575485
3155.23412145
3155.90673778
3156.30325651
3155.99147686
3155.41975198
3153.85091895
3142.9724323
3115.67025246
3078.39620563
3044.5141344
3024.79992161
3019.58943967
3019.65323447
3019.64849271
3019.57516042
3024.78739798
3044.51761596
3078.42051423
3115.71562926
3143.02591342
3153.85915692
3155.41761497
3155.98972643
3155.70112503
3154.96077525
3152.53877971
3137.95144386
3104.94357186
3062.40411445
3024.79863257
3003.20805038
2997.55359534
2997.63478946
2997.62927418
2997.53696808
3003.19148711
3024.79687932
3062.42366609
3104.98635712
3138.00954528
3152.55509517
3154.9580567
3155.69929942
3155.47267596
3154.60365982
3152.01295446
3136.42020921
3101.94190823
3058.10191043
3019.58926971
2997.55511292
2991.81257822
2991.90855021
2991.90286079
2991.79535017
2997.53751584
3019.5860144
3058.11989119
3101.98355486
3136.47847639
3152.03142325
3154.60014245
3155.47051774
3155.34346178
3154.41060339
3151.91087563
3136.37612174
3101.94713118
3058.14337243
3019.65636539
2997.64008455
2991.91245816
2992.01576777
2992.01010177
2991.89516575
2997.62249322
3019.65300501
3058.16106526
3101.98838749
3136.43397705
3151.92895117
3154.40653168
3155.34095179
3155.34361696
3154.41075252
3151.91094986
3136.37615729
3101.94686989
3058.14265794
3019.65519026
2997.63861224
2991.91085407
2992.01411743
2992.00845057
2991.89355591
2997.62099984
3019.6517765
3058.16024007
3101.98797905
3136.43386321
3151.92895211
3154.40647658
3155.3408577
3155.47305922
3154.60406267
3152.01315234
3136.4202515
3101.94105444
3058.0997024
3019.58569172
2997.55062737
2991.80768735
2991.90348307
2991.89779222
2991.79045225
2997.53298032
3019.58228867
3058.11738463
3101.98230397
3136.47810961
3152.03140477
3154.60002115
3155.47025402
3155.70152099
3154.9613959
3152.54080521
3137.95588194
3104.94784998
3062.40664896
3024.79900581
3003.20684057
2997.55171401
2997.6327181
2997.62720659
2997.53509373
3003.19022337
3024.79707588
3062.42586907
3104.99020316
3138.01352809
3152.55684228
3154.95790061
3155.69891876
3155.99156047
3155.42032638
3153.85489312
3142.98375128
3115.68500585
3078.40984952
3044.52541062
3024.80915077
3019.5977526
3019.66126636
3019.65652697
3019.58347724
3024.79659095
3044.52876935
3078.43395261
3115.73012924
3143.03696947
3153.8629721
3155.41752273
3155.98933672
3156.30476714
3155.90889787
3155.23593433
3149.65357834
3132.25571099
3105.04404073
3078.42128707
3062.42930662
3058.12589034
3058.1645467
3058.16114811
3058.11566549
3062.42334526
3078.43246224
3105.07445145
3132.30268101
3149.68853693
3155.23588746
3155.90671488
3156.30290166
3156.62112014
3156.37783399
3155.95987639
3154.27099796
3146.93504375
3132.26709845
3115.7084819
3104.98370967
3101.98201025
3101.98541527
3101.98350384
3101.97625701
3104.9843058
3115.72603394
3132.30050634
3146.96916917
3154.28043079
3155.95755731
3156.37607029
3156.61948813
3156.92004125
3156.78741837
3156.37471613
3155.9525243
3154.27122396
3149.66740994
3143.01541688
3138.00088236
3136.47095775
3136.42590245
3136.42511057
3136.46857295
3138.00473675
3143.03070335
3149.68599153
3154.2807611
3155.95057497
3156.37273656
3156.78584376
3156.91844175
3157.19671817
3157.12768854
3156.78325401
3156.37496282
3155.96013746
3155.23598584
3153.85908939
3152.55427491
3152.03067506
3151.92802528
3151.92768421
3152.02965453
3152.55566503
3153.86364407
3155.23710161
3155.95828947
3156.37308289
3156.78144126
3157.12605412
3157.1949835
3157.39611849
3157.34692054
3157.12825345
3156.7882832
3156.37878816
3155.90981187
3155.42107374
3154.96183857
3154.60403034
3154.41032311
3154.41002929
3154.60321495
3154.960675
3155.41978776
3155.90847503
3156.37730775
3156.78666092
3157.12644445
3157.34503177
3157.39418502
3157.52214882
3157.39660575
3157.19750693
3156.9211103
3156.62234446
3156.30599829
3155.99272668
3155.70251734
3155.47378363
3155.34416486
3155.34391444
3155.47302844
3155.70132663
3155.99127469
3156.30433462
3156.62050224
3156.91907452
3157.1953294
3157.39437865
3157.51998438
2667.78373012
2667.58749544
2667.29204967
2666.82738507
2666.32176215
2665.79572703
2665.30384337
2664.89056913
2664.59602547
2664.44229342
2664.44173289
2664.59435045
2664.88786983
2665.30026316
2665.79143035
2666.31688118
2666.82210608
2667.28651187
2667.58200047
2667.77836979
2667.58689392
2667.41960134
2667.04285874
2666.43434229
2665.73067361
2664.97687392
2664.07497325
2663.13749144
2662.55337449
2662.32670336
2662.32612176
2662.55144977
2663.13598961
2664.0731002
2664.97284997
2665.72619331
2666.42950651
2667.03784053
2667.41477046
2667.58207857
2667.29081949
2667.04182568
2666.6019491
2665.99251615
2664.64247195
2661.152169
2655.89233243
2651.79616115
2650.43271803
2650.33438884
2650.33366304
2650.43043752
2651.79733701
2655.89944565
2661.16201521
2664.64481076
2665.98799227
2666.59743969
2667.03771166
2667.28658001
2666.82578527
2666.43251942
2665.99180102
2664.08287798
2656.49927437
2641.56877869
2624.78591699
2613.89688846
2610.79692116
2610.75493644
2610.75303732
2610.79111886
2613.89550766
2624.79773426
2641.59279933
2656.52146276
2664.08981783
2665.98736188
2666.42878709
2666.82185342
2666.31965324
2665.72820676
2664.64137648
2656.49693152
2634.17520156
2601.75723696
2571.33152913
2553.35282088
2548.52595749
2548.54794537
2548.54399338
2548.51397133
2553.34206898
2571.33373743
2601.77558003
2634.2089118
2656.52810525
2664.64288605