/*--------------------------------*- C++ -*----------------------------------*\
| =========                 |                                                 |
| \\      /  F ield         | OpenFOAM: The Open Source CFD Toolbox           |
|  \\    /   O peration     | Version:  3.0.1                                 |
|   \\  /    A nd           | Web:      www.OpenFOAM.org                      |
|    \\/     M anipulation  |                                                 |
\*---------------------------------------------------------------------------*/
FoamFile
{
    version     2.0;
    format      ascii;
    class       surfaceScalarField;
    location    "9.6";
    object      phi;
}
// * * * * * * * * * * * * * * * * * * * * * * * * * * * * * * * * * * * * * //

dimensions      [0 3 -1 0 0 0 0];

internalField   nonuniform List<scalar> 
22672
(
2.00421608845e-05
2.00546133012e-05
-4.00966796456e-05
3.98928007585e-05
1.86698798725e-05
-3.85204135225e-05
5.45312508063e-05
1.79835902151e-05
-3.26219324096e-05
6.22289604433e-05
1.80656101819e-05
-2.57632165197e-05
6.20439182391e-05
1.88481579578e-05
-1.86630201498e-05
5.61820744951e-05
1.95932722407e-05
-1.3731343417e-05
4.54479430903e-05
2.0793897863e-05
-1.00596938161e-05
3.14167517997e-05
2.23453927813e-05
-8.31414172113e-06
1.58969922826e-05
2.39796859563e-05
-8.45987766005e-06
7.67068212392e-08
2.51145285346e-05
-9.29420125947e-06
-1.57490567046e-05
2.51122399175e-05
-9.28643638886e-06
-3.12833264865e-05
2.39726271493e-05
-8.43831439036e-06
-4.53378172563e-05
2.23329839458e-05
-8.27844412053e-06
-5.60999437418e-05
2.07775911396e-05
-1.00154085469e-05
-6.19880543218e-05
1.95756640715e-05
-1.36874906759e-05
-6.21975360736e-05
1.88317132326e-05
-1.86221622424e-05
-5.45165743586e-05
1.80501478363e-05
-2.57310336689e-05
-3.98879656846e-05
1.79692617101e-05
-3.25977851712e-05
-2.00425135057e-05
1.86552778798e-05
-3.85006284762e-05
2.00397086213e-05
-4.0082143965e-05
1.86606929287e-05
3.99006556974e-05
-3.85066308924e-05
3.99736056574e-05
3.99786448544e-05
-4.26215644717e-05
5.63797820743e-05
4.08059874022e-05
-3.92284615776e-05
6.54956827046e-05
4.23975464848e-05
-3.34477320228e-05
6.61067392056e-05
4.43990422727e-05
-2.61618461737e-05
6.02832547441e-05
4.57100480277e-05
-2.02932095346e-05
4.90653210196e-05
4.71712565856e-05
-1.51593572997e-05
3.40375007183e-05
4.86343063589e-05
-1.12610390011e-05
1.72567882397e-05
4.99658312268e-05
-9.20538911467e-06
8.21650189472e-08
5.07953379372e-05
-8.5061484142e-06
-1.70972394926e-05
5.07884999662e-05
-8.49681821369e-06
-3.38924520254e-05
4.99466219462e-05
-9.17874056029e-06
-4.89454458793e-05
4.86056819573e-05
-1.12196551095e-05
-6.01932483122e-05
4.71369632601e-05
-1.51115124667e-05
-6.60444903976e-05
4.56745708419e-05
-2.02475995284e-05
-6.54602164626e-05
4.43675300821e-05
-2.61200176983e-05
-5.63633766689e-05
4.23690635297e-05
-3.34156736825e-05
-3.9967832448e-05
4.07806130426e-05
-3.92068022242e-05
-1.8660814159e-05
3.99546182345e-05
-4.26062492761e-05
3.987945984e-05
-3.85004833933e-05
1.79764418961e-05
5.45283856988e-05
-3.26040697225e-05
4.08025526425e-05
5.63743445218e-05
-3.92217020538e-05
5.85304051821e-05
5.8524305923e-05
-3.54460658767e-05
6.85491277408e-05
6.11144419296e-05
-2.87355218293e-05
6.99208397912e-05
6.36399390142e-05
-2.06125245056e-05
6.43549845284e-05
6.48376693253e-05
-1.3561695495e-05
5.31693483519e-05
6.57199450462e-05
-7.36299574537e-06
3.76147382958e-05
6.62899491145e-05
-2.10098868847e-06
1.9345212893e-05
6.66539613052e-05
1.58143001428e-06
8.60188679907e-08
6.68861439764e-05
3.16841799172e-06
-1.91787913251e-05
6.68770803208e-05
3.17626042764e-06
-3.7464742751e-05
6.66286341085e-05
1.60397501912e-06
-5.30468054501e-05
6.62522732053e-05
-2.06448489573e-06
-6.42617426697e-05
6.56761752426e-05
-7.32422242512e-06
-6.98551585811e-05
6.47929208614e-05
-1.35248731504e-05
-6.85110860879e-05
6.36006861358e-05
-2.05771584575e-05
-5.85118956268e-05
6.10798423321e-05
-2.87098886179e-05
-4.07958878452e-05
5.84943073e-05
-3.54296077241e-05
-1.79764723375e-05
5.63473069912e-05
-3.92119923032e-05
5.45073038552e-05
-3.26042324102e-05
1.8061173886e-05
6.2211550217e-05
-2.57442444913e-05
4.23963130504e-05
6.54726388974e-05
-3.34333355146e-05
6.11212420254e-05
6.85278672507e-05
-2.87283975956e-05
7.16139765287e-05
7.15947435557e-05
-2.09729546278e-05
7.3121891991e-05
7.42069396279e-05
-1.20748480177e-05
6.74155524961e-05
7.50832856543e-05
-4.53922291906e-06
5.59429679226e-05
7.52826287188e-05
1.90994166068e-06
3.98640560411e-05
7.50461798329e-05
7.32271100591e-06
2.06692387766e-05
7.47108560862e-05
1.11379446662e-05
8.67834030215e-08
7.45215426889e-05
1.29470753844e-05
-2.05013735475e-05
7.45115231852e-05
1.29537341861e-05
-3.97131652945e-05
7.46828452764e-05
1.11576063128e-05
-5.58178711998e-05
7.50050593692e-05
7.35195367297e-06
-6.7318641063e-05
7.52352586439e-05
1.94172938042e-06
-7.30519908771e-05
7.50358059744e-05
-4.50948303511e-06
-7.15721621041e-05
7.41658783621e-05
-1.20449581264e-05
-6.10995987214e-05
7.15587867458e-05
-2.09514322991e-05
-4.23871761939e-05
6.84981555815e-05
-2.87161792839e-05
-1.80590982581e-05
6.5447670754e-05
-3.34283306572e-05
6.21941108354e-05
-2.57458216505e-05
1.88488948727e-05
6.20081264063e-05
-1.86453857338e-05
4.44031420249e-05
6.60631239797e-05
-2.61446447877e-05
6.36504497207e-05
6.98815736978e-05
-2.06009342929e-05
7.42273127291e-05
7.30879482415e-05
-1.20700012665e-05
7.56524713953e-05
7.562026294e-05
-2.83843054934e-06
6.96670115425e-05
7.62594235643e-05
4.8093589479e-06
5.77755348642e-05
7.60025326862e-05
1.11715974346e-05
4.11635663982e-05
7.52669957512e-05
1.63911677007e-05
2.13721342034e-05
7.4627547467e-05
1.98747491633e-05
8.68470729135e-08
7.42893283058e-05
2.15175069927e-05
-2.12039643635e-05
7.4279000383e-05
2.15233414079e-05
-4.10119101531e-05
7.45987748031e-05
1.98920292828e-05
-5.76487528016e-05
7.52248906944e-05
1.64170327425e-05
-6.95681157964e-05
7.59547060666e-05
1.11999464283e-05
-7.5580196637e-05
7.62123818243e-05
4.83554641977e-06
-7.41825974731e-05
7.55797806559e-05
-2.81144763528e-06
-6.36254130938e-05
7.30524831914e-05
-1.20508120124e-05
-4.43909557745e-05
6.98536090353e-05
-2.05898234577e-05
-1.88446194054e-05
6.604117224e-05
-2.61397292327e-05
6.19945552048e-05
-1.86449817747e-05
1.95977421039e-05
5.61316157825e-05
-1.37211536321e-05
4.57193923071e-05
6.02238755323e-05
-2.02823238263e-05
6.48526083172e-05
6.43013723747e-05
-1.35529466093e-05
7.51062060099e-05
6.73698867819e-05
-4.53548374917e-06
7.62917396552e-05
6.96258680953e-05
4.80889709734e-06
7.01116972161e-05
7.00724590627e-05
1.2367027791e-05
5.80185425875e-05
6.95795544139e-05
1.85161414194e-05
4.1212978028e-05
6.8635522614e-05
2.34370360756e-05
2.13196825853e-05
6.78176454799e-05
2.67031887275e-05
8.56258422715e-08
6.74168112379e-05
2.81065619341e-05
-2.11537086037e-05
6.74066078379e-05
2.81117167851e-05
-4.10624567111e-05
6.77889305352e-05
2.67185883178e-05
-5.78922709686e-05
6.85936944713e-05
2.34610154701e-05
-7.00123280749e-05
6.95327552191e-05
1.85420238379e-05
-7.62182557036e-05
7.00269737029e-05
1.23913638422e-05
-7.50592939e-05
6.95864888012e-05
4.834372945e-06
-6.48253716935e-05
6.73356783092e-05
-4.5170565911e-06
-4.57052255454e-05
6.42745076025e-05
-1.35409626855e-05
-1.95925201158e-05
6.02028527347e-05
-2.02742806107e-05
5.61199935933e-05
-1.37178787462e-05
2.08063528889e-05
4.53890534704e-05
-1.00637191828e-05
4.71913712711e-05
4.8998340887e-05
-1.51594142638e-05
6.57449988996e-05
5.31084105304e-05
-7.36060816844e-06
7.53132657005e-05
5.58909024388e-05
1.91075751523e-06
7.60394748157e-05
5.77305251472e-05
1.11691553533e-05
6.96208276373e-05
5.79772141853e-05
1.85138969227e-05
5.74188597662e-05
5.73786292269e-05
2.44028834099e-05
4.05759343243e-05
5.62806531067e-05
2.91977735891e-05
2.09327832409e-05
5.534626626e-05
3.2114500419e-05
8.3138622315e-08
5.49743863283e-05
3.32920358069e-05
-2.07712461999e-05
5.49648873965e-05
3.3296073243e-05
-4.04281902011e-05
5.53186051276e-05
3.2127244186e-05
-5.72948762276e-05
5.6239251264e-05
2.92211146039e-05
-6.95227347822e-05
5.73336876493e-05
2.44269241389e-05
-7.59666748237e-05
5.79333975344e-05
1.85375292118e-05
-7.52659838474e-05
5.76916465107e-05
1.11941821686e-05
-6.57169437404e-05
5.58571681369e-05
1.92952207892e-06
-4.71760712829e-05
5.30810925909e-05
-7.34738102823e-06
-2.08004315284e-05
4.89760090044e-05
-1.51486943157e-05
4.53767580571e-05
-1.00571187066e-05
2.23674498488e-05
3.13563291311e-05
-8.33466028189e-06
4.8667740708e-05
3.39736512752e-05
-1.1275539685e-05
6.63280818607e-05
3.75562173458e-05
-2.10809992688e-06
7.50883542132e-05
3.98141994762e-05
7.31645912704e-06
7.53131995516e-05
4.11231175371e-05
1.63825702526e-05
6.86837451945e-05
4.11782550072e-05
2.34284021083e-05
5.63250233125e-05
4.0546470096e-05
2.91908527728e-05
3.96266846054e-05
3.95974473616e-05
3.33815021747e-05
2.03542013012e-05
3.876383242e-05
3.58548649873e-05
7.78209285217e-08
3.84633492498e-05
3.67873608364e-05
-2.02027950387e-05
3.84551228174e-05
3.67903257211e-05
-3.94880741728e-05
3.87391900543e-05
3.58646470978e-05
-5.62072098125e-05
3.95597397396e-05
3.3398611985e-05
-6.85914418635e-05
4.05034636602e-05
2.92144360615e-05
-7.52454257883e-05
4.11362851778e-05
2.34510942031e-05
-7.5044681781e-05
4.10845783479e-05
1.64063433899e-05
-6.6302950497e-05
3.97798907726e-05
7.33558986235e-06
-4.86550635209e-05
3.75264851835e-05
-2.09320844518e-06
-2.23630435266e-05
3.3948681314e-05
-1.12645941802e-05
3.13408798164e-05
-8.32709055305e-06
2.40079735173e-05
1.58373826585e-05
-8.488968139e-06
5.00091245918e-05
1.72017704434e-05
-9.22921644675e-06
6.67025618258e-05
1.92963721441e-05
1.56644705947e-06
7.47636791578e-05
2.06291889426e-05
1.11239113684e-05
7.46834144699e-05
2.13436491525e-05
1.98597287979e-05
6.78746735071e-05
2.12991579026e-05
2.66878124438e-05
5.53972664623e-05
2.09202021327e-05
3.21036303238e-05
3.87980004348e-05
2.03471067302e-05
3.58495464752e-05
1.9831124428e-05
1.98234546272e-05
3.79071828031e-05
6.91829616406e-08
1.96297122055e-05
3.85955026531e-05
-1.96967541545e-05
1.96235287325e-05
3.85974572479e-05
-3.86759358404e-05
1.98042121746e-05
3.79140938386e-05
-5.52946352398e-05
2.0316509018e-05
3.58618777729e-05
-6.77949766251e-05
2.0883861756e-05
3.21199080372e-05
-7.46269056642e-05
2.12621393667e-05
2.67060602354e-05
-7.47297676278e-05
2.13079308029e-05
1.98795191934e-05
-6.66866171846e-05
2.05965657148e-05
1.11402116822e-05
-5.00042773955e-05
1.92671657817e-05
1.57704629467e-06
-2.40080380936e-05
1.71766617862e-05
-9.2241249675e-06
1.58197215847e-05
-8.48680758452e-06
2.51422934634e-05
1.47875671015e-08
-9.31964613891e-06
5.08383638635e-05
3.36000806518e-08
-8.52785391906e-06
6.69348530291e-05
4.78045211056e-08
3.15210937261e-06
7.45748878622e-05
5.824647838e-08
1.29309170998e-05
7.43458310787e-05
7.22718220344e-08
2.15004204298e-05
6.74738984073e-05
8.13464782281e-08
2.80897079999e-05
5.50252446055e-05
8.91734314148e-08
3.32796266673e-05
3.84990235025e-05
9.31368412257e-08
3.67801191837e-05
1.96395706653e-05
9.00187116658e-08
3.85928058989e-05
6.05793857665e-08
8.2230618122e-08
3.91263850902e-05
-1.95223813338e-05
7.87306325363e-08
3.91276729436e-05
-3.83939370002e-05
7.82338191966e-08
3.85974566811e-05
-5.49389381203e-05
7.29517291768e-08
3.67884949874e-05
-6.74095096443e-05
6.39238086122e-08
3.32904644277e-05
-7.43037108093e-05
5.46420698718e-08
2.81016757402e-05
-7.45549883985e-05
4.5690835947e-08
2.15135209617e-05
-6.6932547711e-05
3.37359308667e-08
1.2940421567e-05
-5.08453998619e-05
2.58067708886e-08
3.15427442659e-06
-2.51485421202e-05
1.49671370379e-08
-8.53507130742e-06
8.59802166398e-10
-9.32961038061e-06
2.51351648794e-05
-1.58117704226e-05
-9.30856150884e-06
5.08221551749e-05
-1.71383523701e-05
-8.51499902734e-06
6.69142093026e-05
-1.92061772394e-05
3.16195153815e-06
7.45514194762e-05
-2.05186640999e-05
1.29397033829e-05
7.43208347756e-05
-2.12063737712e-05
2.15092105662e-05
6.74484004971e-05
-2.11441904712e-05
2.80979297084e-05
5.5001513949e-05
-2.07496212577e-05
3.32856206087e-05
3.8480045413e-05
-2.01689747657e-05
3.67835042442e-05
1.96277464492e-05
-1.96511924399e-05
3.85934238269e-05
5.54643064176e-08
-1.94708879359e-05
3.91253098222e-05
-1.95208960491e-05
-1.94714183204e-05
3.91264203891e-05
-3.83854877687e-05
-1.96543658948e-05
3.85971108571e-05
-5.49259189043e-05
-2.01761916432e-05
3.67895078429e-05
-6.73950312322e-05
-2.07596278757e-05
3.32926158402e-05
-7.42899492219e-05
-2.11551699386e-05
2.81047044284e-05
-7.45430963509e-05
-2.12174599558e-05
2.15162987801e-05
-6.69236370263e-05
-2.05277339504e-05
1.29420406769e-05
-5.08394174978e-05
-1.92129728601e-05
3.1546209786e-06
-2.51467360258e-05
-1.71423488402e-05
-8.53527648669e-06
-1.58132790453e-05
-9.33252939432e-06
2.39884861346e-05
-3.13388090458e-05
-8.46140870754e-06
4.99663347754e-05
-3.39205902391e-05
-9.19557840796e-06
6.66483625889e-05
-3.74799851634e-05
1.59179851501e-06
7.47022211981e-05
-3.97192746686e-05
1.11467508761e-05
7.46175051697e-05
-4.10044942694e-05
1.9882814451e-05
6.78059624027e-05
-4.10427179017e-05
2.67100281498e-05
5.53307374497e-05
-4.03954483412e-05
3.2120992819e-05
3.87423760183e-05
-3.94407599223e-05
3.5860074029e-05
1.97940303353e-05
-3.86133957625e-05
3.79104673966e-05
5.23772104886e-08
-3.83236340908e-05
3.85943138264e-05
-1.96930354816e-05
-3.8321640009e-05
3.85955509996e-05
-3.86527878979e-05
-3.86089062212e-05
3.79142173224e-05
-5.52593073637e-05
-3.94355742755e-05
3.58658397977e-05
-6.77562526647e-05
-4.03900686686e-05
3.21273412391e-05
-7.45900830677e-05
-4.10369226032e-05
2.67155596838e-05
-7.46973748076e-05
-4.09985134163e-05
1.98883470207e-05
-6.66616965815e-05
-3.97096500583e-05
1.11462676886e-05
-4.99872479543e-05
-3.74672298668e-05
1.57986777578e-06
-2.40023443943e-05
-3.39042851741e-05
-9.22288073482e-06
-3.13223188428e-05
-8.49323874905e-06
2.2340738745e-05
-4.53775723648e-05
-8.30194237489e-06
4.86120444198e-05
-4.89583377458e-05
-1.12335309595e-05
6.62566066794e-05
-5.30504610844e-05
-2.07407159725e-06
7.50070046642e-05
-5.58148295278e-05
7.34515426463e-06
7.52243536869e-05
-5.76345203059e-05
1.64126559447e-05
6.85900725839e-05
-5.78669876345e-05
2.34585126137e-05
5.62310739581e-05
-5.72567793194e-05
2.92202772596e-05
3.9545568457e-05
-5.61537798028e-05
3.3398462212e-05
2.02971023875e-05
-5.5226496198e-05
3.58614962264e-05
5.08320663932e-08
-5.48651084919e-05
3.67876717059e-05
-2.01982385612e-05
-5.48617895653e-05
3.678914942e-05
-3.94558412423e-05
-5.52175451379e-05
3.58661781017e-05
-5.61576926053e-05
-5.61401719821e-05
3.34063972038e-05
-6.85376119709e-05
-5.72408497834e-05
2.92306641331e-05
-7.51935994594e-05
-5.78486799315e-05
2.34677275185e-05
-7.49985199406e-05
-5.76148047031e-05
1.64212171238e-05
-6.62660727098e-05
-5.57897319485e-05
7.34766577137e-06
-4.86289538392e-05
-5.3020391628e-05
-2.08389836381e-06
-2.23523814295e-05
-4.89234338335e-05
-1.12573393109e-05
-4.53442525198e-05
-8.33038337433e-06
2.07783884852e-05
-5.6122331121e-05
-1.00336011838e-05
4.7133814503e-05
-6.01945928325e-05
-1.51191471909e-05
6.5669980057e-05
-6.42577160492e-05
-7.32889747677e-06
7.52263029923e-05
-6.73100863367e-05
1.93893219055e-06
7.59433508601e-05
-6.95507167903e-05
1.11991315484e-05
6.95194563179e-05
-6.99858480344e-05
1.85427242738e-05
5.73181673095e-05
-6.94849117066e-05
2.442937991e-05
4.04858742994e-05
-6.85399595006e-05
2.92184234453e-05
2.08671383451e-05
-6.77307888394e-05
3.21229742634e-05
5.13653104813e-08
-6.73421014872e-05
3.32927099852e-05
-2.07665022361e-05
-6.73384057995e-05
3.32944300343e-05
-4.03924984403e-05
-6.77204196478e-05
3.21288231637e-05
-5.72405233686e-05
-6.85233733305e-05
2.92311884548e-05
-6.94615664317e-05
-6.94634039039e-05
2.4443572068e-05
-7.59063516301e-05
-6.9960537356e-05
1.85566334603e-05
-7.52113890592e-05
-6.95229350066e-05
1.12131782232e-05
-6.56719566373e-05
-6.72755998174e-05
1.946469032e-06
-4.71431388274e-05
-6.42170498574e-05
-7.33210053815e-06
-2.07851421615e-05
-6.01483238603e-05
-1.51330233925e-05
-5.60780248421e-05
-1.00513061061e-05
1.95710629161e-05
-6.19965100485e-05
-1.36968582222e-05
4.5664456257e-05
-6.60390135362e-05
-2.02489502449e-05
6.47791560402e-05
-6.9847583513e-05
-1.35248185464e-05
7.50199321845e-05
-7.30414271964e-05
-4.50943351583e-06
7.61958125521e-05
-7.55624612638e-05
4.83585387183e-06
7.00105980804e-05
-7.61930854295e-05
1.23924314725e-05
5.79175724924e-05
-7.59318149499e-05
1.8539901035e-05
4.11221603917e-05
-7.51990809666e-05
2.34545005036e-05
2.1252356752e-05
-7.45716489662e-05
2.67106272723e-05
5.2868020316e-08
-7.42476271109e-05
2.81049769436e-05
-2.114850261e-05
-7.42440885172e-05
2.81070179872e-05
-4.10251538807e-05
-7.4561282975e-05
2.67174842341e-05
-5.78349201166e-05
-7.51817438307e-05
2.34681138127e-05
-6.99467692011e-05
-7.59082176995e-05
1.85566498459e-05
-7.61520527075e-05
-7.61645955441e-05
1.24093415926e-05
-7.49975808843e-05
-7.5530854496e-05
4.85346439308e-06
-6.47729192388e-05
-7.30026510634e-05
-4.49757296336e-06
-4.56660134607e-05
-6.98031367878e-05
-1.35207580055e-05
-1.9572840155e-05
-6.59890732705e-05
-2.0252340065e-05
-6.19479769234e-05
-1.37028233745e-05
1.88227342735e-05
-6.21944210132e-05
-1.86247980492e-05
4.43510032398e-05
-6.54497977065e-05
-2.61174612545e-05
6.35803944377e-05
-6.85019875694e-05
-2.05749701087e-05
7.41447998381e-05
-7.15618007321e-05
-1.20440240822e-05
7.55604486185e-05
-7.41662829147e-05
-2.81182813376e-06
6.95697857389e-05
-7.50368700224e-05
4.83443954878e-06
5.76777327549e-05
-7.52347078736e-05
1.11949331218e-05
4.10744630857e-05
-7.50040432407e-05
1.6408215681e-05
2.1305507567e-05
-7.46830784022e-05
1.98803663906e-05
5.46901171716e-08
-7.45091780439e-05
2.15123492816e-05
-2.1197762916e-05
-7.45060866077e-05
2.1514433754e-05
-4.09734914125e-05
-7.46732749137e-05
1.98877068053e-05
-5.75896714431e-05
-7.49869595777e-05
1.64213876707e-05
-6.94994623958e-05
-7.52109994833e-05
1.12125721248e-05
-7.55093781905e-05
-7.50071512885e-05
4.85248148891e-06
-7.41146915082e-05
-7.41332064343e-05
-2.79231006194e-06
-6.35662336893e-05
-7.15220496896e-05
-1.20290158157e-05
-4.43458843216e-05
-6.84576477517e-05
-2.05657732088e-05
-1.88209843622e-05
-6.54018528233e-05
-2.61120329605e-05
-6.21478040271e-05
-1.86210891036e-05
1.80344414465e-05
-5.45051512118e-05
-2.57236839728e-05
4.23461823921e-05
-5.63527393666e-05
-3.3408771916e-05
6.10545055705e-05
-5.8504775388e-05
-2.87055124967e-05
7.15348984167e-05
-6.10921054057e-05
-2.0950072051e-05
7.30333338853e-05
-6.36124819942e-05
-1.20522263154e-05
6.73221647008e-05
-6.48069204045e-05
-4.51877485191e-06
5.58496098964e-05
-6.56898624908e-05
1.92771190877e-06
3.97794733793e-05
-6.6266890236e-05
7.33298369386e-06
2.06064125361e-05
-6.6645057672e-05
1.11350387441e-05
5.71998565428e-08
-6.68918131156e-05
1.29318462692e-05
-2.04929608175e-05
-6.68894889943e-05
1.29335631103e-05
-3.96713580029e-05
-6.66369988024e-05
1.11421240586e-05
-5.57541904266e-05
-6.62513911219e-05
7.3472711253e-06
-6.72443949937e-05
-6.56672303036e-05
1.94644843783e-06
-7.29748249928e-05
-6.47782074246e-05
-4.49849193621e-06
-7.14974909036e-05
-6.35812420415e-05
-1.20292635224e-05
-6.10332834696e-05
-6.10558642802e-05
-2.09303406947e-05
-4.23346498649e-05
-5.84656003676e-05
-2.86906082719e-05
-1.80287735094e-05
-5.63118901924e-05
-3.33957442349e-05
-5.44650803505e-05
-2.57114230464e-05
1.79496759581e-05
-3.98771426688e-05
-3.25776520663e-05
4.07539818726e-05
-3.99596860421e-05
-3.91973250695e-05
5.84672556392e-05
-4.07919580502e-05
-3.54260598136e-05
6.8475620063e-05
-4.23833454678e-05
-2.87170978461e-05
6.9839633132e-05
-4.4382513348e-05
-2.05939592136e-05
6.42689531784e-05
-4.56921132389e-05
-1.35441074925e-05
5.30825269295e-05
-4.71545395434e-05
-7.34887877978e-06
3.7535563637e-05
-4.86243214722e-05
-2.09558886265e-06
1.9286648776e-05
-4.99675377987e-05
1.5714109602e-06
5.91409251087e-08
-5.08081315686e-05
3.14384274389e-06
-1.9168853285e-05
-5.08063778988e-05
3.14490118638e-06
-3.74219815737e-05
-4.9961168658e-05
1.57731875233e-06
-5.29813693762e-05
-4.86117835306e-05
-2.08019580954e-06
-6.41852937666e-05
-4.71356164679e-05
-7.32766061353e-06
-6.97754812975e-05
-4.56680847769e-05
-1.35198985952e-05
-6.84330992662e-05
-4.43572227167e-05
-2.05663529241e-05
-5.84416558441e-05
-4.2354815892e-05
-2.86924272975e-05
-4.07390992118e-05
-4.07622583567e-05
-3.54058142827e-05
-1.79424775008e-05
-3.99296491467e-05
-3.9178756183e-05
-3.98483763862e-05
-3.25590966714e-05
1.86306805029e-05
-2.00367313483e-05
-3.84710502288e-05
3.99231097935e-05
-1.86565329019e-05
-4.259553904e-05
5.63169173221e-05
-1.79753407596e-05
-3.92103832524e-05
6.54244443426e-05
-1.80584201749e-05
-3.34324141272e-05
6.60299685934e-05
-1.88412319039e-05
-2.61467701167e-05
6.02022167168e-05
-1.95867381758e-05
-2.02775891203e-05
4.89840918692e-05
-2.0789252638e-05
-1.51471286825e-05
3.396570172e-05
-2.23455210385e-05
-1.12603771558e-05
1.72061652973e-05
-2.3985741239e-05
-9.22222676844e-06
6.12280594675e-08
-2.51243521577e-05
-8.53880775436e-06
-1.70837044511e-05
-2.51236370846e-05
-8.53777204512e-06
-3.3846512814e-05
-2.39826702968e-05
-9.21565133577e-06
-4.88763758814e-05
-2.23388553794e-05
-1.12430234364e-05
-6.01125312059e-05
-2.07790838032e-05
-1.51203313807e-05
-6.59603204087e-05
-1.95740316192e-05
-2.02462108074e-05
-6.53774133912e-05
-1.88281074103e-05
-2.61119576297e-05
-5.62883912406e-05
-1.80438654117e-05
-3.33998919592e-05
-3.9906245151e-05
-1.7960594654e-05
-3.91837091055e-05
-1.86228324519e-05
-1.8642027768e-05
-4.25709078359e-05
-2.00232775673e-05
-3.84478370808e-05
2.00135748409e-05
-4.00502727221e-05
3.9844684939e-05
-3.84876090516e-05
5.44718140144e-05
-3.26024366927e-05
6.21637960789e-05
-2.57503705495e-05
6.19760478956e-05
-1.86534529949e-05
5.61127760006e-05
-1.37234359784e-05
4.53808373499e-05
-1.00572836774e-05
3.13592622322e-05
-8.32391542148e-06
1.58578843734e-05
-8.48433246121e-06
6.35566415864e-08
-9.32999266244e-06
-1.57307588081e-05
-9.32928864675e-06
-3.12351628923e-05
-8.47823173616e-06
-4.52673600948e-05
-8.30662179973e-06
-5.60168577705e-05
-1.00295467806e-05
-6.1900453985e-05
-1.36903907717e-05
-6.21102588488e-05
-1.8618249302e-05
-5.44373678186e-05
-2.57166917131e-05
-3.98241560507e-05
-3.2573726055e-05
-2.00041868887e-05
-3.84619038207e-05
-4.00274140268e-05
2.274506648e-05
2.27470432539e-05
-8.55886734472e-05
4.12550864295e-05
2.52723200029e-05
-8.23026243108e-05
5.20201948865e-05
2.94785998953e-05
-7.28655109678e-05
5.49909704932e-05
3.40038783317e-05
-6.27377471885e-05
5.2439464153e-05
3.75342015862e-05
-5.36456022113e-05
4.47350869773e-05
4.00912628089e-05
-4.61181289492e-05
3.39225150348e-05
4.2003478777e-05
-4.12505155751e-05
2.20359598765e-05
4.3719178359e-05
-4.01466947383e-05
1.06524259787e-05
4.51724619734e-05
-4.22487478034e-05
7.76406565698e-08
4.59955659773e-05
-4.47149314374e-05
-1.05021360137e-05
4.5990057111e-05
-4.46966679779e-05
-2.190096799e-05
4.51566559606e-05
-4.21960858619e-05
-3.38106253334e-05
4.36949792703e-05
-4.00637064621e-05
-4.46503015241e-05
4.19749992698e-05
-4.11506636813e-05
-5.23805059706e-05
4.00630849367e-05
-4.60202949162e-05
-5.49514114146e-05
3.7508789701e-05
-5.35599622118e-05
-5.19950894728e-05
3.39836490229e-05
-6.26709117214e-05
-4.12435305403e-05
2.94616793135e-05
-7.28109193668e-05
-2.27432295313e-05
2.5256829247e-05
-8.22576388103e-05
2.27299735412e-05
-8.55552563731e-05
2.52795772612e-05
4.12415474278e-05
-8.22805854137e-05
4.42189117216e-05
4.42004376781e-05
-8.04888803653e-05
5.49691938569e-05
5.04606913019e-05
-7.09607015222e-05
5.83095996947e-05
5.72813768061e-05
-6.00655120564e-05
5.60508459343e-05
6.28505118083e-05
-4.92192910867e-05
4.85767381923e-05
6.67504004703e-05
-3.94781432459e-05
3.76949021279e-05
6.93225417495e-05
-3.15965044242e-05
2.52114060995e-05
7.10077539462e-05
-2.60660541935e-05
1.25082542906e-05
7.21035160138e-05
-2.34332389457e-05
8.19559648776e-08
7.26984397761e-05
-2.27826781441e-05
-1.23491098375e-05
7.26890201996e-05
-2.27646702102e-05
-2.50656972575e-05
7.20769840945e-05
-2.33824310631e-05
-3.75707805666e-05
7.09674809922e-05
-2.59870150135e-05
-4.84799037649e-05
6.92764983575e-05
-3.15038202458e-05
-5.59813060215e-05
6.67050564677e-05
-3.93880911152e-05
-5.82613972331e-05
6.28106120474e-05
-4.91416612249e-05
-5.49385993551e-05
5.72493537769e-05
-6.00040775917e-05
-4.42016055453e-05
5.04339665012e-05
-7.09159709324e-05
-2.52717906651e-05
4.41766103478e-05
-8.04557167411e-05
4.12200510509e-05
-8.2262256641e-05
2.94880230825e-05
5.19873438291e-05
-7.28377661733e-05
5.04792308239e-05
5.49368845826e-05
-7.09492277557e-05
6.18786164428e-05
6.18492118514e-05
-5.82338484329e-05
6.54768618376e-05
6.93055975169e-05
-4.43578761297e-05
6.34209943407e-05
7.50158629984e-05
-3.07219112313e-05
5.61730332437e-05
7.85505135396e-05
-1.81137668521e-05
4.49327911419e-05
8.02711992205e-05
-7.07134696711e-06
3.10285675792e-05
8.09283586444e-05
1.88267985095e-06
1.58659636461e-05
8.11784405801e-05
7.66914821643e-06
8.4170362421e-08
8.12138874143e-05
1.04347969273e-05
-1.57025224259e-05
8.12024922713e-05
1.04495148405e-05
-3.08793694042e-05
8.11467160261e-05
7.71112939172e-06
-4.48030170748e-05
8.08825055915e-05
1.9441864705e-06
-5.60708288126e-05
8.02176989258e-05
-6.99755280785e-06
-6.33458102232e-05
7.84983854366e-05
-1.80431514938e-05
-6.54234449359e-05
7.49713497551e-05
-3.0660180373e-05
-6.18438472586e-05
6.92701595369e-05
-4.43101970236e-05
-5.04591616015e-05
6.18202158144e-05
-5.82004311697e-05
-2.94782678975e-05
5.49114032658e-05
-7.09275489564e-05
5.19666783734e-05
-7.28290314896e-05
3.40141464628e-05
5.49404888137e-05
-6.27114236366e-05
5.7300336778e-05
5.82598776922e-05
-6.00424036444e-05
6.93319641983e-05
6.54355217236e-05
-4.43462278019e-05
7.27365857215e-05
7.27025976289e-05
-2.77744838333e-05
7.0237740642e-05
7.77422695833e-05
-1.23023339492e-05
6.23434372876e-05
8.03437615718e-05
1.56189074505e-06
5.03497734527e-05
8.11274015893e-05
1.30474458006e-05
3.52851124656e-05
8.08002863161e-05
2.25154739771e-05
1.82146153927e-05
8.02107298269e-05
2.91761727069e-05
8.54500460363e-08
7.98017438301e-05
3.2488399913e-05
-1.80484524551e-05
7.9789847852e-05
3.25002976793e-05
-3.51321843212e-05
8.01776364076e-05
2.92104403588e-05
-5.02167924671e-05
8.0752638698e-05
2.25664603564e-05
-6.22360506127e-05
8.1073931289e-05
1.3104797552e-05
-7.01569315893e-05
8.02929263173e-05
1.61691167372e-06
-7.26788731417e-05
7.76983125826e-05
-1.22499104568e-05
-6.92940652106e-05
7.26678118189e-05
-2.77338066204e-05
-5.72777104552e-05
6.5408439864e-05
-4.43206523343e-05
-3.40027958638e-05
5.82387165189e-05
-6.00304317409e-05
5.49228814256e-05
-6.27047264882e-05
3.75450968896e-05
5.23676357502e-05
-5.3617528745e-05
6.28704047119e-05
5.59825188422e-05
-4.91924927768e-05
7.50411857199e-05
6.33666941749e-05
-3.07027980841e-05
7.77724809581e-05
7.01955810917e-05
-1.2294207787e-05
7.43712198373e-05
7.4335991963e-05
3.96916115348e-06
6.58317754826e-05
7.62073942105e-05
1.74852059075e-05
5.31688243894e-05
7.62956298222e-05
2.86663404551e-05
3.74011517392e-05
7.5341092127e-05
3.76180422275e-05
1.93536266548e-05
7.42269155464e-05
4.39060872166e-05
8.56562343063e-08
7.35807288893e-05
4.70064865604e-05
-1.91871764533e-05
7.35693340451e-05
4.70166830789e-05
-3.72481318391e-05
7.41950929165e-05
4.39355292304e-05
-5.30356033318e-05
7.52953803033e-05
3.76617730104e-05
-6.57226328583e-05
7.62453066752e-05
2.87156227839e-05
-7.42887211922e-05
7.61598114264e-05
1.75347859614e-05
-7.77123034983e-05
7.42956813379e-05
4.01481943057e-06
-7.50019561018e-05
7.01635050215e-05
-1.22567784726e-05
-6.28470515758e-05
6.33441401298e-05
-3.06803309633e-05
-3.7532624809e-05
5.59676313989e-05
-4.9182949836e-05
5.23571006584e-05
-5.36117357375e-05
4.01069039916e-05
4.46448582021e-05
-4.61051900658e-05
6.67759026703e-05
4.84923692739e-05
-3.94610855266e-05
7.85794299821e-05
5.61063905133e-05
-1.80960970105e-05
8.03749492863e-05
6.22934731395e-05
1.57115757198e-06
7.62406490909e-05
6.5791521388e-05
1.74876992438e-05
6.71128535873e-05
6.70773824771e-05
3.06248473687e-05
5.40276321538e-05
6.67661067736e-05
4.1130881894e-05
3.80034137466e-05
6.56471897082e-05
4.91551394985e-05
1.97085111599e-05
6.45197879002e-05
5.47051913945e-05
8.50486981411e-08
6.38666247153e-05
5.74440957812e-05
-1.95435768908e-05
6.38561600706e-05
5.74534842898e-05
-3.78528660606e-05
6.44905394411e-05
5.47324050617e-05
-5.38957302378e-05
6.56055004803e-05
4.91937440227e-05
-6.70041765588e-05
6.67203037663e-05
4.11754710116e-05
-7.61578399607e-05
6.70340828649e-05
3.06707706397e-05
-8.03145558536e-05
6.57549961284e-05
1.75318096788e-05
-7.85395261397e-05
6.22650512592e-05
1.60642757924e-06
-6.67523769738e-05
5.60879015869e-05
-1.80717860245e-05
-4.00934462838e-05
4.84812294482e-05
-3.94466957951e-05
4.46379023624e-05
-4.60920418593e-05
4.20282467991e-05
3.38245740291e-05
-4.12716017768e-05
6.93575416517e-05
3.76051266278e-05
-3.16013914502e-05
8.03087466607e-05
4.48609207235e-05
-7.06628525911e-06
8.11647935526e-05
5.02964215831e-05
1.30517969862e-05
7.63323765012e-05
5.31272076502e-05
2.86658970327e-05
6.68021012212e-05
5.39930364361e-05
4.1128507152e-05
5.36160092948e-05
5.35836904944e-05
5.07713616283e-05
3.77494314592e-05
5.27519300164e-05
5.79595651807e-05
1.95588417854e-05
5.18024365241e-05
6.30223836252e-05
8.34811834526e-08
5.12511325854e-05
6.53828246635e-05
-1.93972951114e-05
5.12417202659e-05
6.53912261966e-05
-3.76032290751e-05
5.17764921641e-05
6.30471693867e-05
-5.34877023827e-05
5.2716056538e-05
5.79949876449e-05
-6.66964386888e-05
5.35428461305e-05
5.08130898166e-05
-7.62517105415e-05
5.39542482274e-05
4.11726275176e-05
-8.11062538705e-05
5.30942445944e-05
2.87094937644e-05
-8.02710851491e-05
5.02703136095e-05
1.30891366855e-05
-6.93363836703e-05
4.48432549226e-05
-7.03735904026e-06
-4.20150702564e-05
3.75938347126e-05
-3.1582507351e-05
3.38166741335e-05
-4.12508814043e-05
4.37547067499e-05
2.19454110035e-05
-4.02101332708e-05
7.10546929018e-05
2.51285849747e-05
-2.60989205138e-05
8.09772889216e-05
3.09605576716e-05
1.86971169716e-06
8.084787196e-05
3.52340688973e-05
2.25082474982e-05
7.53857408595e-05
3.7362218196e-05
3.76096824198e-05