/*--------------------------------*- C++ -*----------------------------------*\
| =========                 |                                                 |
| \\      /  F ield         | OpenFOAM: The Open Source CFD Toolbox           |
|  \\    /   O peration     | Version:  3.0.1                                 |
|   \\  /    A nd           | Web:      www.OpenFOAM.org                      |
|    \\/     M anipulation  |                                                 |
\*---------------------------------------------------------------------------*/
FoamFile
{
    version     2.0;
    format      ascii;
    class       volVectorField;
    location    "0.7";
    object      ddt0(U);
}
// * * * * * * * * * * * * * * * * * * * * * * * * * * * * * * * * * * * * * //

dimensions      [0 1 -2 0 0 0 0];

internalField   nonuniform List<vector> 
7968
(
(0.00187753016452 0.00185733169055 -0.00366190437364)
(0.00551863075695 0.00187573069347 -0.00365408411653)
(0.00896016531238 0.0020938339829 -0.00360198395596)
(0.0116328551498 0.00249510315558 -0.00351790666383)
(0.0132332557175 0.00304880418982 -0.00342336363899)
(0.0135167235654 0.00368671567882 -0.0033290948111)
(0.012404783428 0.00432432639206 -0.00323143452905)
(0.00996404045792 0.00488689162211 -0.00314165000138)
(0.00643791866374 0.00530227688742 -0.00307018606119)
(0.00220282742254 0.00552243157747 -0.00303293851935)
(-0.00227874425205 0.00552213757164 -0.0030332939418)
(-0.00651594623765 0.00530216487362 -0.00307140335123)
(-0.010047469161 0.00488806996118 -0.00314188495406)
(-0.0124981090288 0.00432875929814 -0.00322885358379)
(-0.0136230058531 0.00369610322444 -0.0033204608257)
(-0.0133484178272 0.0030653896848 -0.0034075698538)
(-0.0117430795627 0.00251899235532 -0.00349258604708)
(-0.00904151593335 0.00212498702224 -0.00356887134314)
(-0.00553639421154 0.00191572929859 -0.00361251851754)
(-0.00187105883504 0.00190231644862 -0.00361691165696)
(0.00189376040228 0.00546082196689 -0.00367051887442)
(0.00581203572716 0.00576766581048 -0.00404648567251)
(0.00965674188519 0.00658474376034 -0.00416928618245)
(0.0126495816914 0.00789149780843 -0.00413506889478)
(0.0144536705377 0.00958820513937 -0.00403287239454)
(0.0147983067751 0.0114966373304 -0.00390308344699)
(0.0135886899564 0.0133947769248 -0.00376807065067)
(0.010914588554 0.0150598706239 -0.003650831143)
(0.00705268535657 0.0162911971573 -0.00356711176456)
(0.00242027804329 0.0169448636096 -0.00352508150106)
(-0.00247909093717 0.0169444122998 -0.00352674902382)
(-0.0071133768198 0.0162912042903 -0.0035712215901)
(-0.0109804759005 0.0150633403647 -0.00365610487549)
(-0.0136640748335 0.0134065791081 -0.00377189514244)
(-0.0148858343515 0.0115218945319 -0.00390174533941)
(-0.01454965247 0.00963212288821 -0.00402387978406)
(-0.0127410879192 0.00795683001334 -0.004116768048)
(-0.00972122135709 0.00667230646379 -0.00414297557168)
(-0.00582074531018 0.00587374036815 -0.00401253785565)
(-0.00188402674547 0.00556917361632 -0.00363350704073)
(0.00211188032275 0.00888238484884 -0.00364491931779)
(0.00662821737974 0.00960049790662 -0.00419919263618)
(0.0111529243965 0.011094597189 -0.00433728506761)
(0.0147055924771 0.013351676845 -0.00420746411638)
(0.016876561582 0.0162064432421 -0.00393856772951)
(0.0173333752834 0.0193808062373 -0.0036008961516)
(0.01594676393 0.0225257513357 -0.00325590435143)
(0.0128223169967 0.0252810493418 -0.00296093919286)
(0.00829077545476 0.0273206015816 -0.00275633012564)
(0.00284943425054 0.0284051845768 -0.00265437648182)
(-0.00290635621057 0.028405671385 -0.00265666778372)
(-0.00834736569393 0.027323468208 -0.00276303346549)
(-0.0128797876521 0.0252899409452 -0.00297060680778)
(-0.0160081440894 0.0225462931436 -0.00326532219005)
(-0.0174008972628 0.0194200224104 -0.00360670332684)
(-0.0169473440589 0.0162719361382 -0.00393806850572)
(-0.0147693521178 0.0134485324953 -0.00419869626192)
(-0.0111923879165 0.011223682811 -0.00432089189937)
(-0.00662420204321 0.00975287301839 -0.00417629027194)
(-0.00209889783482 0.00903476338948 -0.00361997139787)
(0.00251129360677 0.0115327406109 -0.00359704623033)
(0.00793026302472 0.0125733225022 -0.00420558179759)
(0.013408170421 0.0146186976875 -0.00425210356577)
(0.0177534700408 0.0176568098479 -0.00389245171129)
(0.0204437649126 0.0214680132704 -0.00329438639445)
(0.0210561139108 0.0256938329152 -0.00257349684025)
(0.0194141950471 0.029884728176 -0.00184894774017)
(0.0156352324084 0.033565071619 -0.00123374619614)
(0.0101219340817 0.0362979761839 -0.000807812159509)
(0.00348537524339 0.0377563428218 -0.00059336932225)
(-0.00353984233468 0.037759094909 -0.000596184801196)
(-0.0101735474665 0.036307095767 -0.000814873592188)
(-0.0156833656946 0.0335830858589 -0.00124428996032)
(-0.0194599175933 0.0299160537583 -0.00186105963749)
(-0.0211001085471 0.0257450506895 -0.00258417472973)
(-0.0204839038742 0.0215473300802 -0.00330046240654)
(-0.0177834531869 0.0177703413685 -0.00389210540492)
(-0.0134191771355 0.0147668478921 -0.00424529253541)
(-0.00791496819907 0.0127447979998 -0.00419401505804)
(-0.00249847843121 0.0117004934316 -0.0035841683895)
(0.00305979330097 0.0131114688458 -0.00354468974103)
(0.00961258150865 0.0143509923716 -0.00414956722349)
(0.0162472253412 0.0167508969011 -0.00403727133056)
(0.021559138029 0.020291403874 -0.00335270866246)
(0.0248884146516 0.024723289613 -0.00230478304121)
(0.0257036146129 0.0296473215328 -0.00106668490418)
(0.0237623312096 0.0345533788131 0.000174265828341)
(0.0191813682686 0.0388916377955 0.00123210525068)
(0.0124418597128 0.0421367521752 0.00197089893421)
(0.00429546347743 0.0438803004662 0.00234802016779)
(-0.00434119097832 0.0438865743193 0.00234656145924)
(-0.0124839898327 0.0421554169374 0.00196640507613)
(-0.0192176722071 0.0389227007455 0.00122471714038)
(-0.0237918595247 0.0345984052301 0.000163871286521)
(-0.0257248523421 0.0297099704622 -0.00107835282394)
(-0.0248989195991 0.0248102753668 -0.00231422158652)
(-0.0215565496794 0.0204084669437 -0.00335812899908)
(-0.0162315325064 0.0168982337416 -0.00403862878422)
(-0.00958918715728 0.0145174654434 -0.00414823917234)
(-0.00304943735004 0.0132705056471 -0.00354362588646)
(0.00368766914534 0.0133745115367 -0.00349019982023)
(0.0114951413368 0.014667127643 -0.00406837176642)
(0.0193893221696 0.0171674005769 -0.00375760035959)
(0.0257589025825 0.0208471012918 -0.00269700248536)
(0.029802999647 0.0254619594773 -0.00113592321425)
(0.0308651907994 0.0306127516772 0.000700647154424)
(0.028627824297 0.035787425916 0.00253707637508)
(0.0231859536742 0.0404135941642 0.00412295823254)
(0.015085411396 0.0439065840629 0.00525603259678)
(0.0052261996044 0.0457988940883 0.00584792543941)
(-0.00525406448147 0.0458090883716 0.00584789798588)
(-0.015111073019 0.043935940233 0.00525704201729)
(-0.0232072781941 0.0404589751937 0.00412302723366)
(-0.0286423158251 0.0358473980043 0.00253456886282)
(-0.0308681421311 0.0306861447529 0.000694129219288)
(-0.0297901980492 0.0255526207504 -0.00114410794263)
(-0.0257307642888 0.0209592246442 -0.00270403548978)
(-0.0193538007909 0.017300700008 -0.00376314647319)
(-0.0114686128429 0.0148120521614 -0.00407433094033)
(-0.00368130435866 0.0135087351945 -0.00349734080571)
(0.00431411008533 0.0122486353707 -0.00343559930484)
(0.0133613028243 0.0134353770297 -0.00398108034682)
(0.0224901512929 0.0157513867277 -0.00346881533993)
(0.029906555761 0.0191651819558 -0.00203688219753)
(0.0346789724573 0.0234670736327 3.47195969706e-05)
(0.0360291610093 0.0283072732309 0.00246591147579)
(0.0335561465603 0.0332347372196 0.00492793679267)
(0.0272884868295 0.0376911628692 0.00709655740254)
(0.0178171944336 0.0410816675166 0.00867474634476)
(0.00619479031825 0.042933199173 0.00952059607076)
(-0.00619892978339 0.0429469421673 0.00952310747436)
(-0.0178226930186 0.0411201014265 0.00868130610798)
(-0.0272935593699 0.0377490589322 0.00710259133485)
(-0.0335573696372 0.0333060288357 0.0049370407306)
(-0.0360200967103 0.0283884145885 0.00246903869048)
(-0.0346518348531 0.0235577606605 3.26701551072e-05)
(-0.0298632205608 0.0192672003724 -0.00204150796587)
(-0.0224444084627 0.0158637859604 -0.00347570609238)
(-0.0133373656 0.0135510128824 -0.00399070943165)
(-0.00431341777516 0.0123509163379 -0.00344759732348)
(0.0048650484272 0.00980576057859 -0.00338199969241)
(0.0149924546184 0.0107517796828 -0.0039035345434)
(0.0251963665915 0.0126164217007 -0.00322094889926)
(0.0335355977845 0.0153731078947 -0.00147719057642)
(0.0389780224594 0.0188654068503 0.00103214494106)
(0.0406392558404 0.0228319501501 0.00399531673325)
(0.0380128770909 0.0269178955592 0.00705095775101)
(0.0310185668291 0.0306403073501 0.00978631633831)
(0.0203109019147 0.0334849550834 0.0118066556727)
(0.00708440287405 0.0350532101252 0.0129041404115)
(-0.00706149267375 0.035067950712 0.0129098526199)
(-0.0202935975774 0.0335264967356 0.0118209204206)
(-0.0310071627237 0.0307020598583 0.00980489568989)
(-0.0380040704291 0.0269923332599 0.00706866051592)
(-0.0406230693173 0.0229132468346 0.00400975828109)
(-0.0389451686475 0.0189505498582 0.0010383882873)
(-0.0334872658688 0.01546110178 -0.00147702074653)
(-0.0251495557104 0.0127057295972 -0.00322631500388)
(-0.0149761705893 0.010836989286 -0.00391305654831)
(-0.0048709777849 0.00987673776825 -0.00339542877975)
(0.00527006007163 0.00629191369298 -0.00334020539975)
(0.0161927278297 0.00689572004904 -0.00385009343264)
(0.0271887542678 0.00809632353857 -0.00305080175084)
(0.0362139922742 0.00987812382596 -0.00109323199492)
(0.0421718230326 0.0121445500002 0.00172061886321)
(0.0440922843336 0.0147394571421 0.00507162247235)
(0.0413816511173 0.0174291871234 0.00856978287906)
(0.0338584892037 0.0199060351975 0.0117495199325)
(0.02222898173 0.0218187998306 0.014110795094)
(0.0077767847232 0.0228899178048 0.0154212181336)
(-0.00772644744162 0.0229014108992 0.0154301220191)
(-0.0221890932851 0.0218546998757 0.0141322741038)
(-0.0338313513772 0.0199610092711 0.0117763023906)
(-0.0413636284144 0.0174970540247 0.00859629693006)
(-0.0440723957831 0.0148100531131 0.00509545122834)
(-0.0421387184876 0.012215620035 0.00173488452457)
(-0.0361674354673 0.009947779847 -0.0010879300502)
(-0.0271473690454 0.00816210502253 -0.00305301071682)
(-0.0161866574474 0.00695297651251 -0.00385842351588)
(-0.00528226779822 0.00633584251596 -0.00335149336649)
(0.00548246639705 0.00208059453875 -0.00331999177348)
(0.0168227623182 0.00228339070649 -0.00382511672578)
(0.0282363557776 0.00268830646117 -0.00296605375399)
(0.0376261183064 0.00329014523684 -0.000902434803432)
(0.0438647996193 0.00405961275843 0.00206616995408)
(0.0459328042183 0.00494709308164 0.00561992811692)
(0.0431973547192 0.00587512645391 0.00935844009833)
(0.0354123323779 0.00673233966532 0.0127912448028)
(0.0232958258963 0.00740319312902 0.0153717702108)
(0.00816728897201 0.00778658242117 0.0168347187076)
(-0.00809760522364 0.00779362041238 0.0168405516886)
(-0.0232356313112 0.0074262494392 0.01539427794)
(-0.0353690765408 0.00676788390963 0.0128224855919)
(-0.0431722846916 0.0059180372183 0.0093889079841)
(-0.0459135140363 0.00499877255922 0.00564925725193)
(-0.0438333917339 0.00411341159726 0.00208593690253)
(-0.0375833828489 0.00333860234745 -0.000893977233744)
(-0.028202549863 0.00272943884213 -0.00296678705336)
(-0.0168272614572 0.00231633229585 -0.00383098072674)
(-0.00550025960897 0.00210334461397 -0.00332903755351)
(0.00547876548436 -0.00237151480085 -0.00332575783169)
(0.0168120335106 -0.0025888989984 -0.00382933990148)
(0.0282168788621 -0.00302560137464 -0.00297152615075)
(0.0375995787322 -0.00367141304745 -0.000907576117775)
(0.0438370329492 -0.00449283587018 0.0020584022929)
(0.04591067017 -0.00543541380686 0.00560932537881)
(0.0431744774633 -0.00641242685014 0.00933879049336)
(0.0353883252545 -0.00731921277333 0.0127741303056)
(0.0232835455624 -0.00802187083331 0.0153504631786)
(0.00816729462483 -0.00841597861469 0.0168158778401)
(-0.00808696690645 -0.00841093595052 0.0168209287513)
(-0.0232152070572 -0.00801052261639 0.0153747966958)
(-0.0353410280891 -0.00730266503126 0.0128070506374)
(-0.0431396001063 -0.00639253614931 0.00937595311484)
(-0.0458800542064 -0.00540768788874 0.0056393428475)
(-0.0438072543711 -0.00446305616368 0.00207714062273)
(-0.0375653352942 -0.00364560911084 -0.000899561304107)
(-0.0281905333182 -0.00300597258179 -0.00297064615359)
(-0.0168230138762 -0.00257589765939 -0.00383395707007)
(-0.00549981039244 -0.00236424870727 -0.00333168805649)
(0.00525843077187 -0.00657927995912 -0.00335513293132)
(0.0161575883365 -0.00719483424501 -0.00386359149319)
(0.0271323362555 -0.00842470270771 -0.00306444540314)
(0.0361405201511 -0.0102418200984 -0.00110985828944)
(0.0420884488608 -0.0125534979049 0.00169746155453)
(0.0440084247291 -0.0151998042615 0.00503810970475)
(0.041306875695 -0.0179456937941 0.00852283696327)
(0.0338021782742 -0.0204588561849 0.0116931733193)
(0.0221990956162 -0.0223954332772 0.014047843471)
(0.00777819297143 -0.0234746186624 0.0153531594706)
(-0.00769200478005 -0.023473349054 0.0153622926017)
(-0.0221271217595 -0.022394650348 0.0140713849826)
(-0.0337498183779 -0.0204566054073 0.0117245320326)
(-0.0412702381129 -0.0179403338586 0.00855631059961)
(-0.0439792899427 -0.0151955801664 0.00506762225018)
(-0.0420585388358 -0.0125491431041 0.00171585082862)
(-0.0361069455172 -0.0102368298192 -0.00110210587305)
(-0.0271099879537 -0.00842200945163 -0.0030634842537)
(-0.0161733368617 -0.0071966141887 -0.00386742343394)
(-0.00528121184795 -0.0065816993663 -0.00335962698213)
(0.00484770765502 -0.0100855403021 -0.00340659050232)
(0.0149398328935 -0.0110362521942 -0.00392547164435)
(0.0251118554295 -0.0129185799887 -0.00324360014774)
(0.0334246379329 -0.0156983934969 -0.00150495707676)
(0.0388498069526 -0.0192214497819 0.000993115740336)
(0.0405076097209 -0.0232237994263 0.00393991555963)
(0.0378977487298 -0.027345859176 0.00697604747506)
(0.0309351937833 -0.0310944905128 0.0096993397716)
(0.0202670351767 -0.0339559797661 0.0117095298581)
(0.00708911035165 -0.0355277657097 0.0127998106565)
(-0.00700625365961 -0.0355305834577 0.0128072843891)
(-0.0201970799845 -0.0339640818348 0.0117290935554)
(-0.0308826419131 -0.0311057259184 0.00972700939296)
(-0.0378607746809 -0.0273580619975 0.00700602904652)
(-0.0404780753203 -0.0232356093536 0.003966067639)
(-0.038818382842 -0.0192317070221 0.00100910218388)
(-0.0333905164992 -0.0157078434376 -0.00149820197173)
(-0.0250902541252 -0.0129289996279 -0.00324281457753)
(-0.0149555168172 -0.0110474057932 -0.00392830045229)
(-0.00486968163147 -0.0100914287026 -0.00340879033852)
(0.00429403293554 -0.0125162631176 -0.00346756698745)
(0.0133005650538 -0.0136985992386 -0.00401178310194)
(0.0223919534755 -0.016017864159 -0.00350033660652)
(0.0297756295361 -0.019436507256 -0.00207625531882)
(0.0345256303814 -0.0237474362272 -1.93723715541e-05)
(0.0358713651812 -0.0286009575648 0.00239189614964)
(0.0334188066098 -0.0335423112165 0.00483423787992)
(0.0271895644946 -0.0380115717465 0.00699193405498)
(0.017766712479 -0.0414086925013 0.00855947738777)
(0.00620411840059 -0.0432584948792 0.00939816178411)
(-0.00612794060838 -0.0432626543658 0.00940418961662)
(-0.017702138986 -0.0414200718829 0.00857676992074)
(-0.0271404388413 -0.0380277747512 0.00701545655434)
(-0.033382538766 -0.033560918071 0.00486070262443)
(-0.0358404511335 -0.028618864744 0.00241452038787)
(-0.0344922576428 -0.0237635142899 -4.83365156795e-06)
(-0.0297401748658 -0.0194521918874 -0.0020698422007)
(-0.0223687851987 -0.0160341579233 -0.00349874774199)
(-0.0133123017432 -0.0137132898793 -0.00401223832845)
(-0.00431294427495 -0.0125201837689 -0.00346721515076)
(0.00366900823645 -0.0136248198207 -0.00352738696671)
(0.0114377415763 -0.0149031251003 -0.00410469650197)
(0.0192948947709 -0.0173911029881 -0.00379712810244)
(0.0256306698654 -0.0210549399003 -0.0027474867982)
(0.0296494663372 -0.0256544000124 -0.00120378208929)
(0.0307045503842 -0.0307923905303 0.000611456787138)
(0.0284854231956 -0.0359583131121 0.00242853050164)
(0.0230830002532 -0.0405805184827 0.00400110044047)
(0.0150365686991 -0.0440684423258 0.00512419381656)
(0.00524194922154 -0.0459537041843 0.00571168414277)
(-0.00517419450334 -0.0459577506049 0.00571667131622)
(-0.014978394706 -0.0440793711947 0.00513882963375)
(-0.0230376383003 -0.0405957251286 0.00402246582376)
(-0.0284503047436 -0.0359752901341 0.00245225142511)
(-0.0306725031127 -0.0308085421231 0.000633050052308)
(-0.0296146662663 -0.0256692830504 -0.00118891973796)
(-0.0255944348722 -0.0210697450277 -0.00273879338483)
(-0.0192695416145 -0.0174062773657 -0.0037939600243)
(-0.0114423757455 -0.0149150595519 -0.00410334145738)
(-0.00368255998619 -0.0136211942593 -0.003524252229)
(0.00304632041727 -0.0133363590821 -0.00358281922955)
(0.00956992550366 -0.0145539108627 -0.00418787865347)
(0.0161746684269 -0.0169274114584 -0.00408207318832)
(0.0214565572683 -0.0204332510183 -0.00341173092417)
(0.0247611707188 -0.024827606452 -0.00238382189965)
(0.0255662819458 -0.0297154268032 -0.00116640058993)
(0.0236374437691 -0.0345908054383 5.50825091632e-05)
(0.019091515149 -0.0389067201115 0.00109888566737)
(0.0124033701885 -0.0421354507554 0.00182936327517)
(0.00431796412457 -0.0438688598131 0.00220501752481)
(-0.004258660007 -0.0438724432983 0.00220930285411)
(-0.0123514533399 -0.042144995556 0.00184286612048)
(-0.0190494594168 -0.0389196633479 0.00111892724905)
(-0.0236028111482 -0.0346046280994 7.79518980071e-05)
(-0.0255332222862 -0.0297280842305 -0.00114525844347)
(-0.0247250711029 -0.0248389309335 -0.00236668449712)
(-0.0214189167951 -0.0204439812141 -0.00340012256485)
(-0.0161457776858 -0.0169367574862 -0.00407652370665)
(-0.00956474520592 -0.0145576016976 -0.00418492586634)
(-0.00305275799009 -0.0133211920152 -0.00357815843269)
(0.002505764607 -0.0117209258519 -0.00363202816726)
(0.00791137561893 -0.0127360488992 -0.00424280891105)
(0.0133722501599 -0.0147459438325 -0.00429845038342)
(0.0176955976418 -0.0177378138206 -0.00395614940246)
(0.0203635192824 -0.0214977487856 -0.00337976492948)
(0.0209629424718 -0.0256733650657 -0.00268077062577)
(0.0193257116344 -0.0298198988927 -0.00197556619963)
(0.0155717264593 -0.033466897975 -0.00137443313404)
(0.0100998176676 -0.0361774895312 -0.000955437932949)
(0.00351364109365 -0.0376248847132 -0.000740210153943)
(-0.00346172398534 -0.0376280126242 -0.000736054867479)
(-0.0100530362546 -0.0361861548272 -0.00094264375905)
(-0.0155318036055 -0.0334787542423 -0.00135483659145)
(-0.0192906220418 -0.0298324556641 -0.0019531970457)
(-0.0209277748579 -0.0256845334069 -0.00265847590734)
(-0.0203250413258 -0.0215070413998 -0.00336048854194)
(-0.0176545999572 -0.0177445038318 -0.00394313735422)
(-0.0133368222966 -0.0147483394905 -0.00429161815435)
(-0.00789309091579 -0.0127293201645 -0.00423849515554)
(-0.00250362997697 -0.0116937931423 -0.00362656296107)
(0.00211544947072 -0.00901963408852 -0.00367411318643)
(0.00663756664059 -0.00971395140188 -0.00423287961561)
(0.0111605199002 -0.0111724820937 -0.00438230839418)
(0.0147005707712 -0.0133840150132 -0.00427223542761)
(0.01685249301 -0.0161884027366 -0.00402649999515)
(0.0172932877368 -0.019313017509 -0.00371164071857)
(0.0159023408365 -0.022414449791 -0.00338556393124)
(0.0127901379208 -0.0251365050072 -0.00310474185125)
(0.00828631024671 -0.0271549550799 -0.00290662745001)
(0.00288187311769 -0.028230527111 -0.00280328759829)
(-0.00283624654708 -0.0282328357414 -0.00279888874121)
(-0.00824439038556 -0.0271617314481 -0.00289453186474)
(-0.012752363516 -0.0251464594838 -0.00308641599321)
(-0.015866525391 -0.0224255505924 -0.00336479568415)
(-0.0172555776816 -0.019323573886 -0.00369007292636)
(-0.0168097300841 -0.0161966436748 -0.00400906724523)
(-0.0146530753382 -0.0133880342823 -0.00425959808885)
(-0.0111149497141 -0.0111700219005 -0.00437518414042)
(-0.00660337325069 -0.00970027734789 -0.00422849366427)
(-0.00210374163752 -0.00898577176207 -0.00366946594218)
(0.00190816992913 -0.00552914997573 -0.00369156862839)
(0.00584672462682 -0.00582279155224 -0.00407394325158)
(0.00970118069198 -0.00661658309756 -0.00421056817013)
(0.012688814735 -0.00789396074907 -0.00419628081884)
(0.0144766079321 -0.00955822079525 -0.004117846482)
(0.0148026742533 -0.0114337658997 -0.00401136642061)
(0.0135816919845 -0.0133031022222 -0.00389621044312)
(0.0109094189247 -0.0149453787632 -0.00379308312045)
(0.0070631480284 -0.0161625464797 -0.0037165710366)
(0.0024563325651 -0.0168102364489 -0.00367519947862)
(-0.00241510639609 -0.0168110807489 -0.00367076457957)
(-0.00702513520275 -0.016165257714 -0.00370433646341)
(-0.0108742652296 -0.0149495643955 -0.00377548910398)
(-0.0135469436061 -0.0133082563457 -0.00387647327646)
(-0.0147639911665 -0.011439197796 -0.00399219830517)
(-0.0144306975416 -0.00956252361952 -0.00410129251319)
(-0.0126358366087 -0.00789546859654 -0.00418413873714)
(-0.00964625541736 -0.00661288754357 -0.00420364982206)
(-0.0057966902902 -0.00580934524251 -0.00407012564006)
(-0.0018859349413 -0.00550206724687 -0.00368849266172)
(0.0018979686039 -0.00187673125338 -0.00367700494122)
(0.00555992817483 -0.00189095759487 -0.00367768886789)
(0.00901534102432 -0.00210078521731 -0.00364140111576)
(0.0116858932364 -0.00249339984882 -0.00357670511753)
(0.0132728973812 -0.00303772695529 -0.00350561007936)
(0.013539472427 -0.0036650784133 -0.00343236565445)
(0.0124160858262 -0.00429352025574 -0.00335449352664)
(0.00997514393115 -0.00484828711682 -0.00327719374727)
(0.00646079576919 -0.00525876416172 -0.00321407393094)
(0.0022464732677 -0.00547654807895 -0.00317742873239)
(-0.00221272377383 -0.00547645762113 -0.00317352835203)
(-0.00643068449653 -0.00525880157116 -0.00320208800434)
(-0.00994852241604 -0.00484835036085 -0.00325918348149)
(-0.0123905086189 -0.00429386028582 -0.0033336993432)
(-0.0135103193342 -0.00366571362761 -0.0034115734351)
(-0.0132357499879 -0.00303861642578 -0.00348768910127)
(-0.011639263627 -0.0024937712859 -0.0035628678741)
(-0.00896176837113 -0.00209902317311 -0.00363279072303)
(-0.00550537338142 -0.00188475273244 -0.00367318676079)
(-0.0018706720383 -0.00186702371736 -0.00367697459866)
(0.00203851696797 0.00200395216403 -0.0111221830166)
(0.0058109555226 0.00223322421022 -0.0111977011811)
(0.00928684108173 0.00263372188764 -0.0112214404129)
(0.0119921126045 0.00321667172375 -0.0111616333119)
(0.0136158081875 0.0039374990691 -0.0110446179869)
(0.0139074968954 0.00473213897122 -0.0108917222133)
(0.0127713826075 0.00551785728073 -0.0107039326158)
(0.0102666566896 0.0062080167898 -0.0105174374098)
(0.00664008181561 0.00671741570058 -0.0103646711768)
(0.00227897508032 0.00698739154773 -0.010282075467)
(-0.0023379846603 0.00698664116083 -0.0102828573707)
(-0.00670041738329 0.00671573586379 -0.0103665244476)
(-0.0103313125937 0.00620679898679 -0.0105165594668)
(-0.0128444582858 0.00551886056814 -0.0106953471667)
(-0.0139920019956 0.00473730841694 -0.0108670733425)
(-0.0137087866678 0.00394928989998 -0.0110002208696)
(-0.0120814627295 0.00323593691865 -0.0110914560289)
(-0.00935025171478 0.00266071070492 -0.011128922689)
(-0.00582156824562 0.00226805771815 -0.0110878536062)
(-0.0020311645666 0.00204172921446 -0.0110138366565)
(0.00225434443855 0.00572363088562 -0.0112387817152)
(0.00631440344545 0.00630271015909 -0.0117359659211)
(0.0100353908905 0.00740101831645 -0.0118833643718)
(0.0129394443825 0.00900566694503 -0.0118044620113)
(0.0146980494269 0.0109912362183 -0.0115620291379)
(0.0150457170825 0.0131851410054 -0.0112040671047)
(0.0138514344081 0.0153676545231 -0.010791868167)
(0.0111694796064 0.0172968978042 -0.0104042121631)
(0.00725485857629 0.0187376331615 -0.0101090793276)
(0.00252735941584 0.0195088188434 -0.00995320423889)
(-0.00248694607988 0.0195095801986 -0.00995615838492)
(-0.00722243754996 0.0187404009397 -0.0101164660223)
(-0.0111531102101 0.0173040062007 -0.0104129990834)
(-0.0138579123596 0.015382395455 -0.0107964323372)
(-0.015077084754 0.0132118765759 -0.0111961780237)
(-0.0147488963678 0.011034528916 -0.0115346199598)
(-0.0129955612848 0.00906879067433 -0.0117536890554)
(-0.0100744378613 0.00748413472588 -0.0118110544499)
(-0.00631151859694 0.0063994866844 -0.0116478167043)
(-0.00224196905621 0.00581590534202 -0.0111482967279)
(0.00264934640298 0.00917115229066 -0.0113319677532)
(0.00738261748602 0.0100547405347 -0.0119544478145)
(0.0117138867285 0.0117826429094 -0.0119404737893)
(0.0151122614684 0.0143086504166 -0.0115048992563)
(0.0171959047799 0.0174371283894 -0.0107567457867)
(0.0176543825817 0.0209016149243 -0.00979570165732)
(0.0163114890813 0.0243645393348 -0.00876302572603)
(0.0132016185422 0.027442590637 -0.00782004377139)
(0.0086043518482 0.0297570388973 -0.00711588349776)
(0.00301416527326 0.0310036988801 -0.00674424263484)
(-0.00292945883209 0.0310080739831 -0.00674723960458)
(-0.00853029173234 0.0297704318937 -0.00712532648373)
(-0.0131476196311 0.0274658497285 -0.0078333941449)
(-0.0162842116013 0.0244005684259 -0.00877491651309)
(-0.017654775044 0.0209545666271 -0.00979924250071)
(-0.0172171230766 0.017512129459 -0.0107460027804)
(-0.0151400803267 0.0144098102375 -0.0114751685745)
(-0.0117294757855 0.0119091313423 -0.0118922376808)
(-0.0073686690802 0.0101958629873 -0.0118931681906)
(-0.00263450008267 0.00930169074361 -0.0112690865624)
(0.00322446161287 0.0118455078184 -0.0113701234187)
(0.00896784294292 0.0129713188352 -0.0119737074391)
(0.0142169486437 0.0152048574884 -0.0116060198217)
(0.0183614755005 0.018472879645 -0.0105362836103)
(0.0209368342125 0.0225320171664 -0.00893992746406)
(0.0215661813537 0.0270546210275 -0.0069980458134)
(0.020008590214 0.0316124934887 -0.00496634892235)
(0.0162627263476 0.0357018353743 -0.003126673198)
(0.0106375705075 0.0388045974333 -0.00175129090992)
(0.0037364974686 0.0404874487077 -0.0010160950391)
(-0.00362317225715 0.0404968021845 -0.00101834818383)
(-0.0105368107117 0.0388320071729 -0.00175606321085)
(-0.0161841547261 0.0357461460678 -0.00313552213139)
(-0.0199576593574 0.0316735005075 -0.00497647438055)
(-0.0215422429925 0.027133646186 -0.00700483165594)
(-0.0209316022982 0.022633576673 -0.00893845923595)
(-0.0183621468165 0.0186003896153 -0.010522663371)
(-0.0142102334558 0.0153561756861 -0.0115797463291)
(-0.00894591904893 0.0131331228759 -0.0119405295272)
(-0.0032103428514 0.0119905686535 -0.0113371791082)
(0.00393351327307 0.0134389514352 -0.0113708485237)
(0.0109302888057 0.0147173639226 -0.0118450290271)
(0.0173218657742 0.0172753516635 -0.0109786161084)
(0.0224055553473 0.021024516849 -0.00906644049992)
(0.0256209493198 0.0257093085183 -0.00635477449321)
(0.0265040385811 0.0309747542041 -0.00311456522351)
(0.0247160689326 0.0363400839141 0.000254132182202)
(0.0201925756136 0.0412146783915 0.00331339254611)
(0.0132631203049 0.0449575664602 0.00563156609354)
(0.00466973004781 0.0470049944834 0.0068788331405)
(-0.00452741710448 0.0470197145661 0.00688056390369)
(-0.0131357209616 0.0449995202757 0.00563600369117)
(-0.0200908666456 0.0412802145391 0.00331800804034)
(-0.0246450755482 0.0364247555115 0.000256836535427)
(-0.0264597466975 0.0310760557888 -0.00311450178474)
(-0.0255926795598 0.0258290979102 -0.00635385065097)
(-0.0223826710536 0.0211650528158 -0.00906123779347)
(-0.01729721189 0.0174332906563 -0.0109689683344)
(-0.0109050272511 0.0148789932456 -0.0118356887999)
(-0.00392264596276 0.0135783447798 -0.0113654838723)
(0.00471323613521 0.0137081138869 -0.0113331324341)
(0.0130932410878 0.0150310917404 -0.0116054656705)
(0.0207524276614 0.0176884882279 -0.0101483744779)
(0.0269022791982 0.021594663748 -0.00726629774556)
(0.0308764872624 0.0265162805741 -0.00326187383585)
(0.0321005991138 0.0321066586452 0.00147736020091)
(0.0301156764717 0.0378844029544 0.00642310508785)
(0.0247567620563 0.0432184245738 0.0109857825883)
(0.0163464332223 0.0473730408471 0.0145255184334)
(0.00577315060481 0.049668110455 0.01646443062)
(-0.00559596806961 0.0496870863202 0.0164717342091)
(-0.0161885572964 0.0474266404734 0.014546083906)
(-0.0246306905173 0.0433004281148 0.011013135418)
(-0.0300261600994 0.0379873238577 0.00645036858005)
(-0.0320406322142 0.0322236414998 0.00149651679656)
(-0.0308320370112 0.0266456668 -0.00324995842306)
(-0.0268633451531 0.0217366472573 -0.00725933392137)
(-0.0207172769065 0.0178391222485 -0.0101453887999)
(-0.0130702001711 0.0151777316221 -0.0116110980146)
(-0.00470763657364 0.0138292279226 -0.0113460238198)
(0.00548225684766 0.0125614860753 -0.0112647177033)
(0.0152392423595 0.013791098409 -0.0113117992947)
(0.024172783469 0.0162818787044 -0.00924409207978)
(0.0314228427994 0.019960499087 -0.00537548799852)
(0.0362179542283 0.0246405102614 -4.33554372073e-05)
(0.0378712802776 0.0300224720962 0.00627467550586)
(0.0357787676896 0.0356837204849 0.0129684738332)
(0.0296220302758 0.0409933504952 0.0193243704885)
(0.0196729804715 0.0451799169434 0.0243743462668)
(0.00697077814274 0.0475041202983 0.0271853878451)
(-0.0067553567592 0.0475239591457 0.0272016561751)
(-0.0194819296915 0.0452373272564 0.0244135628032)
(-0.0294700586565 0.0410808110033 0.0193813603647)
(-0.0356721312734 0.0357924409354 0.0130301868252)
(-0.0378002863983 0.0301429208908 0.00632247526439)
(-0.0361645232795 0.0247683048628 -1.19162583298e-05)
(-0.0313766758832 0.0200933975659 -0.00535771041419)
(-0.0241353911319 0.0164152924887 -0.00924008365158)
(-0.0152234099176 0.0139140299267 -0.011322511534)
(-0.00548302055145 0.0126583729315 -0.0112859417921)
(0.00615651407272 0.0100616704813 -0.0111797772717)
(0.0171318880566 0.0110625094464 -0.0110246481279)
(0.0272059757419 0.0131038159791 -0.00841208044623)
(0.0354704732552 0.0161352825771 -0.00366087852764)
(0.0410633380873 0.0200290874825 0.00288367917538)
(0.0431950052189 0.0245645528655 0.0107147716835)
(0.0410894891349 0.0294147011018 0.0192340116448)
(0.0342400250548 0.0340243933042 0.0274562564174)
(0.0228488743954 0.0377073678043 0.0340560000049)
(0.00811453913842 0.0397618689416 0.0377277342951)
(-0.00786223456229 0.0397791199223 0.0377492050693)
(-0.0226247863454 0.0377579209638 0.0341140498543)
(-0.0340637501489 0.0341016074854 0.0275405681656)