/*--------------------------------*- C++ -*----------------------------------*\
| =========                 |                                                 |
| \\      /  F ield         | OpenFOAM: The Open Source CFD Toolbox           |
|  \\    /   O peration     | Version:  3.0.1                                 |
|   \\  /    A nd           | Web:      www.OpenFOAM.org                      |
|    \\/     M anipulation  |                                                 |
\*---------------------------------------------------------------------------*/
FoamFile
{
    version     2.0;
    format      ascii;
    class       volScalarField;
    location    "0.7";
    object      ddt0(epsilon);
}
// * * * * * * * * * * * * * * * * * * * * * * * * * * * * * * * * * * * * * //

dimensions      [0 2 -4 0 0 0 0];

internalField   nonuniform List<scalar> 
7968
(
-0.13801790063
-0.13857743384
-0.138651780316
-0.138573318191
-0.138525715904
-0.138509780744
-0.138502395035
-0.138493163157
-0.138480978218
-0.138470209148
-0.13846993096
-0.138480443311
-0.138492564846
-0.138501816549
-0.138509225127
-0.138525182525
-0.138572802075
-0.13865128131
-0.138577172976
-0.138017764459
-0.138577766171
-0.145984165771
-0.148536765109
-0.148543608253
-0.148218477698
-0.148051137275
-0.147991241268
-0.147961397799
-0.147935562999
-0.147918129199
-0.147917915545
-0.147935068967
-0.147960722712
-0.147990536585
-0.148050475177
-0.14821789052
-0.148542986361
-0.148535915342
-0.145983660284
-0.138577664297
-0.13865237784
-0.148536361259
-0.152639352202
-0.152797145153
-0.152229838156
-0.151895920914
-0.151782272102
-0.151746236807
-0.151721743796
-0.151704803746
-0.151704576134
-0.151721223268
-0.151745511508
-0.151781547227
-0.151895317604
-0.152229423901
-0.152796818335
-0.152638802435
-0.148535765799
-0.138652167949
-0.138574071149
-0.148542261562
-0.152795761057
-0.152776294809
-0.15195936897
-0.151483625721
-0.15132600776
-0.151288775542
-0.151267289056
-0.151250896489
-0.151250667728
-0.151266740318
-0.151288062504
-0.151325288795
-0.151483003401
-0.151959071137
-0.152776234146
-0.152795515835
-0.148541825706
-0.138573859686
-0.138526508246
-0.148215877295
-0.15222647125
-0.151956887084
-0.150952048419
-0.150379778262
-0.150171568603
-0.150113474961
-0.150100801882
-0.150094829942
-0.150094749798
-0.150100657631
-0.150113314783
-0.150171241958
-0.150379105944
-0.150951847175
-0.151957129772
-0.152226653045
-0.14821573925
-0.138526338988
-0.138510415682
-0.1480472147
-0.151890342322
-0.151478128728
-0.15037658836
-0.149690938792
-0.149422041767
-0.149349827511
-0.149329231531
-0.14932051022
-0.149320413991
-0.149329055689
-0.149349647452
-0.149421887386
-0.149690622509
-0.150376476014
-0.151478687739
-0.151891006339
-0.14804748291
-0.138510285064
-0.138502719814
-0.147986116005
-0.151774645289
-0.151317758992
-0.150170409413
-0.149421583893
-0.149134061449
-0.149049857997
-0.149022162063
-0.149010149457
-0.149010071271
-0.149022027734
-0.149049679606
-0.149133958132
-0.149421525684
-0.1501704442
-0.151318710447
-0.151775756343
-0.147986726773
-0.1385026123
-0.138493043666
-0.147955259706
-0.15173713323
-0.151278474631
-0.15011172645
-0.149349420769
-0.149051074787
-0.14895836364
-0.148919609855
-0.148900785846
-0.148900793859
-0.148919585173
-0.148958265224
-0.149050995748
-0.149349398282
-0.150112009855
-0.15127979299
-0.151738645864
-0.147956238903
-0.138492942667
-0.138480378335
-0.147928944192
-0.151712107175
-0.15125580585
-0.15009839296
-0.149328134515
-0.149022925577
-0.148919703167
-0.148863808581
-0.148833958062
-0.14883408505
-0.148863981521
-0.148919678537
-0.14902281703
-0.149328131756
-0.150098755824
-0.151257496416
-0.151713979978
-0.147930173286
-0.138480279275
-0.138469534106
-0.147911688155
-0.151695440893
-0.151239245237
-0.150091992265
-0.149318711485
-0.149009895182
-0.148900441671
-0.148834013856
-0.148797431172
-0.148797585142
-0.148834365996
-0.148900569444
-0.14900984517
-0.149318726782
-0.150092445191
-0.151241355849
-0.151697601046
-0.147913120311
-0.138469438364
-0.138470533746
-0.147912560808
-0.151696535586
-0.151240650403
-0.150092155901
-0.149318907638
-0.149010117394
-0.148900787114
-0.148834646994
-0.148798438809
-0.148798618232
-0.148835039511
-0.148900967237
-0.149010075288
-0.149318937876
-0.150092668651
-0.151243059181
-0.151698842152
-0.147914076749
-0.138470541577
-0.138482241199
-0.147931380367
-0.151715331707
-0.151259919506
-0.150098888099
-0.149328607994
-0.14902342326
-0.148920524775
-0.148865134708
-0.148835739669
-0.148835903372
-0.148865423873
-0.148920619661
-0.149023386368
-0.149328720176
-0.150099452264
-0.151262506276
-0.151717688915
-0.147932854933
-0.138482297849
-0.138494996199
-0.147958862788
-0.151742130428
-0.151284733766
-0.150112489334
-0.149350058929
-0.149051564187
-0.148959168186
-0.148920670038
-0.148901951666
-0.148902020019
-0.148920750461
-0.148959168197
-0.149051604545
-0.149350248176
-0.150113099834
-0.151287374871
-0.15174441384
-0.147960208376
-0.138495023725
-0.138504498094
-0.147990276217
-0.151780793639
-0.151325395863
-0.150171209894
-0.149422312658
-0.149134542259
-0.149050411754
-0.149022653159
-0.149010517366
-0.149010538194
-0.149022710391
-0.149050474215
-0.149134671844
-0.149422587379
-0.150171822294
-0.151328000276
-0.151782944023
-0.147991464813
-0.138504470981
-0.138511905188
-0.148051617514
-0.151897042656
-0.151486494581
-0.150385450767
-0.149691935873
-0.149422417775
-0.149349875641
-0.149328987299
-0.149320111222
-0.149320158542
-0.149329143609
-0.149350135414
-0.149422741605
-0.149692312836
-0.150388236655
-0.151489288043
-0.151899045209
-0.148052519366
-0.138511802584
-0.138527666716
-0.14822014039
-0.152233067363
-0.151965010343
-0.150960741698
-0.150388013373
-0.150171612212
-0.150113273646
-0.150100264684
-0.150094144421
-0.150094264532
-0.150100650781
-0.150113845894
-0.15017226506
-0.15039113272
-0.150964018123
-0.151967803907
-0.152234828044
-0.148220768065
-0.138527478663
-0.138574874156
-0.148545899933
-0.152801430129
-0.152783187824
-0.151966575386
-0.15149038329
-0.15133180669
-0.151293886328
-0.151272230492
-0.151256112515
-0.151256803349
-0.151274289533
-0.151296763651
-0.15133503336
-0.151493645313
-0.151969586637
-0.152785581635
-0.152802745065
-0.148546227167
-0.138574632139
-0.138652794163
-0.148538754273
-0.152643185513
-0.152801711462
-0.152234544374
-0.151900130247
-0.151785742308
-0.151749037872
-0.151724391739
-0.151707679874
-0.151708125084
-0.151725822944
-0.151751113851
-0.151788045208
-0.151902447829
-0.152236610216
-0.15280328499
-0.152643821664
-0.148538630662
-0.138652537831
-0.138578001605
-0.14598543149
-0.148538607413
-0.148545763705
-0.148220584587
-0.148052901933
-0.147992514179
-0.147962239033
-0.147936221898
-0.147918933271
-0.147919128262
-0.147936945011
-0.147963231571
-0.147993566952
-0.148053889475
-0.148221398455
-0.148546204305
-0.148538283021
-0.145984821154
-0.13857780581
-0.138017912057
-0.13857754213
-0.138651916137
-0.138573560794
-0.138526054775
-0.138510122724
-0.138502658374
-0.138493285776
-0.138480948458
-0.138470122539
-0.138470066214
-0.138480789995
-0.13849300911
-0.138502258681
-0.138509610617
-0.138525461168
-0.138572947482
-0.138651322209
-0.138577169192
-0.138017827812
-0.138589860506
-0.145921865305
-0.148487450984
-0.148511971594
-0.148196355389
-0.148035729091
-0.147985125168
-0.147967803583
-0.147954141065
-0.147943543179
-0.147943418089
-0.147953874676
-0.147967471894
-0.147984782726
-0.148035377968
-0.148195976421
-0.148511544355
-0.148486974514
-0.145921524405
-0.138589629742
-0.145921822074
-0.0728971097333
-0.0718994407694
-0.0709243558409
-0.070383857097
-0.070194874877
-0.0701616783462
-0.0701713671686
-0.0701829480479
-0.0701883354211
-0.0701884203855
-0.0701831942494
-0.0701717255772
-0.0701620888965
-0.0701952873927
-0.0703842456849
-0.0709247082993
-0.0718997452806
-0.0728973478049
-0.145921709835
-0.148488276627
-0.0718993409318
-0.0691949154823
-0.0674442443085
-0.0665812536196
-0.0662786038429
-0.0662177608287
-0.0662281262702
-0.0662453360666
-0.0662543050449
-0.0662544093842
-0.0662456341308
-0.0662285566019
-0.0662182428449
-0.0662790730767
-0.0665816791159
-0.0674446081369
-0.0691952136998
-0.0718995696798
-0.148488148629
-0.148513342486
-0.0709246078336
-0.0674444892205
-0.0652144489316
-0.0641077947923
-0.0637072740671
-0.0636175847887
-0.0636244391481
-0.0636429195032
-0.0636526493781
-0.0636527720113
-0.063643271223
-0.063624954171
-0.0636181358119
-0.063707762928
-0.0641082242274
-0.0652148021368
-0.0674447681817
-0.0709248131593
-0.148513164388
-0.148198002106
-0.0703846017231
-0.0665818964731
-0.064108127663
-0.0628671161164
-0.0624096637283
-0.0623033857661
-0.0623107577041
-0.0623352696156
-0.0623490795728
-0.0623492776947
-0.0623358486893
-0.0623115928921
-0.0623042566006
-0.0624101411739
-0.062867617399
-0.0641085587721
-0.0665822443075
-0.0703848492531
-0.148197879136
-0.148037450286
-0.0701961241337
-0.0662796284953
-0.0637078788583
-0.0624099948873
-0.0619317167074
-0.0618295720247
-0.0618486748719
-0.0618825389358
-0.0619010494487
-0.0619012429925
-0.0618831382166
-0.0618495963721
-0.0618306432721
-0.0619327625939
-0.0624105099771
-0.063708454506
-0.0662801125816
-0.070196474973
-0.148037416741
-0.147986734933
-0.0701633377524
-0.066219073197
-0.0636184424819
-0.0623049708718
-0.0618303534585
-0.0617440384828
-0.0617786232286
-0.0618249094275
-0.0618496519215
-0.0618498278384
-0.0618254677781
-0.0617794974893
-0.0617451067107
-0.0618315525561
-0.0623060638078
-0.0636192170266
-0.0662197136803
-0.0701638140784
-0.147986808806
-0.147969110821
-0.0701732711437
-0.0662296093755
-0.063625415354
-0.0623129674674
-0.0618500030066
-0.0617791846321
-0.0618302086693
-0.0618905354037
-0.0619226059978
-0.0619227705556
-0.061891008101
-0.0618309314133
-0.0617801379181
-0.0618511980242
-0.0623142094549
-0.0636263174708
-0.066230375296
-0.0701738663624
-0.147969268084
-0.147955061109
-0.0701849068164
-0.0662468771538
-0.0636439271326
-0.0623377470752
-0.0618840207175
-0.0618254778111
-0.0618904332114
-0.0619618243989
-0.0619992673419
-0.0619994157462
-0.0619622280588
-0.0618910020079
-0.061826256635
-0.0618850784963
-0.0623389572535
-0.0636448642078
-0.0662477129214
-0.0701855890502
-0.147955297194
-0.147944328978
-0.0701901384311
-0.0662557284052
-0.0636535020387
-0.062351429495
-0.0619023558934
-0.0618501049258
-0.0619222617139
-0.0619989383424
-0.0620384066545
-0.062038570893
-0.0619992791595
-0.0619226671799
-0.0618506700312
-0.0619031864588
-0.0623524898041
-0.0636544095078
-0.0662565736209
-0.0701908649028
-0.147944633355
-0.14794478096
-0.070189885059
-0.0662555346008
-0.0636533312785
-0.0623510644332
-0.0619019149722
-0.0618495396732
-0.0619216186031
-0.0619982176333
-0.0620376637131
-0.0620377477311
-0.0619984146912
-0.0619218100176
-0.0618498192588
-0.0619024409179
-0.0623518947004
-0.0636541357565
-0.0662563253592
-0.0701905964584
-0.147945153372
-0.147956100579
-0.0701841790838
-0.0662463359766
-0.063643456225
-0.0623367236097
-0.061882801696
-0.0618239987089
-0.0618887575522
-0.0619599224359
-0.0619972411433
-0.061997255307
-0.0619599560774
-0.0618887513812
-0.0618240275397
-0.0618830652159
-0.0623372963072
-0.0636441212649
-0.0662470272159
-0.0701848179641
-0.147956490502
-0.147970256738
-0.0701721335641
-0.066228786179
-0.0636247218515
-0.0623115147189
-0.0618483461463
-0.0617772283845
-0.0618279018645
-0.0618878733936
-0.0619196989719
-0.0619196601031
-0.0618877451428
-0.0618277159853
-0.0617770781275
-0.0618484031441
-0.0623118697344
-0.0636252555725
-0.0662293645666
-0.0701726635511
-0.147970579261
-0.147987696711
-0.0701618767187
-0.0662180354548
-0.0636176131619
-0.0623033891088
-0.0618285196726
-0.0617419461838
-0.0617760703745
-0.061821896452
-0.0618462975103
-0.0618461911308
-0.0618216333852
-0.0617757669817
-0.0617416869603
-0.0618284383595
-0.0623036022078
-0.0636180506834
-0.066218510571
-0.0701622907264
-0.147987917337
-0.148038090767
-0.0701944504569
-0.066278440763
-0.0637070247648
-0.0624091616435
-0.0619299978754
-0.0618274988956
-0.0618462047108
-0.0618796194781
-0.0618977283994
-0.0618975973465
-0.0618792835478
-0.0618458026648
-0.0618271629655
-0.0619298826061
-0.0624093066601
-0.0637074296344
-0.0662788308853
-0.0701947469286
-0.148038176632
-0.148198264169
-0.0703828221179
-0.0665806007987
-0.0641071802999
-0.0628663670561
-0.0624088121946
-0.0623016566467
-0.0623086216773
-0.0623327408122
-0.0623461397205
-0.0623460137117
-0.0623324096153
-0.0623082221486
-0.0623013609001
-0.062408843905
-0.0628666841736
-0.0641075515544
-0.0665809168342
-0.0703830103603
-0.148198215629
-0.148513161799
-0.0709228116982
-0.0674431194929
-0.0652133918754
-0.0641069680069
-0.0637065014134
-0.0636166120557
-0.0636232055888
-0.0636414461768
-0.0636509108213
-0.0636508865547
-0.063641405785
-0.0636231940685
-0.0636166671039
-0.0637066835469
-0.0641072463191
-0.0652137034121
-0.067443375984
-0.0709229223463
-0.148513014264
-0.148487665718
-0.0718976447364
-0.0691935114463
-0.0674430678253
-0.0665803252551
-0.0662778266038
-0.0662169826966
-0.0662272276007
-0.0662442651559
-0.0662530316597
-0.0662529812734
-0.0662441506513
-0.0662271075307
-0.0662169147648
-0.0662778629256
-0.0665804791543
-0.0674432986676
-0.0691937182785
-0.0718976857365
-0.148487410666
-0.145921238918
-0.0728957147605
-0.0718980162517
-0.0709229927902
-0.0703827123581
-0.0701939347996
-0.0701608338087
-0.0701704865742
-0.0701819268036
-0.0701871164694
-0.0701870115782
-0.0701816620519
-0.0701701517073
-0.0701605294516
-0.0701937458872
-0.070382673831
-0.0709230728008
-0.0718981002866
-0.0728956297396
-0.145920827641
-0.138589610172
-0.145921616368
-0.148486852883
-0.148511315821
-0.148195831756
-0.14803526709
-0.147984593564
-0.147967076579
-0.147953193852
-0.147942476007
-0.14794243696
-0.147953071024
-0.147966830433
-0.147984218785
-0.148034794341
-0.148195290253
-0.148510735909
-0.148486189072
-0.145921062135
-0.138589423815
-0.138694997183
-0.148545396429
-0.152678660319
-0.152860295114
-0.152294620333
-0.151947016106
-0.15181953956
-0.151779307103
-0.151759936811
-0.151748606395
-0.151748541361
-0.151759782619
-0.151779091773
-0.151819288164
-0.151946750751
-0.152294334257
-0.152859985611
-0.152678300277
-0.148545110455
-0.138694957599
-0.148545152216
-0.0720010514093
-0.0693145939956
-0.0675688608417
-0.0667025405675
-0.0663927674119
-0.066324903472
-0.0663306399585
-0.0663462189543
-0.0663550582332
-0.0663551981658
-0.066346604231
-0.0663311912077
-0.0663255191206
-0.0663933652729
-0.0667030717676
-0.0675693183179
-0.0693149937741
-0.0720013460123
-0.148545152948
-0.152679775043
-0.0693147914486
-0.0636888136627
-0.0607316775458
-0.0594266787917
-0.0589796676586
-0.0588776401619
-0.05888036781
-0.0589002526824
-0.0589126624181
-0.0589127954345
-0.0589006220327
-0.0588808983704
-0.0588782325143
-0.0589802361366
-0.0594271682512
-0.0607320779597
-0.063689172652
-0.0693151396795
-0.152679897849
-0.152862345442
-0.067569921489
-0.060732343038
-0.0571132309226
-0.0554991013387
-0.0549307410676
-0.0547890622094
-0.054780899236
-0.0547982642103
-0.0548102503665
-0.0548103720117
-0.0547986035489
-0.0547814047962
-0.0547896106637
-0.0549312492722
-0.0554995201364
-0.0571135651475
-0.0607326619684
-0.0675702877355
-0.152862464906
-0.152297241681
-0.066704701563
-0.0594282080212
-0.0554998477316
-0.0537205521315
-0.0530828364984
-0.0529171825883
-0.0528987885866
-0.0529165183393
-0.0529316435584
-0.052931530394
-0.0529161619843
-0.0528993219374
-0.052918501928
-0.0530834547551
-0.0537209939317
-0.0555002105184
-0.0594285810381
-0.0667051530841
-0.152297453411
-0.151949927753
-0.0663960513527
-0.0589820149153
-0.0549321036929
-0.0530834267675
-0.05241158213
-0.0522007062906
-0.0521493035051
-0.0521653610315
-0.0521869116328
-0.0521854714613
-0.0521610541686
-0.05214634707
-0.0522023705404
-0.0524137481622
-0.0530840688328
-0.0549325670063
-0.0589825069172
-0.0663966526661
-0.151950297566
-0.151822469317
-0.0663291532274
-0.0588806436227
-0.0547908732663
-0.0529188017945
-0.0521972037502
-0.0519125793032
-0.051826883599
-0.0518513930082
-0.0518846292063
-0.0518811797745
-0.0518410696135
-0.0518168351159
-0.0519113606432
-0.0522016413375
-0.0529198712899
-0.0547914464961
-0.0588812653459
-0.0663299272614
-0.151823033576
-0.151782035183
-0.0663355612726
-0.0588838241833
-0.0547829809606
-0.0528985932461
-0.0521389950014
-0.051821068384
-0.0517407857523
-0.0517893786791
-0.0518378601103
-0.0518330928659
-0.0517750001784
-0.0517254424971
-0.0518159942356
-0.0521439636063
-0.0529004397119
-0.0547836097824
-0.0588845366496
-0.0663364835838
-0.151782764193
-0.151762373727
-0.0663514371621
-0.0589039384011
-0.054800533683
-0.0529150098338
-0.0521544600369
-0.0518490166872
-0.0517956520216
-0.051867620078
-0.0519267049273
-0.0519215905613
-0.051852131328
-0.051778719068
-0.0518425351457
-0.0521590240766
-0.0529171280076
-0.0548011343584
-0.0589046782377
-0.0663524575768
-0.151763254447
-0.1517508614
-0.0663601147059
-0.0589162560738
-0.0548124154034
-0.0529309387455
-0.0521814311299
-0.0518948811993
-0.0518616028095
-0.0519456026137
-0.0520087186889
-0.0520035751213
-0.0519301021825
-0.0518445293622
-0.0518881069881
-0.0521856434827
-0.052932877873
-0.0548129409956
-0.0589169610056
-0.0663611658129
-0.151751864433
-0.151750946694
-0.0663596210173
-0.0589159460555
-0.0548122126982
-0.0529313839856
-0.0521851963617
-0.0519038091948
-0.0518740586649
-0.0519589656186
-0.0520220881084
-0.0520168863423
-0.0519433716957
-0.0518567688585
-0.051896674216
-0.0521890254414
-0.0529330976704
-0.0548126120587
-0.0589165577365
-0.0663606275758
-0.151752010248
-0.151762569015
-0.0663500200887
-0.0589030449164
-0.054799956395
-0.05291640283
-0.0521658352075
-0.0518759379574
-0.0518331465628
-0.0519079601091
-0.0519670361601
-0.0519618164529
-0.0518922677237
-0.0518156728528
-0.0518684539577
-0.0521693180547
-0.0529178968681
-0.0548002193242
-0.0589035295903
-0.0663509129772
-0.15176358904
-0.151782172571
-0.0663333556041
-0.0588824300727
-0.0547820948268
-0.0528983417011
-0.0521485727506
-0.0518498697857
-0.0517838338013
-0.0518363959209
-0.0518848315585
-0.0518800048277
-0.0518218708004
-0.051767938588
-0.0518436444413
-0.0521522324876
-0.0528994278835
-0.0547822484162
-0.0588827852191
-0.0663340912728
-0.151783064014
-0.151822379446
-0.0663263312191
-0.0588788350868
-0.0547897255699
-0.0529166272618
-0.0521963411067
-0.0519219243906
-0.0518475877232
-0.0518756011991
-0.0519088252461
-0.0519053863325
-0.0518653104929
-0.0518372584745
-0.0519198317063
-0.0521997210251
-0.0529170044681
-0.0547898016165
-0.0588790753743
-0.0663268908416
-0.151823104881
-0.151949497474
-0.0663927860281
-0.0589798562446
-0.0549306957246
-0.0530824115543
-0.0524080863136
-0.0521943864875
-0.0521437882101
-0.0521608912372
-0.0521823779888
-0.0521809075758
-0.0521565081113
-0.0521404832444
-0.0521952780029
-0.0524093908218
-0.0530824163012
-0.0549307262538
-0.0589799985472
-0.0663931631462
-0.151950012772
-0.152296407286
-0.0667011514781
-0.0594257314896
-0.0554981239738
-0.0537192675254
-0.0530816824996
-0.0529154299942
-0.0528958118497
-0.0529128411074
-0.0529277346188
-0.0529274314348
-0.0529119733091
-0.0528955287531
-0.0529158004284
-0.0530815613986
-0.0537191781181
-0.0554980999583
-0.0594257922612
-0.0667013630239
-0.152296702501
-0.152861060002
-0.0675662550824
-0.0607295741324
-0.0571111161448
-0.0554974400679
-0.0549292929947
-0.0547876295751
-0.0547793441148
-0.0547965822874
-0.054808304019
-0.0548082132674
-0.0547963469735
-0.054779041279
-0.0547873204832
-0.0549290432128
-0.0554972707842
-0.0571110391079
-0.0607295953304
-0.0675663576967
-0.152861129902
-0.152678159651
-0.0693113033447
-0.0636858347956
-0.0607291409312
-0.0594245844201
-0.0589778900137
-0.0588759927125
-0.0588786758968
-0.058898392608
-0.0589105371512
-0.0589103872387
-0.058897991129
-0.0588781363426
-0.0588754402124
-0.0589774318926
-0.0594242855461
-0.0607290198497
-0.0636858632903
-0.069311346141
-0.152677944951
-0.14854391879
-0.0719981626736
-0.0693114561966
-0.0675657875046
-0.0666998574898
-0.0663905104437
-0.0663229152611
-0.0663286873807
-0.0663440940928
-0.0663526101734
-0.0663523738853
-0.0663434563992
-0.0663278252939
-0.0663220362978
-0.0663897891064
-0.0666993886515
-0.0675655812589
-0.0693114385773
-0.0719981035429
-0.148543367879
-0.138694581315
-0.148544786046
-0.152677380674
-0.152858794296
-0.152293219502
-0.151945670302
-0.151818057242
-0.15177751588
-0.151757839395
-0.151746336608
-0.151746284457
-0.151757672697
-0.151777192568
-0.151817576167
-0.15194507438
-0.152292559539
-0.1528580883
-0.152676561506
-0.148544072084
-0.138694524268
-0.138646695525
-0.14865845533
-0.152974280082
-0.15298723035
-0.15215611302
-0.1516315181
-0.151422955286
-0.15135106856
-0.151319119489
-0.151303242332
-0.151303206958
-0.151319022645
-0.151350920757
-0.151422763368
-0.151631298906
-0.152155875885
-0.152986985015
-0.152974078476
-0.148658305473
-0.138646750193
-0.148658396802
-0.0711148723435
-0.067671806232
-0.0654623549591
-0.0643579236367
-0.0639484685849
-0.0638478671175
-0.0638461389035
-0.0638615981036
-0.0638713334385
-0.063871488208
-0.0638620208449
-0.0638467428961
-0.0638485366426
-0.0639491022315
-0.0643584584771
-0.0654627788533
-0.0676721487559
-0.0711151011119
-0.148658526443
-0.152975779681
-0.0676722914915
-0.0608509998263
-0.0572491636122
-0.0556450585951
-0.0550805065259
-0.0549390333479
-0.054930757218
-0.0549492937556
-0.0549624725989
-0.0549625972874
-0.0549496392354
-0.0549312441587
-0.0549395725047
-0.0550810151858
-0.0556454741899
-0.0572494752533
-0.0608512774174
-0.0676726138905
-0.152976151951
-0.152989889582
-0.065464177566
-0.0572501844125
-0.0528920757168
-0.0509292699834
-0.0502056269802
-0.049976406345
-0.0499156230983
-0.0499172481532
-0.0499276588117
-0.0499266745977
-0.049914284968
-0.0499131344341
-0.049977056471
-0.0502066806254
-0.0509295363847
-0.0528922911165
-0.0572504437402
-0.0654646092616
-0.152990342873
-0.152159651144
-0.0643614522669
-0.0556473278354
-0.0509302934357
-0.0487442647537
-0.0478486269363
-0.0474852660467
-0.0473578336731
-0.0473464160536
-0.0473572564977
-0.0473527868851
-0.0473330023557
-0.0473434443161
-0.0474786307677
-0.0478485253908
-0.0487454778707
-0.0509305158485
-0.0556476863248
-0.0643620901082
-0.152160245402
-0.15163545451
-0.0639537847928
-0.0550839725162
-0.0502083855105
-0.0478470339145
-0.0467775835574
-0.046311551651
-0.0461682787227
-0.046176012476
-0.0461996068057
-0.0461909030585
-0.0461498845814
-0.0461383036035
-0.0462924706619
-0.0467710091983
-0.0478489071455
-0.0502088533168
-0.0550845036977
-0.0639547064633
-0.151636266556
-0.151426890156
-0.0638548124883
-0.0549435180061
-0.0499787841898
-0.0474806677024
-0.0463069592956
-0.0458344153177
-0.0457475627243
-0.0458204415321
-0.0458764589284
-0.0458648564273
-0.045785590955
-0.0457071784879
-0.0458072639228
-0.0462935180597
-0.0474799106576
-0.0499800248534
-0.0549442339004
-0.0638560408682
-0.151427974016
-0.151354768433
-0.0638543220791
-0.0549359975722
-0.0499135848681
-0.0473492281243
-0.046156376829
-0.0457394604803
-0.0457555368708
-0.0459176476805
-0.0460123781015
-0.0459994528401
-0.0458787684272
-0.0457104358776
-0.0457087207237
-0.04614029438
-0.0473457164191
-0.0499157472288
-0.0549368520326
-0.0638558079652
-0.151356099958
-0.151322496033
-0.0638704592599
-0.0549549713425
-0.0499151479494
-0.0473430888215
-0.0461756495769
-0.0458280557744
-0.0459357016587
-0.046157338459
-0.0462704103403
-0.046257268287
-0.0461176529442
-0.0458895280184
-0.0457963924111
-0.0461586994365
-0.0473387698107
-0.0499175112007
-0.0549558835951
-0.063872113531
-0.151324050747
-0.151306301376
-0.0638801395877
-0.0549681494984
-0.0499292940318
-0.0473699275428
-0.0462303220684
-0.0459254747878
-0.0460769354618
-0.0463183018849
-0.0464325470288
-0.0464193577229
-0.0462786763674
-0.0460306158315
-0.0458933032506
-0.0462126538396
-0.047365039863
-0.049931437626
-0.0549690238444
-0.063881840469
-0.151308040097
-0.151306108166
-0.0638794563448
-0.0549677706722
-0.0499317446297
-0.047381295467
-0.0462526400212
-0.0459554280262
-0.0461105537086
-0.0463527336568
-0.0464670160924
-0.0464538112679
-0.0463130502022
-0.0460639454387
-0.0459226260197
-0.046234212867
-0.047375823067
-0.0499336173692
-0.0549685324969
-0.0638810805915
-0.1513079274
-0.151321973212
-0.0638684892106
-0.0549538748901
-0.0499225554761
-0.0473772900324
-0.0462427403485
-0.0459180664752
-0.04603670198
-0.0462609042628
-0.0463740326869
-0.0463608480576
-0.0462212004392
-0.0459898668648
-0.0458845975763
-0.0462235441667
-0.0473712342089
-0.0499241434367
-0.0549544890196
-0.0638699473284
-0.151323717479
-0.151353938567
-0.0638512675247
-0.0549342770354
-0.0499204732896
-0.0473888855902
-0.0462388928872
-0.0458512645679
-0.045881440638
-0.0460466781591
-0.0461415206014
-0.0461287581833
-0.0460082958401
-0.0458361145944
-0.0458188140447
-0.0462203947724
-0.0473834664325
-0.0499217975077
-0.0549347285789
-0.0638524865803
-0.151355483527
-0.151425729053
-0.0638509312632
-0.0549412710855
-0.0499785523852
-0.0475041502048
-0.0463694662831
-0.0459240547897
-0.0458502504392
-0.0459261326669
-0.0459824956912
-0.0459713650414
-0.045892703425
-0.0458109158511
-0.0458964689591
-0.0463547413982
-0.0475022401675
-0.0499793804351
-0.0549415624215
-0.0638518647646
-0.151427005907
-0.151633929063
-0.0639493270418
-0.0550812721855
-0.0502058814555
-0.0478525430461
-0.0468085637219
-0.0463688596962
-0.0462377913735
-0.0462485924532
-0.0462726975042
-0.0462645570323
-0.0462241595713
-0.0462094115788
-0.0463501267036
-0.0468015184142
-0.0478538177764
-0.0502060576529
-0.0550813982135
-0.0639499419089
-0.151634891733
-0.152157718527
-0.0643566247024
-0.055644179297
-0.0509282966118
-0.048742189173
-0.0478511482438
-0.0475020573263
-0.0473864745725
-0.0473780566278
-0.0473892424513
-0.0473851200308
-0.0473657138956
-0.0473730590488
-0.0474955755179
-0.0478507172
-0.0487429456905
-0.0509281158908
-0.0556441414191
-0.0643569339823
-0.152158365535
-0.152987529517
-0.0654592002446
-0.0572465578177
-0.0528893964427
-0.0509272035488
-0.0502042037723
-0.0499759472573
-0.049915780136
-0.0499175035118
-0.0499278631447
-0.0499268397368
-0.049914471036
-0.0499129667753
-0.0499757469307
-0.0502043712605
-0.0509267931683
-0.0528890903911
-0.0572464082003
-0.065459272063
-0.15298780809
-0.15297332544
-0.0676675459447
-0.0608469383593
-0.0572456733697
-0.0556421007217
-0.0550779056421
-0.0549365643262
-0.0549282075487
-0.0549465018689
-0.0549593411896
-0.0549591106275
-0.0549458737621
-0.0549273315808
-0.0549356245969
-0.0550770589108
-0.0556414402138
-0.0572452464352
-0.0608467394733
-0.0676674674881
-0.152973157319
-0.148656601115
-0.0711108993688
-0.0676673402522
-0.065457880797
-0.0643538943304
-0.0639449525633
-0.0638446692746
-0.0638429425315
-0.0638581146229
-0.0638673761492
-0.0638669959872
-0.063857073969
-0.0638415094776
-0.0638431654428
-0.063943647264
-0.0643529354066
-0.0654573052469
-0.0676670743818
-0.0711106980024
-0.148656012415
-0.138645898308
-0.148657373747
-0.152972373582
-0.152984912253
-0.152153864335
-0.151629216322
-0.151420331731
-0.151347927892
-0.151315503064
-0.151299378479
-0.151299302329
-0.151315280022
-0.151347500907
-0.151419698857
-0.151628424443
-0.152152985248
-0.152983967738
-0.152971389569
-0.148656651225
-0.138645852714
-0.138623557484
-0.148415036507
-0.152518504831
-0.152288624595
-0.151250813482
-0.150599167496
-0.150324747684
-0.150217987861
-0.150166872494
-0.150142634006
-0.150142626082
-0.150166819077
-0.150217898109
-0.150324609456
-0.150598976823
-0.151250611907
-0.152288436584
-0.152518408628
-0.148415050897
-0.138623657451
-0.14841497469
-0.0706130002258
-0.0668567888869
-0.0644189701945
-0.0631859487144
-0.0627210608753
-0.0626028696084
-0.062597743462
-0.0626136012169
-0.0626241260227
-0.0626242863749
-0.0626140354132
-0.0625983687469
-0.0626035607644
-0.0627216987467
-0.0631864508792
-0.0644193146273
-0.0668570175755
-0.0706131154776
-0.148415187984
-0.152520295644
-0.0668574267402
-0.0595992632509
-0.0557024216421
-0.0539405575368
-0.0532990207769
-0.0531058710745
-0.0530649725525
-0.0530755721425
-0.0530895220979
-0.0530885566547
-0.0530726470621
-0.0530623376558
-0.0531061526979
-0.0532999359239
-0.0539408725946
-0.0557026192014
-0.0595994254198
-0.0668576725895
-0.152520839851
-0.152291860422
-0.0644214211459
-0.0557037185705
-0.0509964457177
-0.0487997542707
-0.0478960289938
-0.047547766456
-0.0474417385599
-0.0474347185663
-0.047444279473
-0.0474392618496
-0.0474196649795
-0.0474252327204
-0.0475392437693
-0.0478933616449
-0.0488005784291
-0.0509965335213
-0.055703908314
-0.0644218998744
-0.152292606494
-0.151254852122
-0.0631906112101
-0.0539433935404
-0.0488026056647
-0.0462614365863
-0.0451299161608
-0.0446835571118
-0.044562190815
-0.0445723699097
-0.0445925931291
-0.0445824617597
-0.0445419714325
-0.0445274407402
-0.0446610872219
-0.0451194677607
-0.0462600223583
-0.0488024570874
-0.0539437531454
-0.0631914423896
-0.151255759821
-0.15060343174
-0.0627280435621
-0.0533047315908
-0.0478970390158
-0.0451266832816
-0.0438992516271
-0.0434687218295
-0.0434339646807
-0.0435400750754
-0.043610056448
-0.0435961249331
-0.0434982352862
-0.0433859917618
-0.0434367066045
-0.0438824260076
-0.0451213452028
-0.0478967729388
-0.0533049889009
-0.0627293136322
-0.150604596346
-0.150328667895
-0.0626120248669
-0.0531141278919
-0.0475450784734
-0.0446721631962
-0.043458871276
-0.0431587190943
-0.0433510511197
-0.0436674281817
-0.0438382445194
-0.043821961889
-0.0436184319969
-0.0432951325736
-0.0431214679281
-0.043438733691
-0.0446651499712
-0.0475448305978
-0.0531137532153
-0.0626137420056
-0.150330129387
-0.150221302549
-0.0626086006188
-0.0530726005866
-0.0474319192365
-0.0445403213506
-0.0434102399687
-0.0433352473001
-0.043857271718
-0.044439171359
-0.0447182421091
-0.0447010885296
-0.0443874620266
-0.0437984447783
-0.0432965785768
-0.0433894120047
-0.0445330912718
-0.0474320474208
-0.0530717451931
-0.0626106879129
-0.150223061923
-0.150169562137
-0.0626254410193