/*--------------------------------*- C++ -*----------------------------------*\
| =========                 |                                                 |
| \\      /  F ield         | OpenFOAM: The Open Source CFD Toolbox           |
|  \\    /   O peration     | Version:  3.0.1                                 |
|   \\  /    A nd           | Web:      www.OpenFOAM.org                      |
|    \\/     M anipulation  |                                                 |
\*---------------------------------------------------------------------------*/
FoamFile
{
    version     2.0;
    format      ascii;
    class       volScalarField;
    location    "0.7";
    object      p;
}
// * * * * * * * * * * * * * * * * * * * * * * * * * * * * * * * * * * * * * //

dimensions      [1 -1 -2 0 0 0 0];

internalField   nonuniform List<scalar> 
7968
(
5129.37171021
5129.39915761
5129.41836254
5129.43108401
5129.43526145
5129.43306303
5129.4281129
5129.42322162
5129.41943347
5129.41654333
5129.41412146
5129.41208735
5129.41073772
5129.41005694
5129.40873895
5129.40401536
5129.39275901
5129.37384933
5129.35083231
5129.32421728
5129.40551689
5129.45665685
5129.48568061
5129.49888773
5129.49614005
5129.48301611
5129.46616121
5129.4509233
5129.43978183
5129.4331516
5129.43078346
5129.43264091
5129.43886947
5129.44885426
5129.45991296
5129.4666972
5129.46306982
5129.44441857
5129.41223139
5129.3620389
5129.43659084
5129.4977147
5129.52217741
5129.51803388
5129.48718019
5129.44016353
5129.38948549
5129.3453122
5129.31353203
5129.29624406
5129.29394615
5129.30664348
5129.33382735
5129.37327685
5129.41895673
5129.4607536
5129.48655381
5129.48660583
5129.46005505
5129.39995922
5129.46598019
5129.52776518
5129.5349228
5129.49658546
5129.41854521
5129.3183074
5129.21587519
5129.12805685
5129.06515342
5129.03179347
5129.0296453
5129.05873884
5129.11748331
5129.20121702
5129.29960345
5129.39595126
5129.4705498
5129.50640946
5129.498323
5129.43752806
5129.49000149
5129.54504963
5129.52402069
5129.438366
5129.29951431
5129.13280364
5128.96678552
5128.82550232
5128.7244508
5128.67142793
5128.66959003
5128.71897059
5128.81649777
5128.9544176
5129.11733698
5129.28138235
5129.41830381
5129.50300969
5129.52411459
5129.46983581
5129.50904261
5129.5532614
5129.49811505
5129.35881203
5129.15319361
5128.91467029
5128.67999149
5128.48063763
5128.33778406
5128.26308478
5128.26177732
5128.33383048
5128.47403974
5128.67080639
5128.90320781
5129.140036
5129.34484233
5129.48432971
5129.54019947
5129.49633089
5129.52513474
5129.55734363
5129.46790189
5129.27618548
5129.00627171
5128.69869317
5128.39711833
5128.1405356
5127.95587051
5127.85926977
5127.85869688
5127.95405271
5128.13721229
5128.39198313
5128.69193449
5128.99844267
5129.26820019
5129.46066126
5129.55100526
5129.51855195
5129.53952874
5129.56118701
5129.44223665
5129.20595092
5128.8814746
5128.5147984
5128.15516559
5127.84875772
5127.62722691
5127.51134466
5127.5116485
5127.6278865
5127.84915534
5128.15461345
5128.5130934
5128.87902313
5129.20356348
5129.44066979
5129.56028807
5129.53768328
5129.55214309
5129.56628721
5129.42617842
5129.15802757
5128.79450904
5128.38510434
5127.98285651
5127.63908634
5127.38901
5127.25791981
5127.25906898
5127.39206671
5127.64311881
5127.98674116
5128.38823213
5128.7970208
5129.16054591
5129.42925643
5129.56956073
5129.55375674
5129.56199782
5129.57225005
5129.42126583
5129.13672174
5128.75309537
5128.32141893
5127.8965617
5127.53264696
5127.26681907
5127.12723683
5127.1291103
5127.27183759
5127.53960769
5127.90404276
5128.32846769
5128.75962214
5129.1431616
5129.42786989
5129.57850748
5129.56599542
5129.56811893
5129.57842615
5129.42767308
5129.14344677
5128.76018537
5128.32881539
5127.90419639
5127.54036547
5127.27461458
5127.13525675
5127.13744034
5127.28065289
5127.54892519
5127.9137392
5128.33829399
5128.76932278
5129.15236179
5129.43655022
5129.58657922
5129.57361685
5129.57026911
5129.58463108
5129.44528619
5129.17820582
5128.81585387
5128.40742784
5128.00584733
5127.66247269
5127.4128194
5127.28247188
5127.28459312
5127.41879437
5127.67115004
5128.0158226
5128.41764079
5128.82597163
5129.18824056
5129.45521227
5129.59365834
5129.57651037
5129.56893584
5129.59109083
5129.47357455
5129.23924482
5128.91688685
5128.55202153
5128.19370251
5127.88809727
5127.66748084
5127.55287013
5127.55471421
5127.67270415
5127.89580327
5128.20270734
5128.56150826
5128.92655551
5129.24905386
5129.48338274
5129.60005091
5129.57525671
5129.56463871
5129.59776137
5129.51064226
5129.32201467
5129.05541151
5128.75076371
5128.45143392
5128.19641695
5128.01333568
5127.91861385
5127.92005495
5128.01743363
5128.2025057
5128.45867863
5128.75859659
5129.06362456
5129.330601
5129.51942929
5129.60591336
5129.57055349
5129.55696114
5129.60268082
5129.55106238
5129.41633455
5129.21558745
5128.98157191
5128.75061122
5128.5541521
5128.41391385
5128.34173856
5128.34277224
5128.41679608
5128.55846006
5128.75583238
5128.9873457
5129.22185547
5129.42318382
5129.55840983
5129.60976891
5129.56240554
5129.54423365
5129.60161893
5129.58563769
5129.50643334
5129.37440179
5129.21411441
5129.0536518
5128.91687037
5128.819587
5128.76971771
5128.77035743
5128.82138636
5128.91956711
5129.05696534
5129.2178932
5129.37875801
5129.51159155
5129.59162551
5129.60784937
5129.5496936
5129.52445488
5129.58958398
5129.60349963
5129.57372462
5129.50475027
5129.41307709
5129.31813955
5129.23645665
5129.17842397
5129.14873964
5129.14906238
5129.17933318
5129.23781433
5129.3198505
5129.41517627
5129.50754938
5129.57758207
5129.60856105
5129.5955058
5129.53061048
5129.49764276
5129.56317344
5129.59606814
5129.6025698
5129.58299663
5129.54667545
5129.50530457
5129.46870985
5129.44274185
5129.42953808
5129.42960598
5129.44293928
5129.46900029
5129.50573094
5129.54749429
5129.58464578
5129.6055491
5129.60072411
5129.56939719
5129.5051476
5129.46828777
5129.52468968
5129.56348361
5129.5889411
5129.59920347
5129.59842131
5129.59227986
5129.58566252
5129.5810188
5129.57873275
5129.5786128
5129.58068376
5129.58515114
5129.59173828
5129.59822976
5129.59994703
5129.59131939
5129.56800828
5129.53152302
5129.47740787
5129.43670649
5129.46983967
5129.49932498
5129.52491219
5129.54278302
5129.55359749
5129.56000995
5129.56426127
5129.56729387
5129.56892017
5129.56873353
5129.56682694
5129.56353105
5129.55916189
5129.55303572
5129.54314532
5129.52697648
5129.50369951
5129.4769371
5129.44651279
4639.69276357
4639.71403532
4639.73455194
4639.7544118
4639.77105952
4639.783991
4639.79410494
4639.80208671
4639.80749568
4639.80932417
4639.80681898
4639.79999227
4639.78948837
4639.77613893
4639.760223
4639.74104519
4639.71815459
4639.69295862
4639.66936082
4639.64914629
4639.71983786
4639.76657495
4639.79694021
4639.81944418
4639.83631497
4639.84728394
4639.85386445
4639.85780566
4639.8598183
4639.85965927
4639.85717458
4639.85237217
4639.84537683
4639.83628766
4639.82424927
4639.80758291
4639.78514795
4639.75805687
4639.72518272
4639.6794673
4639.75076879
4639.80756041
4639.8300011
4639.83330557
4639.82456063
4639.80631739
4639.78354015
4639.76174796
4639.74484903
4639.73469618
4639.73224173
4639.73752956
4639.74964238
4639.76665548
4639.78461168
4639.79807186
4639.80243826
4639.79579321
4639.77181154
4639.7160482
4639.78494254
4639.84463575
4639.84791332
4639.81546444
4639.76174106
4639.69459065
4639.62447074
4639.56192158
4639.51534191
4639.48960151
4639.4873223
4639.5085515
4639.55073894
4639.60901772
4639.67504793
4639.73846237
4639.78912369
4639.81961751
4639.81578404
4639.7570005
4639.8185539
4639.87861844
4639.85621467
4639.77862274
4639.66954645
4639.54335937
4639.4160312
4639.30412991
4639.22160728
4639.17717139
4639.17533624
4639.21607078
4639.29492541
4639.40321846
4639.52717552
4639.65054567
4639.75768695
4639.83447192
4639.85704062
4639.79757202
4639.84957343
4639.90771264
4639.85578409
4639.72889017
4639.56045507
4639.37039778
4639.18040169
4639.01392201
4638.89152857
4638.82648223
4638.82541434
4638.88813957
4639.00798341
4639.1716467
4639.3589345
4639.54677333
4639.71396363
4639.84072102
4639.89310064
4639.83501541
4639.87743585
4639.93195615
4639.85018954
4639.67522942
4639.4490458
4639.19608172
4638.94193375
4638.71911829
4638.55522953
4638.46817163
4638.46812166
4638.55474011
4638.7176544
4638.93849018
4639.19043139
4639.44145357
4639.66658799
4639.84155377
4639.92360503
4639.86843267
4639.90163792
4639.95195553
4639.84381257
4639.62714074
4639.35041243
4639.04167055
4638.7301864
4638.45661203
4638.25408213
4638.14686571
4638.14791265
4638.25690441
4638.45997345
4638.73254716
4639.04222207
4639.3491433
4639.62468067
4639.84105993
4639.94898283
4639.89725208
4639.92089645
4639.96763609
4639.84015439
4639.59311727
4639.2796022
4638.93008086
4638.57614164
4638.26327278
4638.02932876
4637.90491602
4637.90694249
4638.03501668
4638.27107501
4638.583972
4638.93640042
4639.28412008
4639.59620836
4639.84247702
4639.969067
4639.92018581
4639.93366378
4639.97837725
4639.84078367
4639.57791674
4639.24541353
4638.87475198
4638.49801826
4638.16356218
4637.91120263
4637.77620474
4637.77938454
4637.91930899
4638.17477568
4638.50991227
4638.88560614
4639.25450395
4639.58541995
4639.84706577
4639.98317608
4639.9357733
4639.93884323
4639.98367775
4639.84650204
4639.58419014
4639.25224964
4638.88195311
4638.50548589
4638.17109937
4637.9186204
4637.78365962
4637.7870467
4637.92779688
4638.18393417
4638.51956299
4638.89538345
4639.26413433
4639.59451258
4639.85542957
4639.99080973
4639.94297007
4639.93629836
4639.98349974
4639.85723878
4639.61185864
4639.30012365
4638.95200642
4638.59888719
4638.28617051
4638.05226758
4637.92834845
4637.93134505
4638.06087578
4638.29862926
4638.61297349
4638.96580026
4639.31287479
4639.62336032
4639.86744457
4639.99187191
4639.94166255
4639.92679699
4639.97797535
4639.87192895
4639.65807943
4639.38437233
4639.07811651
4638.76824892
4638.49526514
4638.29322672
4638.18708053
4638.18965328
4638.30060101
4638.50605102
4638.78058348
4639.0906624
4639.39637123
4639.66926334
4639.88215086
4639.98659101
4639.93268547
4639.91160508
4639.9674451
4639.88874793
4639.71779721
4639.49591635
4639.24673011
4638.9952123
4638.77385241
4638.61129045
4638.52601928
4638.52801595
4638.61688437
4638.78225412
4639.00511349
4639.2570675
4639.50610977
4639.72761983
4639.8980087
4639.97552525
4639.91745584
4639.89157131
4639.95164553
4639.90390206
4639.78237549
4639.61970135
4639.43497371
4639.24929175
4639.08584422
4638.96612961
4638.90369858
4638.90509051
4638.97014547
4639.09183789
4639.25649151
4639.44270674
4639.62757408
4639.79029476
4639.9116992
4639.95881159
4639.89727652
4639.86688855
4639.92963902
4639.91272233
4639.84202801
4639.74029939
4639.62108037
4639.49979416
4639.39268241
4639.31416089
4639.2731101
4639.27403085
4639.31674891
4639.39659665
4639.50460898
4639.62641477
4639.7459493
4639.8480439
4639.91909312
4639.93602926
4639.87272353
4639.83797669
4639.90126888
4639.91144925
4639.88753407
4639.84282905
4639.78429543
4639.72178094
4639.66550265
4639.62397102
4639.60209806
4639.60262678
4639.6254827
4639.66781623
4639.72469581
4639.78767852
4639.84668172
4639.89207558
4639.91685504
4639.90741841
4639.84456988
4639.80720676
4639.86847094
4639.89915819
4639.91256272
4639.91443316
4639.90628673
4639.89243211
4639.87798861
4639.86683679
4639.86090278
4639.86117984
4639.86760923
4639.87915764
4639.8939404
4639.90817703
4639.9169504
4639.91612955
4639.90411892
4639.87496198
4639.81508419
4639.77889037
4639.83076591
4639.87037086
4639.90414749
4639.93283917
4639.95501213
4639.97143808
4639.98347382
4639.99169165
4639.99592349
4639.99603458
4639.99198864
4639.98390328
4639.9719983
4639.95587921
4639.93445007
4639.90709675
4639.87523215
4639.83787925
4639.78817657
4639.75462676
4639.78123991
4639.8112915
4639.84282826
4639.87174636
4639.89631779
4639.91665392
4639.93307772
4639.94500147
4639.95135452
4639.95146658
4639.94527309
4639.933471
4639.91711405
4639.89703258
4639.87318587
4639.8456592
4639.81614232
4639.78856582
4639.76429553
4150.00846136
4150.03998916
4150.0817497
4150.13210356
4150.18661429
4150.24063476
4150.29034199
4150.33203407
4150.3619504
4150.37662744
4150.37403132
4150.35423477
4150.31933
4150.27269157
4150.21800073
4150.15898514
4150.09971583
4150.04548596
4150.00162644
4149.97106144
4150.0442118
4150.11260029
4150.1702429
4150.22582275
4150.28438049
4150.34076758
4150.39062217
4150.43088813
4150.45901758
4150.47240217
4150.4697984
4150.45127476
4150.4181395
4150.37298522
4150.31832291
4150.25728728
4150.19451136
4150.13569267
4150.07646793
4150.00886061
4150.09287555
4150.17757738
4150.22605189
4150.25544598
4150.28154907
4150.30271228
4150.31821027
4150.32949021
4150.3377539
4150.34121264
4150.33864022
4150.33010811
4150.31692219
4150.3009048
4150.28091607
4150.25568099
4150.22619685
4150.1945174
4150.14523128
4150.06127869
4150.15279314
4150.24295459
4150.26524812
4150.24392137
4150.20853062
4150.16489409
4150.11908654
4150.08093718
4150.0570683
4150.04509204
4150.04278381
4150.0501499
4150.06949244
4150.10323205
4150.1449468
4150.18508705
4150.21791074
4150.23788362
4150.2154293
4150.12589507
4150.21834018
4150.31273207
4150.30236763
4150.21930704
4150.10746559
4149.98079599
4149.7379284
4149.42466712
4149.26787346
4149.23859182
4149.23689679
4149.26278805
4149.41595641
4149.72540232
4149.96463531
4150.08813335
4150.1978819
4150.28015201
4150.29066062
4150.19654754
4150.28409114
4150.38078041
4150.33472399
4150.1863763
4149.99138031
4149.4353695
4148.21710722
4147.03882205
4146.5922347
4146.543367
4146.54275195
4146.59024311
4147.03469297
4148.21005034
4149.4250983
4149.97791086
4150.17079353
4150.31840023
4150.3644448
4150.26744659
4150.34521283
4150.44188508
4150.36077248
4150.15035594
4149.75800767
4148.22702896
4145.43475064
4143.20819742
4142.44986056
4142.37254262
4142.37341503
4142.45204941
4143.20969484
4145.43404672
4148.22419315
4149.75183829
4150.14154662
4150.35078088
4150.43130553
4150.33359609
4150.39737712
4150.49230017
4150.38131333
4150.12036296
4149.45206714
4147.0544093
4143.20216
4140.38316362
4139.44584961
4139.34756552
4139.35004211
4139.45185177
4140.39084859
4143.20879863
4147.05943778
4149.45361034
4150.11865164
4150.37765389
4150.48724216
4150.39052935
4150.43640952
4150.52928082
4150.39777059
4150.10376345
4149.30186337
4146.61385462
4142.44990894
4139.44932466
4138.43633386
4138.31113336
4138.31468806
4138.44548711
4139.46299639
4142.46343535
4146.62596266
4149.31041015
4150.10858836
4150.39990454
4150.52920234
4150.43389584
4150.4588038
4150.55034085
4150.40866552
4150.09871698
4149.2789111
4146.57111744
4142.38226248
4139.35505766
4138.31392609
4138.16753887
4138.17229702
4138.32686788
4139.37365838
4142.40160757
4146.58888117
4149.29301513
4150.10878279
4150.41553189
4150.55439876
4150.459989
4150.46248504
4150.55427662
4150.41322717
4150.10406675
4149.28495074
4146.5773033
4142.38775528
4139.3599146
4138.31726237
4138.17118155
4138.17582581
4138.3313953
4139.38017555
4142.40971236
4146.59811225
4149.30244152
4150.11760941
4150.42342445
4150.56142004
4150.46656762
4150.44745247
4150.54114495
4150.41147247
4150.11982931
4149.32016883
4146.63292
4142.46809373
4139.46539936
4138.44996138
4138.32612824
4138.33023441
4138.46247074
4139.48399629
4142.48881058
4146.65393836
4149.3386578
4150.1349389
4150.4234659
4150.55017042
4150.45352048
4150.41577315
4150.51205297
4150.40412451
4150.14713182
4149.48313148
4147.08842607
4143.23768155
4140.41495603
4139.47593031
4139.37836327
4139.38188343
4139.48614268
4140.43034793
4143.25585684
4147.10748271
4149.50050891
4150.16198867
4150.41640582
4150.52177627
4150.42288139
4150.37087867
4150.46940972
4150.39248019
4150.18744462
4149.80126561
4148.2761076
4145.48758154
4143.25839441
4142.49963651
4142.42406117
4142.42685253
4142.50788452
4143.27072166
4145.50236404
4148.2919125
4149.81622165
4150.20076079
4150.40390994
4150.47889367
4150.37828262
4150.31673232
4150.41581335
4150.37499746
4150.23332764
4150.0457163
4149.497302
4148.28559942
4147.11064214
4146.66617585
4146.6194648
4146.62144781
4146.67187135
4147.11953518
4148.29684736
4149.50952625
4150.05772222
4150.24440159
4150.38487528
4150.42448004
4150.32407107
4150.2572904
4150.35465929
4150.35051958
4150.27524897
4150.17179399
4150.05334102
4149.81762027
4149.50979274
4149.35708952
4149.33096187
4149.33242294
4149.36130475
4149.51638997
4149.82592021
4150.06240233
4150.18089844
4150.28394448
4150.35876773
4150.36247859
4150.26462176
4150.19711999
4150.29088156
4150.32022124
4150.3074595
4150.28117248
4150.24635964
4150.20847257
4150.17668342
4150.1578348
4150.14979647
4150.1508786
4150.16092623
4150.18143731
4150.21441123
4150.25297907
4150.28796791
4150.31434375
4150.32727256
4150.29827603
4150.20486198
4150.14159346
4150.23044745
4150.28656355
4150.32509136
4150.36071128
4150.39103665
4150.41482144
4150.43304047
4150.44690987
4150.45476024
4150.45557364
4150.44921321
4150.43653902
4150.41913356
4150.39585311
4150.36586215
4150.330712
4150.29292889
4150.23790627
4150.15017108
4150.09645024
4150.1693118
4150.23487475
4150.29986658
4150.36816327
4150.43386726
4150.49213227
4150.53958905
4150.57357222
4150.59152243
4150.59219175
4150.57544058
4150.54237232
4150.49549863
4150.43760909
4150.372326
4150.30478999
4150.24103887
4150.17719867
4150.10597123
4150.06393632
4150.09974801
4150.14940987
4150.20913333
4150.27334605
4150.33662106
4150.39472364
4150.44375874
4150.47972473
4150.4991325
4150.49985305
4150.48166953
4150.44662878
4150.39816216
4150.3403728
4150.27750771
4150.2140781
4150.15566204
4150.10775945
4150.07338078
3660.27734751
3660.33625427
3660.42692217
3660.53899499
3660.66561708
3660.79506753
3660.91566719
3661.01691731
3661.09014738
3661.12756674
3661.12503567
3661.08269682
3661.00480974
3660.8992225
3660.77462169
3660.64155873
3660.51183187
3660.39742733
3660.30584891
3660.24730238
3660.33755084
3660.44428109
3660.55413818
3660.67392872
3660.80532062
3660.9366948
3661.0563893
3661.15498286
3661.22553105
3661.2612593
3661.25878802
3661.21819496
3661.14296947
3661.03997068
3660.91623545
3660.78132943
3660.64707537
3660.52535816
3660.41467249
3660.30818266
3660.430606
3660.5569154
3660.65556436
3660.73751257
3660.82047683
3660.8995952
3660.96949862
3661.02888905
3661.07639586
3661.10230751
3661.09992811
3661.06935889
3661.01732567
3660.95355134
3660.87959388
3660.79711307
3660.71163031
3660.62820326
3660.5291277
3660.40291152
3660.54626116
3660.6802532
3660.74092802
3660.7464914
3660.73488446
3660.49879416
3659.7979451
3659.10982493
3658.90605184
3658.91929205
3658.91725979
3658.90003731
3659.09969203
3659.78362529
3660.4806499
3660.71354067
3660.72283868
3660.71612769
3660.65522435
3660.52121967
3660.67638756
3660.81522931
3660.82697875
3660.7374918
3660.11032824
3657.99489113
3654.64682404
3652.0524602
3651.25992153
3651.26251422
3651.2610506
3651.25576574
3652.0449932
3654.6359088
3657.98080065
3660.09305922
3660.71781403
3660.80607162
3660.79394284
3660.65474913
3660.80936145
3660.94984882
3660.90848426
3660.50304358
3657.99761379
3651.97868495
3644.47796198
3639.33598192
3637.83622174
3637.82588261
3637.82511525
3637.83430134
3639.33203842
3644.47162341
3651.97013208
3657.9862674
3660.48905964
3660.89281051
3660.93323143
3660.7918587
3660.93335753
3661.07237818
3660.98002722
3659.80353837
3654.65271213
3644.48215311
3633.09827454
3625.74290948
3623.6490236
3623.62591643
3623.62703984
3623.6517365
3625.74532493
3633.09899078
3644.48074089
3654.64857532
3659.79656951
3660.97066984
3661.06123625
3660.92068524
3661.03768392
3661.17324859
3661.04004236
3659.11576222
3652.05878487
3639.34035454
3625.74231044
3617.18301323
3614.7156848
3614.6464013
3614.64961039
3614.72377025
3617.19325465
3625.751868
3639.34816535
3652.06283875
3659.1164614
3661.03761044
3661.16805562
3661.03031226
3661.11379676
3661.24602647
3661.08819222
3658.91098403
3651.2639523
3637.83850579
3623.64014899
3614.7054697
3612.04019895
3611.89871236
3611.90404838
3612.05411769
3614.72360837
3623.65830627
3637.85399427
3651.2761227
3658.91927868
3661.09241388
3661.24667726
3661.11178677
3661.15468784
3661.28497291
3661.11621045
3658.9244114
3651.26364442
3637.82255352
3623.60841986
3614.62327496
3611.8839083
3611.70576243
3611.7121916
3611.90254265
3614.64831555
3623.63430279
3637.84482066
3651.28314402
3658.93929455
3661.12612377
3661.2907265
3661.15746819
3661.15653731
3661.28717968
3661.11908309
3658.9277642
3651.26643247
3637.82336151
3623.60681085
3614.61890714
3611.8778075
3611.69857044
3611.70550017
3611.89757329
3614.64604873
3623.63583062
3637.84984641
3651.29074378
3658.94729145
3661.13317441
3661.29689566
3661.16323329
3661.1195789
3661.25285753
3661.09703835
3658.9214115
3651.27320176
3637.84231884
3623.63724926
3614.69399843
3612.02313904
3611.87854921
3611.88514239
3612.04103125
3614.71880384
3623.66458915
3637.86941569
3651.29932075
3658.94335221
3661.11357435
3661.26514812
3661.12898947
3661.04787581
3661.1851209
3661.05539971
3659.13483057
3652.07880899
3639.35574158
3625.74684055
3617.17616065
3614.7009245
3614.6276834
3614.63265076
3614.71430245
3617.1953016
3625.76942592
3639.38050028
3652.10388055
3659.15660385
3661.07246119
3661.19847023
3661.05872494
3660.94873258
3661.08995985
3661.00241942
3659.83250163
3654.68715662
3644.51638745
3633.12305545
3625.75768846
3623.65721193
3623.6315977
3623.63515319
3623.66670838
3625.77165078
3633.14077339
3644.53726362
3654.70957372
3659.85227186
3661.01854735
3661.103144
3660.9599382
3660.83073196
3660.97390429
3660.93850248
3660.54095349
3658.04528096
3652.03359903
3644.53235741
3639.38609346
3637.88409444
3637.87328781
3637.8755234
3637.89023573
3639.39613609
3644.54691811
3652.05133002
3658.06415293
3660.55775106
3660.95268105
3660.98608476
3660.84157709
3660.70413427
3660.84601343
3660.86454755
3660.78338715
3660.16619465
3658.06209999
3654.72241111
3652.13144895
3651.34031387
3651.3433898
3651.34528457
3651.34575443
3652.14032156
3654.73476808
3658.07686552
3660.18094707
3660.79680151
3660.87649338
3660.85691199
3660.71437558
3660.58005002
3660.71749793
3660.78514033
3660.79898573
3660.79621246
3660.5690359
3659.87703368
3659.19572806
3658.99622847
3659.0121527
3659.01395659
3659.00137739
3659.20385992
3659.88762969
3660.58083199
3660.80772991
3660.80987938
3660.79533419
3660.72740576
3660.58992969
3660.46982283
3660.59967809
3660.70499768
3660.79477311
3660.88573184
3660.97253936
3661.04957599
3661.11480471
3661.16693605
3661.19683048
3661.198485
3661.17160167
3661.12190656
3661.05825361
3660.98191991
3660.8950766
3660.80386909
3660.71398842
3660.60902609
3660.47963355
3660.38179193
3660.49120235
3660.60708389
3660.73388461
3660.8724234
3661.01073051
3661.13697557
3661.2414838
3661.31716215
3661.35745079
3661.3589058
3661.32128815
3661.24771717
3661.14449941
3661.01879763
3660.8805521
3660.74203538
3660.61554481
3660.50045322
3660.39161234
3660.32489647
3660.38661463
3660.48209301
3660.60060101
3660.73375043
3660.86946828
3660.99623528
3661.10354941
3661.1822549
3661.22454495
3661.22601417
3661.18644649
3661.10983496
3661.00378041
3660.8774916
3660.74182777
3660.60874655
3660.49052421
3660.39564067
3660.3343587
3170.45246116
3170.55644233
3170.72976529
3170.95570024
3171.20570122
3171.46044381
3171.69600693
3171.89233995
3172.03449614
3172.10777409
3172.10563142
3172.02817142
3171.88207838
3171.68216064
3171.44350603
3171.18635062
3170.93470255
3170.70777892
3170.5340165
3170.42955183
3170.55552817
3170.71119969
3170.90596099
3171.13237326
3171.38132801
3171.62948821
3171.85603116
3172.04272552
3172.17670706
3172.24554594
3172.24357495
3172.17088916
3172.03301746
3171.84260456
3171.61274476
3171.36190591
3171.1112151
3170.88387096
3170.68863272
3170.53238892
3170.72647124
3170.90400009
3171.0723876
3171.23773736
3171.41132555
3171.3643538
3170.83624444
3170.2855768
3170.17516709
3170.23530348
3170.23356022
3170.17001248
3170.27681168
3170.82370687
3171.34830359
3171.39251941
3171.21702065
3171.05051907
3170.88173547
3170.70359782
3170.94818863
3171.12739015
3171.23448705
3171.27191277
3170.40775213
3167.52531407
3163.22070371
3159.99366329
3159.10163394
3159.15675944
3159.1550176
3159.09662997
3159.98508234
3163.20869125
3167.51063622
3170.39074373
3171.25289744
3171.21409874
3171.10628159
3170.92619281
3171.19443606
3171.37217134
3171.40236006
3170.40121923
3165.49283014
3155.57195769
3144.35412742
3137.11542079
3135.15616486
3135.22418103
3135.22174936
3135.15011199
3137.10512561
3144.34099755
3155.55801912
3165.47851912
3170.38561611
3171.38494505
3171.35337777
3171.17453358
3171.44435037
3171.61449289
3171.34794854
3167.51185607
3155.5656765
3136.93633535
3118.85074127
3108.03536363
3105.15360799
3105.24442558
3105.24334031
3105.14976694
3108.02789516
3118.83966578
3136.92338285
3155.55337971
3167.50038012
3171.33519711
3171.599597
3171.42781086
3171.67510866
3171.8348771
3170.81178957
3163.19983657
3144.34161376
3118.83910651
3095.81903455
3082.48567079
3078.96606739
3079.06356324
3079.06506999
3078.96806307
3082.48639552
3095.81597379
3118.83177959
3144.33371451
3163.19331616
3170.80507171
3171.82537517
3171.66342436
3171.86718414
3172.0149973
3170.25243402
3159.96073327
3137.08532001
3108.00409248
3082.47540407
3067.82306829
3063.85590555
3063.87412264
3063.87842626
3063.86725321
3067.83595927
3082.48453543
3108.00702217
3137.08561737
3159.96147307
3170.25282046
3172.01206109
3171.8614852
3172.00510121
3172.14341395
3170.13330799
3159.05491141
3135.10621416
3105.09607365
3078.91743133
3063.81418647
3059.43975368
3059.2874124
3059.29567969
3059.46200369
3063.84057931
3078.94011835
3105.10884834
3135.11660232
3159.06451412
3170.14140286
3172.14729566
3172.00592339
3172.07702988
3172.21048588
3170.1875531
3159.09773551
3135.16018234
3105.16397929
3078.98365746
3063.78513778
3059.23223505
3059.01923657
3059.03100833
3059.26519152
3063.82649857
3079.02132049
3105.18950297
3135.18103927
3159.11625646
3170.2027482
3172.22039233
3172.08355238
3172.07696828
3172.21078181
3170.18791637
3159.09659592
3135.15389778
3105.1516371
3078.96304046
3063.75740567
3059.20071044
3058.98361243
3058.99684977
3059.23661274
3063.80365349
3079.0073839
3105.18461105
3135.18230989
3159.12148193
3170.20837126
3172.22541404
3172.08822857
3172.00525111
3172.14474276
3170.13485356
3159.05219435
3135.09112716
3105.06439655
3078.86404884
3063.7349886
3059.34473757
3059.17999938
3059.19199721
3059.37675923
3063.77615826
3078.9040552
3105.09736339
3135.12248282
3159.08100677
3170.15845047
3172.16244893
3172.01978599
3171.86847041
3172.0180252
3170.25744645
3159.96152176
3137.07220217
3107.96907117
3082.40690607
3067.72358545
3063.73071818
3063.73225005
3063.74055609
3063.75207664
3067.7519575
3082.43555502
3107.9963639
3137.10165975
3159.99055141
3170.28151197
3172.03685406
3171.88469661
3171.67946071
3171.84126316
3170.82279501
3163.2102417
3144.34179376
3118.81690404
3095.76523964
3082.40310122
3078.86010536
3078.94656772
3078.95268197
3078.87305678
3082.42099496
3095.78527409
3118.83966653
3144.3695363
3163.23793604
3170.84538579
3171.85977266
3171.6958725
3171.4538098
3171.6265185
3171.36580382
3167.53563322
3155.58786052
3136.94338694
3118.83700876
3108.0004511
3105.1039069
3105.18910036
3105.19282126
3105.11271067
3108.01226548
3118.85265951
3136.96387359
3155.61273968
3167.55990366
3171.38568242
3171.64362439
3171.46943676
3171.21080736
3171.39083589
3171.42769921
3170.43530685
3165.53428212
3155.61308632
3144.38913387
3137.13710301
3135.17029109
3135.23792922
3135.24027557
3135.17672781
3137.1470848
3144.40367398
3155.63235873
3165.55478583
3170.45438069
3171.44441017
3171.40593072
3171.22498766
3170.97216856
3171.15377891
3171.26701348
3171.31115321
3170.45522698
3167.58116806
3163.28103797
3160.05327544
3159.16012205
3159.2133176
3159.21588989
3159.16709443
3160.06424608
3163.29555868
3167.59830985
3170.47222019
3171.32671761
3171.28113648
3171.1671189
3170.98481653
3170.75747267
3170.93716122
3171.11042414
3171.28140062
3171.46002869
3171.41814757
3170.89561633
3170.34914307
3170.24102796
3170.30295144
3170.30562304
3170.24827531
3170.36030098
3170.90934917
3171.43282287
3171.47405329
3171.29447964
3171.12264098
3170.94899631
3170.76905332
3170.59203915
3170.74934479
3170.94734579
3171.17745651
3171.43000657
3171.68208872
3171.91265541
3172.10320577
3172.24075882
3172.31366724
3172.3159858
3172.24724604
3172.11317279
3171.92464112
3171.69481145
3171.44246032
3171.18926078
3170.95850205
3170.76038934
3170.60279285
3170.49211022
3170.59780129
3170.77320426
3171.0012053
3171.25387547
3171.51117668
3171.75023929
3171.95142958
3172.09797868
3172.17569663
3172.17786327
3172.10431228
3171.96111373
3171.76189494
3171.52358711
3171.26614286
3171.01266729
3170.78408503
3170.60838469
3170.50218386
2680.4494811
2680.6277335
2680.9354673
2681.34083704
2681.79317218
2682.24673301
2682.66256827
2683.00651318
2683.25179154
2683.37785517
2683.37637666
2683.24731374
2682.99908683
2682.65228889
2682.23412442
2681.77902414
2681.32594788
2680.92032242
2680.61211969
2680.43269732
2680.62552994
2680.84929762
2681.17311442
2681.57049692
2682.0028959
2682.42880309
2682.69051429
2682.78439554
2682.91007103
2683.0248515
2683.02366568
2682.90649379
2682.77813928
2682.68133779
2682.41683605
2681.98903618
2681.55547008
2681.15756005
2680.83327773
2680.60823863
2680.92754341
2681.16778125
2681.44078364
2681.73435865
2681.55068505
2679.88496418
2676.93050553
2674.63217325
2674.04486348
2674.15043729
2674.14931342
2674.04179528
2674.62693122
2676.92230405
2679.87343034
2681.53751277
2681.71955815
2681.4251255
2681.15132427
2680.90968805
2681.32351938
2681.55664993
2681.72554921
2680.93118808
2676.25873858
2666.5981056
2655.62545076
2648.54822703
2646.69033722
2646.78852717
2646.7864949
2646.6836624
2648.53819566
2655.61185018
2666.58345419
2676.24578722
2680.91753024
2681.71041121
2681.54029287
2681.30545603
2681.76478623
2681.97768037
2681.52849271
2676.24451409
2661.34660584
2639.62915268
2619.28941644
2607.31662784
2604.2169773
2604.38645438
2604.38322623
2604.20639275
2607.29888247
2619.26780515
2639.61058139
2661.33037877
2676.23217017
2681.51542274
2681.96266705
2681.74772701