/*--------------------------------*- C++ -*----------------------------------*\
| =========                 |                                                 |
| \\      /  F ield         | OpenFOAM: The Open Source CFD Toolbox           |
|  \\    /   O peration     | Version:  3.0.1                                 |
|   \\  /    A nd           | Web:      www.OpenFOAM.org                      |
|    \\/     M anipulation  |                                                 |
\*---------------------------------------------------------------------------*/
FoamFile
{
    version     2.0;
    format      ascii;
    class       volVectorField;
    location    "2.8";
    object      ddt0(rho,U);
}
// * * * * * * * * * * * * * * * * * * * * * * * * * * * * * * * * * * * * * //

dimensions      [1 -2 -2 0 0 0 0];

internalField   nonuniform List<vector> 
15984
(
(0.355810342784 0.0437596348766 -0.208011972391)
(1.06171031482 -0.0187933950644 -0.130705233705)
(1.43966553699 0.0912492138127 -0.0767904542254)
(1.0704469656 0.225649174678 -0.0256816847168)
(0.200842234758 0.322588027337 -0.0119743610365)
(-0.870161160766 0.333605619512 0.00130338128848)
(-1.90799750188 0.249411549323 0.0127734374376)
(-2.55152379814 0.116083985454 0.0156862803228)
(-2.74947659496 -0.0174442763484 0.0155346847177)
(-2.45690981074 -0.120033665053 0.0133308450145)
(-2.01551860897 -0.130486729218 0.0127971746343)
(-1.59332404394 -0.106142972461 0.0098917619519)
(-1.28384059208 -0.0728611351358 0.00850191689217)
(-1.09820739898 -0.0431903122237 0.0063191498309)
(-1.00177623377 -0.0224434178961 0.00293244308953)
(-0.951225367241 -0.0103058034997 -0.00286397791081)
(-0.905581677651 -0.00452535499417 -0.0116289543003)
(-0.830674961042 -0.00193523141099 -0.0234723794693)
(-0.713849269157 -0.00396118039525 -0.0423295788465)
(-0.551761795796 -0.000852003182964 -0.0474792908693)
(-0.35562612248 0.000377375445643 -0.0519075895106)
(-0.155658391106 0.00149473450214 -0.0502158865982)
(0.0227440606195 0.00252769605125 -0.0424069082156)
(0.1611565168 0.00303328482878 -0.0312031315836)
(0.255818212265 0.00283288156418 -0.0208020408608)
(0.317563128884 0.00175483813336 -0.0140361378094)
(0.365119956954 0.00021245592262 -0.0122604014809)
(0.416674781206 -0.00136476792255 -0.0155089431398)
(0.487068634562 -0.00250934232046 -0.0183090033672)
(0.581534173661 -0.00366839996473 -0.0231059532005)
(0.692886957597 -0.00446148988293 -0.0255064193178)
(0.805315677929 -0.00481342358671 -0.0230388767285)
(0.896027107645 -0.00473365652424 -0.0148570414889)
(0.944058612991 -0.00447138926213 -0.00228883827032)
(0.936710102667 -0.00425728255836 0.0125648766739)
(0.869891834633 -0.00405227749446 0.0276654210581)
(0.745946390045 -0.00383838973619 0.0413072111083)
(0.574050699695 -0.00357465326117 0.0517324093024)
(0.366926826629 -0.00264608960798 0.059598580317)
(0.127286575556 -2.53558051731e-06 0.0629012699548)
(0.26870218654 0.410334353562 -0.44198122291)
(1.09340435789 0.517005966646 -0.66448895072)
(1.50010136255 0.951582183558 -0.724518336162)
(1.12143742243 1.33060562139 -0.695112598511)
(0.225029132087 1.56285052306 -0.684950735492)
(-0.874193792537 1.57868953414 -0.661306904824)
(-1.93084330308 1.36970299801 -0.625117315957)
(-2.61897163278 1.00219029275 -0.586087027657)
(-2.78994080921 0.522344331979 -0.497343232848)
(-2.47603803147 0.126205297711 -0.367598809381)
(-2.00309344696 -0.072532679255 -0.23401665061)
(-1.57219936291 -0.12632803944 -0.128024874241)
(-1.26668554429 -0.109525462585 -0.0622246757941)
(-1.08939143884 -0.0715558259959 -0.0260421772937)
(-1.00130900796 -0.0376558625624 -0.0106598544102)
(-0.956804933746 -0.0160881437712 -0.00821634908988)
(-0.914448307447 -0.00631784752712 -0.0142240538201)
(-0.842173260079 -0.00357539861588 -0.0253759800124)
(-0.724084336112 -0.0070957712637 -0.0384015204975)
(-0.559716729829 -0.00435264809407 -0.0471476335822)
(-0.364299802225 -0.00232762011237 -0.050954715538)
(-0.164555603489 -0.000436603273213 -0.0480736289458)
(0.0130767591678 0.0019132049321 -0.039411121809)
(0.150212785453 0.0033312835196 -0.0277843454097)
(0.243337043746 0.00327434865869 -0.0180514057571)
(0.303886602229 0.00145731368058 -0.0125478759656)
(0.351076206042 -0.00150450172552 -0.0120448104096)
(0.403127259276 -0.00486999967273 -0.0167582708991)
(0.474420273884 -0.00700537601647 -0.0218559957071)
(0.570055611485 -0.00931459721805 -0.0278664203146)
(0.683057925378 -0.0107860063229 -0.0309689644143)
(0.797294074477 -0.0111892140096 -0.0285881451087)
(0.88959382443 -0.010640248513 -0.0196089745866)
(0.938773527268 -0.00977340935182 -0.00622003682182)
(0.932273475566 -0.00903080053805 0.00939602495706)
(0.866275279308 -0.00844207056795 0.0249021811934)
(0.743069501325 -0.00787957392916 0.0389977602157)
(0.572302983879 -0.00713628295535 0.0496597812338)
(0.367169616603 -0.0055148703827 0.0582247045648)
(0.128638698664 0.000347352086119 0.0643389401527)
(0.286469952578 0.958568250458 -0.475925023531)
(1.25841633299 1.33779851609 -0.77603811738)
(1.67080933319 2.06455906545 -0.761531825558)
(1.22968965306 2.64315267955 -0.680814154792)
(0.270004802146 2.97837152749 -0.650782028389)
(-0.894819344309 2.9927039078 -0.623697995217)
(-2.00802759719 2.66888981637 -0.596057969893)
(-2.75560599378 2.08715636371 -0.589701466002)
(-2.93227164244 1.31034042233 -0.55934420183)
(-2.58394263363 0.60322302405 -0.467762257942)
(-2.04284292942 0.15820209192 -0.321909206091)
(-1.56221930666 -0.0410648063798 -0.18604748603)
(-1.23778273937 -0.0885976311735 -0.0925126765546)
(-1.06018279834 -0.0720438467214 -0.040166849216)
(-0.979844505884 -0.0412873831203 -0.0153712440526)
(-0.944378613417 -0.01808863616 -0.00901089504816)
(-0.908886502929 -0.0074260011866 -0.0140501589433)
(-0.840448547528 -0.00556270973708 -0.0253227748475)
(-0.723168423337 -0.00754826629658 -0.0379855817112)
(-0.557971898367 -0.00759066352246 -0.0469207700175)
(-0.362245986884 -0.00474917187794 -0.0517145482357)
(-0.162455140583 -0.00352545875892 -0.0476602561761)
(0.0149804775481 -0.000414904200323 -0.0383193725763)
(0.15119994211 0.00179882978647 -0.026308787505)
(0.243163162467 0.00219498235952 -0.0167791297479)
(0.3026932528 0.000776103444307 -0.0116674185352)
(0.349207754201 -0.00240961076112 -0.0116299741996)
(0.401432373627 -0.00600861236167 -0.0164411277608)
(0.473111246278 -0.00875768652891 -0.0231953856407)
(0.569020943361 -0.0112291381198 -0.0296655625637)
(0.682725871777 -0.0126405372076 -0.032992171315)
(0.797711290185 -0.0126526442863 -0.0305695861533)
(0.890439369393 -0.0116213826813 -0.0211621311252)
(0.939652734319 -0.0103009109138 -0.00739295352273)
(0.932967200414 -0.00913297509285 0.00852720359271)
(0.866837132472 -0.00826019476854 0.0242637632039)
(0.743574489805 -0.00740490055799 0.038512063715)
(0.57288603838 -0.00645236734073 0.0492581855111)
(0.368966400446 -0.00478736671571 0.0582168195041)
(0.1300634575 0.001058584542 0.0654784736347)
(0.39945687967 1.37587105515 -0.451127247021)
(1.57917331818 1.95342476322 -0.675071389367)
(1.98045610426 2.86694489203 -0.501475397411)
(1.43368258856 3.55258859215 -0.315133445577)
(0.348359661238 3.95253673694 -0.243796438028)
(-0.94946809901 3.96482161622 -0.213947348587)
(-2.18044533998 3.56315911298 -0.227421032781)
(-3.01688198831 2.84758487047 -0.309996475454)
(-3.22133258357 1.87919324543 -0.402794681453)
(-2.816052822 0.970700489021 -0.427592716979)
(-2.16970066459 0.35918754553 -0.337043131979)
(-1.601004508 0.0509782343781 -0.210409172966)
(-1.22903463713 -0.0529830601317 -0.111002253224)
(-1.03712672981 -0.0596728099189 -0.0493399736443)
(-0.959065924822 -0.0370526893974 -0.0187438161106)
(-0.93133243006 -0.0163281414798 -0.00947135964847)
(-0.902898129122 -0.00693623335077 -0.0140214916415)
(-0.838461977208 -0.00638004397454 -0.0257657392725)
(-0.722024783672 -0.00913232779908 -0.0389215551467)
(-0.555617262795 -0.0100931023091 -0.048301314198)
(-0.35982794429 -0.00977257955293 -0.0556742157887)
(-0.160224303499 -0.00611885996665 -0.0485149104056)
(0.017559350107 -0.00271986495131 -0.0383695914269)
(0.152936784506 -0.000123089924148 -0.0259839849897)
(0.243787009997 0.000580225394453 -0.0163090348045)
(0.302207426134 -0.000317402734496 -0.0114520361511)
(0.348115282721 -0.0036433559653 -0.0114979612814)
(0.400307153848 -0.00701425006366 -0.016842542449)
(0.472200532279 -0.0102100823124 -0.024049970289)
(0.568605114406 -0.0125691722747 -0.0307706746639)
(0.682996259024 -0.0137236214935 -0.0340357297256)
(0.798644025739 -0.0134414068466 -0.0314976185833)
(0.891691504972 -0.0122104742001 -0.0217685725792)
(0.940867671464 -0.0107324514895 -0.00768664576227)
(0.933952865066 -0.0094442942353 0.00845071421302)
(0.867617930827 -0.00846666919552 0.0243479618414)
(0.744226852193 -0.00757604993048 0.0386646207834)
(0.573604966989 -0.00661781570144 0.0494506484151)
(0.370708204496 -0.00500511674277 0.058519322483)
(0.131455866728 3.21747528187e-05 0.065942249399)
(0.578433938954 1.63391536376 -0.42641762606)
(1.99154112083 2.29221085989 -0.517122654101)
(2.37374877004 3.26789575941 -0.15794284942)
(1.71002751506 3.95527814747 0.159365552572)
(0.460368110324 4.37593197052 0.305375484666)
(-1.04031941897 4.38665513809 0.330830902647)
(-2.42561900555 3.94839502333 0.239590829019)
(-3.35092899166 3.2004543707 0.0343756360097)
(-3.5914089776 2.17280944423 -0.19649600164)
(-3.12730867389 1.19380239746 -0.350886142089)
(-2.36166132291 0.503054259746 -0.332539202512)
(-1.68193050827 0.131997462805 -0.227748810167)
(-1.24326689919 -0.0122514836793 -0.125541985029)
(-1.02451498479 -0.0399949151298 -0.0569493949948)
(-0.942917616037 -0.0273547796517 -0.0214205372959)
(-0.920539414817 -0.0116223473282 -0.00967292098001)
(-0.898358574544 -0.00489281074653 -0.0139472593419)
(-0.837561780665 -0.00609712329742 -0.0264156804232)
(-0.721817317845 -0.00988290400582 -0.0401568026122)
(-0.555505888773 -0.0118989765089 -0.0499005172465)
(-0.357755559954 -0.0134210560872 -0.0538919057189)
(-0.156694479903 -0.00783044877714 -0.0497466330199)
(0.0199473824595 -0.00464831294885 -0.0389158056576)
(0.154527057026 -0.00197968081512 -0.0262124423637)
(0.244424985899 -0.00115933172622 -0.0163157409048)
(0.301699695607 -0.00232846604807 -0.0120656721309)
(0.346833299148 -0.00481044739385 -0.0119332909248)
(0.399035951211 -0.00798994739597 -0.0175325948237)
(0.471199951593 -0.010944021807 -0.0249330271024)
(0.568150995129 -0.0130242833245 -0.0316924549515)
(0.683228904429 -0.0138510528286 -0.0349612832361)
(0.799474260046 -0.0133394051662 -0.0322705618205)
(0.892790230101 -0.0120138281238 -0.0222677879205)
(0.94191643401 -0.0105114533705 -0.00795101563621)
(0.934787594784 -0.00922446143945 0.00836764962472)
(0.868263511258 -0.00826187606017 0.0243652801725)
(0.744788784 -0.00740605839016 0.0387196578929)
(0.574235828036 -0.00647180452466 0.0494542570669)
(0.372244621297 -0.00512562703584 0.0586288718809)
(0.132740175361 -0.000816069334468 0.0660901015584)
(0.783128111628 1.68593074999 -0.404329096861)
(2.41685052362 2.31970114569 -0.360609127045)
(2.77460085311 3.24211871657 0.16292337817)
(1.98851223166 3.79789142909 0.565558358935)
(0.570523160586 4.18099101997 0.74841777183)
(-1.12760489827 4.19463924969 0.769127492048)
(-2.67077149896 3.79225086995 0.631305151116)
(-3.67765079983 3.13361420175 0.352509676966)
(-3.97519382383 2.1799534337 0.00157762382844)
(-3.46135197641 1.24806853741 -0.270769571157)
(-2.58414753258 0.565885716349 -0.32256642585)
(-1.78770352431 0.181579597168 -0.240916588967)
(-1.27355000569 0.0209460862186 -0.138416914366)
(-1.02127098949 -0.0202834605274 -0.0633193797278)
(-0.931905178826 -0.0163391244837 -0.0228060149869)
(-0.91268939966 -0.00605249715545 -0.00937338181932)
(-0.895546785144 -0.00233861819063 -0.0135520238089)
(-0.837761942331 -0.00505469669087 -0.026918714922)
(-0.722431878243 -0.00956071191753 -0.0414134141713)
(-0.555273955632 -0.012134845148 -0.0514343489831)
(-0.355939049377 -0.012243149089 -0.054685138623)
(-0.1542191458 -0.00852319278443 -0.0515140335481)
(0.0218940674993 -0.00578979152717 -0.0396370550817)
(0.155868448223 -0.00330894683962 -0.0266069504865)
(0.244568039508 -0.00248085977955 -0.0164886554312)
(0.301159001815 -0.00385292239216 -0.0117106855166)
(0.345953093683 -0.00560472675942 -0.0124290861991)
(0.39783955398 -0.00833489512119 -0.0182551168649)
(0.470258938307 -0.0108599270398 -0.0257581706395)
(0.567735841227 -0.0125625462096 -0.0326037586061)
(0.683453547054 -0.0130956498869 -0.0358538581053)
(0.800217066602 -0.0124453602351 -0.0329982699009)
(0.893745926326 -0.0111482291915 -0.0227718065391)
(0.942815140763 -0.00973746508584 -0.00826272282057)
(0.93549243741 -0.00855633006871 0.00817950751788)
(0.86880562148 -0.00768428690356 0.0242471709691)
(0.745279727838 -0.00692010583848 0.0386068628224)
(0.574800203721 -0.0060887420394 0.0493311389883)
(0.37362950792 -0.00499627512618 0.0586747579938)
(0.133881918234 -0.00141242104083 0.0662218176633)
(0.967913125073 1.53768394413 -0.38693358105)
(2.7870762111 2.06759030305 -0.227832406558)
(3.10180369167 2.8752649232 0.417767292256)
(2.2424017781 3.30538036814 0.833508176269)
(0.673515984606 3.66541082437 1.05918769807)
(-1.20166836228 3.68389151578 1.07739434973)
(-2.8846047828 3.31189802579 0.894687975422)
(-3.94345038067 2.75893186745 0.591809278353)
(-4.32246259502 1.94342328294 0.169135884561)
(-3.76942894464 1.14330585241 -0.19897464117)
(-2.80246793376 0.543873434429 -0.310751038081)
(-1.89909652346 0.194132525368 -0.250326419397)
(-1.31160096899 0.0404190431979 -0.148370680454)
(-1.02452400849 -0.00485688791781 -0.0679834398139)
(-0.92543917413 -0.00705169096263 -0.0233054415619)
(-0.907658349189 -0.00135228329776 -0.00843045953498)
(-0.894286947691 -0.00018399976221 -0.0129008995079)
(-0.838747364071 -0.00372701144914 -0.0271958752981)
(-0.72351073095 -0.00832139185658 -0.0424470591756)
(-0.555311071485 -0.0109187553252 -0.0527656635496)
(-0.354628081295 -0.0110610199853 -0.0557849007373)
(-0.15233842202 -0.00872352441955 -0.0529030817515)
(0.0235279339375 -0.00601666549015 -0.0402365699024)
(0.15699042783 -0.00388038885089 -0.0269760260871)
(0.244795722314 -0.00309049890446 -0.0167096783163)
(0.300650948232 -0.00384808641476 -0.0118086005705)
(0.345026531412 -0.00561050686586 -0.0128686854833)
(0.39679237398 -0.00784198406241 -0.0188932312372)
(0.469452101512 -0.00985979737845 -0.0265034802974)
(0.567404501659 -0.0111576034184 -0.033416056678)
(0.683680779775 -0.0114492369566 -0.0366310021231)
(0.800868996077 -0.010767914045 -0.0336164882567)
(0.894555258785 -0.00960787256575 -0.0232200166681)
(0.943562906155 -0.00838853575324 -0.00855685293201)
(0.936071805673 -0.00739191004685 0.00797487091184)
(0.869253835454 -0.00666376519317 0.0240844375172)
(0.745699932952 -0.00603136823094 0.0384457364719)
(0.575299645657 -0.00534572117824 0.0491734126513)
(0.374817069923 -0.00448267475401 0.0586858668794)
(0.134819550379 -0.00171269627417 0.0663779811355)
(1.12690362878 1.21667684302 -0.377281233927)
(3.07693740731 1.59975700285 -0.137210484562)
(3.35819529653 2.24729625036 0.61295952521)
(2.49590149645 2.54078543026 1.03518450151)
(0.791899089862 2.85254247789 1.29445121303)
(-1.28184522121 2.87315831005 1.30914702093)
(-3.08567581519 2.560871229 1.10587568765)
(-4.15088583153 2.14720419847 0.771417121279)
(-4.60017070406 1.51614621838 0.296814829389)
(-4.01974422495 0.907545271167 -0.141444534797)
(-2.98871400679 0.445805608607 -0.299280789675)
(-1.99867839016 0.16945179815 -0.256116774772)
(-1.34896412365 0.0438030773323 -0.155260358754)
(-1.03106794791 0.00365306615479 -0.0709752678421)
(-0.92237021974 -0.00123069692857 -0.0231087967828)
(-0.90486437118 0.00124536204023 -0.00704797024243)
(-0.894102849547 0.000922458367422 -0.012168672282)
(-0.840080651645 -0.00253281124276 -0.0272564131663)
(-0.724719826089 -0.00648171262855 -0.0432153403361)
(-0.555569164473 -0.00867177104205 -0.0537748784254)
(-0.353933464971 -0.00898152340949 -0.0565712651745)
(-0.150935074783 -0.00775550387015 -0.053203720695)
(0.0249681240776 -0.00533205546453 -0.0406034941204)
(0.157867310644 -0.00369697099894 -0.0272203520685)
(0.245005099745 -0.0030373672006 -0.0168870226507)
(0.300228464387 -0.00333019839579 -0.0120018516259)
(0.344231148421 -0.00489637834242 -0.0132168599453)
(0.395955797849 -0.00657640568469 -0.019387762059)
(0.468829293866 -0.00802699425072 -0.0270846661908)
(0.56717362121 -0.00891014482407 -0.0340474840784)
(0.683897589147 -0.00901942976723 -0.0372198020169)
(0.801407113217 -0.00841018112101 -0.034071343329)
(0.895199141788 -0.00747896890295 -0.0235454982998)
(0.944147088651 -0.00653287845244 -0.00876957754244)
(0.936519233117 -0.00577496251483 0.00782383673284)
(0.869601098035 -0.00522715069768 0.0239572384054)
(0.746033243059 -0.0047563680536 0.0383188549454)
(0.575705794763 -0.00424724091525 0.0490738307482)
(0.37574293949 -0.00361603404923 0.0587320716235)
(0.135523207257 -0.00170674862788 0.0665108992427)
(1.24289703777 0.766217576819 -0.376515409256)
(3.27357386259 0.99228209216 -0.0924005953643)
(3.5399096837 1.41231525262 0.745246309545)
(2.69434498856 1.56988693074 1.16857651343)
(0.890827356493 1.78531698636 1.37667836728)
(-1.34481789233 1.80062579719 1.38935775197)
(-3.23326700779 1.59591801634 1.25559688426)
(-4.29011672667 1.34880925627 0.895829119683)
(-4.79708671057 0.95319161871 0.382344848577)
(-4.1932408467 0.575683048878 -0.102538321537)
(-3.12259293369 0.28810937677 -0.290248633633)
(-2.07251923748 0.113211283721 -0.258952182694)
(-1.37822090093 0.0319963466781 -0.159157316984)
(-1.03751668842 0.00495347179163 -0.072308352367)
(-0.921297563817 0.000603373032947 -0.0225800877381)
(-0.903574768862 0.00137126666696 -0.00582511030766)
(-0.894391559112 0.000723917436044 -0.0114043191404)
(-0.841280613235 -0.00171805488732 -0.0271942545277)
(-0.725718652884 -0.00432075632888 -0.0436808789194)
(-0.555858420678 -0.00577614362479 -0.0544609602899)
(-0.353584722592 -0.00597384115378 -0.0570593645677)
(-0.150031519895 -0.00542694972239 -0.0532065553456)
(0.0259691803981 -0.00390653759457 -0.0407725559205)
(0.158472704731 -0.00292268263929 -0.0273675008376)
(0.245239687152 -0.00247783801749 -0.0170014679519)
(0.299921753362 -0.00201240494484 -0.0120861737626)
(0.343569248343 -0.00363932776612 -0.0134451335872)
(0.395370869394 -0.00471169197804 -0.0196971074748)
(0.468420777675 -0.00555316027245 -0.0274771085492)
(0.567047447215 -0.00602195944176 -0.0344614057463)
(0.684082060946 -0.00600321572104 -0.0375982228159)
(0.801804516643 -0.00554903077527 -0.0343514000351)
(0.895656289395 -0.00492033291311 -0.0237306020024)
(0.944553168824 -0.00430331877113 -0.00888594379344)
(0.936826958575 -0.00382033511373 0.0077466869169)
(0.869838766262 -0.0034774710136 0.0239045485368)
(0.746262557499 -0.00318557332378 0.038245820326)
(0.575991521434 -0.00287211729108 0.0490380846446)
(0.376363290657 -0.00248319291635 0.0587808470435)
(0.135977211657 -0.00142781908777 0.0665981012686)
(1.30294362953 0.245403017497 -0.379330595424)
(3.36993621047 0.318059547078 -0.0789608646973)
(3.64862486594 0.45897118242 0.799387046675)
(2.78916967806 0.510530137511 1.23732392081)
(0.935437854276 0.581130813269 1.43379783204)
(-1.37002653443 0.586960453736 1.44639250609)
(-3.30281560926 0.521096649856 1.34147363352)
(-4.35702328105 0.440772593832 0.954673352832)
(-4.89810457851 0.309713994676 0.426582008388)
(-4.2799374471 0.186024881721 -0.0834566388778)
(-3.19106513557 0.0928525680584 -0.285387016053)
(-2.11090631145 0.0360069742869 -0.259942433378)
(-1.393784887 0.00951559159155 -0.160777553164)
(-1.04127228013 0.000732084298445 -0.0728043680723)
(-0.921064467764 -0.000725629099101 -0.0221294442362)
(-0.903062914064 -0.000423560168115 -0.00511889296849)
(-0.894620961124 -0.000566190929232 -0.0108965947326)
(-0.841936461306 -0.00128327736702 -0.0271242454436)
(-0.726262287923 -0.00204458663621 -0.0438879461055)
(-0.556002582925 -0.0024918955227 -0.0547377925557)
(-0.353431153989 -0.00251708555553 -0.0572973606811)
(-0.149636926484 -0.00245762859114 -0.0531523187882)
(0.0264462369224 -0.00202387294414 -0.0408621990146)
(0.158764038624 -0.00178451861916 -0.0274303147406)
(0.245601053813 -0.00167591721601 -0.0171123479837)
(0.299754362617 -0.00119897793207 -0.0134705379797)
(0.342969368917 -0.00211212239628 -0.0136227747135)
(0.395074425463 -0.00246248386721 -0.0198302639238)
(0.468245110966 -0.00267452855984 -0.0276707616184)
(0.567022035186 -0.00273983926021 -0.0346594281426)
(0.684214949784 -0.0026319306969 -0.0377742335418)
(0.802037795059 -0.00238901803145 -0.0344681285758)
(0.895910079936 -0.00210957518961 -0.0238090008921)
(0.944772253158 -0.00185654702316 -0.00891948424366)
(0.936987727825 -0.00167097162929 0.00773267278781)
(0.869959752869 -0.00154544705287 0.0238859437631)
(0.746377301003 -0.00144351313529 0.03822090328)
(0.576135997272 -0.00133578169042 0.0490388349334)
(0.376663613475 -0.00120653168738 0.0588175887126)
(0.136191040865 -0.000972137285224 0.0666418278875)
(1.3021858652 -0.296701518159 -0.379666805639)
(3.36895022574 -0.374509535059 -0.0791511064766)
(3.64760001111 -0.522144600185 0.799391549969)
(2.78799150734 -0.572499884053 1.23904202638)
(0.935197559803 -0.642674107747 1.4348165121)
(-1.36942045803 -0.646987493526 1.4466595171)
(-3.30113435746 -0.580681236692 1.34303955421)
(-4.3558819062 -0.499370097141 0.953955732122)
(-4.89517623761 -0.360146095452 0.425165403283)
(-4.27648805553 -0.222233401718 -0.0843163530602)
(-3.18805566327 -0.114724879849 -0.285558901618)
(-2.10903910517 -0.0482668814545 -0.259846241058)
(-1.39284567317 -0.0166947330279 -0.160673391331)
(-1.04085375418 -0.00560866643224 -0.0727306603871)
(-0.920867333394 -0.00317984640356 -0.0221157211641)
(-0.902927755131 -0.00291343367979 -0.00512933848057)
(-0.89448777011 -0.00226311765152 -0.0109183882927)
(-0.841803635737 -0.000989235873856 -0.0271323314773)
(-0.726165402237 0.000272471108698 -0.0438810380957)
(-0.555968754387 0.000991834240339 -0.0547223785595)
(-0.353461383641 0.00100633685949 -0.0572845591856)
(-0.149700173569 0.000698311419596 -0.0531332057475)
(0.0263778895487 5.00531972401e-06 -0.0408691751797)
(0.158704592467 -0.00051244102172 -0.0274401648523)
(0.245576915449 -0.000822330647445 -0.0171256312243)
(0.2997370924 -0.00145971565374 -0.0135886042752)
(0.342964821778 -0.00052382673689 -0.0136371762256)
(0.395112991294 -6.74845177468e-05 -0.0198382713217)
(0.468303990543 0.000348393896343 -0.0276786930532)
(0.567091552444 0.000677386444935 -0.0346612274353)
(0.684282877995 0.00085689392814 -0.0377684038448)
(0.802094034497 0.000865250983251 -0.034457552935)
(0.895950685029 0.00077993071076 -0.0237952405314)
(0.944796313052 0.000652314016703 -0.00890374900971)
(0.936998777577 0.000531593715885 0.00774874970721)
(0.869960741872 0.000437821876533 0.023902408563)
(0.746370480674 0.000344108120297 0.0382382748088)
(0.576128150129 0.000241576150285 0.0490615219063)
(0.376641817392 0.000105553045654 0.0588282306047)
(0.136171653301 -0.000464748696839 0.0666658798375)
(1.24057020913 -0.815228144592 -0.377523062432)
(3.27012541152 -1.04747334641 -0.0935660995951)
(3.53660609306 -1.47591433701 0.744391713189)
(2.69217371062 -1.63465538188 1.16855637572)
(0.890400346576 -1.85014684427 1.37848665239)
(-1.34279544124 -1.86299270294 1.39131352103)
(-3.23027057706 -1.65703125017 1.25491866141)
(-4.28611527695 -1.40636750696 0.893278580579)
(-4.78825895692 -1.00133974421 0.378501797892)
(-4.1828882951 -0.609435668959 -0.10492086283)
(-3.11375741073 -0.308331387753 -0.290663814493)
(-2.06706705829 -0.124592852291 -0.258698598645)
(-1.37547753332 -0.038715786669 -0.158859986012)
(-1.03630890492 -0.00960193692432 -0.0721858913623)
(-0.920733207873 -0.00436654494089 -0.0225553906028)
(-0.903176446403 -0.00462893397559 -0.00584338355479)
(-0.893993951619 -0.00349147571768 -0.0114443412046)
(-0.840884475475 -0.000503686165613 -0.0272097354947)
(-0.725427850588 0.00258694798368 -0.0436591058083)
(-0.555759770869 0.00431662948984 -0.0544258253826)
(-0.353682487187 0.00445839654002 -0.0570172435021)
(-0.150220181148 0.00367189645786 -0.0531340283021)
(0.0257699580637 0.00191617545633 -0.0407785466779)
(0.158293182057 0.00066499179109 -0.0273912235254)
(0.245083295099 2.06489363752e-05 -0.0170347495973)
(0.29987051821 -0.000618267078752 -0.0121951036182)
(0.343637811426 0.00104370641622 -0.0134769129186)
(0.395486804384 0.00221105924512 -0.0197169447456)
(0.468595324669 0.00325231076118 -0.0275015195453)
(0.567253228904 0.00397494326984 -0.0344699499268)
(0.684283549889 0.00423321280472 -0.0375845329942)
(0.801971624703 0.00402173258457 -0.0343207563411)
(0.895776545473 0.0035789199348 -0.0236900496901)
(0.944624519854 0.0030798213598 -0.00883698142747)
(0.936860001231 0.00265820541775 0.00779580872617)
(0.869841918635 0.00234613034427 0.0239529643516)
(0.746242316742 0.00206133620931 0.0382941468052)
(0.575969528321 0.00175113308945 0.0490970351716)
(0.376301371544 0.00135211246499 0.0588134049899)
(0.135922246085 -2.86931207979e-05 0.06665977488)
(1.12292153134 -1.2609337454 -0.378795031796)
(3.06957208438 -1.65150493006 -0.139808123628)
(3.35237252556 -2.30889279906 0.608995305244)
(2.4907311742 -2.60776306972 1.03333389214)
(0.790539153142 -2.91928491354 1.29702760616)
(-1.27746808297 -2.93759629626 1.3119511336)
(-3.07952298557 -2.62273023539 1.10296665897)
(-4.14287009846 -2.20169538694 0.766083533514)
(-4.58503972189 -1.55985603865 0.291423976996)
(-4.0025148432 -0.936554026093 -0.144832542742)
(-2.97461755068 -0.462974535496 -0.299724161236)
(-1.99008389488 -0.179212043073 -0.255602936199)
(-1.34466597078 -0.0496784727367 -0.154748418325)
(-1.02917893756 -0.00790917720427 -0.0707171028007)
(-0.921483358682 -0.00231210682347 -0.0230826017776)
(-0.904234858837 -0.0043523372045 -0.00707145187412)
(-0.893452630968 -0.00357239487252 -0.0122260180868)
(-0.839430258847 0.000407280934214 -0.0272700907155)
(-0.724239872206 0.00482385785608 -0.0431751167455)
(-0.555424537077 0.00727545111625 -0.053708426685)
(-0.354108547883 0.00752598055824 -0.056452421539)
(-0.151233296273 0.00602240296418 -0.0530616768308)
(0.0246500869678 0.00340656423775 -0.0406143925543)
(0.15757532704 0.00151374584159 -0.0272762012709)
(0.244794852074 0.000661977225675 -0.016936672078)
(0.300142136956 0.000872692785144 -0.0119720301916)
(0.344291155985 0.00238407840116 -0.0132717871382)
(0.396141153913 0.0041485134839 -0.0194253790299)
(0.469114411535 0.00578844817262 -0.0271304275964)
(0.56750808385 0.00690607868191 -0.0340680752039)
(0.684225335843 0.00727049924528 -0.0372027084782)
(0.801678405711 0.00688617715889 -0.0340279418311)
(0.895393144579 0.00612605538593 -0.0234846696521)
(0.944261808021 0.00528590522682 -0.00870421398849)
(0.936573228374 0.00458283131565 0.00788788427775)
(0.869606712192 0.00406091072411 0.0240337592295)
(0.745999998083 0.0035930451826 0.0383976603514)
(0.575668683238 0.00308553535949 0.0491670178671)
(0.375645497461 0.00243259381187 0.0587809218215)
(0.135438960636 0.000219819538009 0.0666061321185)
(0.962473426364 -1.57483773717 -0.38854524048)
(2.77466704375 -2.11263795573 -0.231851682354)
(3.09093287399 -2.93030219929 0.410258373381)
(2.2349715654 -3.36849115797 0.826452747959)
(0.672866931328 -3.73122624389 1.05069578657)
(-1.19584791839 -3.74690505733 1.06930186615)
(-2.87461330064 -3.36871016671 0.886425187467)
(-3.92984992692 -2.80541755974 0.582531359748)
(-4.30034596917 -1.97750913546 0.16301420296)
(-3.7456930697 -1.16552228177 -0.202542739072)
(-2.78407217479 -0.557066127902 -0.310907064472)
(-1.88801932091 -0.201853860122 -0.249460422206)
(-1.30610678379 -0.0452194521681 -0.147660172893)
(-1.02214975674 0.00114003238009 -0.0676502222688)
(-0.924300529222 0.00382418451189 -0.0232327478413)
(-0.906814341321 -0.00154083162315 -0.00845695345126)
(-0.893398528756 -0.00229361705466 -0.0129858079272)
(-0.837853869013 0.00174173430945 -0.0272055437199)
(-0.722852922159 0.00677137435956 -0.0423774250142)
(-0.555108133534 0.00960470535745 -0.0526611386078)
(-0.354889869091 0.00973050847672 -0.0556319372376)
(-0.152759021976 0.00716073315634 -0.0526514279423)
(0.0231060478332 0.00421307020845 -0.0402530338077)
(0.156587168295 0.00182160637406 -0.0270473399519)
(0.244502684329 0.000845402306745 -0.0167925279053)
(0.300531071946 0.00146662526602 -0.0118970819405)
(0.345109096427 0.00322355223784 -0.0129578931818)
(0.39704415518 0.00553853523385 -0.0189711628037)
(0.469837456116 0.0077282135612 -0.0265701309621)
(0.567854118174 0.00923597903226 -0.033453363922)
(0.684122005512 0.00975173779357 -0.036622618838)
(0.801235069462 0.00926885880553 -0.0335725545861)
(0.894816301442 0.00825771904248 -0.0231502766812)
(0.943717080275 0.00713205110566 -0.00848300541996)
(0.936144110241 0.00618216707247 0.00804940958618)
(0.869259867556 0.00547374851951 0.02416662056)
(0.745654123152 0.00483849897153 0.0385378536641)
(0.575247382097 0.00415155683747 0.0492775664122)
(0.374692505151 0.00326488676712 0.058745663252)
(0.134719542519 0.0002103753161 0.0664841747578)
(0.775975015634 -1.71507661749 -0.405475050512)
(2.39891042389 -2.35516951526 -0.36512768553)
(2.75775058339 -3.28670791638 0.153022730812)
(1.97865164183 -3.85167380415 0.554780515539)
(0.569990536609 -4.2370501373 0.736911704453)
(-1.11949027047 -4.24758725406 0.758468755795)
(-2.65644279718 -3.83841356198 0.620125680017)
(-3.65706362982 -3.16873300894 0.342486032355)
(-3.94725366335 -2.20255440271 -0.00519257009484)
(-3.4333447949 -1.26275104506 -0.273737248854)
(-2.56283781637 -0.57490955097 -0.322062050889)
(-1.7749169054 -0.187251466704 -0.23958888028)
(-1.26723279473 -0.0251151792812 -0.137505470901)
(-1.01857875276 0.0171515560324 -0.0628308707877)
(-0.930597364563 0.0135209556055 -0.0226790122118)
(-0.911681094427 0.00345239371266 -0.00947149615341)
(-0.894441038799 9.83728207533e-05 -0.0136501075247)
(-0.83664540734 0.00324952847597 -0.0269203155682)
(-0.721612800136 0.00813333560247 -0.0413114201768)
(-0.555014194518 0.0109046658283 -0.0512404327558)
(-0.356232904107 0.0109133049827 -0.0545034728456)