/*--------------------------------*- C++ -*----------------------------------*\
| =========                 |                                                 |
| \\      /  F ield         | OpenFOAM: The Open Source CFD Toolbox           |
|  \\    /   O peration     | Version:  3.0.1                                 |
|   \\  /    A nd           | Web:      www.OpenFOAM.org                      |
|    \\/     M anipulation  |                                                 |
\*---------------------------------------------------------------------------*/
FoamFile
{
    version     2.0;
    format      ascii;
    class       volScalarField;
    location    "2.8";
    object      p;
}
// * * * * * * * * * * * * * * * * * * * * * * * * * * * * * * * * * * * * * //

dimensions      [1 -1 -2 0 0 0 0];

internalField   nonuniform List<scalar> 
15984
(
4645.46592896
4645.39312753
4645.22356564
4645.06771845
4645.00030553
4645.03348548
4645.17746481
4645.4293781
4645.74426741
4646.0485746
4646.3058225
4646.50704618
4646.66193487
4646.78712875
4646.89571462
4646.99611441
4647.09188763
4647.18259604
4647.26447953
4647.33233017
4647.38190498
4647.41054486
4647.41849343
4647.40866911
4647.38554442
4647.35350502
4647.31551305
4647.27254184
4647.22413928
4647.16794573
4647.10188313
4647.02471528
4646.93718307
4646.84249701
4646.74567378
4646.6526061
4646.56932958
4646.50135524
4646.45291565
4646.42710227
4645.47620889
4645.42398455
4645.2585882
4645.09680224
4645.02622304
4645.05745193
4645.20185023
4645.45713228
4645.77363599
4646.07598656
4646.32664306
4646.52083687
4646.67030178
4646.79159148
4646.89776477
4646.99685611
4647.09205503
4647.18252939
4647.26438386
4647.33230317
4647.38183594
4647.41038143
4647.41823098
4647.40834283
4647.38522597
4647.35327252
4647.31541155
4647.27256633
4647.224293
4647.16820919
4647.10222272
4647.02508514
4646.93753453
4646.84281181
4646.74595382
4646.65285413
4646.56954925
4646.5015428
4646.4530258
4646.42683118
4645.43862772
4645.3840048
4645.17967963
4644.97633842
4644.88290219
4644.91199666
4645.07639513
4645.37055086
4645.73094323
4646.06508874
4646.33198745
4646.53054474
4646.67887146
4646.79748339
4646.90106347
4646.99841414
4647.09273637
4647.18293643
4647.26478168
4647.33281685
4647.38228823
4647.41068599
4647.41837421
4647.40836184
4647.38520578
4647.35330903
4647.31558819
4647.2729975
4647.2247859
4647.16883506
4647.10292945
4647.02580475
4646.93820315
4646.84340887
4646.74648343
4646.65332904
4646.5699686
4646.50190036
4646.45329324
4646.42677672
4645.37460536
4645.29593768
4645.02394303
4644.76203312
4644.63844587
4644.66515113
4644.85612069
4645.20469067
4645.63466455
4646.02486071
4646.32365013
4646.53545374
4646.68621316
4646.80328891
4646.90458154
4647.0001548
4647.09356685
4647.18351097
4647.26541764
4647.33354883
4647.38303166
4647.41120214
4647.41870951
4647.40854312
4647.38532253
4647.35346927
4647.31589298
4647.27348501
4647.2254268
4647.16960818
4647.10377566
4647.02664812
4646.93898122
4646.84410211
4646.74709531
4646.65387312
4646.57044322
4646.50230138
4646.45358997
4646.42678448
4645.29074037
4645.17083697
4644.81843674
4644.5000507
4644.35022415
4644.3739509
4644.58726566
4644.98745895
4645.49550192
4645.95660741
4646.30013494
4646.53280749
4646.69024559
4646.80765731
4646.90748911
4647.00163798
4647.09429974
4647.18410444
4647.26616036
4647.33442921
4647.38390488
4647.41184702
4647.41920804
4647.40887646
4647.38557721
4647.35376235
4647.3163019
4647.2740659
4647.22616845
4647.1704736
4647.10469805
4647.02755281
4646.93981251
4646.84484267
4646.74774959
4646.65445504
4646.57095138
4646.50272832
4646.45391892
4646.42684274
4645.19898002
4645.0314802
4644.60184191
4644.23867075
4644.07034624
4644.09068258
4644.31761219
4644.75732057
4645.33737663
4645.87201563
4646.26603254
4646.52428367
4646.69103115
4646.81040044
4646.90951025
4647.002694
4647.09482591
4647.18461454
4647.26689519
4647.33534998
4647.38483577
4647.41269887
4647.41979013
4647.40929226
4647.38591118
4647.35411748
4647.31676626
4647.27468263
4647.22693052
4647.17134161
4647.10560714
4647.02843402
4646.94061871
4646.84556009
4646.74838351
4646.65501869
4646.57144413
4646.50314238
4646.45424765
4646.42692496
4645.11170851
4644.89963797
4644.40645261
4644.01338336
4643.83612442
4643.8527471
4644.08320402
4644.54710335
4645.18472887
4645.78526957
4646.22822233
4646.51254456
4646.68964132
4646.8117221
4646.9107051
4647.00329278
4647.09513053
4647.18499893
4647.26753544
4647.33619474
4647.38570989
4647.41348079
4647.42036631
4647.40972002
4647.38626339
4647.35448908
4647.31722412
4647.27526638
4647.2276364
4647.17213225
4647.1064249
4647.02921888
4646.94133353
4646.84619446
4646.74894355
4646.65551637
4646.57187976
4646.50350954
4646.45454408
4646.4270174
4645.03942399
4644.79142388
4644.25168945
4643.84141969
4643.66736622
4643.68058909
4643.90275411
4644.37788101
4645.05630516
4645.70916063
4646.19346491
4646.50058863
4646.68715231
4646.81206082
4646.91127431
4647.00353524
4647.09526775
4647.18525899
4647.26804413
4647.33688711
4647.38643365
4647.41404015
4647.42085785
4647.41010052
4647.38658186
4647.35482211
4647.31762224
4647.27576212
4647.2282257
4647.17278458
4647.10709245
4647.02985418
4646.94190925
4646.84670392
4646.74939284
4646.65591551
4646.57222991
4646.50380633
4646.45478699
4646.427108
4644.9888854
4644.71603539
4644.14643316
4643.72571712
4643.55952447
4643.57029675
4643.78022645
4644.26065434
4644.96514857
4645.6535219
4646.16733097
4646.49109343
4646.68477284
4646.81194172
4646.91148065
4647.00359822
4647.09530508
4647.18542237
4647.26840075
4647.33738017
4647.38694557
4647.41428392
4647.42121432
4647.41039066
4647.38682772
4647.35507192
4647.31792249
4647.27613013
4647.22865661
4647.17325555
4647.10756961
4647.0303047
4646.94231549
4646.84706248
4646.74970883
4646.65619645
4646.57247711
4646.50401758
4646.45496187
4646.42718486
4644.96350493
4644.67791187
4644.09360368
4643.66773453
4643.50554929
4643.51503664
4643.71800666
4644.20109439
4644.91855994
4645.62468733
4646.15362454
4646.48600681
4646.68342341
4646.81181082
4646.91155926
4647.00362833
4647.09533046
4647.18552436
4647.26860502
4647.33765699
4647.38722547
4647.41444635
4647.42141951
4647.41056505
4647.38697866
4647.35521602
4647.31810201
4647.27634555
4647.22890208
4647.17351867
4647.10783201
4647.03054983
4646.94253516
4646.84725582
4646.74987932
4646.65634844
4646.57261186
4646.50413453
4646.45506097
4646.42723776
4644.96470482
4644.67917461
4644.09489646
4643.66889474
4643.50656473
4643.51604375
4643.7192062
4644.20242109
4644.91983631
4645.62566647
4646.15422272
4646.48633081
4646.68360238
4646.81192443
4646.91164931
4647.0037081
4647.09540439
4647.18558865
4647.26865884
4647.33770346
4647.38726761
4647.41448249
4647.42146273
4647.41061182
4647.38702767
4647.35527165
4647.31815323
4647.27639531
4647.22894886
4647.17356061
4647.10786802
4647.03058013
4646.94256073
4646.84727806
4646.74989955
4646.65636766
4646.57263098
4646.5041544
4646.45508185
4646.42726209
4644.99246005
4644.71983242
4644.150376
4643.72934376
4643.56272353
4643.57346563
4643.78393709
4644.26464864
4644.96894531
4645.65639456
4646.16907868
4646.49204243
4646.68529691
4646.81227826
4646.91174667
4647.00383434
4647.09552327
4647.18561329
4647.26856144
4647.33751867
4647.38707146
4647.41438424
4647.42134336
4647.41053002
4647.38697278
4647.35522248
4647.31807371
4647.27627843
4647.22879612
4647.17338095
4647.10767752
4647.03039573
4646.94239254
4646.84712979
4646.74977022
4646.65625484
4646.5725352
4646.50407786
4646.4550252
4646.42725811
4645.04528602
4644.79775239
4644.25851439
4643.8478488
4643.67329357
4643.68645364
4643.90924561
4644.3846397
4645.06251911
4645.71374142
4646.19623029
4646.50209218
4646.68798656
4646.81260122
4646.91170581
4647.00392081
4647.09562472
4647.18557162
4647.26830901
4647.33711558
4647.38664394
4647.41422445
4647.42107286
4647.41033066
4647.38682141
4647.35506795
4647.31787128
4647.27600657
4647.22845556
4647.17299157
4647.1072714
4647.03000592
4646.94203859
4646.84681772
4646.74949722
4646.65601527
4646.57232952
4646.50390988
4646.45489622
4646.42723254
4645.11967574
4644.90841484
4644.41631661
4644.02306898
4643.84558383
4643.86208395
4644.0928305
4644.55665178
4645.19313305
4645.79126507
4646.23181174
4646.51450383
4646.69073743
4646.81244042
4646.91128439
4647.00381924
4647.09562057
4647.18542886
4647.26790114
4647.33651083
4647.38600076
4647.41375476
4647.42066621
4647.41003849
4647.38659528
4647.35482976
4647.31756743
4647.27560231
4647.2279523
4647.17241785
4647.10667352
4647.02943133
4646.94151618
4646.8463567
4646.74909343
4646.6556605
4646.57202452
4646.50366026
4646.45470413
4646.42719572
4645.20872583
4645.04241345
4644.6145798
4644.25172494
4644.08350559
4644.10359091
4644.33035532
4644.7693489
4645.3474478
4645.87904044
4646.27022388
4646.52658911
4646.69234147
4646.81126818
4646.91021923
4647.00335494
4647.09543824
4647.18515526
4647.26735655
4647.33574952
4647.38520271
4647.41305956
4647.42017032
4647.40969433
4647.38633104
4647.35455329
4647.31719879
4647.27510385
4647.22732677
4647.17170116
4647.10592229
4647.02870622
4646.9408555
4646.84577261
4646.7485815
4646.65521042
4646.57163786
4646.50334442
4646.45446261
4646.42715863
4645.30184751
4645.18347015
4644.8335613
4644.5161042
4644.36671761
4644.39003846
4644.60268193
4645.00148889
4645.50671392
4645.96428225
4646.30471698
4646.53536676
4646.69172299
4646.808651
4646.90831306
4647.0024178
4647.09502364
4647.18474805
4647.26671304
4647.33491037
4647.3843431
4647.41229861
4647.4196611
4647.40935445
4647.38607568
4647.35427587
4647.31681209
4647.2745637
4647.22663696
4647.17090066
4647.10507534
4647.02788214
4646.94010222
4646.84510567
4646.74799689
4646.65469618
4646.57119645
4646.50298406
4646.45419037
4646.42712888
4645.38667183
4645.30973882
4645.04075026
4644.78033459
4644.65740313
4644.68352979
4644.87342536
4645.21987328
4645.64649445
4646.03287876
4646.32848305
4646.53819418
4646.68782648
4646.80438908
4646.90552316
4647.0010351
4647.09439047
4647.18424869
4647.26605038
4647.33409997
4647.38353094
4647.41170201
4647.41922389
4647.40908664
4647.38588782
4647.35404711
4647.31646712
4647.2740461
4647.2259558
4647.17009286
4647.10420747
4647.02702893
4646.93931966
4646.84441228
4646.74738942
4646.65416182
4646.57073818
4646.50260902
4646.45391285
4646.42710901
4645.45129748
4645.39851774
4645.19747627
4644.99603499
4644.90343318
4644.93185267
4645.09479172
4645.38632861
4645.74304694
4646.07329683
4646.33700012
4646.53343772
4646.68059856
4646.79869998
4646.90209091
4646.99937659
4647.09364182
4647.18374967
4647.26547085
4647.33342778
4647.38284342
4647.41122948
4647.41893646
4647.40895639
4647.38582315
4647.35393691
4647.31621157
4647.27360836
4647.22536115
4647.16936353
4647.10340331
4647.02622706
4646.93858176
4646.84375847
4646.74681722
4646.65365821
4646.5703061
4646.50225154
4646.45365453
4646.42709895
4645.48921246
4645.43887038
4645.27688651
4645.11712255
4645.04741285
4645.07790898
4645.22069046
4645.47314631
4645.78585802
4646.08430975
4646.33179982
4646.52385855
4646.67214357
4646.79289212
4646.89886454
4646.99787609
4647.0930166
4647.18338708
4647.2650393
4647.33295155
4647.3824234
4647.41095127
4647.41882026
4647.40896546
4647.38587648
4647.35393243
4647.31606956
4647.27322344
4647.22490061
4647.16876809
4647.10272617
4647.02553816
4646.93794286
4646.84319088
4646.74631733
4646.65321378
4646.56991952
4646.50192225
4646.45340423
4646.42706839
4645.47912819
4645.40824772
4645.24213539
4645.08830393
4645.02178825
4645.05423147
4645.19655701
4645.44560024
4645.75665517
4646.05705903
4646.31111363
4646.510169
4646.66385082
4646.7884746
4646.89684209
4646.99715655
4647.0928838
4647.18346944
4647.26487943
4647.33299371
4647.38251943
4647.4111354
4647.41909907
4647.40930534
4647.38620732
4647.35417847
4647.31618546
4647.27323851
4647.22474849
4647.16850044
4647.10238016
4647.02516639
4646.93759108
4646.84287719
4646.74604102
4646.65296956
4646.56970372
4646.50173702
4646.4532622
4646.42702294
4155.8426788
4155.74776399
4155.56615136
4155.40333825
4155.33407873
4155.36777843
4155.5147693
4155.77108713
4156.09249268
4156.406193
4156.67184814
4156.87926881
4157.03846384
4157.16635778
4157.27657288
4157.37820894
4157.47524146
4157.56729912
4157.65059651
4157.71982429
4157.77009859
4157.79879246
4157.80612949
4157.79525305
4157.77103363
4157.73815886
4157.69976503
4157.65697617
4157.60858723
4157.55275676
4157.48690269
4157.40951526
4157.32121432
4157.2253239
4157.12704633
4157.03247626
4156.94782778
4156.87878568
4156.82952168
4156.80305597
4155.83772701
4155.76041247
4155.59565017
4155.44400994
4155.38159813
4155.41569596
4155.557343
4155.80336927
4156.11114264
4156.41538318
4156.67551586
4156.87978278
4157.03720452
4157.16435729
4157.27440659
4157.37620299
4157.47362967
4157.5661945
4157.64993919
4157.71946385
4157.76989806
4157.79861915
4157.80591607
4157.79498253
4157.77073972
4157.73788319
4157.69951786
4157.65676509
4157.60846066
4157.55266728
4157.48682331
4157.40941603
4157.32104244
4157.2250858
4157.12675614
4157.03215012
4156.94746777
4156.87844089
4156.82920605
4156.80266165
4155.79026944
4155.69781949
4155.5014989
4155.32173688
4155.24498984
4155.27845972
4155.43468889
4155.70739774
4156.04680642
4156.37931492
4156.65909517
4156.87396952
4157.0355985
4157.16367464
4157.27360491
4157.37520393
4157.47271436
4157.56562733
4157.6498115
4157.71961615
4157.77021316
4157.79888116
4157.80603886
4157.79497009
4157.77066351
4157.73781995
4157.69952167
4157.65679473
4157.60868139
4157.55296388
4157.48715148
4157.40972235
4157.32127031
4157.22523108
4157.12682889
4157.03216385
4156.94743173
4156.87839145
4156.82916689
4156.80255938
4155.71703587
4155.59562173
4155.34768971
4155.128325
4155.03209763
4155.06368004
4155.23875879
4155.54797855
4155.93651327
4156.31628246
4156.63007144
4156.86403519
4157.03373621
4157.16378616
4157.27355292
4157.37474957
4157.47218138
4157.56537974
4157.64999087
4157.72012935
4157.77080665
4157.79941346
4157.80636472
4157.7951177
4157.77071495
4157.73786509
4157.69965202
4157.65704818
4157.60907007
4157.55344188
4157.48765994
4157.41020045
4157.32166368
4157.2255316
4157.12704614
4157.03231583
4156.94752623
4156.87845317
4156.82920947
4156.80249726
4155.62864103
4155.47619156
4155.17905107
4154.93356227
4154.82929815
4154.85957041
4155.04147967
4155.37289284
4155.80579723
4156.23662294
4156.59107812
4156.84917788
4157.02953371
4157.1631187
4157.2732432
4157.37418354
4157.47164509
4157.56520528
4157.65030811
4157.72082877
4157.77161522
4157.80015422
4157.80685239
4157.79541245
4157.77089527
4157.73800681
4157.69991648
4157.65744083
4157.60958578
4157.55404141
4157.48828568
4157.41078607
4157.32216213
4157.22593535
4157.12736449
4157.03256783
4156.94771992
4156.87860299
4156.82932724
4156.80248773
4155.53424112
4155.35432723
4155.0197461
4154.76334907
4154.65985955
4154.68805649
4154.86783356
4155.20613419
4155.67039206
4156.1491635
4156.54611827
4156.83068823
4157.02338103
4157.16144322
4157.27252079
4157.3734092
4157.47104735
4157.56505999
4157.65069639
4157.72160858
4157.77251503
4157.80084519
4157.80744759
4157.79582514
4157.77119606
4157.73830492
4157.70029204
4157.65793573
4157.61019117
4157.55472198
4157.48898296
4157.41143629
4157.32272791
4157.22640981
4157.12775814
4157.03289828
4156.9479941
4156.87882734
4156.82951203
4156.80252849
4155.44534458
4155.24211442
4154.8833896
4154.62735938
4154.53030053
4154.55600224
4154.72743164
4155.06095152
4155.54419134
4156.06406043
4156.50090647
4156.81114926
4157.01624482
4157.1590689
4157.27143963
4157.37253186
4157.47041653
4157.56492153
4157.65109279
4157.72237242
4157.77339886
4157.80167072
4157.80807289
4157.79628617
4157.77156035
4157.73867375
4157.70072018
4157.65846532
4157.61081599
4157.55540839
4157.48967636
4157.4120812
4157.32329572
4157.22689617
4157.12817336
4157.03325755
4156.94830288
4156.87908744
4156.82973
4156.80260162
4155.37192697
4155.14982865
4154.77665549
4154.52351378
4154.42930105
4154.45240497
4154.61842786
4154.9443596
4155.43910911
4155.99100602
4156.4613252
4156.79346474
4157.00940071
4157.15655464
4157.2702385
4157.37170567
4157.46981534
4157.56479699
4157.65143723
4157.72303435
4157.77416607
4157.80242328
4157.80863726
4157.79671855
4157.77191586
4157.73903272
4157.70112804
4157.65895463
4157.61138014
4157.5560173
4157.49028516
4157.41264554
4157.32379578
4157.22732978
4157.12854972
4157.03358879
4156.94859333
4156.87933624
4156.82994007
4156.80268709
4155.32061451
4155.0844651
4154.70139775
4154.44801838
4154.35061708
4154.37152472
4154.53779838
4154.8603869
4155.36323431
4155.93789382
4156.43229086
4156.78023062
4157.00410331
4157.15450336
4157.26923885
4157.37104787
4157.46938825
4157.564711
4157.65169548
4157.72353162
4157.77473837
4157.80311143
4157.80907319
4157.79705975
4157.77220266
4157.73930284
4157.70145274
4157.65933742
4157.61181402
4157.55647933
4157.49074274
4157.41306835
4157.3241711
4157.22765764
4157.12883706
4157.03384433
4156.94882077
4156.87953359
4156.83010819
4156.80276561
4155.29481464
4155.05080484
4154.66154949
4154.40511008
4154.30614602
4154.32588743
4154.4921499
4154.81570563
4155.32369579
4155.9103215
4156.41720936
4156.7733065
4157.00130502
4157.15340932
4157.26871699
4157.37071445
4157.46920693
4157.5646955
4157.65185575
4157.72381265
4157.77505716
4157.80347197
4157.80932672
4157.79726595
4157.77237954
4157.73942231
4157.70165108
4157.65956752
4157.6120693
4157.55674575
4157.49100335
4157.41330746
4157.32438354
4157.22784367
4157.12900131
4157.03399208
4156.94895413
4156.87965135
4156.83021031
4156.80282124
4155.29600603
4155.05189737
4154.66247852
4154.40588271
4154.30675998
4154.3264941
4154.4929571
4154.81662239
4155.32471285
4155.9112138
4156.41780031
4156.77365253
4157.0015053
4157.15354036
4157.26882319
4157.37080837
4157.46928676
4157.56476388
4157.6519132
4157.72386065
4157.77510051
4157.8035185
4157.80937283
4157.79731501
4157.77243205
4157.73949811
4157.70170673
4157.65962156
4157.61212044
4157.55679224
4157.49104391
4157.41334247
4157.32441375
4157.22787043
4157.12902608
4157.03401585
4156.94897794
4156.87967539
4156.83023465
4156.80284516
4155.32417482
4155.08781861
4154.7042986
4154.4503679
4154.35263815
4154.37349459
4154.54018489
4154.86320352
4155.36630433
4155.9405306
4156.43402697
4156.78124295
4157.00469264
4157.15489744
4157.26955336
4157.37132879
4157.46963431
4157.56491783
4157.65186776
4157.72367651
4157.77486934
4157.80325685
4157.8092114
4157.79720567
4157.77235637
4157.73945836
4157.70161569
4157.6594982
4157.61196665
4157.55661812
4157.49086412
4157.41317309
4157.32426154
4157.22773801
4157.12891158
4157.03391595
4156.94889269
4156.87960644
4156.8301821
4156.80283822
4155.37778765
4155.15552662
4154.78186652
4154.52791252
4154.4332976
4154.45632151
4154.62284304
4154.94937317
4155.44427932
4155.99527352
4156.46410304
4156.7950805
4157.01034132
4157.1571861
4157.27074688
4157.3721658
4157.47021974
4157.5651416
4157.65172203
4157.72327247
4157.77438459
4157.80264112
4157.80886447
4157.79695942
4157.7721688
4157.73928886
4157.70139559
4157.65921836
4157.61163072
4157.55624577
4157.49048516
4157.41281873
4157.32394604
4157.22746404
4157.12867462
4157.03370909
4156.94871443
4156.8794593
4156.830066
4156.80281061
4155.45334008
4155.25019135
4154.89137662
4154.63454
4154.53696285
4154.56258242
4154.73459649
4155.06856324
4155.55145612
4156.06976902
4156.50456371
4156.81326824
4157.01748198
4157.15990944
4157.27212729
4157.37315561
4157.47096375
4157.56539543
4157.65148602
4157.72270143
4157.77370351
4157.80197996
4157.80838575
4157.79661735
4157.77190824
4157.73902587
4157.70108623
4157.65882584
4157.61115839
4157.55572097
4157.48995076
4157.41231989
4157.32350368
4157.22708338
4157.12834823
4157.03342694
4156.94847409
4156.87926218
4156.82991043
4156.80277865
4155.54405915
4155.36462782
4155.03066397
4154.77381614
4154.67015084
4154.69816628
4154.87811536
4155.21629086
4155.67952701
4156.15604129
4156.55045465
4156.83319828
4157.02485587
4157.16245941
4157.27337178
4157.37416315
4157.47172925
4157.56565388
4157.65119425
4157.72202459
4157.77289739
4157.80125479
4157.80784093
4157.79624022
4157.7716337
4157.73877219
4157.70074923
4157.65838264
4157.61061579
4157.55511043
4157.4893259
4157.41173556
4157.32299012
4157.22664678
4157.12798077
4157.03311497
4156.94821449
4156.87905352
4156.82974788
4156.80275991
4155.6398566
4155.4883981
4155.19273355
4154.94736593
4154.84325297
4154.87324445
4155.05484412
4155.38528336
4155.81645829
4156.24433432
4156.59588818
4156.85195432
4157.03119142
4157.16428106
4157.2742194
4157.37505193
4157.47244333
4157.56590953
4157.65090241
4157.72132494
4157.77206536
4157.80059197
4157.80731432
4157.79590115
4157.771409
4157.73854253
4157.70044924
4157.6579604
4157.61007957
4157.5544937
4157.48868728
4157.41113803
4157.32247249
4157.2262168
4157.12762982
4157.03282748
4156.9479855
4156.87887704
4156.82961534
4156.80276995
4155.72921483
4155.60927789
4155.36360291
4155.14514532
4155.04955055
4155.0808092
4155.25486479
4155.56237435
4155.94821733
4156.32449845
4156.63515496
4156.86698903
4157.03553551
4157.16505997
4157.27459741
4157.37571468
4157.47307703
4157.56617633
4157.65066836
4157.72069803
4157.77131551
4157.79991032
4157.80688325
4157.79566566
4157.77128959
4157.73845628
4157.70024273
4157.65762482
4157.60961755
4157.55394418
4157.48810767
4157.41059462
4157.32201232
4157.2258491
4157.12734603
4157.03261038
4156.94782874
4156.87876624
4156.82953989
4156.80281768
4155.80302636
4155.71240404
4155.51898261
4155.34071638
4155.26473495
4155.29763702
4155.45257692
4155.72298688
4156.05906391
4156.38776251
4156.66431574
4156.8770224
4157.03746506
4157.16498632
4157.27471688
4157.37623695
4157.47368247
4157.56649614
4157.65055747
4157.72024446
4157.77076721
4157.79942128
4157.80660024
4157.79556267
4157.77128446
4157.738455
4157.70015316
4157.65740994
4157.60926617
4157.55350238
4157.48763303
4157.41014675
4157.32164578
4157.22557359
4157.12715318
4157.03248279
4156.9477593
4156.8787305
4156.82952496
4156.80289395
4155.85076523
4155.77547818
4155.61404049
4155.46429075
4155.40272161
4155.43612086
4155.57623775
4155.81957477
4156.12362466
4156.42391449
4156.6807863
4156.8828825
4157.0391084
4157.16571008
4157.27555268
4157.37727703
4157.47464893
4157.56712222
4157.65078176
4157.72015066
4157.77049708
4157.79919737
4157.80651377
4157.79561106
4157.77139354
4157.73855286
4157.70018198
4157.65739864
4157.60907094
4157.5532345
4157.48733214
4157.40986663
4157.32144022
4157.22545016
4157.12710241
4157.03249012
4156.94781615
4156.87879989
4156.82958463
4156.80298602
4155.85578649
4155.76302054
4155.5850523
4155.4243316
4155.35600572
4155.3889446
4155.5342617
4155.78767377
4156.10512566
4156.41477436
4156.67712975
4156.88236284
4157.0403586
4157.16771384
4157.27775853
4157.37933681
4157.47632381
4157.56829359
4157.65170212
4157.72055992
4157.7707366
4157.79940448
4157.80676055
4157.79591618
4157.77172253
4157.73886072
4157.70046071
4157.65760736
4157.60923131
4157.55335276
4157.48742813
4157.40997525
4157.32160907
4157.22568662
4157.12739427
4157.03281545
4156.9481715
4156.87913193
4156.82987889
4156.80334742
3666.28888361
3666.18261361
3666.00261152
3665.83927387
3665.77115581
3665.80414576
3665.94913223
3666.20014042
3666.51257082
3666.81585881
3667.07142589
3667.27119236
3667.42565856
3667.55085256
3667.65989208
3667.76156561
3667.85978035
3667.95398503
3668.03987931
3668.11133656
3668.16301844
3668.19181745
3668.19788248
3668.18484377
3668.1584126
3668.12392628
3668.0847982
3668.04206467
3667.99457627
3667.93970045
3667.87439397
3667.79663544
3667.70678478
3667.60847298
3667.50730221
3667.40975899
3667.32239948
3667.25116428
3667.20031909
3667.17264132
3666.28178271
3666.20204673
3666.05237753
3665.91341038
3665.85916803
3665.89341448
3666.02806164
3666.25800067
3666.54357479
3666.82776059
3667.07355033
3667.2687703
3667.42156096
3667.54651841
3667.65593321
3667.75825237
3667.85724356
3667.95227192
3668.03887487
3668.11084024
3668.16280307
3668.19166621
3668.19768502
3668.18456683
3668.15808148
3668.12357866
3668.08443655
3668.04172228
3667.99423766
3667.93936128
3667.87405854
3667.79628318
3667.70634769
3667.60796115
3667.50674592
3667.40917948
3667.32180617
3667.25062621
3667.19986608
3667.17245821
3666.23253053
3666.13427395
3665.94578632
3665.77450206
3665.70765777
3665.74214837
3665.89125354
3666.15107331
3666.4703498
3666.78273336
3667.04870585
3667.256463
3667.41513415
3667.54245407
3667.65276065
3667.75556637
3667.85518873
3667.95102978
3668.03842155
3668.11094661
3668.16318546
3668.19201694
3668.19788465
3668.18460609
3668.15801759
3668.12349816
3668.08439232
3668.04174121
3667.99435201
3667.93953108
3667.8742421
3667.79642673
3667.70639047
3667.60791398
3667.50662772
3667.40901105
3667.32159848
3667.25043785
3667.19974558
3667.17242497
3666.15728707
3666.0193428
3665.75741695
3665.53153997
3665.44463424
3665.47850498
3665.64770155
3665.95606989
3666.33662199
3666.70332393
3667.00745661
3667.23825691
3667.4077775
3667.53890519
3667.6501882
3667.75336185
3667.85351243
3667.95015131
3668.03836763
3668.11148825
3668.16393491
3668.19271102
3668.19834541
3668.18484624
3668.15812462
3668.12357792
3668.08452948
3668.04197713
3667.99469721
3667.93994481
3667.8746671
3667.79679796
3667.70665087
3667.60807002
3667.50669611
3667.40901909
3667.32155949
3667.25039424
3667.19972625
3667.17235221
3666.06873451
3665.89097779
3665.55219699
3665.25322133
3665.16773147
3665.20032992
3665.41322908
3665.74592485
3666.18752753
3666.6120838
3666.95885026
3667.21650306
3667.39888178
3667.53495534
3667.64745762
3667.75105919
3667.85180977
3667.94932663
3668.03844752
3668.11221215
3668.16488482
3668.19357453
3668.19893478
3668.18519889
3668.15832767
3668.12374636
3668.08477093
3668.04233269
3667.99516351
3667.94047921
3667.87520626
3667.79727018
3667.70701247
3667.60832533
3667.506863
3667.40912576
3667.32162069
3667.25043853
3667.19977495
3667.17231133
3665.97534477
3665.76319253
3665.31427549
3664.91242804
3664.89159388
3664.92379635
3665.23563808
3665.57310874
3666.0410628
3666.51882603
3666.90754077
3667.19273594
3667.38878793
3667.53033213
3667.64449714
3667.74860256
3667.85008114
3667.94855223
3668.03860115
3668.11301674
3668.16591252
3668.19452948
3668.19961067
3668.18564664
3668.15862556
3668.12390639
3668.08511367
3668.0427938
3667.99572717
3667.94110298
3667.87582625
3667.79781486
3667.70745192
3667.60866343
3667.50711862
3667.40932554
3667.32177891
3667.25057256
3667.1999008
3667.17233137
3665.88681842
3665.64619152
3665.05165856
3664.61304026
3664.68661196
3664.71632035
3665.13209737
3665.48455575
3665.90923909
3666.43188979
3666.85845436
3667.16923607
3667.37842094
3667.52540353
3667.64142434
3667.74622312
3667.84843555
3667.94785511
3668.03880078
3668.11380018
3668.16690631
3668.19538893
3668.20029992
3668.1861376
3668.1589915
3668.12429838
3668.08552719
3668.04330605
3667.99632915
3667.94175501
3667.87646561
3667.79837956
3667.70792184
3667.60904381
3667.50742724
3667.40958595
3667.32200313
3667.25077031
3667.20008211
3667.17240283
3665.8134764
3665.55249792
3664.85561024
3664.44180323
3664.56569762
3664.59235572
3665.06584017
3665.44105995
3665.80345695
3666.35945097
3666.81672424
3667.14871287
3667.36907571
3667.52084344
3667.63859821
3667.74415106
3667.84701937
3667.9472768
3668.03898692
3668.11448211
3668.16776396
3668.19619952
3668.20092473
3668.1866005
3668.15935537
3668.12468366
3668.08593891
3668.0437978
3667.99689077
3667.94235047
3667.87704456
3667.79889214
3667.70835693
3667.60940623
3667.50773235
3667.40985294
3667.32224137
3667.25098449
3667.20027711
3667.17250001
3665.7624993
3665.48958267
3664.76153687
3664.36556854
3664.51116946
3664.53577681
3665.01386828
3665.39018137
3665.73157127
3666.30800372
3666.78665293
3667.13363046
3667.36206504
3667.51735926
3667.63645115
3667.74262581
3667.84600104
3667.9468767
3668.03914236
3668.11499439
3668.16840071
3668.19683822
3668.20140806
3668.18696882
3668.15965735
3668.12501521
3668.08627767
3668.04419257
3667.9973328
3667.94281319
3667.87749043
3667.79928751
3667.70869597
3667.60969328
3667.50797923
3667.41007338
3667.32244214
3667.25116734
3667.20044384
3667.1725936
3665.73702774
3665.45848234
3664.7262624
3664.33325564
3664.48438217
3664.50751644
3664.97868432
3665.35194277
3665.69571314
3666.28172239
3666.77118722
3667.12580225
3667.35839548
3667.5155326
3667.63534075
3667.74185417
3667.845514
3667.94670311
3668.0392564
3668.11528585
3668.16875734
3668.19719826
3668.20168994
3668.1871924
3668.15985076
3668.12527074
3668.08649285
3668.04443406
3667.99759869
3667.94308513
3667.87774986
3667.79951702
3667.70889372
3667.60986244
3667.50812711
3667.41020752
3667.32256629
3667.25128207
3667.20054923
3667.17265933
3665.73823255
3665.45942335
3664.72673052
3664.33357201
3664.48521494
3664.50837327
3664.98012043
3665.35339423
3665.69673431
3666.28264494
3666.77179308
3667.12615622
3667.35860406
3667.51567571
3667.63546112
3667.7419598
3667.845607
3667.94678022
3668.039318
3668.11533591
3668.16880263
3668.19724654
3668.20173918
3668.1872446
3668.15990574
3668.12530589
3668.08655218
3668.04449327
3667.99765484
3667.94313607
3667.87779441
3667.7995555
3667.70892679
3667.60989197
3667.5081548
3667.41023427
3667.32259314
3667.2513088
3667.20057571
3667.1726836
3665.76611132
3665.4927039
3664.76316164
3664.36668495
3664.51393056
3664.5385858
3665.01832309
3665.39463938
3665.73464523
3666.31073236
3666.78843334
3667.13466517
3667.36267392
3667.51778299
3667.63680465
3667.74294727
3667.84627759
3667.94710733
3668.03932558
3668.11514374
3668.16853815
3668.19698434
3668.20155579
3668.18712522
3668.15982353
3668.12519041
3668.08645606
3668.04436872
3667.99750112
3667.94296592
3667.87762369
3667.7994027
3667.70879517
3667.60978183
3667.50806223
3667.41015365
3667.32252277
3667.25124825
3667.20052424
3667.17266773
3665.81941782
3665.55796825
3664.87077382
3664.47360007
3664.60525256
3664.63050285
3665.10030739
3665.45867578
3665.80867756
3666.36387607
3666.81957082
3667.15035731
3667.37004484
3667.52151776
3667.63916164
3667.74467364
3667.84747466