/*--------------------------------*- C++ -*----------------------------------*\
| =========                 |                                                 |
| \\      /  F ield         | OpenFOAM: The Open Source CFD Toolbox           |
|  \\    /   O peration     | Version:  3.0.1                                 |
|   \\  /    A nd           | Web:      www.OpenFOAM.org                      |
|    \\/     M anipulation  |                                                 |
\*---------------------------------------------------------------------------*/
FoamFile
{
    version     2.0;
    format      ascii;
    class       volScalarField;
    location    "2.2";
    object      alpha.air;
}
// * * * * * * * * * * * * * * * * * * * * * * * * * * * * * * * * * * * * * //

dimensions      [0 0 0 0 0 0 0];

internalField   nonuniform List<scalar> 
7968
(
1.23096678144e-23
1.23416101509e-22
3.27407481689e-22
2.85802966877e-22
5.14466639486e-22
1.91845252649e-22
8.6874641804e-23
9.1417947203e-24
1.72990263899e-25
6.9920473456e-28
3.32116656319e-28
9.25110499484e-26
7.01155695309e-24
4.51224155695e-23
1.14517892872e-22
3.77431714009e-22
4.48067540652e-22
3.92578657997e-22
2.48211707957e-22
3.23106094219e-23
1.20576154418e-22
7.59388170831e-22
1.90456500233e-21
1.65006538875e-21
1.75085411391e-21
1.02489168216e-21
2.2775980707e-22
3.16929021558e-23
4.19401411326e-24
9.95873084195e-25
9.98700404023e-25
3.58989921473e-24
1.72032698406e-23
7.89533649186e-23
3.38451929425e-22
9.86079653709e-22
1.25379681428e-21
1.61736390123e-21
6.37439628866e-22
2.52710503962e-22
3.05111510484e-22
1.86798007754e-21
3.63205325729e-21
2.79268121495e-21
1.26351064776e-21
1.41766924873e-22
8.46991813774e-24
5.34876632291e-25
3.91142751427e-26
6.86059647153e-27
6.9312553648e-27
3.43536912396e-26
2.9992338299e-25
2.68176516065e-24
2.67706330428e-23
2.64879327755e-22
1.21672007271e-21
1.63449558525e-21
1.64589710669e-21
4.32711800877e-22
5.54500411535e-22
1.82955980263e-21
2.72371378599e-21
1.31125580489e-21
1.06308775709e-22
4.00845897996e-24
1.00457929006e-25
3.68745529814e-27
2.5415349484e-28
4.41555796554e-29
4.28370017794e-29
2.00142207059e-28
1.77573005629e-27
3.09711744902e-26
8.55316263728e-25
1.58709276545e-23
2.30782344879e-22
9.97202691542e-22
1.2389322498e-21
5.07258029854e-22
4.59929696297e-22
2.54607682124e-21
1.9437239532e-21
1.65737005661e-22
4.35705035901e-24
6.63927259757e-26
1.13698772039e-27
3.19914768214e-29
2.06435382539e-30
3.7852931271e-31
3.29914443689e-31
1.33816065165e-30
1.24252720049e-29
2.95773241835e-28
1.50257596428e-26
7.87794378119e-25
1.94667544878e-23
3.1999815331e-22
1.09279026086e-21
3.50336733035e-22
5.57623137933e-22
1.14254122267e-21
5.08608556328e-22
1.3396726504e-23
1.51383732236e-25
1.61837831526e-27
1.98979004037e-29
3.98457741748e-31
2.33613349307e-32
4.90730270192e-33
3.37458202567e-33
9.69808402395e-33
9.70953678608e-32
3.86399456995e-30
2.83036641901e-28
2.38787801614e-26
1.61808320464e-24
4.48554921054e-23
4.5850265246e-22
1.90554945846e-22
2.49224474765e-22
4.45364367879e-22
6.21344676107e-23
8.36311853256e-25
7.23566268938e-27
6.33977728085e-29
5.71121693221e-31
7.29405808553e-33
5.30549187813e-34
1.59427064279e-34
1.31501341531e-34
1.35338373953e-34
9.23242757182e-34
7.07660148343e-32
7.27701103915e-30
7.58158448558e-28
8.49923033628e-26
5.54516842762e-24
1.21145223201e-22
3.72712747751e-23
6.80680629366e-23
1.37692274042e-22
5.04562992959e-24
4.11767713067e-26
3.43726288864e-28
2.74441215661e-30
2.02307483536e-32
8.34927070082e-34
1.604614883e-34
7.23878538872e-34
4.14631747785e-34
4.06278183617e-36
1.98985608626e-35
1.7477242711e-33
2.41463988123e-31
3.15158765316e-29
4.27737145074e-27
5.61909913467e-25
2.15635366023e-23
4.17304441694e-24
1.11066602526e-23
4.18504652319e-23
6.25332019188e-25
4.21927981702e-27
3.05502980812e-29
2.06451543103e-31
1.37230475114e-33
2.30914504542e-34
9.81173120581e-36
1.9366188684e-35
1.0579435275e-35
1.90025160941e-37
3.03395682782e-36
6.70003413449e-35
1.09069431108e-32
1.57432144612e-30
2.22742580344e-28
3.65047066282e-26
2.49879883598e-24
2.71452207196e-26
1.15168664785e-24
1.2193150341e-23
1.23741392381e-25
7.85476446119e-28
5.28734730103e-30
3.27514136193e-32
3.58547374262e-34
3.01468296681e-34
7.63024656188e-36
1.42774008525e-37
8.14075292121e-38
1.37351349822e-36
1.49512692878e-35
1.1620795701e-35
1.46155002287e-33
2.1740931904e-31
3.18710117156e-29
5.52551476819e-27
5.4938202094e-25
6.95888602732e-28
5.60573420483e-25
8.33755985187e-24
7.6870939807e-26
4.72086103599e-28
3.069814118e-30
1.82102190097e-32
2.06158728955e-34
3.73307960927e-34
8.65557777704e-36
9.9246836497e-38
4.28200274876e-39
2.420848105e-37
7.10862515501e-36
1.15298604142e-35
1.87304961918e-33
2.80746253726e-31
4.16203709523e-29
7.3483142979e-27
7.14994667146e-25
7.95578269827e-28
2.94677475511e-24
1.6516710873e-23
1.81033462547e-25
1.08746226832e-27
7.00318828472e-30
4.15262593426e-32
2.34876947461e-34
2.94128138342e-36
1.60880106234e-37
7.99941733541e-36
1.6223511942e-37
1.07002594819e-38
5.56274804329e-37
1.01390119331e-34
1.68879316589e-32
2.51187334194e-30
3.69139256393e-28
6.38266852589e-26
4.04385298738e-24
3.25415998494e-26
2.3374374904e-23
5.84532405993e-23
9.69152432566e-25
5.80006245784e-27
3.82592250174e-29
2.41228606683e-31
1.39707386279e-33
1.51140870737e-35
3.4928946922e-36
2.69139482448e-34
5.39517369967e-36
1.18024161149e-36
2.55566895171e-35
2.01398273337e-33
2.57502942045e-31
3.44722523459e-29
4.92427250869e-27
6.10908667729e-25
1.80587292696e-23
2.59573864903e-24
1.09328249737e-22
2.3671706572e-22
6.93149949929e-24
6.09299748095e-26
4.55753323501e-28
3.95437141446e-30
4.89794935661e-32
1.24928150086e-33
7.60483094799e-35
1.92948677207e-35
3.15284786425e-35
2.44623086614e-34
3.68032421638e-33
1.19479948457e-31
7.98071042833e-30
7.53025085195e-28
8.52982240838e-26
4.43909027113e-24
7.95675077589e-23
1.77534215776e-23
1.84781675735e-22
7.22376821322e-22
5.88436828903e-23
1.18921989292e-24
1.27410925986e-26
1.97580347529e-28
4.83300076511e-30
1.88360635425e-31
1.30220388067e-32
3.1756749021e-33
5.4869858889e-33
4.29257481188e-32
5.58203123711e-31
1.2408551426e-29
4.78630260139e-28
3.00997460002e-26
1.56555045417e-24
2.69279441332e-23
1.15769697462e-22
3.47674335346e-23
4.07415811537e-22
1.12982800017e-21
4.70688420819e-22
2.17103116463e-23
6.42961962725e-25
1.69980308346e-26
5.67766590221e-28
2.59796102199e-29
1.91753077401e-30
4.80644138754e-31
8.3082380808e-31
6.51976218853e-30
7.87711619133e-29
1.44749544966e-27
4.06879235129e-26
1.0073355508e-24
1.3961746127e-23
2.11180875041e-22
5.11087274335e-22
1.0314085703e-22
4.53927972224e-22
1.81431056884e-21
1.20585817931e-21
3.41017909349e-22
2.52637970192e-23
1.70549723177e-24
7.14877849139e-26
3.50967714484e-27
2.72391662287e-28
7.08129152487e-29
1.22540043262e-28
9.66310669784e-28
1.14608727647e-26
1.76849979494e-25
2.31469055775e-24
1.60943931325e-23
1.6858528916e-22
4.49031958514e-22
4.94704852359e-22
1.17756230369e-22
4.43266204667e-22
1.59080077861e-21
2.25280781905e-21
1.25173629392e-21
5.45122746026e-22
7.90384951703e-23
7.06528816785e-24
5.39535960299e-25
4.45703613816e-26
1.22346833564e-26
2.1295190378e-26
1.65015423302e-25
1.3187791629e-24
8.3385037832e-24
4.28176516164e-23
2.42074489652e-22
4.67104752793e-22
8.90344312188e-22
4.34760799634e-22
9.51641657048e-23
1.82550841612e-22
1.00459600773e-21
1.01959917653e-21
1.93040857213e-21
1.38062004951e-21
5.05780738007e-22
1.69704513775e-22
2.62186875469e-23
3.70157899843e-24
1.2859237678e-24
1.93534112725e-24
9.03602796268e-24
3.52607382771e-23
1.34670617503e-22
1.7024259715e-22
5.97399752838e-22
6.87162211541e-22
4.14028273265e-22
2.6301476014e-22
8.96119528576e-23
2.42147519318e-23
1.83127154321e-22
4.59011408922e-22
4.73807245276e-22
3.61571351719e-22
2.08466797438e-22
4.64851117663e-23
5.46640102397e-24
8.28137604931e-26
7.30146769074e-28
1.87799513012e-27
7.76545438118e-25
7.86677909004e-24
4.14879401556e-23
1.08174561694e-22
1.62452289141e-22
1.54552756475e-22
9.98097017105e-23
9.1599967527e-23
1.17844987681e-23
7.36948964947e-21
6.01819570395e-20
1.65392467448e-19
1.49887289712e-19
3.62850475421e-19
1.80514535922e-19
1.44213754177e-19
4.52046284326e-20
1.32996047543e-20
4.16747001124e-21
4.05558127332e-21
9.80298398302e-21
3.43271016157e-20
7.79856753521e-20
1.18022257297e-19
2.93905015682e-19
2.7955946264e-19
2.15235637705e-19
1.3845905115e-19
2.2171644382e-20
5.92867368084e-20
2.47896245423e-19
5.71830460074e-19
4.45882822422e-19
5.27527549755e-19
4.06081292432e-19
1.16731921354e-19
2.20429614169e-20
4.13693011302e-21
1.26823284629e-21
1.27373144379e-21
3.60140757177e-21
1.27425811801e-20
4.40717725227e-20
1.49385135834e-19
3.56761363917e-19
3.57680288986e-19
4.98672763063e-19
1.97476001688e-19
1.42847004431e-19
1.55065037448e-19
5.57939179141e-19
9.42019124554e-19
7.04282003331e-19
3.80370778206e-19
5.33269479829e-20
4.22670299353e-21
3.81549941055e-22
3.97147104104e-23
9.21218880733e-24
9.06517605785e-24
3.58743816646e-23
2.27881461553e-22
1.44577877588e-21
1.0994604901e-20
8.85013492071e-20
3.46733933464e-19
3.96104733663e-19
5.12420202233e-19
2.4421129173e-19
3.28318259828e-19
4.90428883876e-19
6.36159170799e-19
3.70209342869e-19
3.67003219854e-20
1.71185687506e-21
5.4001442752e-23
3.45622420332e-24
3.84442387494e-25
9.67130691798e-26
8.90755479245e-26
2.94320102798e-25
1.77820065024e-24
1.83552120282e-23
3.99653417416e-22
5.8402406973e-21
7.31178089729e-20
2.67593315947e-19
3.57200916135e-19
3.24409636412e-19
3.02545542141e-19
7.64163539147e-19
5.56938048028e-19
5.55823571201e-20
1.74820597124e-21
3.1690845129e-23
9.13376699489e-25
8.05364543213e-26
1.13815454463e-26
3.74256193826e-27
1.94896233787e-27
3.57002340013e-27
1.65049329501e-26
2.17150565253e-25
7.87809972113e-24
3.53965119993e-22
7.1440989604e-21
1.06946134249e-19
3.97152081177e-19
2.70161596288e-19
4.68063447884e-19
3.63875394545e-19
1.70716853271e-19
5.40786063576e-21
6.94076992817e-23
1.13189132719e-24
3.85029304106e-26
3.65274445056e-27
6.24128064151e-28
2.63339659937e-28
9.81230893632e-29
7.22812991023e-29
2.0448549839e-28
3.674689043e-27
1.91221580991e-25
1.2391545378e-23
7.3718867711e-22
1.80517692314e-20
1.99308832356e-19
2.03559131011e-19
2.93798776229e-19
1.72253157212e-19
2.56651116531e-20
4.07929925301e-22
4.65728884506e-24
6.79267774238e-26
1.80200373478e-27
1.30433176503e-28
5.79990448903e-29
2.47299543326e-29
1.83228939302e-29
1.10643196081e-29
2.94833445424e-30
8.60722728074e-29
6.63794783522e-27
5.55883976983e-25
4.91055900413e-23
2.81366345967e-21
6.53829899978e-20
6.29618677483e-20
1.39778662596e-19
6.87241192159e-20
2.67247878892e-21
2.752751808e-23
3.04091743215e-25
4.50844001259e-27
9.69536004877e-29
1.43747666479e-28
3.09793318043e-29
1.21152779941e-28
6.7137543151e-29
6.3186650494e-31
1.0939036232e-30
2.41486862622e-30
2.72015138522e-28
2.99801286834e-26
3.2801017963e-24
3.8563215291e-22
1.52525745922e-20
1.91670553868e-20
5.96597045591e-20
2.84652806222e-20
4.5258082285e-22
4.08616416211e-24
3.85999867604e-26
4.50404936367e-28
4.02925061729e-29
5.76947319673e-29
2.19697618573e-30
3.22730147785e-30
1.67880127935e-30
2.73321388401e-32
3.59352246855e-31
1.31521528849e-31
1.85106961373e-29
2.31672445124e-27
2.73071365014e-25
3.41555617972e-23
2.39336560088e-21
5.87962089935e-21
3.24854281821e-20
1.04856915058e-20
1.13267914821e-22
9.62591530459e-25
8.46392651169e-27
1.04114836651e-28
3.86279720986e-29
7.19746125576e-29
1.83500929107e-30
2.57878246867e-32
1.23389610063e-32
2.12690064163e-31
2.94098803424e-30
3.94721298525e-31
3.38663769099e-30
4.14211514593e-28
4.99408835939e-26
6.59135285953e-24
6.65356426041e-22
2.27292358148e-21
2.46333369575e-20
7.67290095175e-21
7.53486889603e-23
6.18278765588e-25
5.16242194074e-27
5.2085334877e-29
2.3828161989e-29
8.36059310443e-29
1.93233427577e-30
1.40549173703e-32
5.43566125633e-34
2.96839995112e-32
8.48387708553e-31
9.34183105687e-32
4.18425923045e-30
5.30836456829e-28
6.50629776217e-26
8.7619874952e-24
8.67095848239e-22
2.27272385799e-21
3.49017245025e-20
1.34134425921e-20
1.58366832875e-22
1.27060190723e-24
1.03716391957e-26
9.35084908283e-29
7.58379163764e-30
5.75241319696e-31
2.72792042675e-32
8.70886145307e-31
2.00148894799e-32
7.05099721097e-34
3.09174337188e-33
2.00120052862e-31
2.93698478663e-29
3.80284944158e-27
4.64425080923e-25
6.11338692517e-23
3.97893328967e-21
5.04461058941e-21
7.08999217125e-20
3.81697950823e-20
6.74530749753e-22
5.34403668581e-24
4.327851925e-26
3.52730747013e-28
3.07975149691e-30
1.23956867699e-30
4.61920743106e-31
2.91449145066e-29
6.21993083624e-31
1.08816487494e-32
5.22257593241e-32
2.79928966271e-30
3.03351251174e-28
3.35130667525e-26
3.83183784698e-24
4.28092235346e-22
1.32109908362e-20
1.26906880247e-20
1.68464282934e-19
1.22817014556e-19
3.6411581579e-21
3.56468119403e-23
3.31812265905e-25
3.7567639543e-27
6.23628591733e-29
2.06142661563e-30
1.58617654838e-31
1.94075378111e-31
1.17422575615e-31
4.39792147696e-31
4.95631315901e-30
1.41811014049e-28
8.0074761816e-27
6.13694952177e-25
5.41239385721e-23
2.39972028608e-21
4.65696223501e-20
3.46045153426e-20
1.82372695955e-19
2.99556132379e-19
2.36982468237e-20
5.57056047012e-22
7.11963204387e-24
1.3844971707e-25
4.26208623388e-27
2.43605032433e-28
2.30292807553e-29
6.86642558283e-30
1.10106938747e-29
6.76443623957e-29
6.2326837917e-28
1.20986365993e-26
3.68942989719e-25
1.79968138594e-23
7.83137256859e-22
1.16460537536e-20
5.08504391766e-20
4.19979866984e-20
2.98243155015e-19
3.59295221382e-19
1.53544555796e-19
8.08481884666e-21
2.85584079327e-22
9.38226539503e-24
4.03653744953e-25
2.87008404987e-26
2.89881894871e-27
8.67955739521e-28
1.4236020521e-27
8.90388926321e-27
7.16053701901e-26
1.12703125326e-24
2.41056388225e-23
4.96405183171e-22
5.61624132251e-21
7.98455995929e-20
2.09010233141e-19
9.55042795485e-20
2.84120247558e-19
5.77880577456e-19
3.08064926094e-19
1.07436115959e-19
9.44605013824e-21
7.97811384991e-22
4.1200507309e-23
3.23406080813e-24
3.39661618711e-25
1.05264234177e-25
1.73119549031e-25
1.08834216265e-24
8.29226937318e-24
1.08844142401e-22
1.1173792504e-21
6.38548187817e-21
6.0528641787e-20
1.31711404976e-19
1.72359996208e-19
8.44072572185e-20
2.44604305064e-19
5.04457852424e-19
6.12075099434e-19
3.20327631479e-19
1.77120558826e-19
3.13309373651e-20
3.67798703956e-21
3.80833690556e-22
4.21660776051e-23
1.38525077604e-23
2.28537776463e-23
1.41592958408e-22
8.46418165699e-22
4.24337629381e-21
1.78410399293e-20
8.73999844327e-20
1.35605261155e-19
2.78498792252e-19
1.41716963646e-19
5.61969701655e-20
9.9352150825e-20
3.59448915736e-19
2.85334240966e-19
6.21923998881e-19
4.81592054887e-19
1.9251960042e-19
9.06552817607e-20
1.84984219663e-20
3.4617190085e-21
1.43415209158e-21
2.06056091282e-21
7.77912771752e-21
2.3198814047e-20
7.30293929187e-20
7.05370911941e-20
2.33105730784e-19
2.45838406983e-19
1.33463993192e-19
9.79848825052e-20
6.24711825492e-20
1.60293056302e-20
1.00234988691e-19
2.56209057853e-19
3.02934786294e-19
2.74642710411e-19
2.20214449172e-19
7.96699276675e-20
2.46179500867e-20
7.8999648063e-21
3.56281782669e-21
4.66402184968e-21
1.06105290119e-20
2.33622998072e-20
7.02333562503e-20
1.21884611554e-19
1.4508660544e-19
1.1294867637e-19
5.88466874984e-20
6.38951781453e-20
1.07771154388e-20
1.47537340641e-18
9.82965582347e-18
2.73020461435e-17
2.45235650594e-17
7.14313068156e-17
4.22905870187e-17
4.57455762558e-17
2.11828454108e-17
1.04119663965e-17
4.68829535942e-18
4.46824080519e-18
6.9212127898e-18
1.69214979777e-17
2.56215635779e-17
3.00743584223e-17
6.39838702243e-17
5.32172689432e-17
3.7852098693e-17
2.52701399115e-17
4.94436104575e-18
9.76579351646e-18
3.24654505947e-17
7.19149395075e-17
4.96954199375e-17
6.41818273696e-17
6.660403426e-17
2.47476090395e-17
6.31752585118e-18
1.68984585588e-18
6.69518363087e-19
6.69756640191e-19
1.47247486667e-18
3.85698864966e-18
1.01557848812e-17
2.75162098364e-17
5.41322769137e-17
4.12629753325e-17
6.42619239751e-17
2.33476384214e-17
2.63391844124e-17
2.57885135867e-17
6.99367336115e-17
1.09384806246e-16
8.03821090825e-17
5.26064404739e-17
9.3802226693e-18
1.00463929444e-18
1.33155423429e-19
2.05867001922e-20
7.68739683035e-21
7.48358964982e-21
1.86495664045e-20
8.37926783384e-20
3.67875139686e-19
2.11809486121e-18
1.37238736992e-17
4.52144198194e-17
4.1435057452e-17
6.68976929654e-17
4.39994999106e-17
5.99359374543e-17
5.47630893743e-17
6.53332618636e-17
4.86355517749e-17
6.03872497111e-18
3.648120442e-19
1.59399233892e-20
2.02564246829e-21
5.09672721506e-22
2.32247098478e-22
2.0354373481e-22
3.43796266621e-22
1.05933373282e-21
5.74378188269e-21
9.36173093642e-20
1.03257031242e-18
1.092609074e-17
3.25815227228e-17
4.21685359243e-17
6.27281580458e-17
5.70488203175e-17
9.38477677335e-17
7.30287792641e-17
8.82625770567e-18
3.51735653233e-19
1.02277767461e-20
1.4344551147e-21
9.53929371387e-22
4.32146464758e-22
2.79764057217e-22
1.13084630496e-22
1.11242227362e-22
1.08485898929e-22
1.95112182724e-22
2.36990730061e-21
8.06151538636e-20
1.25940120641e-18
1.6610093905e-17
6.05975125914e-17
5.74178986715e-17
9.93737230959e-17
4.66552134989e-17
2.6433211201e-17
1.06837810656e-18
1.99548890322e-20
1.93438755254e-21
3.41879095342e-21
5.55823718864e-21
4.77906193393e-21
3.11010479737e-21
2.01990730367e-21
1.08008195834e-21
3.35838732087e-22
1.45950709681e-22
1.37610088555e-22
3.45245854247e-21
1.66244583787e-19
3.39492016794e-18
3.60234542912e-17
5.20870335592e-17
7.43413441225e-17
2.73001646015e-17
4.99035153508e-18
1.02309194274e-19
2.74895076351e-21
2.64163872648e-21
5.90960332832e-21
1.84088812086e-20
3.121234189e-20
2.26927960222e-20
1.94509663316e-20
1.54781123362e-20
3.1469942456e-21
9.67807632899e-22
1.0810531603e-22
2.70080391095e-22
1.47022824184e-20
6.72003610358e-19
1.44739103098e-17
1.96754408486e-17
4.61050063393e-17
1.40784386996e-17
6.83456715634e-19
1.08484342591e-20
8.7539281528e-22
5.07390621208e-21
1.50866984759e-20
7.92826996278e-20
6.06271840907e-20
9.20139759491e-20
6.47055108255e-20
2.81457995158e-20
1.47053419177e-20
1.15230594164e-21
9.34442916712e-23
2.50767711003e-23
1.59412333045e-21
1.27482072374e-19
4.38717670678e-18
8.55390829336e-18
2.64245207748e-17
7.90933504744e-18
1.58934069667e-19
2.32323606896e-21
2.33054070204e-22
2.78680465262e-21
2.53822749433e-20
5.1281240448e-20
2.79028467475e-21
2.41192519229e-21
1.80240847296e-21
1.25663427504e-21
9.35329456422e-21
1.19681188786e-21
1.32297933468e-22
2.65663288631e-24
1.91384471117e-22
1.57318392893e-20
9.35412316761e-19
4.32607071358e-18
1.94072843107e-17
3.68635053985e-18
5.11540603926e-20
7.34647144929e-22
8.33013635908e-23
2.07426504235e-21
2.49575861931e-20
7.39317367789e-20
1.42049524793e-21
1.22892063106e-23
5.15618315729e-23
2.23675738599e-21
4.27851267015e-20
5.90684496874e-21
1.82612504873e-22
8.18880335788e-25
4.7319738848e-23
3.96420953653e-21
3.29950533764e-19
2.56769113636e-18
1.62157658124e-17
2.88621658169e-18
3.65825041522e-20
5.02856139718e-22
3.32122787158e-23
1.21507296077e-21
2.38490260126e-20
6.61447667635e-20
1.09140810491e-21
1.96601593638e-23
4.76551384393e-23
1.69795154842e-21
3.21548829437e-20
4.53492244381e-21
9.64575207015e-23
9.01773339735e-25
5.93908396382e-23
5.24994959357e-21
4.29883957233e-19
2.55472383405e-18
1.85975686477e-17
4.43625234771e-18
6.73919609543e-20
8.84868643524e-22
6.60706685229e-23
1.44322700043e-21
2.16973659952e-20
2.25416279375e-20
6.27336840808e-22
1.33080252131e-21
1.07264447227e-21
1.70838003105e-22
1.56007876248e-21
2.25764479803e-21
4.47043189129e-23
3.97056960317e-24
3.28878200887e-22
2.88921854864e-20
1.58739758959e-18
3.63810846794e-18
2.84366217787e-17
1.0191849862e-17
2.24378922554e-19
2.71998358149e-21
1.02591802331e-22
5.98651389362e-22
4.64387618029e-21
2.27184119378e-20
8.31665086829e-21
3.20664841671e-20
2.7665812753e-20
2.84399012241e-21
6.83738907461e-21
3.82232851812e-21
3.54866911127e-23
2.51359370445e-23
1.81298574012e-21
1.45401946434e-19
3.91115806049e-18
5.9694288052e-18
5.16331159495e-17
2.62692183918e-17
8.99251766034e-19
1.11533562515e-20
2.77146909162e-22
4.81995294227e-22
3.00225505211e-21
4.97507730982e-21
8.68634897859e-22
5.55374722914e-21
3.52470944327e-21
2.65271468851e-21
2.36529080043e-21
9.1364035405e-22
1.32588032662e-23
3.06265525858e-22
1.78386429667e-20
6.11362945112e-19
1.11143512269e-17
1.20849066478e-17
4.47545507924e-17
5.14737309933e-17
4.45897061217e-18
1.31561662279e-19
2.59640373564e-21
2.11714129027e-22
2.84978395055e-22
5.31435337902e-22
3.59300276201e-23
1.10589003006e-22
5.5909799354e-23
4.53103486305e-23
3.81985239247e-23
1.65106334432e-23
1.83786503123e-22
5.80567237735e-21
1.93009870822e-19
2.34736015767e-18
9.27747680386e-18
1.19898820865e-17
6.02728699011e-17
4.6266471629e-17
2.31422230582e-17
1.4506265959e-18
6.5214765968e-20
3.45170281769e-21
2.34074188248e-22
3.31885797542e-23
3.82606075324e-24
1.60857329945e-24
1.95444549826e-24
8.13288370366e-24
4.53442800585e-23
5.32399587642e-22
7.65533489531e-21
1.21625547378e-19
1.07630262051e-18
1.38624678394e-17
3.54349559845e-17
2.41723660964e-17
5.43545831257e-17
7.73268641131e-17
3.4714196197e-17
1.59218835736e-17
1.70173470469e-18
1.87404860799e-19
1.26107579783e-20
1.67898122762e-21
2.46479154958e-22
9.42075046214e-23
1.41144703248e-22
6.85089705702e-22
3.34623874377e-21
3.45480113512e-20
2.63260251048e-19
1.20396664389e-18
1.01477169676e-17
1.68174775388e-17
2.46675440679e-17
1.77632897316e-17
4.3208062902e-17
6.68247720156e-17
7.4582491485e-17
3.6106314902e-17
2.65750514726e-17
5.79785848848e-18
9.14660651548e-19
1.3129711295e-19
1.97978886197e-20
7.93756957726e-21
1.22191201496e-20
5.95010232439e-20
2.59956016873e-19
1.00872339046e-18
3.44397847913e-18
1.44152014798e-17
1.7186578199e-17
3.86963076992e-17
1.82954975929e-17
9.94576564628e-18
1.779594497e-17
5.09847227332e-17
3.23441006935e-17
8.42929752372e-17
7.02440777581e-17
2.90773850699e-17
1.9949229021e-17
5.34592276603e-18
1.32547882028e-18
6.55924173242e-19
8.9199708751e-19
2.70465315509e-18
6.16580646649e-18
1.61477195981e-17
1.21167771972e-17
3.75442755952e-17
3.64313144791e-17
1.70568169495e-17
1.36949151254e-17
1.38874115012e-17
3.48206226094e-18
1.80420537953e-17
4.56845751294e-17
5.88929681808e-17
5.76380509461e-17
5.59411733882e-17
2.54334456137e-17
1.10589008978e-17
5.35605907417e-18
3.42258801595e-18
3.90727733091e-18
6.32629531014e-18
9.6571562338e-18
2.42638780019e-17
3.30800469743e-17
3.57391231686e-17
2.45307610494e-17
1.04494015048e-17
1.42082625594e-17
3.06854544701e-18
1.37378768891e-16
7.46109870245e-16
2.08058421377e-15
1.90324244067e-15
5.81250424641e-15
3.93657356442e-15
5.12568998367e-15
3.04619046334e-15
1.94882659992e-15
9.72218553186e-16
9.25096021855e-16
1.1694478772e-15
2.57018868838e-15
2.97664165306e-15
3.0551140882e-15
5.81667291229e-15
4.47586953201e-15
2.99011608711e-15
2.06796659696e-15
4.92319466312e-16
7.56167358073e-16
2.14798154484e-15
4.62244185194e-15
2.8631124666e-15
3.84500138757e-15
5.42849304568e-15
2.56101391677e-15
8.51994630283e-16
3.11528331095e-16
1.52891869181e-16
1.52404352743e-16
2.69711586405e-16
5.4773409236e-16
1.14730465713e-15
2.56114767326e-15
4.18385224421e-15
2.33394183104e-15
4.21813704269e-15
1.29521997755e-15
2.18437469046e-15
1.98177240006e-15
4.50237276519e-15
6.7902737678e-15
4.97635636763e-15
3.96388751932e-15
9.03266663133e-16
1.30329402621e-16
2.5561351054e-17
6.47914950476e-18
3.2259904786e-18
3.12868001558e-18
5.4594715285e-18
1.68987807524e-17
5.10356386327e-17
2.26333017514e-16
1.17738921119e-15
3.22201959192e-15
2.23388026989e-15
4.48057725523e-15
3.54611323105e-15
4.88174373019e-15
3.22412051057e-15
3.54157364679e-15
3.54905419003e-15
5.63007935305e-16
4.60018740385e-17
3.42125254827e-18
1.07516273066e-18
8.6867117289e-19
6.46946930051e-19
5.92559877267e-19
6.45325274636e-19
6.20695815327e-19
1.22275891654e-18
1.33144424026e-17
1.05281797948e-16
9.2402559196e-16
2.17972057873e-15
2.51354375551e-15
5.33628376107e-15
4.6245801223e-15
5.69088645536e-15
5.19690488776e-15
7.8828284305e-16
4.25431770782e-17
3.04400380834e-18
4.10301087059e-18
8.34492883863e-18
9.01863828817e-18
1.01522863075e-17
6.4536471625e-18
6.34628038232e-18
4.15858633326e-18
1.78802564589e-18
1.22006217057e-18
1.15115657988e-17
1.27966468957e-16
1.42903554674e-15
4.71594977228e-15
5.07637511165e-15
8.29222598192e-15
2.89916093762e-15
2.20693881468e-15
1.22485587636e-16
4.72043372415e-18
6.71462015731e-18
2.24578884988e-17
3.42367465572e-17
3.85454613648e-17
3.77936215686e-17
3.20254394505e-17
2.17045917112e-17
1.29171934152e-17
1.05705317248e-17
3.0279201761e-18
1.44013983394e-18
2.24282966506e-17
3.52240805614e-16
3.27250776442e-15
5.16331497024e-15
6.83946088865e-15
2.15074734846e-15
5.26141738303e-16
1.59734345186e-17
3.99086491706e-18
1.96431593177e-17
2.59753884375e-17
4.75786573178e-17
7.59217213563e-17
7.20732308249e-17
6.83735689333e-17
5.49477488159e-17
2.13577170984e-17
1.48474097545e-17
1.05068178272e-17
2.03503529e-18
2.8258880866e-18
8.77912992602e-17
1.56177664472e-15
2.12837733253e-15
5.06511925323e-15
1.39615426129e-15
9.65861789744e-17
2.94673938001e-18
7.98660526195e-18
3.40800053306e-17
4.24317708909e-17
1.13734146131e-16
1.02630766654e-16
1.63666416102e-16
1.30736904325e-16
7.44270999562e-17
4.84614257922e-17
1.83942916199e-17
1.13296929781e-17
3.16683383811e-18
6.07924487e-19
2.3378243033e-17
5.98461687767e-16
1.16425137638e-15
3.46633590191e-15
1.01941220031e-15
3.02433985301e-17
1.33499256169e-18
8.1045811327e-18
2.99330868152e-17
6.83336879347e-17
8.69390659729e-17
5.8313894657e-18
5.7109906607e-18
8.08407699098e-18
6.86752015846e-18
3.96895810986e-17
1.97311271689e-17
1.5271341607e-17
2.21481225132e-18
1.82306607911e-19
4.06818312155e-18
1.7016157889e-16
8.17815908677e-16
3.07581629325e-15
5.86697621086e-16
1.28446289754e-17
7.80382720546e-19
6.56445528088e-18
3.21153674642e-17
8.01674843734e-17
1.24341698894e-16
4.90606303014e-18
8.02799841613e-20
8.96116896062e-19
1.61978058727e-17
1.31475444422e-16
5.15718344179e-17
2.26175981268e-17
2.41304599787e-18
1.21294000897e-19
1.43062309737e-18
7.4171714796e-17
5.53233443514e-16
2.77129713246e-15
4.88596469173e-16
1.0154175851e-17
5.71711987612e-19
5.07458960624e-18
2.7402808422e-17
8.55045167896e-17
1.26255016515e-16
6.50472803459e-18
3.04348188015e-19
9.81911751082e-19
1.43531435342e-17
1.14940064193e-16
4.36078697927e-17
1.89352679029e-17
2.4846376129e-18
1.09854054699e-19
1.87114520519e-18
9.68897386283e-17
5.57006938984e-16
2.81134442848e-15
6.69340040547e-16
1.54526873361e-17
7.67276819013e-19
5.95669297957e-18
2.74088726607e-17
7.60169889381e-17
6.180604051e-17
3.71404820804e-18
8.32857418592e-18
7.48144508802e-18
3.06411510923e-18
1.88444493431e-17
2.39148673217e-17
1.0294694882e-17
1.85259453184e-18
2.77809246468e-19
7.63060006675e-18
2.9283732787e-16
6.40959077018e-16
3.64676655637e-15
1.28012376799e-15
4.03591759237e-17
1.04597885795e-18
4.86475148394e-18
1.86939008475e-17
3.12615209722e-17
6.64399579309e-17
3.61358281092e-17
9.96320644249e-17
9.90471126163e-17
2.20032662188e-17
4.09871818167e-17
3.45679285569e-17
1.21240328141e-17
2.24684250859e-18
7.0646170115e-19
2.75674482808e-17
5.4642233218e-16
8.37350326236e-16
5.6141808473e-15
2.73216853887e-15
1.20043535564e-16
2.61947756379e-18
2.11687230196e-18
1.91915115876e-17
2.92283839667e-17
3.44449167387e-17
2.04489737366e-17
5.05877813577e-17
3.77568475695e-17
2.70583597041e-17
2.76721947019e-17
2.24020706691e-17
9.23789480957e-18
1.61802291077e-18
3.87203370712e-18
8.54615862562e-17
1.28583492996e-15
1.45986228045e-15
4.33283691044e-15
4.38984546337e-15
4.58789999948e-16
1.88336308487e-17
1.10247990326e-18
4.80954273884e-18
1.46111261894e-17
2.13100123507e-17
1.31117004054e-17
2.39397650357e-17
1.95980650943e-17
1.28428335033e-17
1.5688145941e-17
9.44244761404e-18
3.0271975399e-18
1.40465457957e-18
2.86786380713e-17
2.60342279966e-16
8.75189046365e-16
1.35445588694e-15
4.99039418345e-15
2.94670241248e-15
1.91018129168e-15
1.49328591095e-16
9.34945752988e-18
1.83373116204e-18
2.1667120948e-18
3.56834980319e-18
3.20066267776e-18
2.45091731659e-18
2.76364168473e-18
1.89794117104e-18
2.35812461875e-18
1.39490431662e-18
1.75266091353e-18
1.84487279821e-17
1.17864247284e-16
1.30798655316e-15
3.03621233947e-15
2.60425529134e-15
4.60692833196e-15
5.28941639075e-15
2.0467708346e-15
1.32574901232e-15
1.75940936359e-16
2.6584967521e-17
2.94362291239e-18
7.3540587671e-19
2.49788107768e-19
1.60612441536e-19
1.61694336846e-19
3.63181425772e-19
1.22120255152e-18
6.97829506365e-18
3.66607979828e-17
1.29476204104e-16
9.4757305185e-16
1.10085281932e-15
1.78603131513e-15
1.62530377265e-15
3.40234179055e-15
4.51515825991e-15
4.88316266564e-15
2.12217212266e-15
2.17847193646e-15
5.84591247265e-16
1.25212365979e-16
2.5151040464e-17
5.25395631891e-18
2.71429451415e-18
3.74722064663e-18
1.38512112414e-17
4.38317811139e-17
1.30188924478e-16
3.63958488822e-16
1.28876718353e-15
1.12759062287e-15
2.8490556792e-15
1.12252870943e-15
7.39384458743e-16
1.44595947458e-15
3.55955844924e-15
1.82024387944e-15
5.85272636353e-15
5.20518836942e-15
2.01439730686e-15
2.13190014174e-15
7.30049130381e-16
2.34072723864e-16
1.36966062507e-16
1.7597932635e-16
4.35098145901e-16
7.75335867377e-16
1.73599000376e-15
1.08014721287e-15
3.05066161429e-15
2.73955965747e-15
1.04308444295e-15
8.66405908712e-16
1.36855989352e-15
3.41267376697e-16
1.47337595401e-15
3.62420413287e-15
5.04607538324e-15
5.01588036969e-15
5.5116800574e-15
2.85570648711e-15
1.54000189072e-15
9.15159378186e-16
7.80334670709e-16
7.72762314867e-16
1.06441735253e-15
1.35266272954e-15
3.07347913611e-15
3.45020799847e-15
3.71170741541e-15
2.32772908701e-15
7.87475908254e-16
1.40028728846e-15
3.829799355e-16
6.6787948261e-15
2.93042029368e-14
8.27872051398e-14
8.66426552459e-14
2.11681076787e-13
1.60276321919e-13
2.27571540075e-13
1.64251669869e-13
1.15748139519e-13
6.20316467256e-14
5.98024350074e-14
6.69559264622e-14
1.445060291e-13
1.40170886275e-13
1.37970521761e-13
2.38771309473e-13
1.84716895651e-13
1.16391463422e-13
8.10815163852e-14
2.36825466087e-14
3.13751448018e-14
7.66543582226e-14
1.51536578625e-13
9.61374422207e-14
1.22645867251e-13
2.19904598438e-13
1.283685211e-13
5.21920303958e-14
2.44403149948e-14