/*--------------------------------*- C++ -*----------------------------------*\
| =========                 |                                                 |
| \\      /  F ield         | OpenFOAM: The Open Source CFD Toolbox           |
|  \\    /   O peration     | Version:  3.0.1                                 |
|   \\  /    A nd           | Web:      www.OpenFOAM.org                      |
|    \\/     M anipulation  |                                                 |
\*---------------------------------------------------------------------------*/
FoamFile
{
    version     2.0;
    format      ascii;
    class       volScalarField;
    location    "2.2";
    object      epsilon;
}
// * * * * * * * * * * * * * * * * * * * * * * * * * * * * * * * * * * * * * //

dimensions      [0 2 -3 0 0 0 0];

internalField   nonuniform List<scalar> 
7968
(
0.00182712139482
0.00201736731373
0.00215739230481
0.00223325302049
0.00226885121655
0.00228261337947
0.00228556377541
0.00228387339273
0.0022813387441
0.00227952197222
0.00227963108894
0.0022814694214
0.00228385357496
0.00228505681917
0.00228158115436
0.00226747555057
0.00223183807872
0.00215621982743
0.00201665112613
0.00182691004399
0.00201732770194
0.00300621446232
0.00371070196064
0.00412404170843
0.00434599693017
0.00445155559595
0.00449179162813
0.00449995185076
0.0044964795531
0.00449279433352
0.00449405510063
0.00449954605951
0.00450325247023
0.00449374665809
0.00445132630535
0.00434372134526
0.00412057536587
0.00370715646885
0.00300363919394
0.00201658551569
0.00215737617395
0.00371079084121
0.00486629652974
0.00557819668335
0.00598384686546
0.0061926124368
0.00628400078948
0.0063137349187
0.00631782646401
0.00631696081273
0.00631973999437
0.00632512291041
0.00632273534913
0.00629164681352
0.00619662624043
0.00598372418273
0.00557491202062
0.00486163867747
0.00370679875473
0.00215603200352
0.00223348426756
0.00412515915566
0.00557945517706
0.00650484197143
0.00705093846231
0.00734423054871
0.00748215725405
0.00754017841132
0.0075652377882
0.00757360001244
0.00757730695701
0.00757540150583
0.00755447735225
0.00749952833864
0.00735702198228
0.00705680517028
0.00650428224768
0.00557490968027
0.00412012274416
0.00223154022348
0.00226957848098
0.00434893233365
0.00598724203174
0.00705298821786
0.00769614635363
0.00805238683408
0.00824524866425
0.00833497951256
0.00836896230127
0.00838053778355
0.00838569593777
0.00838325636271
0.0083554639978
0.0082682485729
0.00807715769604
0.00771164495042
0.00705790544895
0.00598441607805
0.00434357147184
0.002267140485
0.00228398716497
0.00445661592616
0.00619835976652
0.00734825927178
0.00805368395883
0.00847361942063
0.00869854137037
0.00879975099796
0.00883684824922
0.00884925356042
0.00885586845069
0.00885532696352
0.00882663291417
0.00872910136629
0.00850322828935
0.00808052358854
0.00736080166548
0.00619888164696
0.00445189176231
0.00228128057061
0.0022875491762
0.00449861208314
0.00629142307526
0.00748672544027
0.00824204879462
0.00869598707278
0.00893311391873
0.00903696287505
0.00907273387345
0.00908398037959
0.00909190382563
0.00909497543561
0.00906967529453
0.0089708379392
0.00873293847309
0.00827335095779
0.00750755782705
0.00629643481226
0.00449544856844
0.00228485863611
0.00228623395715
0.00450753625309
0.00632108801091
0.00753815798282
0.00832853224016
0.00879370142298
0.00903320681569
0.00913451364204
0.00916644451903
0.00917550800356
0.00918458751453
0.00919192570295
0.00917217321115
0.00907698536153
0.0088370578302
0.00836584879556
0.00756671318488
0.00633097415719
0.00450656509711
0.00228384764473
0.00228329512394
0.00450339920055
0.00632322448401
0.00755788447647
0.00835880658658
0.00882646376357
0.00906422617807
0.00916157303642
0.00918965751795
0.00919681223632
0.00920700330895
0.00921803220015
0.00920341403881
0.00911293950784
0.00887495320394
0.0084009097562
0.00758942327257
0.00633781251269
0.0045049843125
0.00228178832566
0.00228072560529
0.00449767157736
0.00631848840114
0.00756279961151
0.00836614671487
0.00883383511147
0.00907001413784
0.00916510550872
0.00919133710853
0.0091978527358
0.00920910758437
0.009222329511
0.00921055481846
0.00912282493893
0.00888643551636
0.00841201165779
0.0075976281146
0.0063374692243
0.00450196169792
0.00228034969899
0.00228001830632
0.0044960861752
0.00631677394064
0.00756300016764
0.00836695443521
0.00883532519051
0.00907243549993
0.00916873760243
0.00919635672341
0.00920411111029
0.00921597300121
0.00922926967954
0.00921710609624
0.00912855751243
0.00889108228722
0.00841552504178
0.00760016488678
0.006339448615
0.00450289791069
0.0022803257784
0.00228167426514
0.00449900006514
0.00631825010991
0.00755833751412
0.00836109601476
0.00883071238003
0.00907114915659
0.00917192071387
0.00920376474134
0.00921415889968
0.00922620487805
0.00923758239371
0.00922185377113
0.00912897062645
0.00888779811488
0.0084104730686
0.00759624732174
0.00634268836674
0.00450717947019
0.00228179342226
0.00228409527413
0.00450105832702
0.00631336103364
0.00753604693513
0.00833177786354
0.00880008728836
0.00904368935153
0.00915015682793
0.00918755781075
0.00920121808806
0.00921308900634
0.0092209916984
0.00919941803512
0.00910032169219
0.00885531058821
0.00837906125006
0.00757730313086
0.00633620326108
0.00450848418542
0.00228361427277
0.00228518919346
0.00449094286759
0.00628164786516
0.00747886494926
0.00824505683604
0.00870338372361
0.00894550482717
0.00905553829848
0.00909772621105
0.00911429258361
0.00912546618185
0.00912911735357
0.00910136743071
0.0089974339574
0.00875306410573
0.00828727494803
0.00751655067212
0.00629932385342
0.00449562206128
0.0022840868356
0.00228170283296
0.00444882472142
0.00618800638354
0.00733892964248
0.00804993958519
0.00848033534548
0.00871092239794
0.00881857067747
0.00886228007302
0.00888012996981
0.00889002031357
0.00888989776439
0.00885831935974
0.00875508882768
0.00852242172713
0.00809518742343
0.00736560532639
0.00619797598104
0.00444960694122
0.00227987448314
0.00226764081266
0.00434207919986
0.00597769988664
0.00704367312821
0.00769061695497
0.0080544822394
0.00825570302723
0.0083516194835
0.00839174296803
0.00840836036362
0.00841649336984
0.00841427786444
0.00838381569133
0.00829157890931
0.00809837510958
0.007720819764
0.00705779787213
0.00597983120143
0.00433904435348
0.0022652083783
0.00223204921402
0.00411991808649
0.00557172352488
0.0064966614901
0.00704502137638
0.00734369518755
0.00748940844632
0.00755296685271
0.00758330910894
0.00759595674247
0.00760220175854
0.00760074482601
0.00758494471817
0.00752406090847
0.00737099957258
0.00706023721753
0.00650034631564
0.00556793068767
0.00411425188912
0.00222933767826
0.00215643874935
0.00370724391011
0.00486067307598
0.00557173098288
0.00597838398095
0.00619038529078
0.00628699503042
0.0063229452237
0.00633309946763
0.00633699838994
0.00634288506809
0.00634890872327
0.00634377510523
0.00630656819448
0.00620351725706
0.00598306034454
0.00556913387073
0.00485407269463
0.00370078286816
0.00215391124777
0.00201682937389
0.00300410414402
0.00370707871718
0.0041195848878
0.00434178108072
0.00444888792454
0.00449182965553
0.00450336851918
0.00450329264828
0.00450250569864
0.00450564493811
0.00451146737739
0.00451348200838
0.0045003937393
0.00445338359547
0.00434144709639
0.00411538875396
0.00370109059813
0.00299891180926
0.00201501089718
0.00182697774195
0.00201680529235
0.00215635079101
0.00223184551047
0.00226730462805
0.00228122642653
0.00228460664416
0.00228351277139
0.00228148116451
0.00228026090263
0.00228080076924
0.0022826618518
0.00228485518248
0.00228525191521
0.00228079377594
0.00226581124563
0.00222964424815
0.00215401234951
0.00201502178334
0.00182633212822
0.0020127093698
0.00297839947228
0.00367241197451
0.00408436277808
0.00431070419928
0.00442403779714
0.00447310815744
0.00448923961377
0.00449090565848
0.00448910729952
0.00449025170465
0.00449373859239
0.00449250628704
0.00447585436197
0.0044256359893
0.00431108500739
0.00408386693824
0.00367156421783
0.00297768416391
0.00201228039314
0.00297870285635
0.00350797921068
0.00412894910041
0.00453066369604
0.00476210151724
0.00488307917195
0.00493901989295
0.00496062901896
0.00496686280283
0.00496825268591
0.00496932487129
0.00496972386436
0.00496440735339
0.00494275800399
0.00488606976172
0.00476405002363
0.00453159860867
0.00412906046094
0.00350748193703
0.00297781597127
0.00367264155937
0.00412917202562
0.00482601136345
0.00530497842544
0.00559540089754
0.00575549096971
0.00583466895972
0.00586884602835
0.00588130454732
0.0058855277145
0.00588715358056
0.00588589770246
0.00587532468225
0.00584174643383
0.00576193467981
0.00560043161827
0.00530825874544
0.00482751488599
0.0041290583137
0.00367139708076
0.00408466230681
0.00453103007234
0.00530496231781
0.00585578059266
0.00620123148425
0.00639879839063
0.00650134547237
0.0065497122768
0.00657024481461
0.00657792282931
0.00658005319307
0.00657627684165
0.00655870453891
0.0065122685797
0.00640944485947
0.00621008956845
0.0058620068585
0.00530827709177
0.0045315737939
0.00408340254045
0.00431139411498
0.00476262229221
0.00559515339398
0.00620073645878
0.00658916914419
0.00681755298462
0.00694221002769
0.0070027034602
0.00702825120935
0.00703779285621
0.00704042376413
0.00703576037279
0.00701407821178
0.0069560611096
0.00683248974249
0.00660235519322
0.00621043374146
0.0056007116235
0.00476416752104
0.00431057880046
0.0044253353964
0.00488374656199
0.00575481417311
0.00639731677115
0.00681609321666
0.00706934451544
0.00720810190417
0.0072748033732
0.00730223548469
0.00731218361134
0.00731526785615
0.00731108464809
0.00728833829729
0.00722475761825
0.00708727853921
0.00683344138346
0.00641069357849
0.00576290952406
0.00488662245016
0.00442545937714
0.00447495281634
0.00493969410286
0.00583329527469
0.00649826749929
0.00693811556729
0.00720546098582
0.00735068955754
0.00741890322347
0.00744555415164
0.00745467116071
0.00745814711157
0.007455557161
0.00743429545669
0.00736978969078
0.00722620183356
0.00695819318257
0.006515044026
0.00584396645987
0.0049441213239
0.00447644563119
0.00449127022196
0.00496097710964
0.0058663399152
0.00654386412355
0.00699593244067
0.00726927188282
0.00741587222403
0.00748259962058
0.00750688525136
0.00751449336384
0.00751830709423
0.00751786834776
0.00749954226766
0.00743698703202
0.00729233624258
0.00701849383704
0.00656334763973
0.0058793637433
0.00496700626162
0.00449436242123
0.00449295552996
0.00496645716577
0.00587738743021
0.00656216790895
0.00701908561635
0.00729400938921
0.00743962432666
0.00750392084476
0.00752568058265
0.00753185430588
0.00753598616467
0.00753755861904
0.00752222386649
0.0074624321755
0.0073189430332
0.00704356700883
0.00658349461019
0.00589241015299
0.00497399471015
0.00449734997512
0.00449041253942
0.00496666159385
0.00587988839901
0.00656808926942
0.00702662218224
0.00730167201075
0.00744627205206
0.00750900941523
0.00752935682539
0.00753484443775
0.00753931300963
0.00754216002793
0.00752865971555
0.00747064944557
0.00732820244961
0.00705261913633
0.00659086977014
0.00589657356608
0.0049755749662
0.00449603008148
0.00448947837874
0.00496636486603
0.00587999978558
0.00656885349005
0.00702774191565
0.00730305220265
0.00744792814318
0.00751101793597
0.00753178864332
0.00753770472712
0.00754250879687
0.00754553769348
0.00753202087498
0.00747378027469
0.00733092959813
0.00705485205579
0.00659260558832
0.00589788928922
0.00497643527849
0.00449685278483
0.00449092335734
0.00496563222273
0.00587765985592
0.00656427227206
0.00702224473419
0.00729793528035
0.00744435698123
0.0075096742947
0.0075326428093
0.00754002583652
0.00754511449888
0.00754719472514
0.00753177736554
0.00747127774772
0.00732658667472
0.00704976671365
0.00658826446012
0.00589590321091
0.00497620203201
0.00449937568782
0.0044885585101
0.00495972255218
0.00586660848892
0.00654655656435
0.00700053423859
0.00727514566866
0.00742303333691
0.00749135845738
0.00751749913358
0.00752693218127
0.00753217172883
0.00753243958249
0.0075138712483
0.00745009423357
0.0073034849629
0.00702737708326
0.00657017794435
0.00588389732167
0.00496964915872
0.00449652046936
0.00447190971107
0.00493812865061
0.00583330635884
0.00650032305288
0.00694317477819
0.00721234980993
0.00735928362186
0.00742954175771
0.00745851253952
0.00746986321311
0.0074750281474
0.00747317550216
0.00745141683432
0.0073851852115
0.00723901101298
0.00696811499772
0.00652217562907
0.00584824370108
0.00494626797107
0.00447783867485
0.00442233505718
0.00488207653638
0.00575458893964
0.00639885342911
0.00682018981201
0.00707608811858
0.00721695900532
0.00728600440421
0.00731601487096
0.00732837832767
0.00733320773516
0.00732965481809
0.00730614196562
0.0072404640501
0.00710008843023
0.00684324870266
0.00641673355374
0.00576603447219
0.00488774786315
0.00442562123776
0.0043088171177
0.00476107312058
0.00559473578549
0.00620165358175
0.00659198241578
0.00682296686319
0.00695020216127
0.00701322171036
0.00704141000334
0.00705333877894
0.0070576089433
0.0070534188602
0.00703087000817
0.00697070062015
0.00684464301909
0.00661030850724
0.00621468299716
0.00560246431041
0.00476431193505
0.00430965753211
0.00408270844785
0.00452974702726
0.00530440090888
0.00585607292365
0.00620285060256
0.00640247967951
0.00650768937024
0.00655858012988
0.00658167661197
0.00659157182081
0.00659517349256
0.00659181931496
0.00657410791035
0.00652555601936
0.00641897211275
0.0062156437642
0.00586452218989
0.0053089802347
0.00453117223373
0.0040819483399
0.00367129255682
0.00412818394611
0.0048253219846
0.00530467597864
0.00559590084986
0.00575747473228
0.00583884163968
0.00587562213799
0.00589069145232
0.00589701933895
0.00590011172923
0.0058992090464
0.00588752851117
0.00585148481265
0.00576837910926
0.00560377426562
0.00530946063982
0.0048276397042
0.00412858837568
0.00367002971106
0.0029778862419
0.00350726613617
0.00412813309669
0.00452982105544
0.00476161293538
0.00488355054475
0.00494108554624
0.00496470376651
0.00497299284033
0.00497611314958
0.00497831450125
0.00497891841904
0.00497261768207
0.00494897437254
0.00488980149761
0.00476558252623
0.00453178603809
0.00412879241855
0.00350711687981
0.00297685090026
0.00201241017363
0.00297780455353
0.00367108695496
0.00408247962694
0.00430882878009
0.00442297225341
0.00447365692557
0.00449195139755
0.00449611402426
0.0044965422855
0.00449921242121
0.00450261466611
0.0044997772634
0.00448080356935
0.00442786340103
0.00431102940362
0.00408259615237
0.00367025639284
0.00297691774049
0.00201136512104
0.00214878509649
0.00365816454746
0.00479445033362
0.00550589424978
0.00592240820825
0.00614781417387
0.00625668274218
0.00630093677076
0.00631453204679
0.00631772957271
0.0063205461586
0.00632198314143
0.00631106924159
0.00626737318103
0.00615738462563
0.00592984917428
0.00551070336366
0.00479662594349
0.00365834604502
0.00214824480941
0.00365883477229
0.004119499873
0.00482012321466
0.00530450089898
0.00560105828933
0.00576680403169
0.00585024471083
0.00588694759526
0.00590059470413
0.00590519400632
0.00590696228322
0.00590548366676
0.0058939886626
0.00585827590266
0.00577479096059
0.00560817077573
0.00531001697608
0.00482348445661
0.00412058208387
0.00365865229203
0.0047946147781
0.00482036117168
0.00544796120026
0.00592359676048
0.00623129396374
0.00641178532052
0.00650768839329
0.00655313310423
0.0065721346158
0.00657966116829
0.00658197444938
0.00657877463476
0.00656320794151
0.00651988317683
0.00642469596659
0.00624351641563
0.00593377799117
0.0054549534173
0.00482364462183
0.00479646665919
0.00550493395578
0.00530409707145
0.00592261428113
0.00641838454801
0.0067509652097
0.00695274444836
0.00706399514488
0.00711932932345
0.00714359192401
0.00715327323759
0.00715624646605
0.00715219170399
0.00713267882988
0.00708076859952
0.00697119032603
0.0067689727907
0.00643387224075
0.00593381949466
0.00531016008176
0.00551003365612
0.00592003454325
0.0055993153641
0.00622818349954
0.00674833536284
0.0071049781176
0.00732612162324
0.00745044054167
0.00751255407289
0.00753965516692
0.00755037865074
0.00755397439294
0.0075501222672
0.00752896913666
0.00747142960439
0.00734966947188
0.00712867299444
0.00676915552764
0.0062436867677
0.00560834319348
0.00592909503302
0.00614393861647
0.00576335927334
0.00640584190982
0.00694630039187
0.00732171187016
0.00755680392306
0.00768887444925
0.00775353045276
0.00778047451985
0.00779071304026
0.00779483473507
0.00779249075108
0.00777237274491
0.00771313134282
0.00758471279106
0.00735023634176
0.00697197071677
0.00642534023781
0.00577525742222
0.00615726705401
0.00625131035942
0.00584504469845
0.00649872414536
0.00705316640464
0.00744081553613
0.00768330298999
0.0078174783255
0.00788049854262
0.00790465180342
0.00791313732716
0.00791775329753
0.00791808376535
0.00790140129282
0.00784420634475
0.00771433823349
0.00747338779997
0.00708287987845
0.00652162455054
0.00585952235052
0.0062688388848
0.00629399364834
0.00588008635031
0.00654137351169
0.00710442352098
0.00749796318936
0.00774247352282
0.00787475971245
0.00793365142216
0.007953663777
0.00795980731071
0.00796491402685
0.00796848617577
0.00795653925684
0.00790370101892
0.00777592198735
0.00753342214327
0.00713706305633
0.00656690613926
0.00589669933297
0.00631524898435
0.00630572725835
0.00589215308732
0.00655795440832
0.00712542699247
0.00752106457245
0.00776485319057
0.00789394137469
0.00794848681262
0.00796464235638
0.00796870819263
0.0079742835715
0.00798079398807
0.00797329439878
0.00792500918182
0.00780043051949
0.00755868573394
0.007160149466
0.00658539096811
0.00591042529681
0.00633001117082
0.00630663743166
0.00589525686732
0.00656342401381
0.00713289289855
0.00752909217441
0.0077719400643
0.00789887078777
0.00795080337527
0.00796479993377
0.00796784133863
0.00797389073406
0.00798227926769
0.00797749864762
0.00793197231072
0.00780940791546
0.00756836589838
0.0071690010534
0.00659214673037
0.00591476915013
0.00633330534052
0.00630674805832
0.00589583067781
0.00656470459269
0.0071347797363
0.00753138136809
0.00777451818258
0.00790169200045
0.00795393630936
0.007968384873
0.00797196741418
0.0079785302472
0.00798727332052
0.00798254920814
0.00793672241588
0.00781357220452
0.0075717699545
0.00717156512338
0.0065939783629
0.00591608245411
0.00633528286793
0.00630625730568
0.00589374494598
0.00656150736401
0.00713071553208
0.00752751771947
0.00777214347358
0.00790193192374
0.00795739004222
0.00797487570243
0.00798051990223
0.00798757007897
0.00799506371076
0.0079876591838
0.00793843180898
0.00781209726569
0.00756811357087
0.00716713225009
0.00659026673643
0.00591377047784
0.00633501263967
0.00629498023405
0.00588236743258
0.00654652115798
0.00711212395689
0.00750741620876
0.00775316383442
0.00788649652977
0.00794683408585
0.007968981102
0.00797762391318
0.00798499715669
0.00798998478017
0.00797801738712
0.00792354811842
0.00779290436773
0.00754682430049
0.00714658162607
0.00657318683632
0.00590064637954
0.00632119384005
0.00625247797171
0.00584755286761
0.00650454501657
0.00706190227915
0.00745171262974
0.0076956771169
0.00783116065265
0.00789607250523
0.00792301208007
0.00793469297304
0.0079420864471
0.00794399560509
0.00792701669555
0.00786751061593
0.00773380506826
0.00748814571375
0.00709282526194
0.0065274393062
0.00586258677563
0.00627369956754
0.00614495900063
0.00576564208853
0.00641140977482
0.00695465368304
0.00733243688188
0.00756933832627
0.00770312439397
0.00777009308927
0.00780024825433
0.0078140088077
0.00782101573779
0.0078200726623
0.00779920286647
0.00773698179619
0.00760389648706
0.00736394882155
0.00698020807018
0.00642933286791
0.00577661259878
0.00615998707739
0.00592073269746
0.00560106373473
0.00623281182071
0.00675536635233
0.00711408004578
0.00733730921121
0.00746391959466
0.00752883712678
0.00755933236453
0.00757350647371
0.00757971521449
0.00757681500436
0.00755435781235
0.00749328165912
0.00736638479554
0.00713948196658
0.0067746706118
0.00624553802519
0.00560814946646
0.00592990526588
0.00550512119514
0.00530512989759
0.00592589294777
0.00642352140793
0.00675775518546
0.00696142010023
0.00707505557694
0.00713340653648
0.00716102100205
0.00717383849667
0.00717901124066
0.00717549869807
0.00715429033485
0.00709891675395
0.00698401784926
0.00677626995155
0.00643679121663
0.0059341626894
0.00530932923454
0.00551000600933
0.00479415707818
0.00482066760075
0.00544979071071
0.00592667371007
0.00623554525816
0.00641756554453
0.00651567838401
0.00656396970837
0.00658602551234
0.00659608179072
0.00660022538758
0.00659755018502
0.00658022834062
0.00653326446669
0.00643336290703
0.00624774656742
0.00593497335392
0.00545482743051
0.00482321522451
0.00479665946769
0.00365798106533
0.00411933727667
0.00482072884184
0.00530573385416
0.00560299930877
0.00576991185741
0.00585525235926
0.00589448752835
0.00591087016094
0.00591784003446
0.00592109545653
0.00591972669326
0.00590654471139
0.00586760896113
0.00578025224671
0.00561034409437
0.005310391076
0.00482358919516
0.00412103028087
0.00365904271076
0.0021483848411
0.00365785538557
0.00479398893051
0.00550547576717
0.00592263760644
0.00614975709801
0.00626164099061
0.00630989420945
0.00632777255747
0.00633478364118
0.00633994914566
0.00634141228091
0.00632791643189
0.00627957601845
0.00616422019852
0.00593234900274
0.00551108918631
0.00479705423281
0.00365922189689
0.00214707792112
0.00222417210468
0.00406481259903
0.00550490687969
0.00644485398164
0.00702020178082
0.00734644520085
0.00751222053832
0.00758418870111
0.00760941864532
0.00761754799262
0.00762305698482
0.00762443543384
0.0076057664802
0.00753703135374
0.00737152933819
0.00704301238515
0.00646277254674
0.00551567572436
0.00406816265297
0.00222376235566
0.004066030755
0.0045216884045
0.00531016254959
0.00587986552008
0.00624490426478
0.00645889534755
0.00657215670422
0.00662483442167
0.00664594521087
0.00665372344995
0.00665678473126
0.00665462311405
0.0066380968269
0.00658870016541
0.00647737920842
0.00626369934489
0.00589668591345
0.00532244403299
0.00452794378928
0.00406870730853
0.00550448741506
0.00530986735361
0.00594214030877
0.00645304284798
0.0067995577594
0.00701202952863
0.0071298786657
0.00718803114954
0.00721365404007
0.00722396849923
0.00722760505652
0.00722419602989
0.00720503606248
0.00715199016919
0.00703769716321
0.00682654687752
0.00647834447464
0.00596236385031
0.00532274385653
0.00551556568139
0.00644019314139
0.00587663902785
0.00644946776712
0.00695055344377
0.00730380180723
0.00752736335224
0.00765552564017
0.00772044955557
0.00774920728851
0.00776093570015
0.00776534388217
0.00776221349941
0.00774142233286
0.00768344546698
0.00756113965921
0.00734013015636
0.00698526587418
0.00647832588673
0.00589687611862
0.0064618760116
0.00700934104787
0.00623661646988
0.00678955266648
0.00729647869061
0.00766210423186
0.00789791677376
0.00803335698759
0.0081007651074
0.00812927510502
0.00814049492509
0.00814559450838
0.00814433065647
0.00812495087459
0.00806581800349
0.00793779850874
0.00770667696585
0.00734005963315
0.00682639141751
0.00626363715296
0.00704192814062
0.00732851351692
0.00644460552649
0.00699414091433
0.00751047594611
0.00788751168118
0.00813016412248
0.00826655341894
0.00833069280875
0.00835488172893
0.00836353234423
0.00836943151163
0.00837212833388
0.00835787856821
0.00830230604576
0.00817396413417
0.00793760274131
0.00756124271108
0.00703764561934
0.00647724873649
0.00737133969933
0.00748753822386
0.00655220393849
0.00710424784405
0.00762863646777
0.00801188434906
0.00825490502536
0.00838602134638
0.00844188690949
0.00845843660362
0.00846298291177
0.00846992900468
0.00847849418755
0.00847263149259
0.00842498805029
0.00830150822637
0.00806535347261
0.00768415453149
0.00715278396324
0.00658912176584
0.00753924158788
0.00755377924241
0.00660038053533
0.00715609895115
0.00768551512142
0.00806972162786
0.00830838816465
0.00843056490534
0.00847576940517
0.00848343525634
0.00848336046794
0.00849150252886
0.00850676874952
0.00851073268713
0.00847325873737
0.00835776308966
0.00812566756848
0.00774416632685
0.00720799547362
0.0066401639612
0.00761226285243
0.00757428401375
0.00661831704933
0.0071770826903
0.0077085722541
0.00809131629796
0.00832439305124
0.00843776385507
0.00847341694657
0.00847347665946
0.00846947211074
0.00847870015947
0.00849986299118
0.00851249171288
0.00848431399174
0.00837665670358
0.0081494455925
0.00776923786954
0.00723087189867
0.00665969310065
0.00763719466227
0.00757856663537
0.00662427415121
0.00718522418696
0.00771747522012
0.00809892171806
0.00832835240957
0.00843636653079
0.00846638798785
0.00846210102633
0.00845605408181
0.00846620258472
0.00849105498162
0.00850896474347
0.00848626617822
0.00838309654124
0.0081586197116
0.00777911736823
0.00723961601122
0.00666621182047
0.00764391129109
0.00758106700707
0.00662675689592
0.00718875233954
0.00772173404991
0.00810367421494
0.00833332044201
0.00844149337467
0.00847186457794
0.0084682432624
0.00846305797214
0.00847405897999
0.00849950299216
0.00851745829457
0.00849414128713
0.00838986696332
0.00816404792614
0.00778317567247
0.00724242086714
0.00666822282445
0.00764732005445
0.00758133059939
0.00662524964517
0.00718682915862
0.0077205459286
0.00810467959454
0.00833829031984
0.00845203797677
0.00848870972577
0.00849076974865
0.00848933037054
0.0085010435249
0.00852386519421
0.00853652179986
0.00850645626059
0.00839551901827
0.00816435471746
0.00778014994005
0.00723819654961
0.00666458720975
0.00764553208755
0.00756421241239
0.00661054607304
0.00717038854384
0.00770300920264
0.00808905224358
0.00832825447825
0.00845079618604
0.00849757752118
0.00850847953265
0.00851256204678
0.00852463169921
0.00854238356272
0.0085462147222
0.00850564470408
0.00838490111544
0.00814651120675
0.00775869530672
0.00721689107757
0.00664524161442
0.00762143926918
0.00749955090393
0.00656393757464
0.00712085656416
0.00764887863464
0.00803375902124
0.00827699907087
0.0084083033989
0.00846612311602
0.00848690844799
0.00849691564003
0.00850888568705
0.00852046079718
0.00851421891764
0.00846248430689
0.00833214662774
0.00808776545508
0.00769841282889
0.00715976676957
0.00659156540307
0.0075453325347
0.0073401534077
0.00645614240551
0.00701063872303
0.0075304047288
0.00790908762385
0.0081519123355
0.00828857891973
0.00835502955761
0.00838415395327
0.00839898413535
0.00841034707005
0.00841603160698
0.00840088276503
0.00834025335025
0.0082036948565
0.00795746853969
0.00757169905933
0.00704023665078
0.00647554013853
0.00737247119007
0.00701911352972
0.00624653623204
0.00680406477317
0.00731412830072
0.00768142416675
0.00791802289209
0.00805441278646
0.00812468310252
0.00815842285628
0.00817580669057
0.00818598031862
0.00818698142674
0.00816575039185
0.00810051095019
0.00796306892273
0.00772150263255
0.00734484492126
0.00682411994586
0.00625832120316
0.0070389797446
0.0064468763525
0.00588394598744
0.00646075587251
0.00696446238468
0.00731928023003
0.00754432807076
0.00767468036297
0.00774317215031
0.00777704568302
0.00779425835139
0.00780271798047
0.0078007125553
0.00777697125442
0.00771211083074
0.00758007080312
0.00734840746358
0.00698471279953
0.00647279802565
0.00589025339826
0.00645765241774
0.00550737059957
0.00531416703161
0.00594973441819
0.00646273695894
0.00681045893498
0.00702430662745
0.00714469116473
0.00720677923811
0.00723699053599
0.00725190430532
0.00725855515655
0.00725557870723
0.0072330577213
0.00717287495033
0.00704930124851
0.00682915880297
0.0064746842073
0.00595639435566
0.00531766685064
0.00551300472544
0.00406580294499
0.00452351621275
0.00531451403302
0.00588584937301
0.0062518172906
0.00646696891098
0.006582551842
0.00663886007252
0.00666425937541
0.0066759731356
0.00668137695393
0.00667897200534
0.0066588777478
0.00660290757112
0.00648370241039
0.0062632648415
0.00589265960355
0.0053185041746
0.00452620863026
0.00406842242197
0.00222377188679
0.00406561168702
0.00550747132549
0.00644888921642
0.00702567207296
0.00735444986905
0.00752484442894
0.00760328783863
0.00763565116844
0.00765005741643
0.00765920070603
0.00766021659889
0.00763624725309
0.00755800081726
0.00738151290518
0.0070441829492
0.00645994926307
0.00551383368175
0.00406881451372
0.00222213635897
0.00226441904272
0.00431477877927
0.00597756066611
0.00710460851412
0.00781978423126
0.00823759748226
0.0084538402083
0.00854787268747
0.00858027044727
0.00859103616774
0.00859998137695
0.0086049540112
0.0085845504205
0.00849865578196
0.00828722665023
0.00787071993898
0.00715073367027
0.00601048604145
0.0043286728645
0.00226498364645
0.00431685598207
0.0047838446116
0.00565896141407
0.00631651513717
0.00675496084108
0.00702152737147
0.00716659125073
0.00723506247322
0.00726248956346
0.00727259211957
0.00727723122201
0.00727594262298
0.00725670543855
0.00719590016269
0.00705787904446
0.00679649363354
0.00635846394148
0.00569405090196
0.00480589674159
0.00432972540602
0.00597531387771
0.00565658458632
0.00633085858777
0.00690138374157
0.0073025728128
0.00755623622988
0.00770017328248
0.007771632561
0.00780280799711
0.00781502492343
0.00781993265798
0.00781754667822
0.00779650276276
0.00773528217327
0.00760139651983
0.00735539353633
0.00695665931068
0.00638102120361
0.00569460546216
0.00601071115958
0.00709112671756
0.00630534955479
0.00689144249799
0.00743456562668
0.00783129547563
0.0080894912258
0.00823979508219
0.00831476001835
0.00834606832992
0.00835792429507
0.00836327268502
0.00836226088169
0.00834215096507
0.00827945076095
0.0081427096447
0.00789590539123
0.00750405467434
0.00695648608838
0.00635868158133
0.00714974812434
0.00778977377747
0.00673023779485
0.00727693346939
0.00781425167279
0.00821571495675
0.00848003765413
0.00863063341067
0.00870130250391
0.00872695724003
0.00873533624663
0.00874140990696
0.00874504083495
0.00873103981996
0.00867278254806
0.0085370604309
0.00828798853397
0.00789508302585
0.00735442650358
0.00679570824576
0.00786908466181
0.00818891837707
0.00698167805314
0.00751277957444
0.00805227122402
0.00845870783576
0.00872087875259
0.008861717066
0.00891870322208
0.00893227220924
0.00893433794802
0.00894211108357
0.00895474989438
0.00895337507513
0.00890704511496
0.00877948117385
0.00853375326427
0.00813986832276
0.00759937306227
0.00705582833592
0.00828607303919
0.00838793020884
0.00711335765752
0.00764050685656
0.00818347590997