/*--------------------------------*- C++ -*----------------------------------*\
| =========                 |                                                 |
| \\      /  F ield         | OpenFOAM: The Open Source CFD Toolbox           |
|  \\    /   O peration     | Version:  3.0.1                                 |
|   \\  /    A nd           | Web:      www.OpenFOAM.org                      |
|    \\/     M anipulation  |                                                 |
\*---------------------------------------------------------------------------*/
FoamFile
{
    version     2.0;
    format      ascii;
    class       surfaceScalarField;
    location    "2.2";
    object      phi;
}
// * * * * * * * * * * * * * * * * * * * * * * * * * * * * * * * * * * * * * //

dimensions      [0 3 -1 0 0 0 0];

internalField   nonuniform List<scalar> 
22672
(
6.10967925322e-07
5.41814470788e-07
-1.15278972911e-06
1.58768590551e-06
3.76890425789e-07
-1.35361662464e-06
2.60375514649e-06
3.34840734653e-07
-1.35091838429e-06
3.39502774507e-06
3.85757821832e-07
-1.17703868452e-06
3.79284866268e-06
5.20223494227e-07
-9.18052344894e-07
3.71721734659e-06
6.95193778501e-07
-6.19569980547e-07
3.17829414085e-06
8.63343929876e-07
-3.24427829997e-07
2.25004264225e-06
9.99245332215e-07
-7.10005818847e-08
1.04980602447e-06
1.080963465e-06
1.19266705245e-07
-2.66896609714e-07
1.10558939868e-06
2.1110707619e-07
-1.5389683061e-06
1.0763051937e-06
1.9576069146e-07
-2.61990518391e-06
9.97882810977e-07
8.30487317938e-08
-3.39381522542e-06
8.75607200445e-07
-1.01701858703e-07
-3.78233952847e-06
7.21288820033e-07
-3.32768446518e-07
-3.7464890012e-06
5.56176755779e-07
-5.92030377247e-07
-3.29410619549e-06
4.01089192633e-07
-8.53474274169e-07
-2.50286696919e-06
2.91911785065e-07
-1.0831525496e-06
-1.52308435838e-06
2.5868768586e-07
-1.23847121999e-06
-5.88105488994e-07
3.01319173525e-07
-1.23629852654e-06
4.47926804401e-07
-1.03603247381e-06
4.57438667731e-07
1.42921769526e-06
-1.34484993422e-06
1.56640158819e-06
1.37952819075e-06
-2.1116093712e-06
2.78308283336e-06
1.47127404764e-06
-2.35312327207e-06
3.73324720788e-06
1.69942409476e-06
-2.26383905349e-06
4.22106612846e-06
2.02792171954e-06
-1.99552505816e-06
4.16153606603e-06
2.37949618685e-06
-1.6247797122e-06
3.5675200838e-06
2.68135976338e-06
-1.22400673386e-06
2.52649964007e-06
2.89960384893e-06
-8.59344598623e-07
1.18355451336e-06
3.01558537706e-06
-5.91683076327e-07
-2.85684607346e-07
3.03216344061e-06
-4.57341032286e-07
-1.70388167658e-06
2.96137370877e-06
-4.66877328356e-07
-2.91018125969e-06
2.81304262707e-06
-6.08865741495e-07
-3.77365551774e-06
2.59733281259e-06
-8.58256292958e-07
-4.20081541897e-06
2.32750670419e-06
-1.17906217257e-06
-4.14363340604e-06
2.02453051473e-06
-1.52553910235e-06
-3.60675310533e-06
1.71372414324e-06
-1.84951770037e-06
-2.66877256336e-06
1.4444430279e-06
-2.09051340555e-06
-1.50219319982e-06
1.26643482522e-06
-2.17432740969e-06
-4.44145560386e-07
1.19512131561e-06
-1.95185015858e-06
1.23093309609e-06
-1.2271519117e-06
4.14894134681e-07
2.37405255361e-06
-1.35973671626e-06
1.6685437352e-06
2.50956315906e-06
-2.38369268755e-06
3.05923527346e-06
2.76532306933e-06
-2.6847485073e-06
4.12498643313e-06
3.1661471337e-06
-2.53248163316e-06
4.64915959101e-06
3.64844979683e-06
-2.14470798607e-06
4.55419429724e-06
4.11384378812e-06
-1.63938838579e-06
3.87179991045e-06
4.48125218175e-06
-1.11750360254e-06
2.71278267049e-06
4.72108276371e-06
-6.62466983678e-07
1.24229904909e-06
4.82607500099e-06
-3.40011277274e-07
-3.50066275405e-07
4.81272078042e-06
-1.88197380053e-07
-1.87862593238e-06
4.70073804729e-06
-2.10810108918e-07
-3.17929471845e-06
4.50532330232e-06
-3.91617208163e-07
-4.11481990462e-06
4.23909332768e-06
-7.06240282943e-07
-4.58429290159e-06
3.9091994071e-06
-1.11222403435e-06
-4.52896331005e-06
3.52968491504e-06
-1.56048749819e-06
-3.94268457988e-06
3.11954589791e-06
-1.9921030681e-06
-2.89822854658e-06
2.72798468786e-06
-2.32799934803e-06
-1.58215419579e-06
2.41233243491e-06
-2.46197277206e-06
-4.02951268912e-07
2.20281335731e-06
-2.18689512754e-06
2.06311989512e-06
-1.2351379296e-06
4.57912212856e-07
3.13963197692e-06
-1.2234984171e-06
1.8956264486e-06
3.4271279677e-06
-2.35528592922e-06
3.4677367497e-06
3.79484619297e-06
-2.60163990213e-06
4.62868905494e-06
4.28774474746e-06
-2.28255565606e-06
5.14735732403e-06
4.82458116045e-06
-1.69480450354e-06
4.96839516506e-06
5.30186722291e-06
-1.0090653956e-06
4.15797147422e-06
5.64711125022e-06
-3.55439055848e-07
2.856998312e-06
5.84093857477e-06
1.81113719688e-07
1.2531735251e-06
5.89296669812e-06
5.36929156874e-07
-4.57021799366e-07
5.83348415353e-06
6.89427526611e-07
-2.08648910927e-06
5.69128433847e-06
6.38916125408e-07
-3.47263546987e-06
5.48460507216e-06
4.0685945131e-07
-4.48132717898e-06
5.22115603019e-06
2.66239686308e-08
-5.00413414757e-06
4.90291850702e-06
-4.70916694999e-07
-4.97152646861e-06
4.52926497156e-06
-1.03219151183e-06
-4.35802801073e-06
4.10928062045e-06
-1.60323596327e-06
-3.22129975456e-06
3.68175250286e-06
-2.09049777833e-06
-1.75588572087e-06
3.29999813411e-06
-2.35308041496e-06
-4.31391627941e-07
3.00150017717e-06
-2.1231807799e-06
2.7231830576e-06
-1.09145440788e-06
5.81682670648e-07
3.5681497034e-06
-1.01020579779e-06
2.2182527693e-06
3.94919015185e-06
-2.15863747382e-06
3.95162840029e-06
4.35716987814e-06
-2.29570386593e-06
5.16957865196e-06
4.84883979905e-06
-1.77904892039e-06
5.63864093708e-06
5.34075155426e-06
-9.852353221e-07
5.34014193427e-06
5.74079582923e-06
-1.40431527063e-07
4.37913433661e-06
5.9911616487e-06
6.16955521807e-07
2.93327491841e-06
6.09202281747e-06
1.19477320154e-06
1.20820150226e-06
6.06547511718e-06
1.55256227964e-06
-5.96877391429e-07
5.95624327825e-06
1.68231608485e-06
-2.30180955352e-06
5.79949399715e-06
1.59671790766e-06
-3.75327497596e-06
5.61381884436e-06
1.32224644671e-06
-4.82202636697e-06
5.40040935439e-06
8.89492715244e-07
-5.40162145173e-06
5.15039506928e-06
3.32113522362e-07
-5.40719490706e-06
4.85305891616e-06
-3.18224696857e-07
-4.79249143971e-06
4.50164915505e-06
-1.00707509568e-06
-3.59256221141e-06
4.12128568198e-06
-1.63946422318e-06
-2.00029523578e-06
3.75162350185e-06
-2.04389290143e-06
-5.2679369423e-07
3.4273562758e-06
-1.89935719206e-06
3.07087742338e-06
-8.74487427594e-07
7.46977421258e-07
3.57557091884e-06
-7.54402381327e-07
2.56559689505e-06
3.98600001546e-06
-1.85543258407e-06
4.42019191661e-06
4.36966220489e-06
-1.86708977545e-06
5.65314716568e-06
4.78789928253e-06
-1.17201613132e-06
6.04101153974e-06
5.16950747678e-06
-2.1662074579e-07
5.60356187858e-06
5.43972949719e-06
7.38516084917e-07
4.49481470274e-06
5.56557113697e-06
1.53433769551e-06
2.92236443172e-06
5.55816543142e-06
2.10630692784e-06
1.10924233446e-06
5.45059319241e-06
2.42800206115e-06
-7.50268462627e-07
5.29973520492e-06
2.51601547332e-06
-2.49085591108e-06
5.14410055035e-06
2.39597618764e-06
-3.9751995863e-06
5.00080882999e-06
2.09734807692e-06
-5.08402097353e-06
4.86348616955e-06
1.64573862933e-06
-5.71155472756e-06
4.7126182913e-06
1.06530487909e-06
-5.76354312737e-06
4.52671406656e-06
3.78328448355e-07
-5.16891964479e-06
4.28926780736e-06
-3.8224565285e-07
-3.9390907098e-06
4.00765742542e-06
-1.11620267367e-06
-2.25694992407e-06
3.70674454883e-06
-1.6372623069e-06
-6.55287995798e-07
3.41103614916e-06
-1.5853410702e-06
3.03947365175e-06
-6.23883377374e-07
9.11099689737e-07
3.15465166363e-06
-4.90182441955e-07
2.87100843488e-06
3.53189432442e-06
-1.50580434813e-06
4.798979505e-06
3.84367970546e-06
-1.40198896359e-06
6.01182663189e-06
4.14875286613e-06
-5.73700110146e-07
6.30166835381e-06
4.3935818901e-06
4.86085240962e-07
5.73100963254e-06
4.52727804448e-06
1.48311177522e-06
4.49380502133e-06
4.53442705592e-06
2.26834978456e-06
2.82602596794e-06
4.43452893555e-06
2.7914154288e-06
9.65899031905e-07
4.26493283159e-06
3.04578548443e-06
-9.02511837966e-07
4.08977394027e-06
3.07836849397e-06
-2.63525299956e-06
3.94775709621e-06
2.92907937037e-06
-4.1164255566e-06
3.85350244224e-06
2.62847260418e-06
-5.23980049214e-06
3.79500744348e-06
2.19184690091e-06
-5.90135801773e-06
3.74460772633e-06
1.6295616282e-06
-5.9966675659e-06
3.67334011618e-06
9.48677996759e-07
-5.43612086406e-06
3.55776301118e-06
1.7095407714e-07
-4.20501711095e-06
3.39347909606e-06
-6.16927656869e-07
-2.47408822449e-06
3.19059577672e-06
-1.21478056283e-06
-7.80771475738e-07
2.96164821919e-06
-1.24392787806e-06
2.63353155017e-06
-3.7482837694e-07
1.04967314332e-06
2.35343887137e-06
-2.48460749319e-07
3.10212898378e-06
2.64676861766e-06
-1.16732970581e-06
5.06035844301e-06
2.85845579056e-06
-9.73004242085e-07
6.23017794833e-06
3.03765119183e-06
-5.87156929478e-08
6.42265403041e-06
3.15045306611e-06
1.0506553656e-06
5.73499499156e-06
3.16871414653e-06
2.04622538815e-06
4.39589482821e-06
3.08915822718e-06
2.78437048404e-06
2.66566311283e-06
2.93431305747e-06
3.23044743421e-06
7.96703637121e-07
2.73904823628e-06
3.39484184976e-06
-1.04141096589e-06
2.5648182903e-06
3.3630659343e-06
-2.72978279335e-06
2.44599796725e-06
3.19012486844e-06
-4.17718107406e-06
2.39431560294e-06
2.90657786227e-06
-5.29216830996e-06
2.39702744934e-06
2.51295955133e-06
-5.97287381358e-06
2.42480909876e-06
2.00049681871e-06
-6.10588838979e-06
2.44674256261e-06
1.3596059179e-06
-5.58449903187e-06
2.43803868497e-06
5.98330448402e-07
-4.37261426128e-06
2.38610330873e-06
-2.04511474952e-07
-2.62862175315e-06
2.28651319579e-06
-8.39910404506e-07
-8.83298925471e-07
2.14576209957e-06
-9.29435650898e-07
1.90700555781e-06
-1.56771859126e-07
1.1445822401e-06
1.27244792492e-06
-6.35903896172e-08
3.24320239123e-06
1.44206357062e-06
-8.93913365261e-07
5.19973349921e-06
1.54039922525e-06
-6.38472042101e-07
6.31817022746e-06
1.59769333604e-06
3.21524231862e-07
6.42677428132e-06
1.59864609279e-06
1.44320617127e-06
5.6483672973e-06
1.53571381565e-06
2.4114099937e-06
4.23747531693e-06
1.41317196961e-06
3.08687955515e-06
2.4741524793e-06
1.25143640042e-06
3.4461988161e-06
6.24736302545e-07
1.07745721533e-06
3.51100421043e-06
-1.1573283947e-06
9.34756359415e-07
3.41212140651e-06
-2.77828069498e-06
8.47244095442e-07
3.21969913907e-06
-4.17170858629e-06
8.23476624528e-07
2.96425869185e-06
-5.26125888673e-06
8.56688661367e-07
2.62988055911e-06
-5.94694236954e-06
9.26430349941e-07
2.18405417562e-06
-6.10752328019e-06
1.00732690935e-06
1.59998975591e-06
-5.62219896104e-06
1.07756116178e-06
8.75148270031e-07
-4.44302166346e-06
1.11771390563e-06
8.92093921087e-08
-2.70990098679e-06
1.11827950439e-06
-5.64887520008e-07
-9.48803541649e-07
1.0759904185e-06
-6.91324674526e-07
9.63375990498e-07
-5.17288688205e-09
1.18743672619e-06
3.64826603136e-08
4.8530334328e-08
3.29338411273e-06
6.31842206683e-08
-7.27065474944e-07
5.22922998608e-06
4.42295002473e-08
-4.39672977196e-07
6.30233838418e-06
-1.05623948948e-08
5.35150867062e-07
6.35370102393e-06
-1.03409813459e-07
1.65069663791e-06
5.52127344057e-06
-2.19825997657e-07
2.58796986155e-06
4.07437502615e-06
-3.5157353082e-07
3.21164471617e-06
2.30426710559e-06
-4.84232258612e-07
3.50577516099e-06
4.84900055167e-07
-6.02560831734e-07
3.49938124911e-06
-1.24216550289e-06
-6.90992755655e-07
3.35280857039e-06
-2.799476274e-06
-7.40352275706e-07
3.14489928465e-06
-4.13730141286e-06
-7.45247743071e-07
2.90654060394e-06
-5.19107867975e-06
-7.02171132981e-07
2.61262792514e-06
-5.86507243797e-06
-6.15922445396e-07
2.21633801575e-06
-6.03553549991e-06
-5.01107048428e-07
1.67888985915e-06
-5.57485109985e-06
-3.7348064808e-07
9.90352250813e-07
-4.42561968586e-06
-2.56186740015e-07
2.24666403449e-07
-2.71788035859e-06
-1.6477708753e-07
-4.24683309497e-07
-9.66415695156e-07
-1.09251734686e-07
-5.66221435086e-07
-9.11233581814e-08
8.80847199462e-08
1.17755213339e-06
-1.20838963159e-06
6.73224328244e-08
3.25722609548e-06
-1.32596767335e-06
-6.90519132338e-07
5.16067143382e-06
-1.46004873022e-06
-3.99163704538e-07
6.20534602308e-06
-1.62428777696e-06
5.69054366951e-07
6.23358739117e-06
-1.80016266024e-06
1.66851466217e-06
5.38867720156e-06
-1.9591967694e-06
2.58428301244e-06
3.94257683824e-06
-2.08765993209e-06
3.18218697028e-06
2.18784924371e-06
-2.17835297783e-06
3.44884619553e-06
3.97373357975e-07
-2.22821485815e-06
3.41612535334e-06
-1.29118447564e-06
-2.2519458717e-06
3.24950421086e-06
-2.8038824671e-06
-2.2557685232e-06
3.02810587717e-06
-4.09538455956e-06
-2.23759328737e-06
2.78383838434e-06
-5.10790543877e-06
-2.18400130023e-06
2.49434170771e-06
-5.7530656398e-06
-2.08433410846e-06
2.11356324593e-06
-5.91204052222e-06
-1.94133482328e-06
1.59919550459e-06
-5.4583609426e-06
-1.76425096283e-06
9.37085632373e-07
-4.33292871421e-06
-1.57740597253e-06
1.95784239956e-07
-2.65913377364e-06
-1.40323116448e-06
-4.35341399212e-07
-9.43145442156e-07
-1.25552872378e-06
-5.69710270793e-07
-1.11235224707e-06
7.80844964377e-08
1.11759285119e-06
-2.30958619808e-06
-1.63938523171e-08
3.13994289104e-06
-2.56246217039e-06
-7.85852545163e-07
5.00421275751e-06
-2.80574385359e-06
-5.18571375079e-07
6.0360812108e-06
-3.07646627989e-06
4.20313472916e-07
6.07750056471e-06
-3.3384695222e-06
1.49689041417e-06
5.26307818498e-06
-3.54663144091e-06
2.40185871315e-06
3.8549748448e-06
-3.68137484025e-06
3.00181799776e-06
2.13680860258e-06
-3.74109256837e-06
3.28090326069e-06
3.72512631003e-07
-3.73384421823e-06
3.26992040098e-06
-1.29661230983e-06
-3.6965933479e-06
3.11376545687e-06
-2.78705779808e-06
-3.64864074605e-06
2.88330931753e-06
-4.04512834182e-06
-3.59176311809e-06
2.61223128102e-06
-5.01417046782e-06
-3.50779722571e-06
2.29282902901e-06
-5.61570041132e-06
-3.37700758326e-06
1.89419521521e-06
-5.7427752158e-06
-3.193489126e-06
1.37922239646e-06
-5.27849133429e-06
-2.96142051068e-06
7.32880959828e-07
-4.16903792468e-06
-2.70715012024e-06
2.02882684499e-08
-2.53645446041e-06
-2.45382190624e-06
-5.81993089892e-07
-8.78644025914e-07
-2.22499211283e-06
-6.88345911752e-07
-1.97264791288e-06
-1.83472913044e-08
1.00627382587e-06
-3.14693834864e-06
-1.68919243219e-07
2.94132375633e-06
-3.4992052864e-06
-9.98303872795e-07
4.7565420693e-06
-3.8366351634e-06
-7.8432373396e-07
5.79006805653e-06
-4.21059355087e-06
1.00604565094e-07
5.87733144349e-06
-4.56452423292e-06
1.13879405e-06
5.13334224385e-06
-4.83776130577e-06
2.03512053202e-06
3.79939921697e-06
-5.00163824809e-06
2.65420602061e-06
2.14160088835e-06
-5.05675219275e-06
2.97345531116e-06
4.08104302194e-07
-5.01983803715e-06
3.01948556467e-06
-1.25005388066e-06
-4.9375918592e-06
2.89915003437e-06
-2.73087002237e-06
-4.83756541456e-06
2.6697329439e-06
-3.96367046873e-06
-4.72621462791e-06
2.36724359297e-06
-4.88884741955e-06
-4.58768605589e-06
2.0050576303e-06
-5.43830573343e-06
-4.40180689793e-06
1.57425034985e-06
-5.52085431653e-06
-4.15892298279e-06
1.04797660449e-06
-5.03591285746e-06
-3.8602346757e-06
4.13868731674e-07
-3.93587529379e-06
-3.53263123199e-06
-2.74558394273e-07
-2.35400111705e-06
-3.20873405863e-06
-8.26962080195e-07
-7.75186605869e-07
-2.91522649732e-06
-8.88578844851e-07
-2.59115094168e-06
-1.56682447795e-07
8.54685445549e-07
-3.61375723028e-06
-3.87864098626e-07
2.66723615518e-06
-4.01774741554e-06
-1.29400560508e-06
4.41532988326e-06
-4.42154968641e-06
-1.16317590226e-06
5.45761969724e-06
-4.88209567029e-06
-3.70784376161e-07
5.61473881982e-06
-5.32812302639e-06
6.06482455495e-07
4.9739922791e-06
-5.6783822573e-06
1.4813690762e-06
3.74589705577e-06
-5.89326327422e-06
2.11972006251e-06
2.17309938988e-06
-5.97130815524e-06
2.48735138379e-06
4.86750335965e-07
-5.93339602213e-06
2.59990281666e-06
-1.1509979486e-06
-5.82684685139e-06
2.52699748046e-06
-2.61791721448e-06
-5.68274153773e-06
2.31208861799e-06
-3.82402808556e-06
-5.5127246757e-06
1.99261383034e-06
-4.70412260581e-06
-5.30844750886e-06
1.60084919075e-06
-5.19832299146e-06
-5.05502094822e-06
1.14740850998e-06
-5.23097550362e-06
-4.74304700987e-06
6.16771924617e-07
-4.72155269813e-06
-4.37524344726e-06
5.58297982097e-09
-3.63798268791e-06
-3.97699389142e-06
-6.39208595274e-07
-2.12000208598e-06
-3.59204794653e-06
-1.13466635761e-06
-6.44159817938e-07
-3.25520376279e-06
-1.13586351838e-06
-2.89946829184e-06
-3.35841263301e-07
6.81008143178e-07
-3.65377205988e-06
-6.40990603301e-07
2.33572936146e-06
-4.04671888261e-06
-1.62574647618e-06
3.99090666064e-06
-4.47087923226e-06
-1.60584413115e-06
5.0344244226e-06
-4.98087554998e-06
-9.4473422563e-07
5.27541858476e-06
-5.49431104005e-06
-7.48029747361e-08
4.76176070279e-06
-5.91651375983e-06
7.51791464851e-07
3.66654570372e-06
-6.19020481183e-06
1.39215701793e-06
2.20427280768e-06
-6.30948226771e-06
1.80044565896e-06
5.8920921267e-07
-6.29358573889e-06
1.97525023895e-06
-1.00749355756e-06
-6.18482428805e-06
1.95467580398e-06
-2.44548150102e-06
-6.01410886349e-06
1.76935008716e-06
-3.61689540354e-06
-5.79738351581e-06
1.45606735941e-06
-4.44906219436e-06
-5.53561445547e-06
1.05932867629e-06
-4.8868017442e-06
-5.22137327357e-06
6.04087572772e-07
-4.8699624865e-06
-4.84836735624e-06
8.847788543e-08
-4.33583109996e-06
-4.42066236168e-06
-4.88714351667e-07
-3.27976727159e-06
-3.97228368552e-06
-1.06077452163e-06
-1.84768594037e-06
-3.55357969674e-06
-1.4705487981e-06
-5.00573715973e-07
-3.20657165119e-06
-1.39574266685e-06
-2.86801856024e-06
-5.32022199203e-07
5.08224808147e-07
-3.2601534367e-06
-9.01840149931e-07
1.97671499647e-06
-3.57362106816e-06
-1.94158406865e-06
3.50802718894e-06
-3.95584582678e-06
-2.04634130052e-06
4.53462751373e-06
-4.45031930817e-06
-1.55715222355e-06
4.856077721e-06
-4.97661506129e-06
-8.39142266841e-07
4.48227246828e-06
-5.43213405067e-06
-1.10571495249e-07
3.539291655e-06
-5.74931695144e-06
5.0209452492e-07
2.21090773467e-06
-5.90948121438e-06
9.28382862156e-07
6.94039511926e-07
-5.9282069294e-06
1.15148793672e-06
-8.3545157754e-07
-5.837312102e-06
1.18197630064e-06
-2.223132996e-06
-5.66499101121e-06
1.03856030752e-06
-3.34699429541e-06
-5.42863016207e-06
7.5510451389e-07
-4.1260502993e-06
-5.13809117551e-06
3.81529540646e-07
-4.50708299138e-06
-4.79110831365e-06
-4.92348703983e-08
-4.44188146041e-06
-4.38795857714e-06
-5.25612089768e-07
-3.89342834809e-06
-3.93964097709e-06
-1.02947530295e-06
-2.88113545611e-06
-3.48528302593e-06
-1.49929334401e-06
-1.55974749666e-06
-3.08163687955e-06
-1.79332964725e-06
-3.62810200197e-07
-2.77073963646e-06
-1.63276755057e-06
-2.50254991188e-06
-7.28277629296e-07
3.77799354357e-07
-2.50302657106e-06
-1.13492204498e-06
1.65150377865e-06
-2.67023772074e-06
-2.17708286109e-06
3.03186785617e-06
-2.94120661696e-06
-2.3949980185e-06
4.01321142831e-06
-3.33673015189e-06
-2.09492742023e-06
4.39470240969e-06
-3.79366505057e-06
-1.56443605259e-06
4.14870417991e-06
-4.21571143271e-06
-9.70420262859e-07
3.36128930165e-06
-4.52992432297e-06
-4.31974796409e-07
2.17615104155e-06
-4.71254548767e-06
-1.17958455076e-08
7.77593331397e-07
-4.76180216393e-06
2.32153307579e-07
-6.61711944946e-07
-4.70237465227e-06
3.04367200062e-07
-1.97894965201e-06
-4.55583369413e-06
2.08079148088e-07
-3.04408482904e-06
-4.33764635274e-06
-2.58501035704e-08
-3.76431633535e-06
-4.0584820836e-06
-3.59378956283e-07
-4.09098671531e-06
-3.72840901535e-06
-7.36029942023e-07
-3.98716331104e-06
-3.35179383769e-06
-1.13998865334e-06
-3.43943587525e-06
-2.94622217093e-06
-1.54114613796e-06
-2.49144525186e-06
-2.55475460623e-06
-1.87851829827e-06
-1.30161434892e-06
-2.23286220857e-06
-2.03860424444e-06
-2.61561446646e-07
-2.0126340437e-06
-1.79815678135e-06
-1.86703438723e-06
-8.9707586889e-07
3.27033697756e-07
-1.53555650217e-06
-1.29449841093e-06
1.42504726983e-06
-1.51367891566e-06
-2.25456629131e-06
2.6409357548e-06
-1.6211210303e-06
-2.53596766634e-06
3.54607439575e-06
-1.84528361064e-06
-2.39657875826e-06
3.94995913235e-06
-2.15065426547e-06
-2.0468894197e-06
3.79931426344e-06
-2.46180011923e-06
-1.60326102724e-06
3.14317814811e-06
-2.71356821001e-06
-1.16021556574e-06
2.09753805742e-06
-2.87734628319e-06
-7.8955582415e-07
8.21303462045e-07
-2.94308881767e-06
-5.42476579266e-07
-5.15452302334e-07
-2.91945690748e-06
-4.46160741238e-07
-1.74911368977e-06
-2.82061263827e-06
-5.01559077436e-07
-2.74377601704e-06
-2.65650107865e-06
-6.86482700073e-07
-3.40748639715e-06
-2.43966907592e-06
-9.5510246604e-07
-3.68877607061e-06
-2.18256985709e-06
-1.26454922326e-06
-3.56322364449e-06
-1.89744033702e-06
-1.57990544748e-06
-3.03715373452e-06
-1.60588389694e-06
-1.86640741755e-06
-2.17219852138e-06
-1.34809671836e-06
-2.07161202132e-06
-1.12265823902e-06
-1.16872587305e-06
-2.1136752459e-06
-2.2483437619e-07
-1.0820054878e-06
-1.82845087363e-06
-1.09205352421e-06
-9.99814300996e-07
3.59842832584e-07
-5.98033440944e-07
-1.29735917678e-06
1.32328290299e-06
-4.51611214494e-07
-2.02550056327e-06
2.38230451411e-06
-4.21886360521e-07
-2.25824884e-06
3.19066059342e-06
-4.72764325612e-07
-2.18086792966e-06
3.57508082593e-06
-5.9586862826e-07
-1.93919872428e-06
3.47170430482e-06
-7.49108745756e-07
-1.60930830862e-06
2.90771962667e-06
-8.89788444089e-07
-1.25978942353e-06
1.97536966833e-06
-9.95138750772e-07
-9.4985296147e-07
8.14735371917e-07
-1.05124712247e-06
-7.31203859898e-07
-4.15370580407e-07
-1.05432086243e-06
-6.35027501206e-07
-1.55755352781e-06
-1.01101245377e-06
-6.67415366185e-07
-2.48003484103e-06
-9.23388000274e-07
-8.10630360473e-07
-3.0920486799e-06
-8.0330211572e-07
-1.02435196518e-06
-3.34371276772e-06
-6.62441798427e-07
-1.26846291182e-06
-3.21841354337e-06
-5.14276708874e-07
-1.50846179785e-06
-2.73365588804e-06
-3.77016670031e-07
-1.71362377459e-06
-1.95950899004e-06
-2.78232018043e-07
-1.84401040559e-06
-1.04016895266e-06
-2.43304199538e-07
-1.84476042594e-06
-2.51222487488e-07
-2.69229175937e-07
-1.60172144095e-06
-3.81245931507e-07
-9.62029347644e-07
5.06387677016e-07
-1.10441625138e-06
1.35120994024e-06
-1.29642845159e-06
2.22630914388e-06
-1.29698044347e-06
2.89232412394e-06
-1.13877421349e-06
3.2016365199e-06
-9.05176136512e-07
3.09320312848e-06
-6.40670872814e-07
2.58741935171e-06
-3.84000772183e-07
1.75928213679e-06
-1.66998337167e-07
7.32243199081e-07
-2.42056931862e-08
-3.63091755474e-07
4.10159616577e-08
-1.37925125313e-06
5.14843662522e-09
-2.20675846587e-06
-9.58797156226e-08
-2.76008815904e-06
-2.49971544084e-07
-2.99346351001e-06
-4.29065677334e-07
-2.89526974579e-06
-6.12469758925e-07
-2.48504515732e-06
-7.87240565479e-07
-1.83187003203e-06
-9.31406448713e-07
-1.06216034072e-06
-1.01301317446e-06
-3.68407190562e-07
-9.62981654451e-07
-7.49652920468e-07
9.25466075761e-07
8.58175892949e-07
-2.93643881347e-06
2.03816898839e-06
9.826276979e-07
-3.44895454904e-06
3.09967334101e-06
1.13999459912e-06
-3.55242457605e-06
3.89523269925e-06
1.34916641326e-06
-3.32177141192e-06
4.26996751853e-06
1.57045286646e-06
-2.86324655497e-06
4.14422523367e-06
1.76743776981e-06
-2.26127151201e-06
3.51898980863e-06
1.91309762198e-06
-1.61229564731e-06
2.46994504452e-06
1.99957484661e-06
-1.02153597099e-06
1.14201292752e-06
2.03369257712e-06
-5.86498865382e-07
-2.99017081008e-07
2.02410602337e-06
-3.71973921882e-07
-1.68593759291e-06
1.98002031585e-06
-3.97343953559e-07
-2.87186339774e-06
1.9063811167e-06
-6.37411178678e-07
-3.73139161102e-06
1.80765438069e-06
-1.04983222922e-06
-4.17671236558e-06
1.68361987755e-06
-1.57107122357e-06
-4.17363381601e-06
1.53309243438e-06
-2.12820435716e-06
-3.73904028695e-06
1.3605090925e-06
-2.64857918741e-06
-2.94909773881e-06
1.17970652762e-06
-3.05280322471e-06
-1.93628341152e-06
1.00937678212e-06
-3.26066330351e-06
-8.8277554379e-07
8.71934730262e-07
-3.16174162289e-06
7.47083685624e-07
-2.66589186845e-06
1.09972024727e-06
1.86406703981e-06
-3.45046838296e-06
2.29123074155e-06
2.05701910315e-06
-4.37751834475e-06
3.38148058248e-06
2.33656920221e-06
-4.63995455838e-06
4.19371489489e-06
2.71728092448e-06
-4.44419427236e-06
4.56909585783e-06
3.12674730109e-06
-3.92720627382e-06
4.42240542517e-06
3.49274692704e-06
-3.20340368242e-06
3.7510672098e-06
3.7648354665e-06
-2.40441116367e-06
2.63660839299e-06
3.92676792924e-06
-1.67208341592e-06
1.22389753235e-06
3.98650107064e-06
-1.13178520116e-06
-3.11001779773e-07
3.96365516268e-06
-8.61995405444e-07
-1.78838285179e-06
3.87712154266e-06
-8.86602078655e-07
-3.04832788566e-06
3.73761934562e-06
-1.18016345994e-06
-3.96091097761e-06
3.55082979441e-06
-1.68885286987e-06
-4.43888372079e-06
3.31564344141e-06
-2.33311677276e-06
-4.44683492097e-06
3.03133615632e-06
-3.01583476304e-06
-4.0078529336e-06
2.70701406881e-06
-3.63500706483e-06
-3.20288308532e-06
2.36993287204e-06
-4.08571123434e-06
-2.16622720198e-06
2.06114281419e-06
-4.26275024624e-06
-1.04387792697e-06
1.82407983584e-06
-4.02634490288e-06
1.63516247094e-06
-3.15910865793e-06
1.27724649619e-06
2.84000731823e-06
-3.61292990811e-06
2.59866604499e-06
3.06624008672e-06
-4.71433944973e-06
3.7596636454e-06
3.41863181042e-06
-4.92781452889e-06
4.58551982688e-06
3.89664607901e-06
-4.53770815455e-06
4.92421805748e-06
4.40464307344e-06
-3.76130645104e-06
4.70532500865e-06
4.85067024817e-06
-2.77842247584e-06
3.94416368041e-06
5.17433180265e-06
-1.76584201116e-06
2.7378405864e-06
5.35665326463e-06
-8.86032506379e-07
1.23958914704e-06
5.41063515567e-06
-2.65897356033e-07
-3.72502524538e-07
5.36324019451e-06
2.43055151087e-08
-1.917832718e-06
5.24157205484e-06
-2.99344858748e-08
-3.23678032819e-06
5.06132957843e-06
-3.96384054152e-07
-4.20186312336e-06
4.82652767793e-06
-1.01685951401e-06
-4.72523038516e-06
4.53626021038e-06
-1.80947733374e-06
-4.76622083377e-06
4.18678831389e-06
-2.67495241522e-06
-4.33950914035e-06
3.78845132008e-06
-3.50025447072e-06
-3.51607776448e-06
3.37336871164e-06
-4.15486818712e-06
-2.42219809797e-06
2.99325246959e-06
-4.48796289963e-06
-1.19569023341e-06
2.70405644435e-06
-4.29337975164e-06
2.48580427299e-06
-3.28146982522e-06
1.4939746484e-06
3.60597503938e-06
-3.48344608199e-06
2.99269276115e-06
3.85793440506e-06
-4.64570322975e-06
4.25062973506e-06
4.23154693786e-06
-4.67249626207e-06
5.08477604061e-06
4.72393514909e-06
-3.94399449776e-06
5.35682520774e-06
5.23225838302e-06
-2.79447162121e-06
5.02484858964e-06
5.66292025575e-06
-1.48934078147e-06
4.13521402102e-06
5.95647355902e-06
-2.47947939587e-07
2.81105327688e-06
6.10381940038e-06
7.581065307e-07
1.2147954807e-06
6.11901065813e-06
1.42480921001e-06
-4.74116976051e-07
6.03804836515e-06
1.70352894112e-06
-2.08267167663e-06
5.89263160937e-06
1.59640777838e-06
-3.46028837534e-06
5.70073038092e-06
1.14507142183e-06
-4.48277179818e-06
5.46580351497e-06
4.09827499441e-07
-5.06499664838e-06
5.1814329015e-06
-5.33868381435e-07
-5.15495671597e-06
4.84399601598e-06
-1.59944246972e-06
-4.75106591865e-06
4.4567879964e-06
-2.67546598871e-06
-3.90516644021e-06
4.04860977411e-06
-3.61163994253e-06
-2.73042528957e-06
3.66876909324e-06
-4.20333885908e-06
-1.36506134219e-06
3.37272947316e-06
-4.15721765297e-06
3.1341313173e-06
-3.10484246622e-06
1.72173263578e-06
4.01652765653e-06
-3.14249482526e-06
3.41291326764e-06
4.28118587917e-06
-4.27307269123e-06
4.76902734304e-06
4.62848770221e-06
-4.04876104951e-06
5.59815039013e-06
5.0642360482e-06
-2.9484743276e-06
5.78290991803e-06
5.49517180433e-06
-1.43290891192e-06
5.31628603846e-06
5.83627808216e-06
1.52834408426e-07
4.28754374641e-06
6.04725169274e-06
1.55491963219e-06
2.83939548908e-06
6.1193883915e-06
2.62735201092e-06
1.15041348383e-06
6.07509706043e-06
3.2854566418e-06
-6.0352253081e-07
5.95745714456e-06
3.51684111626e-06
-2.26068950974e-06
5.80111988723e-06
3.3453934893e-06
-3.6838054379e-06
5.62471632046e-06
2.82137264036e-06
-4.75820074742e-06
5.42820998426e-06
2.00147744442e-06
-5.39580892221e-06
5.20138523411e-06
9.49765340007e-07
-5.53920547408e-06
4.93242308357e-06
-2.63258759692e-07
-5.16407333048e-06
4.62212676635e-06
-1.54754873958e-06
-4.29922643754e-06
4.28666930929e-06
-2.742372328e-06
-3.04096813624e-06
3.96468335212e-06
-3.59806601921e-06
-1.52987610708e-06
3.70012287018e-06
-3.73784227155e-06
3.45512776795e-06
-2.72535949107e-06
1.92769461529e-06
3.98516360499e-06
-2.65073495781e-06
3.79290620349e-06
4.24207343939e-06
-3.68153289188e-06
5.22978584675e-06
4.52858905166e-06
-3.20407108861e-06
6.03992912142e-06
4.86297073388e-06
-1.78089356195e-06
6.12625731583e-06
5.17076595787e-06
2.14581085205e-08
5.52941454814e-06
5.39380191005e-06
1.77783649507e-06
4.36556753167e-06
5.49499462494e-06
3.25044299267e-06
2.80812019645e-06
5.47957730206e-06
4.30356580398e-06
1.0476518267e-06
5.3726930608e-06
4.89087376493e-06
-7.45833432541e-07
5.22407809535e-06
5.04287786922e-06
-2.4257576047e-06
5.0695116107e-06
4.80750558231e-06
-3.87163968815e-06
4.92683241141e-06
4.24111016457e-06
-4.9794867611e-06
4.79178911525e-06
3.39000221694e-06
-5.66273753551e-06
4.64893596125e-06
2.30100057317e-06
-5.85174777148e-06
4.48069863894e-06
1.01905923727e-06
-5.50750303976e-06
4.27812918221e-06
-3.82495804004e-07
-4.63159580548e-06
4.05094483272e-06
-1.75638723217e-06
-3.30383100106e-06
3.81962646156e-06
-2.81997072156e-06
-1.6673037855e-06
3.61204111153e-06
-3.13378599368e-06
3.38030030717e-06
-2.21635909256e-06
2.08509283535e-06
3.4951089408e-06
-2.08522083539e-06
4.08469178358e-06
3.71927634896e-06
-2.98260547076e-06
5.57660657617e-06
3.92675449451e-06
-2.29206766438e-06
6.3547902495e-06
4.14463255596e-06
-6.33543386014e-07
6.35219873315e-06
4.32494698832e-06
1.3344983414e-06
5.63411064156e-06
4.4243745313e-06
3.17062977709e-06
4.35658147385e-06
4.4234567828e-06
4.61741869841e-06
2.71515956988e-06
4.33349770488e-06
5.57891773491e-06
9.13244109631e-07
4.17898227017e-06
6.04141115206e-06
-8.87691415387e-07
4.01362493022e-06
6.08975515947e-06
-2.55912424957e-06
3.87177578747e-06
5.79824473051e-06
-4.00032719065e-06
3.7697122842e-06
5.2267914315e-06
-5.11921744347e-06
3.7001128952e-06
4.40240861214e-06
-5.83112421076e-06
3.64340381235e-06
3.34699574253e-06
-6.0573455821e-06
3.5776772995e-06
2.07791638343e-06
-5.73953543211e-06
3.48816769723e-06
6.43102069808e-07
-4.86294638212e-06
3.37327330844e-06
-8.15847163985e-07
-3.48828432942e-06
3.24002663708e-06
-2.00984329707e-06
-1.76200716906e-06
3.10124307988e-06
-2.4594063655e-06
2.90651420644e-06
-1.66304878061e-06
2.18553608136e-06
2.598779822e-06
-1.53766634141e-06
4.27242840168e-06
2.76695363078e-06
-2.30189697937e-06
5.79228464053e-06
2.8905767617e-06
-1.45667975953e-06
6.53517466575e-06
2.99823894332e-06