/*--------------------------------*- C++ -*----------------------------------*\
| =========                 |                                                 |
| \\      /  F ield         | OpenFOAM: The Open Source CFD Toolbox           |
|  \\    /   O peration     | Version:  3.0.1                                 |
|   \\  /    A nd           | Web:      www.OpenFOAM.org                      |
|    \\/     M anipulation  |                                                 |
\*---------------------------------------------------------------------------*/
FoamFile
{
    version     2.0;
    format      ascii;
    class       volScalarField;
    location    "4.1";
    object      p;
}
// * * * * * * * * * * * * * * * * * * * * * * * * * * * * * * * * * * * * * //

dimensions      [1 -1 -2 0 0 0 0];

internalField   nonuniform List<scalar> 
7968
(
4646.92908204
4646.92993799
4646.8948462
4646.83866403
4646.76897535
4646.69594456
4646.63196422
4646.58241796
4646.54870716
4646.53089728
4646.52868255
4646.54203241
4646.57122631
4646.61622294
4646.67574618
4646.74455256
4646.81049838
4646.86369091
4646.89679886
4646.89492222
4646.93055456
4646.9586956
4646.93717905
4646.88870327
4646.82080167
4646.74801217
4646.68177017
4646.63072694
4646.59644307
4646.5784247
4646.57620643
4646.58977084
4646.61956939
4646.66611006
4646.72792467
4646.79652975
4646.86063169
4646.90602859
4646.92548645
4646.89612161
4646.89664637
4646.9382735
4646.91858637
4646.86342798
4646.78127312
4646.69116427
4646.60871231
4646.54404223
4646.50025383
4646.47736269
4646.4750708
4646.49339823
4646.5326799
4646.59290098
4646.67097062
4646.75684797
4646.83507002
4646.88695243
4646.90444617
4646.86153757
4646.84192091
4646.8913016
4646.86493589
4646.79222411
4646.68618839
4646.57220166
4646.47026216
4646.391115
4646.33779674
4646.31010104
4646.30774
4646.33076117
4646.37955617
4646.45433848
4646.5519333
4646.66161015
4646.76350297
4646.83267998
4646.85665502
4646.80593295
4646.77399898
4646.82511502
4646.78450622
4646.68788377
4646.55651368
4646.42270135
4646.30828711
4646.22226901
4646.16543206
4646.13612131
4646.13372745
4646.15830757
4646.21063147
4646.29238746
4646.40250283
4646.53195582
4646.65895265
4646.75172511
4646.78970782
4646.73721783
4646.70290855
4646.75429137
4646.6962622
4646.57567713
4646.42445775
4646.27920653
4646.16073206
4646.07596507
4646.02174931
4645.99395872
4645.99157116
4646.01460237
4646.06429572
4646.14491067
4646.25911871
4646.40003994
4646.54673922
4646.66317422
4646.71834409
4646.66553557
4646.64099521
4646.69008464
4646.61577346
4646.47566504
4646.31201732
4646.16274869
4646.04750639
4645.97098928
4645.92476093
4645.9012433
4645.89888743
4645.91763157
4645.95928615
4646.03177285
4646.14268792
4646.28766384
4646.44677259
4646.58252588
4646.65376927
4646.60322669
4646.59355286
4646.64115638
4646.55320174
4646.39864927
4646.22822141
4646.08023502
4645.973255
4645.91045294
4645.87888752
4645.86534524
4645.86316864
4645.87207025
4645.8986799
4645.95749163
4646.06012852
4646.20383393
4646.36975805
4646.51986304
4646.60462512
4646.55556347
4646.56191502
4646.60900127
4646.51161612
4646.34768817
4646.17391389
4646.02871026
4645.92989337
4645.88187278
4645.86776491
4645.86342587
4645.86133383
4645.86121187
4645.87028926
4645.9140071
4646.00847406
4646.14940574
4646.31870952
4646.47817882
4646.57233052
4646.52380286
4646.54604917
4646.59300054
4646.49087765
4646.32235962
4646.14713915
4646.0036287
4645.909241
4645.8712573
4645.86639962
4645.86591319
4645.86381951
4645.85984621
4645.85974329
4645.89335577
4645.98335621
4646.12258647
4646.29332657
4646.45741144
4646.55629952
4646.50793003
4646.5455874
4646.59259671
4646.49052521
4646.32209963
4646.14701272
4646.00367189
4645.90947371
4645.87172976
4645.86707859
4645.86670636
4645.86463032
4645.86057691
4645.86029708
4645.89368878
4645.98351554
4646.1225921
4646.29320311
4646.45719214
4646.55602311
4646.50760246
4646.56048428
4646.60773506
4646.51048721
4646.34680824
4646.17341222
4646.02868886
4645.93041293
4645.88304452
4645.86953614
4645.8654924
4645.86344204
4645.86311557
4645.87167171
4645.91480296
4646.0087892
4646.14929106
4646.31823295
4646.47744379
4646.57144487
4646.52277187
4646.5910395
4646.63888286
4646.55110504
4646.39688319
4646.22698493
4646.07968342
4645.97348317
4645.91149934
4645.88076847
4645.86768792
4645.86557844
4645.87416086
4645.90007235
4645.95818355
4646.06013023
4646.20322103
4646.36863712
4646.51839959
4646.60297019
4646.55369974
4646.63726414
4646.68661841
4646.61247042
4646.47267541
4646.3095659
4646.16101107
4646.046587
4645.97091539
4645.92539949
4645.90232746
4645.900055
4645.918535
4645.95965804
4646.03145785
4646.14167195
4646.28601991
4646.44461763
4646.58004949
4646.65111908
4646.60036167
4646.69791902
4646.74952766
4646.69161538
4646.57123552
4646.42043041
4646.2757824
4646.15802282
4646.07399391
4646.02041175
4645.99301776
4645.99072914
4646.01357121
4646.06283455
4646.14288958
4646.25652127
4646.39692809
4646.54324797
4646.65947879
4646.71453258
4646.66158325
4646.76774324
4646.8191223
4646.77853439
4646.68195123
4646.55076697
4646.41733619
4646.30344278
4646.2179963
4646.1616689
4646.13269249
4646.13040845
4646.15487457
4646.20689766
4646.28826543
4646.39799841
4646.52715736
4646.65401353
4646.74676976
4646.78477378
4646.73210509
4646.83460515
4646.88420783
4646.85778279
4646.78495762
4646.6788947
4646.56503035
4646.46337053
4646.38459506
4646.33165539
4646.30425612
4646.30200598
4646.32494102
4646.37354947
4646.44813106
4646.54558038
4646.65522263
4646.75720229
4646.82654862
4646.85065515
4646.79982287
4646.88852291
4646.93034334
4646.91052836
4646.85514062
4646.77279576
4646.68261697
4646.60022798
4646.53573075
4646.49214447
4646.46942448
4646.46722902
4646.4855721
4646.52482453
4646.58503277
4646.66317412
4646.74921526
4646.82771558
4646.87991846
4646.89762835
4646.85464892
4646.92198312
4646.95025845
4646.92858015
4646.87981647
4646.8116378
4646.73868615
4646.67242007
4646.62146887
4646.58731922
4646.56942355
4646.56729033
4646.58090141
4646.61072705
4646.65733119
4646.71930752
4646.78818396
4646.85269339
4646.89847228
4646.91819832
4646.88882583
4646.92034296
4646.92129959
4646.88603586
4646.82959775
4646.75966669
4646.68646461
4646.62246213
4646.57299787
4646.53940308
4646.52170437
4646.51957427
4646.53298399
4646.56223069
4646.60731388
4646.66701822
4646.73611795
4646.80242734
4646.85596241
4646.88932117
4646.88740957
4157.29736761
4157.28423744
4157.23698342
4157.17011001
4157.09417109
4157.01853239
4156.95273616
4156.9026062
4156.8689255
4156.8512041
4156.84901434
4156.86230328
4156.89142871
4156.9368763
4156.99799628
4157.06915653
4157.14110821
4157.20481103
4157.25000847
4157.26222529
4157.28484485
4157.29505321
4157.25584719
4157.19522838
4157.12720319
4157.06103725
4157.00324635
4156.9596579
4156.93047707
4156.91494397
4156.9128175
4156.92403683
4156.94875959
4156.98773033
4157.0408428
4157.10246477
4157.16636761
4157.22365236
4157.26073171
4157.24943425
4157.23866103
4157.25686831
4157.21063684
4157.139627
4157.06128741
4156.98562956
4156.92012845
4156.86975274
4156.83540314
4156.81700475
4156.81486261
4156.82893902
4156.85887967
4156.90475127
4156.96562035
4157.0366384
4157.11062482
4157.17805668
4157.22198798
4157.20253222
4157.173452
4157.19782233
4157.14118728
4157.05424632
4156.96123501
4156.87440858
4156.80117408
4156.74471275
4156.70593779
4156.68517435
4156.68302466
4156.69947439
4156.73382236
4156.78594694
4156.8545969
4156.93672994
4157.02514412
4157.10814076
4157.16220021
4157.13643481
4157.09943366
4157.13175572
4157.06473782
4156.96311556
4156.86109853
4156.77286802
4156.70460666
4156.6552509
4156.62165295
4156.60302086
4156.60092991
4156.61528701
4156.64458981
4156.68968419
4156.75329939
4156.83680991
4156.93406147
4157.03142909
4157.095574
4157.06166952
4157.025854
4157.06765805
4156.99114901
4156.87834595
4156.77498067
4156.69696646
4156.64409694
4156.61117337
4156.58940033
4156.5762086
4156.57427601
4156.58340325
4156.6009286
4156.62970624
4156.67756886
4156.75077083
4156.84932013
4156.95764277
4157.03099998
4156.98756375
4156.96220801
4157.01204625
4156.92786108
4156.80737079
4156.70920762
4156.64662569
4156.61466963
4156.60320365
4156.59642357
4156.59004171
4156.5882983
4156.59094918
4156.59363772
4156.6010515
4156.62733954
4156.68477498
4156.77824217
4156.89416398
4156.9751147
4156.92358906
4156.91425507
4156.97071777
4156.8798091
4156.75329942
4156.66244251
4156.6161656
4156.60539408
4156.615694
4156.62029463
4156.61638516
4156.61463303
4156.61476329
4156.6064193
4156.59230232
4156.59682921
4156.63768013
4156.72393654
4156.84587474
4156.93355855
4156.87545942
4156.88269791
4156.94376233
4156.8478339
4156.71717815
4156.63170314
4156.59727458
4156.60150636
4156.62322028
4156.63161005
4156.63184758
4156.63013338
4156.62603032
4156.61348166
4156.58834337
4156.57762019
4156.6064761
4156.687472
4156.81362689
4156.90639889
4156.84379359
4156.8669386
4156.93026888
4156.83162802
4156.69874125
4156.61571314
4156.58674508
4156.5977708
4156.62206329
4156.63472505
4156.63825425
4156.63652418
4156.6291341
4156.61227063
4156.58450193
4156.56691221
4156.59022655
4156.66894308
4156.79730193
4156.89283552
4156.82802703
4156.86649732
4156.92992517
4156.83137735
4156.69862501
4156.61578755
4156.58703596
4156.59827688
4156.622742
4156.63561437
4156.63928301
4156.63756654
4156.63007046
4156.61303302
4156.58512374
4156.56733493
4156.5904602
4156.66899962
4156.79721481
4156.89263941
4156.82772395
4156.88131999
4156.94266696
4156.8470064
4156.71674859
4156.6318211
4156.59803393
4156.602918
4156.62514365
4156.63403782
4156.63461159
4156.63292888
4156.62856295
4156.6156002
4156.59004291
4156.57874336
4156.60704848
4156.68753763
4156.81327827
4156.90574335
4156.84283202
4156.91180636
4156.96870475
4156.87818113
4156.75222903
4156.66220224
4156.61687396
4156.60706667
4156.61827729
4156.62339121
4156.61992517
4156.61823289
4156.61807094
4156.60938252
4156.59448584
4156.59815585
4156.63817498
4156.72364407
4156.84500933
4156.93225653
4156.87369484
4156.95851639
4157.00888024
4156.92512411
4156.80525788
4156.70801336
4156.64647876
4156.61558005
4156.60513397
4156.59921746
4156.59334447
4156.59168377
4156.59402564
4156.59605594
4156.60263547
4156.62801031
4156.68454154
4156.77714382
4156.89242336
4156.97289661
4156.92081612
4157.02084178
4157.06317747
4156.98706453
4156.87482361
4156.77232094
4156.69529539
4156.64346247
4156.61150986
4156.59054974
4156.57784453
4156.57601947
4156.58489393
4156.60184028
4156.62986106
4156.67687147
4156.74922456
4156.8469673
4156.95472356
4157.02765208
4156.9836491
4157.09313157
4157.12598797
4157.05922187
4156.95796695
4156.85658151
4156.76918068
4156.7017874
4156.65327216
4156.62040168
4156.60221961
4156.60026084
4156.61443834
4156.64327069
4156.68775989
4156.75068913
4156.83348664
4156.93016649
4157.02718132
4157.09104309
4157.05657998
4157.16605316
4157.19083427
4157.13429315
4157.04748993
4156.95483059
4156.86850885
4156.79584025
4156.7399274
4156.70180165
4156.68127938
4156.67926071
4156.69573868
4156.72968035
4156.78149774
4156.84976338
4156.93152497
4157.01966344
4157.10254175
4157.15649713
4157.13031813
4157.23047254
4157.24893587
4157.20263243
4157.13154165
4157.0532849
4156.97784238
4156.91264684
4156.86262688
4156.82862013
4156.81044914
4156.80843228
4156.82252846
4156.85235474
4156.89808214
4156.95882537
4157.0297933
4157.10378332
4157.17131836
4157.21534472
4157.19564832
4157.276171
4157.28655156
4157.24718202
4157.18634205
4157.11821682
4157.05205433
4156.9943698
4156.95098786
4156.92202035
4156.906659
4156.90464051
4156.91590392
4156.94061972
4156.97958256
4157.03277197
4157.09457522
4157.15865636
4157.21623089
4157.2535224
4157.24209236
4157.28858006
4157.27559824
4157.22817758
4157.16104286
4157.08489789
4157.00914865
4156.94336912
4156.89336775
4156.85984038
4156.84225544
4156.84016705
4156.85352202
4156.882691
4156.92820493
4156.98949066
4157.06091512
4157.133188
4157.19722474
4157.24264647
4157.25477029
3667.71000512
3667.6906522
3667.63702202
3667.56324736
3667.48208285
3667.40266529
3667.33376805
3667.28098156
3667.24546584
3667.22683483
3667.22471515
3667.23901463
3667.26997837
3667.31794391
3667.38189983
3667.4564835
3667.53326616
3667.6035185
3667.65487186
3667.67320696
3667.69134363
3667.7034871
3667.66367235
3667.60062616
3667.53473617
3667.47309107
3667.42026293
3667.38016033
3667.35304546
3667.33851415
3667.33654451
3667.34701396
3667.36979433
3667.40521722
3667.45313924
3667.50989021
3667.5711807
3667.63047061
3667.66780084
3667.65427233
3667.63896259
3667.6648121
3667.6160281
3667.53580745
3667.45422557
3667.37982527
3667.31785155
3667.27151879
3667.24066719
3667.22426569
3667.22221668
3667.23444603
3667.26104318
3667.30291353
3667.36011281
3667.4295451
3667.50629272
3667.58248903
3667.62856111
3667.60098966
3667.56703737
3667.60352469
3667.53753724
3667.4295658
3667.32326245
3667.23098787
3667.15789153
3667.10609799
3667.07306973
3667.05523854
3667.05306372
3667.06657302
3667.09570352
3667.14336434
3667.21170676
3667.29879648
3667.39988617
3667.50346442
3667.56644406
3667.52797102
3667.48800111
3667.539774
3667.45806726
3667.32533174
3667.20018814
3667.0992302
3666.99483335
3666.95617248
3666.95497937
3666.94070931
3666.93871106
3666.94905155
3666.99854094
3667.04709766
3667.08171583
3667.17678534
3667.2958579
3667.42369086
3667.50206705
3667.44805062
3667.41084385
3667.48047888
3667.385947
3667.23502689
3667.10076528
3666.91627618
3666.76837411
3666.82482912
3666.89971367
3666.89227987
3666.89126124
3666.89667166
3667.00594248
3667.12618072
3667.08580807
3667.07965097
3667.20626014
3667.35136472
3667.44219404
3667.37028717
3667.34425317
3667.4300811
3667.32633911
3667.16380617
3666.997731
3666.63666614
3666.48523819
3666.65605708
3666.80851734
3666.81116658
3666.8119627
3666.81088273
3666.98322015
3667.24540747
3667.22987713
3667.04387092
3667.13596758
3667.29157578
3667.39136058
3667.30333646
3667.2937641
3667.39244713
3667.28251976
3667.1141616
3666.88765866
3666.41407036
3666.29282064
3666.53307459
3666.7363406
3666.75010701
3666.7524181
3666.74283168
3666.9394211
3667.27186357
3667.33016368
3667.0516668
3667.08678071
3667.24740856
3667.35334221
3667.25265091
3667.26043803
3667.36769168
3667.25426864
3667.08368343
3666.83114719
3666.3398402
3666.23342948
3666.50200375
3666.72810268
3666.74898643
3666.75165937
3666.73536265
3666.92795795
3667.26764385
3667.33988118
3667.04631726
3667.05584968
3667.2186069
3667.32822479
3667.21917647
3667.24376922
3667.35521458
3667.24024548
3667.06862163
3666.81994172
3666.33481867
3666.23683887
3666.51466826
3666.74723867
3666.77118905
3666.77367884
3666.75384572
3666.93938958
3667.26922104
3667.33337513
3667.03413316
3667.04031454
3667.20424966
3667.31557149
3667.2024622
3667.24334949
3667.35495076
3667.24012694
3667.06868562
3666.82029798
3666.33557191
3666.23757233
3666.51521694
3666.74781601
3666.77190788
3666.77437346
3666.75441584
3666.93967837
3667.26925724
3667.33345601
3667.03449115
3667.04055428
3667.20429319
3667.3154415
3667.20217183
3667.25910958
3667.36681002
3667.25380874
3667.08376336
3666.83206764
3666.34192282
3666.23556297
3666.50373079
3666.72998032
3666.75122375
3666.75376721
3666.73709665
3666.92880529
3667.26761013
3667.33993182
3667.04718595
3667.05642732
3667.21863184
3667.32776405
3667.21824831
3667.29137365
3667.39075619
3667.28143675
3667.11387358
3666.88177893
3666.39275531
3666.25406807
3666.48417556
3666.68534309
3666.70004898
3666.70264378
3666.69295856
3666.89069269
3667.23107771
3667.30686888
3667.04634588
3667.08733743
3667.2471193
3667.3523472
3667.25092351
3667.34059995
3667.42729856
3667.32421149
3667.16248485
3666.98904447
3666.59130861
3666.39016715
3666.53308959
3666.67897548
3666.68311214
3666.68472931
3666.68401917
3666.862215
3667.14990464
3667.18417465
3667.03647384
3667.13577077
3667.29050491
3667.38951702
3667.30057628
3667.40582956
3667.47639288
3667.38244596
3667.2322392
3667.09882241
3666.89197984
3666.69155856
3666.7072373
3666.77214835
3666.76609763
3666.76593747
3666.77179603
3666.89089294
3667.05044147
3667.06255271
3667.07896644
3667.2047664
3667.34908782
3667.43922174
3667.36633364
3667.48165239
3667.53433603
3667.45301304
3667.32076903
3667.19632378
3667.09607896
3666.98439001
3666.93151771
3666.92434627
3666.91078316
3666.90912196
3666.91943332
3666.97486025
3667.03745891
3667.07980755
3667.17427298
3667.2926718
3667.41995444
3667.49785524
3667.4428673
3667.55954016
3667.59675085
3667.53094144
3667.42317377
3667.31734517
3667.22567047
3667.15323801
3667.10218244
3667.06942382
3667.05199753
3667.04998459
3667.063397
3667.09254045
3667.13971084
3667.20759793
3667.29420501
3667.39485624
3667.49819981
3667.56094461
3667.52169332
3667.63064852
3667.65698359
3667.60816112
3667.52786599
3667.44645367
3667.37240285
3667.31087062
3667.2650176
3667.2345329
3667.21841334
3667.21650578
3667.22872736
3667.25519593
3667.29681926
3667.35376174
3667.42298295
3667.49962787
3667.57590599
3667.62200876
3667.59390717
3667.68258928
3667.69499352
3667.65499854
3667.59168945
3667.52572797
3667.46416112
3667.4115216
3667.37169148
3667.34481698
3667.3304753
3667.3286204
3667.33913152
3667.36187272
3667.39723305
3667.44515079
3667.50198317
3667.56342888
3667.62303517
3667.66057019
3667.64674639
3667.70116747
3667.68194821
3667.62805532
3667.55392731
3667.4725082
3667.39297199
3667.32409886
3667.27146058
3667.2361062
3667.21761738
3667.21560071
3667.22996548
3667.26096081
3667.30897117
3667.3730779
3667.44792449
3667.52506165
3667.59573593
3667.64739049
3667.66559632
3178.15261217
3178.12743329
3178.07003004
3177.99238691
3177.90728296
3177.82396353
3177.75123603
3177.69459621
3177.65613786
3177.63596141
3177.63391814
3177.64987386
3177.68378609
3177.73542022
3177.8028129
3177.88074203
3177.96083565
3178.03439492
3178.08912212
3178.11317548
3178.12830463
3178.13862467
3178.10093253
3178.03812709
3177.97142746
3177.90776314
3177.85243063
3177.80899077
3177.77907061
3177.7630421
3177.76125933
3177.77354419
3177.79934977
3177.83810066
3177.88824325
3177.94645033
3178.00777895
3178.06608374
3178.10061036
3178.0882927
3178.07248871
3178.10236147
3178.0542387
3177.96762171
3177.87478469
3177.78701763
3177.71329372
3177.65840781
3177.62343588
3177.60588907
3177.60393635
3177.61751353
3177.64862444
3177.69932255
3177.76789539
3177.84995357
3177.93707587
3178.01890913
3178.06361258
3178.03111196
3177.99707521
3178.04164441
3177.96972321
3177.83992523
3177.70134032
3177.51896623
3177.35938935
3177.36732884
3177.3910828
3177.37412338
3177.37256503
3177.38664693
3177.4775373
3177.5996924
3177.61873114
3177.67738162
3177.80901863
3177.93358794
3178.00184465
3177.95412281
3177.91445699
3177.97741893
3177.87942612
3177.70374584
3177.39065498
3176.9778201
3176.83754931
3176.99368714
3177.11199676
3177.10314306
3177.10489192
3177.11742771
3177.31518868
3177.6539779
3177.76300135
3177.63921703
3177.67391411
3177.84283598
3177.93687858
3177.87032878
3177.83370464
3177.91642954
3177.79422971
3177.52246336
3176.80900409
3176.29914857
3176.27543746
3176.49666649
3176.66464314
3176.67227383
3176.68045022
3176.68874021
3176.95339523
3177.51119002
3177.95245661
3177.89681945
3177.61329533
3177.75766031
3177.87523731
3177.78882285
3177.76351524
3177.86379957
3177.72270661
3177.23198945
3176.19866649
3175.8337305
3175.80463213
3176.01838605
3176.21400322
3176.24088752
3176.25473316
3176.25387425
3176.53833332
3177.20511789
3177.88169856
3178.17146322
3177.69678112
3177.6867655
3177.82207887
3177.71820274
3177.70934367
3177.82310143
3177.67017652
3176.9596639
3175.86068469
3175.56334456
3175.49754404
3175.73628955
3175.95723613
3175.99726925
3176.01637092
3176.01022236
3176.28256974
3176.97253243
3177.73191088
3178.23667221
3177.79646444
3177.63425136
3177.7808168
3177.66375892
3177.67315849
3177.79580032
3177.6380147
3176.85462874
3175.76000477
3175.47764813
3175.42409164
3175.68127966
3175.92052644
3175.96907953
3175.9886901
3175.97578997
3176.23264848
3176.90899842
3177.67018851
3178.21513093
3177.80763644
3177.60115271
3177.75283632
3177.62732677
3177.6549358
3177.7819547
3177.62310825
3176.84042122
3175.75189991
3175.48054164
3175.43883545
3175.70287697
3175.9479297
3175.99887209
3176.01868429
3176.00073547
3176.25208746
3176.9188809
3177.66607442
3178.20234607
3177.79147874
3177.58547671
3177.73854872
3177.60897578
3177.65451241
3177.78182336
3177.62314055
3176.84087306
3175.75259931
3175.48083749
3175.43768455
3175.700798
3175.94564886
3175.99680103
3176.01679284
3175.99821447
3176.24967224
3176.91695137
3177.66445671
3178.2012727
3177.79139959
3177.58564883
3177.73852543
3177.60866735
3177.67180177
3177.79526026
3177.63794831
3176.85586347
3175.76188452
3175.47777269
3175.4219856
3175.67719776
3175.9168344
3175.96581459
3175.98406813
3175.97050398
3176.22677251
3176.90339941
3177.66514856
3178.21171562
3177.80714814
3177.60154313
3177.75269024
3177.62634589
3177.70689437
3177.82191374
3177.66961719
3176.94575795
3175.82346512
3175.51016244
3175.43620547
3175.66939447
3175.89014579
3175.93147447
3175.95030454
3175.94380034
3176.21542985
3176.90608199
3177.67080226
3178.19184111
3177.78106748
3177.63450048
3177.78030297
3177.66193607
3177.75976149
3177.86158985
3177.72111612
3177.19927312
3176.0974864
3175.68190844
3175.63225697
3175.83373928
3176.0267426
3176.05591328
3176.07041166
3176.06990875
3176.35370172
3177.02594792
3177.72029144
3178.06385528
3177.66497797
3177.68631138
3177.82078981
3177.71528868
3177.82853123
3177.91288751
3177.79122647
3177.50504537
3176.70733079
3176.09096363
3176.01771712
3176.22078319
3176.38456171
3176.39487272
3176.40454995
3176.41340094
3176.67955143
3177.24862666
3177.73839427
3177.79385511
3177.59767573
3177.75593357
3177.87276275
3177.7846246
3177.90788063
3177.97236864
3177.87473449
3177.69945019
3177.35282448
3176.83512574
3176.58356949
3176.68702849
3176.7951172
3176.78884182
3176.79265965
3176.80670432
3177.01394734
3177.40118486
3177.62086653
3177.60280827
3177.67110069
3177.83946812
3177.9329683
3177.86479243
3177.98929115
3178.03507647
3177.96329719
3177.83365736
3177.69547086
3177.49867296
3177.29246793
3177.25316883
3177.26244317
3177.24666082
3177.24610365
3177.26088997
3177.36615279
3177.53381477
3177.59946577
3177.67293367
3177.80411015
3177.92840536
3177.99639876
3177.94738509
3178.06386675
3178.09456791
3178.04636413
3177.95963089
3177.8670074
3177.77964309
3177.70635601
3177.65196158
3177.61737821
3177.60011919
3177.59833435
3177.61191366
3177.64284504
3177.69330934
3177.76161388
3177.84334867
3177.93025984
3178.01214995
3178.05687801
3178.02349662
3178.11928768
3178.12999533
3178.0920679
3178.0289346
3177.96219579
3177.89870984
3177.84367694
3177.80060076
3177.77095214
3177.75514077
3177.75348653
3177.76581499
3177.79152561
3177.830111
3177.88009738
3177.93822051
3177.99961385
3178.0582331
3178.09299798
3178.08024615
3178.14366089
3178.11840733
3178.06055896
3177.98239962
3177.8969285
3177.81343587
3177.74071264
3177.68420715
3177.64588263
3177.62583507
3177.6238938
3177.63992672
3177.67387409
3177.72554388
3177.79306697
3177.87125931
3177.95176339
3178.0258521
3178.08106423
3178.10515286
2688.64117567
2688.61264444
2688.55869108
2688.4848354
2688.40241536
2688.32046631
2688.24824391
2688.19126349
2688.15230134
2688.13176285
2688.12976506
2688.14616289
2688.18060881
2688.23242579
2688.29885017
2688.37465801
2688.45115989
2688.5200564
2688.57060935
2688.59812276
2688.61382888
2688.61016024
2688.569323
2688.50245602
2688.42775038
2688.35269612
2688.28577472
2688.2311897
2688.19384048
2688.17466969
2688.17310782
2688.18884808
2688.22241217
2688.27223896
2688.33366057
2688.402465
2688.47065717
2688.53184229
2688.56848156
2688.56917052
2688.56198734
2688.57114976
2688.5170385
2688.4188845
2688.30591988
2688.13451295
2687.97844435
2687.98387618
2688.00397356
2687.98505153
2687.98403174
2688.0008583
2688.09554349
2688.2192372
2688.23375997
2688.28108701
2688.38675426
2688.47902389
2688.52854965
2688.5152867
2688.49088267
2688.50691381
2688.42158343
2688.2584687
2687.85209241
2687.49566964
2687.37379902
2687.46008689
2687.54534017
2687.53155561
2687.53577311
2687.55817843
2687.7699441
2688.13588387
2688.34969698
2688.30768363
2688.23246152
2688.38224195
2688.46295342
2688.44199906
2688.41141938
2688.43522251
2688.31202612
2687.84775336
2687.03757466
2686.59994903
2686.47122418
2686.56230864
2686.6753135
2686.68115785
2686.69810842
2686.72762753
2687.01878729
2687.63195588
2688.28628209
2688.5888364
2688.3094019
2688.27192763
2688.39033369
2688.3609724
2688.33242346
2688.36332041
2688.14410293
2687.09095896
2686.23809123
2685.77635816
2685.51779471
2685.59755653
2685.74620145
2685.77908383
2685.81496389
2685.85377505
2686.17298958
2686.89777445
2687.80446036
2688.59783142
2688.67429688
2688.22089803
2688.31760943
2688.28100383
2688.26302087
2688.29951794
2687.85929488
2686.42825418
2685.67478638
2685.07193833
2684.80882471
2684.91204904
2685.08330681
2685.13594954
2685.18646854
2685.23642495
2685.56975859
2686.32204048
2687.30423371
2688.33534423
2688.91639221
2688.30699999
2688.25292054
2688.21096294
2688.2087201
2688.24813762
2687.58514472
2686.09369847
2685.31579946
2684.67566037
2684.42583021
2684.53031721
2684.70958946
2684.77494349
2684.83220484
2684.88288461
2685.21913423
2685.98741871
2686.99639625
2688.12028882
2688.90810384
2688.40418037
2688.20050492
2688.15607341
2688.17213975
2688.21386915
2687.47623327
2685.98277689
2685.19274254
2684.55642358
2684.31442331
2684.42025658
2684.60981026
2684.68325629
2684.74117918
2684.78452469
2685.11103772
2685.87604714
2686.8874943
2688.02311076
2688.85614467
2688.41133654
2688.16487136
2688.11888708
2688.1535581
2688.19708058
2687.45958189
2685.96572783
2685.18036438
2684.55040517
2684.3113984
2684.42081235
2684.61794625
2684.69567406
2684.75229879
2684.78861908
2685.10661974
2685.86519518
2686.87511933
2688.00479032
2688.83487798
2688.39234548
2688.1470508
2688.09990405
2688.15306372
2688.19709447
2687.45992619
2685.96585489
2685.17809487
2684.54533512
2684.30351167
2684.41156423
2684.60832628
2684.68593152
2684.7426994
2684.77904508
2685.09709309
2685.8564106
2686.86881219
2688.00140972
2688.83302051
2688.39202709
2688.14704394
2688.09949798
2688.17056893
2688.21351745
2687.47691716
2685.98294859
2685.18607429
2684.54080749
2684.29049106
2684.39229297
2684.58096663
2684.65467003
2684.71283947
2684.75583036
2685.08205614
2685.84924641
2686.86793314
2688.01187729
2688.85019
2688.4101717
2688.16477698
2688.11763766
2688.20597072
2688.24719109
2687.57031486
2686.05732262
2685.26040607
2684.60233811
2684.33788121
2684.43413666
2684.61055231
2684.67637424
2684.7340103
2684.7844199
2685.11992754
2685.89063492
2686.91231232
2688.05266413
2688.86161733
2688.38809058
2688.20015042
2688.15386335
2688.25893631
2688.29757329
2687.82568834
2686.33380284
2685.53120628
2684.89905567
2684.61356549
2684.70409037
2684.87222308
2684.92678432
2684.97836176
2685.02804338
2685.3582995
2686.11255644
2687.11166209
2688.17425786
2688.81150305
2688.27477058
2688.25187205
2688.20759529
2688.32690212
2688.36006509
2688.12618808
2686.98031573
2686.0266918
2685.52072799
2685.23263445
2685.29362537
2685.43695383
2685.47254726
2685.51001506
2685.54932404
2685.86715985
2686.59749864
2687.52843354
2688.3702944
2688.55938384
2688.20493357
2688.31534618
2688.27627713
2688.40446966
2688.43034491
2688.30737832
2687.78222396
2686.83736168
2686.29892714
2686.12952391
2686.19735371
2686.30390954
2686.31288716
2686.33287595
2686.36426082
2686.6557219
2687.28193522
2687.97324057
2688.38316417
2688.24571326
2688.26864623
2688.38642637
2688.35479967
2688.48268339
2688.50035752
2688.41510229
2688.25088988
2687.78360646
2687.28535826
2687.04867066
2687.09124323
2687.16802962
2687.15671608
2687.16336523
2687.18803818
2687.40667475
2687.81192428
2688.13994183
2688.23964466
2688.22625398
2688.37683841
2688.45722515
2688.43449846
2688.55290916
2688.56316124
2688.50896978
2688.41052631
2688.29776385
2688.11224429
2687.90946886
2687.86705291
2687.87219946
2687.85425023
2687.85413161
2687.87185623
2687.9811182
2688.15071917
2688.2120077
2688.27402663
2688.37938494
2688.47176556
2688.52120542
2688.50680599
2688.6043258
2688.60110979
2688.55994665
2688.49266377
2688.41788117
2688.34300658
2688.27634752
2688.22214624
2688.18486505
2688.16582859
2688.16439516
2688.18034132
2688.2138634
2688.26355873
2688.32480034
2688.39341261
2688.46159894
2688.52307686
2688.55996912
2688.560151
2688.63194196
2688.60291102
2688.54826353
2688.47361103
2688.39056875
2688.30823251
2688.23581121
2688.17873842
2688.13969679
2688.11916705
2688.11726405
2688.13384327
2688.16849234
2688.22052218
2688.28721305
2688.36340013
2688.44046061
2688.51006948
2688.56129836
2688.58920494
2199.19208245
2199.1615254
2199.11816156
2199.05603108
2198.98651121
2198.91772089
2198.85882499
2198.81416486
2198.78501012
2198.77001229
2198.76816339
2198.77926567
2198.80405208
2198.84347368
2198.89607819
2198.9578464
2199.0203159
2199.07620295
2199.11487516
2199.14407593
2199.16331711
2199.13226219
2199.0843625
2199.01159143
2198.928993
2198.84424831
2198.73855223
2198.68910137
2198.67853688
2198.65993724
2198.65843015
2198.67389308
2198.73265387
2198.79079994
2198.82526123
2198.90284989
2198.97768693
2199.04344124
2199.08570111
2199.11234892
2199.12265719
2199.08680415
2199.02049979
2198.91676726
2198.66872562
2198.40368634
2198.33915793
2198.36496698
2198.40760313
2198.3933444
2198.39650367
2198.41728628
2198.56233763
2198.78868429
2198.9541427
2198.91153442
2198.88170278
2198.97867392
2199.03892525
2199.06895365
2199.06400922
2199.01737582
2198.92027575
2198.53076285
2197.9869587
2197.57859644
2197.42682426
2197.46329719
2197.53815137
2197.54239239
2197.56346988
2197.60192372
2197.84987737
2198.35901015
2198.89902291
2199.11112112
2198.97337121
2198.87572711
2198.96734123
2199.0072002
2198.99805819
2198.9385712
2198.67721659
2197.76041519
2197.09911453
2196.59693601
2196.26732079
2196.27601302
2196.38172197
2196.42075418
2196.46855388
2196.52545698
2196.82150848
2197.47641459
2198.29627054
2199.05050528
2199.29546644
2198.8990882