/*--------------------------------*- C++ -*----------------------------------*\
| =========                 |                                                 |
| \\      /  F ield         | OpenFOAM: The Open Source CFD Toolbox           |
|  \\    /   O peration     | Version:  3.0.1                                 |
|   \\  /    A nd           | Web:      www.OpenFOAM.org                      |
|    \\/     M anipulation  |                                                 |
\*---------------------------------------------------------------------------*/
FoamFile
{
    version     2.0;
    format      ascii;
    class       volScalarField;
    location    "0.4";
    object      nut;
}
// * * * * * * * * * * * * * * * * * * * * * * * * * * * * * * * * * * * * * //

dimensions      [0 2 -1 0 0 0 0];

internalField   nonuniform List<scalar> 
7968
(
0.000805647787025
0.000810678374165
0.000812857743678
0.000813423609686
0.000813535660892
0.000813536256972
0.000813496566641
0.000813433981952
0.00081336249934
0.000813306073772
0.000813304642612
0.000813359620906
0.000813430911903
0.000813493791545
0.000813533955925
0.000813533899514
0.000813422377299
0.000812856933035
0.000810678834971
0.00080564813899
0.000810679847396
0.000851930027132
0.000869180706602
0.000873918759507
0.000874839803394
0.000874863610366
0.000874714166837
0.000874552516842
0.000874425280599
0.000874354797824
0.000874353427133
0.000874421804857
0.000874547734851
0.000874708981552
0.00087485876872
0.000874835744355
0.000873915440002
0.000869177798813
0.000851929937708
0.000810680962315
0.000812860178207
0.000869179006777
0.000895862115902
0.000904223791935
0.00090616101595
0.000906367091102
0.000906203806501
0.000906009587384
0.000905867715658
0.0009057959928
0.000905794288931
0.000905863200886
0.000906003129218
0.000906196565443
0.000906360160594
0.000906155206247
0.000904219378334
0.000895858750234
0.000869177867984
0.000812861103465
0.000813425822097
0.000873911412396
0.000904217287622
0.000914257074805
0.000916687717371
0.000916917328982
0.000916655451726
0.000916373003907
0.000916180205883
0.000916089192566
0.000916087086241
0.000916174558118
0.000916364856737
0.000916646172552
0.000916908180839
0.000916680009657
0.000914251381965
0.000904213240555
0.00087390965613
0.000813426741142
0.000813536472951
0.000874824361543
0.000906144800571
0.000916677302035
0.00091914955035
0.000919209651221
0.000918884393787
0.000918706628003
0.000918575121282
0.000918507568147
0.00091850652129
0.000918572299951
0.000918702599563
0.000918879367123
0.000919198512869
0.000919139711892
0.000916670062261
0.000906139878458
0.000874821929793
0.000813537177076
0.000813534733955
0.00087483953434
0.000906340595259
0.000916895648637
0.000919198496567
0.000919360321886
0.000919152847224
0.000918875855895
0.000918666463408
0.000918560856951
0.000918559692649
0.000918663250513
0.000918871214977
0.000919147600235
0.000919355061042
0.00091918701899
0.000916886821777
0.000906334693753
0.000874836391184
0.00081353506566
0.000813492018128
0.000874682116855
0.00090616816708
0.000916624095971
0.00091887625889
0.000919149315002
0.000918800378567
0.000918376722142
0.000918058123195
0.000917895618426
0.000917894365849
0.000918054648079
0.000918371617075
0.000918794460612
0.000919143476458
0.000918870611859
0.000916614136659
0.00090616142903
0.000874678339013
0.00081349189125
0.000813426002761
0.000874514020742
0.000905966922925
0.000916334036498
0.000918695795542
0.000918869272205
0.000918373368345
0.000917802614446
0.000917358155977
0.00091712267308
0.000917121311343
0.000917354488092
0.000917797333059
0.000918367173622
0.000918862981744
0.000918690227505
0.000916323415926
0.000905959653776
0.000874509774064
0.000813425363982
0.000813351242985
0.000874382744086
0.000905820850566
0.000916136199444
0.000918562151116
0.000918657981355
0.000918052970003
0.000917356431222
0.000916785138576
0.00091646580476
0.000916464315885
0.000916781326704
0.000917351232814
0.000918046907441
0.000918651722719
0.000918556499744
0.000916125670368
0.00090581352933
0.00087437828423
0.000813350106153
0.000813293545962
0.000874311789291
0.000905748643731
0.00091604403953
0.000918494314865
0.000918552352313
0.000917890746661
0.000917121423727
0.000916466480055
0.000916080981438
0.000916079498986
0.000916462893799
0.000917116713909
0.000917885279395
0.000918546651506
0.000918489099395
0.000916034559524
0.00090574182535
0.000874307479466
0.000813292103656
0.000813296561477
0.000874314353203
0.000905750942942
0.000916046091764
0.00091849532134
0.000918553484635
0.000917892231292
0.000917123376341
0.000916469040961
0.000916084375221
0.000916083217393
0.000916466206115
0.000917119594218
0.00091788781187
0.000918548828278
0.000918491005692
0.000916038495137
0.000905745115348
0.000874310442642
0.000813295485742
0.000813357427064
0.000874389832878
0.0009058274176
0.000916142061368
0.000918564945055
0.000918661056402
0.000918056929433
0.000917361493304
0.000916791526435
0.000916473690925
0.000916472986388
0.000916789701173
0.000917358898551
0.000918053820663
0.000918657724824
0.000918561811371
0.000916136852962
0.000905822992243
0.000874386706969
0.000813356855914
0.000813432976724
0.00087452446319
0.000905976933752
0.000916343002491
0.000918699866006
0.000918873491871
0.000918378576266
0.000917809100551
0.00091736616812
0.000917132214001
0.000917131864415
0.000917365232202
0.00091780766305
0.000918376781323
0.000918871493649
0.000918697948093
0.000916340125344
0.000905973978984
0.000874522165421
0.000813432761195
0.000813498803675
0.000874694683962
0.000906180625606
0.000916635336743
0.000918881559922
0.00091915401167
0.000918805641682
0.000918383084767
0.000918065955516
0.000917904969855
0.000917904912409
0.000918065803923
0.000918382718958
0.000918805024112
0.000919153146882
0.000918880582699
0.000916634473674
0.000906178995852
0.000874693152681
0.00081349882091
0.000813540827906
0.000874853111098
0.000906354443528
0.000916908352511
0.0009192090444
0.000919365568871
0.000919157878682
0.000918881580936
0.000918673477909
0.000918569364984
0.0009185695541
0.000918673992597
0.000918882146297
0.000919158236617
0.000919365559212
0.000919211453713
0.000916909180722
0.000906353909541
0.000874852218678
0.000813540981181
0.000813541571881
0.000874837819174
0.000906158757096
0.000916690035379
0.000919160023641
0.000919218051812
0.000918889438218
0.000918711406186
0.000918580927139
0.000918514819749
0.000918515234566
0.000918582058177
0.000918712823369
0.000918890874115
0.000919223646668
0.000919163980753
0.000916691980723
0.000906158922621
0.000874837363504
0.000813541767601
0.00081342968773
0.000873923319985
0.000904229764443
0.000914268090212
0.000916696018178
0.000916922900657
0.000916659467753
0.000916377166886
0.000916186354087
0.000916098760106
0.000916100726899
0.00091619179707
0.000916384415404
0.000916666811787
0.00091692916307
0.000916700326108
0.000914270275884
0.000904229936907
0.000873922988887
0.00081342988919
0.000812862605356
0.000869187793807
0.000895871490549
0.000904231557991
0.000906165780097
0.000906368554302
0.000906202889561
0.000906007895971
0.000905867071321
0.000905797904903
0.00090579957836
0.000905871819639
0.000906014285648
0.000906209363814
0.000906373875792
0.000906169250194
0.000904232939568
0.000895870796848
0.000869186781378
0.000812862617818
0.00081068169888
0.0008519366999
0.000869187342119
0.000873923963775
0.000874842256049
0.000874862895541
0.00087471089035
0.000874547950747
0.000874420989568
0.00087435222501
0.00087435342602
0.000874424490721
0.000874552652154
0.000874715513508
0.000874866421645
0.000874844102113
0.000873923868302
0.000869184960309
0.000851934428879
0.000810681355188
0.000805648224948
0.000810679907072
0.000812859324276
0.000813425240557
0.00081353685147
0.00081353664615
0.000813496019585
0.000813432580911
0.000813360570402
0.000813304331446
0.000813304248925
0.000813360329216
0.000813432137813
0.000813495179563
0.000813535302591
0.000813535053192
0.000813423246474
0.00081285734634
0.000810678714137
0.000805647758944
0.000810588431414
0.000850910879666
0.000867966628451
0.000872714951508
0.000873701444984
0.000873803300103
0.000873726281489
0.00087361855664
0.000873521198876
0.000873461007132
0.0008734602043
0.000873519252739
0.000873616095611
0.000873723775448
0.000873801048391
0.000873699624839
0.000872713576528
0.000867965620396
0.000850910742896
0.000810588392439
0.000850908703006
0.00242352375664
0.00293157580636
0.00307952836331
0.0031131886152
0.00311706953546
0.0031148905082
0.00311215149526
0.00311008502713
0.00310900638765
0.00310899311578
0.00311004932773
0.0031120991441
0.00311482916526
0.0031170066333
0.00311312946276
0.00307947407605
0.00293152660475
0.00242349316092
0.000850908197992
0.000867966999684
0.00293162367185
0.00373544666995
0.00400792641732
0.00408212282076
0.00409624047577
0.00409599901929
0.00409343974634
0.00409132633925
0.00409022586906
0.00409021467152
0.0040912954163
0.00409339490086
0.00409594819898
0.00409619102925
0.00408208065288
0.00400789341662
0.00373541883039
0.0029315959951
0.000867966681966
0.000872716218812
0.00307954853828
0.00400790760805
0.00434506846136
0.00444360470092
0.00446430794334
0.00446496272898
0.00446190868988
0.00445932769719
0.00445802280104
0.00445800894591
0.00445928937284
0.0044618546457
0.00446490668208
0.00446426037278
0.00444356880306
0.0043450447428
0.00400788744139
0.00307951902847
0.000872715992174
0.000873701332066
0.00311315379055
0.00408205852216
0.00444356325185
0.00455131575625
0.00457311658406
0.00457156932459
0.00456484716306
0.00455966361625
0.00455715309062
0.00455712157727
0.00455957622918
0.00456472349912
0.00457144690792
0.00457304706626
0.00455127294933
0.00444353774066
0.00408203748615
0.00311312236197
0.000873700945681
0.000873800591663
0.00311697819599
0.00409613073106
0.00446422670133
0.0045730704282
0.00459064845174
0.00458201290726
0.00457028995476
0.00456202122811
0.0045581309018
0.00455809652007
0.00456192174171
0.00457014180586
0.00458184407051
0.00459049818485
0.00457300387767
0.0044641935531
0.00409610559331
0.00311694394996
0.000873799814002
0.000873720413863
0.00311475289058
0.00409585342544
0.00446484288916
0.00457138261381
0.00458191891768
0.00456674517715
0.00454989413042
0.00453815237152
0.0045326003817
0.00453256825502
0.00453805797766
0.00454974720783
0.00456656503291
0.00458173524277
0.0045712488011
0.00446479709136
0.00409582433995
0.00311471728578
0.000873719195272
0.000873609398766
0.00311198356238
0.00409327042766
0.00446175927564
0.00456456395
0.00457011857653
0.00454980205862
0.00452839833261
0.0045130790523
0.00450566246747
0.00450563160132
0.00451299228651
0.00452826473036
0.00454963009693
0.00456992772138
0.00456440036377
0.00446170418354
0.00409323934503
0.00311194865577
0.000873607750488
0.000873509271651
0.00310990561793
0.00409114675435
0.00445916255425
0.00455933137571
0.00456181880012
0.00453804460085
0.0045130699963
0.00449453759592
0.00448534514632
0.00448531652908
0.00449445770948
0.00451295344673
0.00453789067492
0.00456164032948
0.00455916911739
0.00445910853942
0.00409111775762
0.00310987378952
0.000873507298933
0.00087344823196
0.00310883638273
0.00409005229202
0.00445785933396
0.00455681903677
0.00455794112314
0.00453252029749
0.00450568242355
0.00448537204879
0.00447517507401
0.00447515348837
0.00448530764713
0.00450558787097
0.00453239245254
0.00455778860766
0.00455667702311
0.00445781422992
0.00409002901053
0.00310880977283
0.000873446183068
0.000873450070093
0.00310885425444
0.00409006575786
0.00445787066506
0.00455684378204
0.00455797341341
0.00453256418373
0.00450573515727
0.00448542929157
0.00447523818443
0.00447522206935
0.00448538069133
0.00450566365642
0.00453246870514
0.00455785901014
0.00455673516717
0.0044578394438
0.00409005030527
0.00310883360987
0.000873448313647
0.000873513896619
0.00310995788263
0.00409118603794
0.00445919496162
0.00455940034523
0.00456190719934
0.00453816412136
0.00451321277536
0.00449469614452
0.00448552248658
0.00448551084183
0.00449466472962
0.00451316663678
0.00453810482535
0.00456183656148
0.00455933193919
0.00445917950118
0.00409117943831
0.0031099447138
0.000873512670481
0.000873615443508
0.00311206629288
0.00409333180826
0.0044618071138
0.00456466074052
0.00457023931015
0.00454996271744
0.00452859274254
0.00451330518052
0.0045059186932
0.00450591281639
0.00451329169613
0.00452857248579
0.00454993822004
0.00457020975544
0.00456463255177
0.00446180595048
0.00409333296238
0.00311206015955
0.000873614682496
0.000873726943877
0.0031148608302
0.00409593296533
0.00446489893068
0.00457147661268
0.0045820475556
0.00456690423164
0.00455008973308
0.00453839104314
0.00453288100872
0.0045328838668
0.00453840026739
0.00455009970667
0.00456691329131
0.00458205506994
0.00457148527599
0.00446490962028
0.00409594003529
0.00311486058331
0.00087372650652
0.00087380703735
0.00311710599604
0.00409622690763
0.00446429156148
0.00457313432187
0.00459077754656
0.00458216276367
0.00457047495123
0.00456225259498
0.00455841240111
0.00455842398928
0.00456228504165
0.00457051684188
0.00458220450764
0.0045908067017
0.00457314809494
0.00446430670167
0.00409623685067
0.00311710958268
0.000873806760924
0.000873707281832
0.00311329479861
0.0040821691908
0.00444364070992
0.00455137678545
0.00457318630407
0.00457167606243
0.00456499851918
0.00455985892457
0.00455739891217
0.00455741688805
0.00455990825116
0.00456506323412
0.00457173666727
0.00457320548742
0.00455139416206
0.00444365648901
0.00408217799962
0.00311329898415
0.000873706978619
0.000872721205812
0.00307969138209
0.00400802710844
0.0043451577371
0.00444367324852
0.00446436615761
0.00446502216288
0.00446198030995
0.00445941511253
0.00445813029324
0.00445813725326
0.00445943378355
0.00446200442228
0.00446504604266
0.00446438503372
0.00444368890028
0.00434516735697
0.00400802714185
0.00307968991963
0.000872720596212
0.000867970671951
0.00293175393962
0.00373556486749
0.00400801952368
0.00408219268307
0.00409629137249
0.00409603883033
0.00409347860994
0.00409137325294
0.00409028793415
0.00409029445823
0.00409139141535
0.00409350217283
0.00409606124811
0.00409630757324
0.0040821995146
0.00400801356113
0.0037355433456
0.00293173375219
0.000867969189346
0.000850911407149
0.00242362939689
0.0029316752727
0.00307960666182
0.00311324099611
0.00311709544699
0.0031148976474
0.00311215211457
0.00311009222162
0.00310903013492
0.00310903780376
0.00311011419234
0.00311218019966
0.00311492204587
0.00311710815572
0.00311323717113
0.00307958315249
0.00293162670006
0.00242357517002
0.000850908696106
0.000810588165104
0.000850913174919
0.00086796875393
0.000872716681618
0.000873702508097
0.000873803377024
0.000873725385402
0.000873616962456
0.000873519422749
0.000873459753999
0.000873460103977
0.000873520307856
0.000873617879334
0.00087372587373
0.000873803174105
0.000873701570631
0.000872715173017
0.000867966760477
0.000850911311932
0.000810587453533
0.000812782655506
0.000867711042403
0.000893979879209
0.00090226669041
0.000904247617561
0.00090453660303
0.000904455736935
0.000904317880105
0.000904200691618
0.000904134315381
0.000904133688575
0.000904199074169
0.000904315676633
0.00090445337356
0.000904534431054
0.000904245876587
0.000902265410663
0.00089397893893
0.000867710745579
0.000812783274557
0.000867706997973
0.00292212751816
0.00372006791605
0.00398869657901
0.00405996583626
0.00407155033493
0.00406905566705
0.00406462714457
0.0040611574818
0.00405933867041
0.00405931949524
0.00406110602916
0.00406455264423
0.00406896979413
0.0040714641805
0.00405988729318
0.00398862661205
0.00372000368117
0.00292207965124
0.000867706066406
0.000893978455597
0.00372010218107
0.0050791689379
0.00561406227752
0.00578210212729
0.00582108366755
0.00582452635891
0.0058208674104
0.00581729800093
0.00581537799179
0.00581536306586
0.00581725705652
0.00582080887167
0.00582446128619
0.00582102293886
0.00578205397755
0.00561402702866
0.00507913533575
0.00372005891205
0.000893977824924
0.000902266356381
0.00398865616484
0.00561400581084
0.00630404640437
0.00653792567379
0.00659812156577
0.00660664165301
0.00660364171213
0.00660005592802
0.00659814193292
0.00659812769658
0.00660001677841
0.0066035876985
0.00660658689658
0.00659807940688
0.00653790109829
0.00630403541958
0.00561398790867
0.00398861090514
0.000902265898069
0.00090424559845
0.0040598127568
0.00578195783099
0.00653785451292
0.00680170120476
0.00687028678495
0.00687961675243
0.00687601280422
0.0068712155934
0.00686824337061
0.0068682187563
0.00687114765884
0.00687591864483
0.00687952413523
0.00687023390463
0.00680167899772
0.00653784883981
0.0057819403328
0.00405976136581
0.000904244949884
0.000904531491385
0.00407128321175
0.00582085846345
0.00659799719229
0.00687023987763
0.00694064464908
0.00695424129047
0.00695502559012
0.00694969907621
0.00694505943577
0.00694503299182
0.00694962146355
0.00695491306107
0.00695411893635
0.00694054332557
0.00687019922734
0.00659798495397
0.00582083394998
0.00407122314336
0.000904530395205
0.000904447049284
0.00406869071884
0.00582423813027
0.00660648067881
0.00687950424429
0.00695420442362
0.00697896787427
0.00698539678153
0.00697833585636
0.00697123768756
0.00697121252167
0.00697826165703
0.00698528553713
0.00697883828565
0.00695408036108
0.00687941988694
0.00660645546284
0.00582420558267
0.00406862319906
0.000904445471743
0.000904305781227
0.00406419193614
0.00582053652477
0.00660345938984
0.00687586590307
0.00695496630964
0.00698534685157
0.00699145193293
0.00698037733697
0.00697041735599
0.00697039145006
0.00698030728624
0.00699135028779
0.00698522370991
0.00695483729628
0.00687576548742
0.00660342600534
0.00582049891213
0.00406412010709
0.000904303787549
0.000904186094603
0.00406068744974
0.00581694608229
0.00659986209997
0.00687105286979
0.00694964436926
0.00697830363527
0.00698039576294
0.00696528250555
0.00695316991859
0.00695314369664
0.00696521330992
0.00698030404937
0.00697819229517
0.00694952437015
0.00687095465669
0.00659982952824
0.00581690912016
0.00406061578038
0.000904183857596
0.00090411915651
0.00405887681417
0.00581503324259
0.00659795271537
0.00686808730354
0.00694502780497
0.00697123936446
0.00697046568191
0.00695319552292
0.00694001024546
0.00693998953795
0.00695313634648
0.00697038811067
0.00697114582977
0.00694492709827
0.00686800562527
0.00659792921734
0.0058150028231
0.00405881033403
0.000904116924305
0.000904120648025
0.00405891302637
0.00581505879002
0.00659796789754
0.00686810561163
0.00694504683614
0.00697125986369
0.00697048702116
0.0069532186117
0.00694003807577
0.0069400211167
0.00695317024773
0.00697042416294
0.00697118892005
0.00694497540178
0.00686805092413
0.00659795897615
0.00581503908576
0.00405885581638
0.000904118663163
0.000904190206619
0.00406079339497
0.00581702084847
0.00659990582953
0.00687110347469
0.00694969416883
0.00697835150499
0.00698044100197
0.00696533414247
0.00695323645586
0.00695322201076
0.00696529766819
0.00698039488432
0.0069783059196
0.0069496548409
0.0068710795881
0.0065999129479
0.00581701384754
0.00406074933253
0.000904188665057
0.000904311724469
0.00406435997206
0.00582065456511
0.0066035257211
0.0068759366382
0.00695503052313
0.00698540106417
0.00699149757911
0.00698043813054
0.00697050098753
0.0069704909741
0.006980414372
0.00699146785494
0.006985377007
0.00695501761895
0.00687593965466
0.00660354582011
0.00582065881261
0.00406432999732
0.000904310643295
0.000904454053635
0.00406891099758
0.00582439412071
0.00660656599825
0.00687958347842
0.00695428303144
0.00697902905121
0.00698544856402
0.00697840954825
0.00697134153052
0.00697133870953
0.00697840113851
0.00698543691255
0.00697902242802
0.00695429027137
0.00687960629607
0.00660659437249
0.0058244067445
0.0040688944597
0.000904453350725
0.000904538979205
0.00407154597372
0.00582105164231
0.00659810745982
0.00687031930786
0.00694074564342
0.00695434813077
0.00695513959218
0.00694984029592
0.00694523559307
0.0069452384561
0.00694984754211
0.00695514786255
0.00695436070856
0.00694076545331
0.00687034384336
0.00659813771354
0.00582106887278
0.0040715409029
0.000904538498933
0.000904253092915
0.00406010615929
0.00578218912529
0.00653800430443
0.0068018090476
0.00687039303911
0.00687974830649
0.00687616980586
0.00687140252813
0.00686846525288
0.00686847384257
0.00687142437363
0.00687619750769
0.00687977754217
0.00687041159008
0.0068018351354
0.00653803293053
0.00578220572449
0.00406010802808
0.000904252610582
0.000902273322293
0.00398896015602
0.00561427088898
0.00630424576457
0.00653808253803
0.00659825923077
0.0066067786699
0.0066037888938
0.00660021876894
0.00659832536367
0.00659833256315
0.00660023778798
0.00660381391392
0.00660680606016
0.00659828660126
0.00653811015113
0.00630426711373
0.00561427656083
0.00398895888065
0.000902272405384
0.000893984451413
0.00372038587486
0.00507944900127
0.0056143005987
0.00578229886564
0.00582124704646
0.00582467022486
0.00582100815625
0.00581745123868
0.00581555566262
0.00581556974133
0.00581749010344
0.00582106047049
0.00582472370114
0.00582129211869
0.00578232886784
0.0056143081581
0.00507942912962
0.00372036286203
0.000893982353102
0.000867711655477
0.00292235162893
0.00372031349845
0.0039889184364
0.00406014264629
0.00407167804294
0.00406914718138
0.00406470527988
0.00406124753675
0.00405946071493
0.00405948355499
0.00406131096742
0.00406479082478
0.0040692325291
0.00407174450326
0.00406017889974
0.00398891731762
0.00372026863202
0.00292228915935
0.000867708203875
0.000812782131795
0.000867715249963
0.000893984407944
0.00090227068168
0.000904250712181
0.000904538489863
0.000904456523784
0.000904318027967
0.000904200892632
0.000904135274359
0.000904135851531
0.000904202427772
0.000904319877081
0.000904458011202
0.000904539167524
0.000904250448872
0.000902269574631
0.000893982548262
0.00086771330674
0.00081278191856
0.000813450573532
0.000872429206082
0.00090217896374
0.000912096405565
0.000914605915861
0.000915000395794
0.000914908952973
0.000914743083351
0.000914605845435
0.000914530754404
0.000914530191842
0.00091460437664
0.000914741051874
0.000914906763366
0.000914998416555
0.000914604404803
0.000912095391128
0.000902178493615
0.00087242958062
0.000813451724783
0.000872424287791
0.00306666115568
0.00398401687351
0.00431346862464
0.00440639196448
0.00442263907965
0.00441960447477
0.00441369748927
0.00440903198648
0.00440659407192
0.00440657212445
0.00440897295822
0.00441361269895
0.00441950799483
0.00442254401272
0.00440630780761
0.00431339659023
0.00398395491884
0.00306662033018
0.00087242372397
0.000902176501748
0.00398403311152
0.00560139028702
0.00628498423756
0.00651433070999
0.00657143708402
0.00657784898801
0.00657340054044
0.00656870991224
0.00656615494041
0.00656613825619
0.00656866434964
0.00657333617281
0.00657777874773
0.00657137401446
0.00651428482158
0.00628495518465
0.00560136372258
0.00398399622375
0.000902176222266
0.000912094668473
0.00431335998469
0.00628488302886
0.00718895794504
0.00751821201552
0.00761161001958
0.00763197127124
0.0076342040747
0.00763181067056
0.00762972625403
0.00762971464504
0.00763177942515
0.00763416182704
0.00763192947645
0.00761158253344
0.00751820460173
0.00718896315774
0.00628487343057
0.00431331445952
0.000912094541795
0.000914601759316
0.0044061035522
0.00651408702657
0.00751810137523
0.00790001780985
0.00802055870854
0.00805703474346
0.00806687860298
0.0080656523043
0.00806294584189
0.00806293120141
0.0080656131769
0.00806682784004
0.00805699000731
0.00802054375264
0.00790002596606
0.00751811726827
0.00651407275403
0.00440603909432
0.000914601234577
0.000914992163786
0.00442216129979
0.00657105814793
0.00761142007215
0.00802049920251
0.00816235538884
0.00821404538563
0.00822938353195
0.00822635787451
0.00822139420773
0.00822137846395
0.00822631423121
0.00822932621697
0.00821399360742
0.00816232491029
0.00802050447838
0.00761143099817
0.00657102836962
0.00442207343916
0.00091499095617
0.000914896169592
0.0044189532932
0.00657735714978
0.00763173261378
0.00805694909034
0.00821403004176
0.00827331896769
0.00828500039138
0.00827327459573
0.00826332916905
0.00826331223792
0.00827322696784
0.00828493508561
0.00827326006346
0.00821399016325
0.00805693134907
0.00763173110197
0.00657731032966
0.00441884365785
0.000914894280909
0.000914726173073
0.00441290974537
0.00657282339735
0.00763393127433
0.00806678084178
0.00822936575196
0.00828495936523
0.00828254499308
0.00825714369667
0.00824125781532
0.00824123689419
0.00825708679819
0.00828247024411
0.00828489180839
0.00822931915223
0.00806675468883
0.00763392197055
0.0065727642438
0.00441278389199
0.000914723731521
0.000914586060045
0.00440816104954
0.00656807960381
0.00763151383305
0.00806554236885
0.00822634674583
0.00827326135733
0.00825718088689
0.00822452656776
0.00820705354664
0.00820702988093
0.00822446137324
0.0082571006577
0.0082731879614
0.00822629736445
0.00806551505474
0.0076315029116
0.00656801723299
0.0044080285759
0.000914583329806
0.00091451026976
0.00440571289645
0.00656551909617
0.00762942618383
0.00806282903531
0.00822138499393
0.00826333827928
0.00824132705669
0.00820709505088
0.00818993877382
0.00818991766368
0.00820703384567
0.00824124925891
0.00826326873016
0.0082213419195
0.00806281064891
0.00762942161517
0.00656546410115
0.00440558529483
0.000914507564735
0.000914511758019
0.0044057664159
0.00656555612681
0.00762944146248
0.00806282756853
0.00822137263407
0.0082633288953
0.00824133020644
0.00820710892763
0.00818995948682
0.00818993985403
0.00820705273052
0.00824125844185
0.00826327014264
0.00822134628541
0.00806282768816
0.00762945005235
0.00656551698639
0.00440565394787
0.000914509340805
0.000914590292654
0.00440831796223
0.00656818845663
0.00763155861224
0.0080655362292
0.00822630486909
0.00827322021573
0.00825716756679
0.00822454292576
0.00820708943905
0.00820707111466
0.00822449398487
0.00825710687249
0.00827317835432
0.00822630027813
0.00806555841112
0.00763158298496
0.00656816918244
0.00440822813777
0.000914588357077
0.000914732539342
0.00441315853804
0.00657299662939
0.00763400461154
0.00806677207417
0.0082292922081
0.00828487168105
0.00828247754075
0.0082571209634
0.00824126196241
0.00824124728332
0.00825708321139
0.00828243295037
0.00828484929644
0.00822930571685
0.00806681101639
0.0076340426102
0.00657299556144
0.00441309356497
0.000914731120705
0.000914903968428
0.00441927875319
0.00657758785106
0.00763184052872
0.00805696139013
0.00821395694773
0.00827319547726
0.0082848726518
0.0082731778891
0.00826325689662
0.00826324915243
0.00827315791636
0.00828484925935
0.00827318827171
0.00821398014751
0.00805700730317
0.00763188695482
0.00657760085095
0.00441923847998
0.000914903025768
0.000915000800578
0.00442254786943
0.00657134438769
0.00761157548978
0.00802057106132
0.00816235229507
0.00821398378098
0.00822929935185
0.0082262862961
0.00822134114936
0.00822133901417
0.00822628082653
0.00822929403612
0.00821399022826
0.00816237969122
0.00802061384238
0.00761162393058
0.00657136769563
0.00442253112718
0.000915000216122
0.000914610661868
0.0044065314493
0.00651442955933
0.0075183224165
0.0079001709503
0.00802067428126
0.00805712155144
0.00806695136672
0.00806573499459
0.00806304799477
0.00806305228601
0.00806574613418
0.00806696684919
0.0080571442824
0.00802070721926
0.00790021590363
0.00751837037741
0.00651445828868
0.00440653443336
0.000914610264466
0.000912103212432
0.00431379903549
0.00628527799769
0.00718926366335
0.0075184619181
0.00761183449247
0.00763218903491
0.00763442424574
0.00763204505534
0.00762998289955
0.00762999428108
0.00763207625098
0.00763446731582
0.00763223724947
0.00761188661931
0.00751851497876
0.00718930803821
0.00628530139158
0.00431381017376
0.000912102506832
0.000902184302536
0.00398444216368
0.00560181617279
0.00628536794732
0.00651466701511
0.00657173481122
0.00657812671232
0.00657368103105
0.00656901443259
0.00656649861442
0.00656652509957
0.0065690872362
0.00657378071961
0.00657823193607
0.00657182879904
0.00651473804028
0.0062854060377
0.00560181830439
0.00398443824415
0.000902182432874
0.000872430597854
0.00306698919612
0.00398440275069
0.00431384373568
0.00440671706484
0.00442290461015
0.00441982775656
0.00441391106633
0.00440927109627
0.00440688565159
0.00440692805495
0.00440938748356
0.00441407005739
0.0044199917417
0.00442304209404
0.00440680873818
0.00431387937057
0.00398438141332
0.00306694411785
0.000872427350902
0.000813449053703
0.000872434750109
0.000902185542753
0.000912102683479
0.000914611280147
0.000915004463779
0.000914911920632
0.000914745588086
0.000914608710911
0.000914534685875
0.000914535520201
0.000914610952838
0.000914748447569
0.000914914510509
0.00091500613862
0.0009146118054
0.000912102123821
0.000902184302561
0.000872433524505
0.000813449069228
0.000813716233509
0.000873585433487
0.000904319954421
0.000914768029644
0.0009174568753
0.000917872017388
0.000917749372127
0.000917546528568
0.000917384565258
0.000917298820362
0.00091729832466
0.000917383269871
0.000917544738459
0.000917747465875
0.000917870370898
0.000917455779509
0.00091476755495
0.000904320271327
0.000873586923282
0.000813717771494
0.000873580152207
0.00310188573094
0.0040569698616
0.00440820251568
0.00450890197164
0.00452592565429
0.00452127959305
0.00451348139544
0.00450745310019
0.00450435528016
0.00450433191185
0.0045073899095
0.00451339071626
0.00452117729735
0.00452582667829
0.00450881829785
0.00440813680456
0.00405692034668
0.0031018648898
0.000873580364991
0.000904317085029
0.00405697344082
0.00576611529286
0.00651034229142
0.00676634208507
0.00683161457124
0.00684076441348
0.00683742328208
0.00683221326349
0.00682894799771
0.00682892985727
0.00683216383964
0.00683735390135
0.00684068975501
0.00683155003077
0.00676629989537
0.00651032237837
0.00576610205867
0.00405695364149
0.000904317512209
0.000914765597853
0.00440803963901
0.0065102048633
0.00750786803534
0.0078855514615
0.00800050328163
0.00802901394771
0.00803241958113
0.00802923029704
0.00802652902165
0.00802651702333
0.00802919849093
0.00803237879564
0.00802897842336
0.00800048398535
0.00788555502398
0.00750788491758
0.00651020357832
0.00440800027443
0.000914766059743
0.00091745139017
0.00450849827722
0.00676601269717
0.00788540700754
0.00833147483887
0.00847850910497