/*--------------------------------*- C++ -*----------------------------------*\
| =========                 |                                                 |
| \\      /  F ield         | OpenFOAM: The Open Source CFD Toolbox           |
|  \\    /   O peration     | Version:  3.0.1                                 |
|   \\  /    A nd           | Web:      www.OpenFOAM.org                      |
|    \\/     M anipulation  |                                                 |
\*---------------------------------------------------------------------------*/
FoamFile
{
    version     2.0;
    format      ascii;
    class       volScalarField;
    location    "0.2";
    object      ddt0(epsilon);
}
// * * * * * * * * * * * * * * * * * * * * * * * * * * * * * * * * * * * * * //

dimensions      [0 2 -4 0 0 0 0];

internalField   nonuniform List<scalar> 
7968
(
-2.83965606343
-2.83217037758
-2.82947171057
-2.82900040168
-2.82894989585
-2.82894891196
-2.82895069248
-2.82895146067
-2.82895113392
-2.82895106875
-2.82895245112
-2.82895597522
-2.82895832619
-2.82895900253
-2.82895761262
-2.82895836672
-2.82900799108
-2.82947880548
-2.83217565234
-2.83965796545
-2.83217050723
-2.76677008352
-2.73791483741
-2.73137363233
-2.73043408021
-2.73032759529
-2.73030810272
-2.73029920593
-2.73029040936
-2.73028402791
-2.73028287409
-2.73028622631
-2.73029164166
-2.73029794794
-2.73031167411
-2.73041336894
-2.73134968926
-2.73789391252
-2.76676871324
-2.83217394814
-2.82947219124
-2.73791462337
-2.69099618701
-2.67877180358
-2.67677195142
-2.67653064007
-2.67650540762
-2.67650014777
-2.67649579619
-2.67649284101
-2.67649196181
-2.67649263298
-2.6764962437
-2.6764975737
-2.67651715942
-2.67675089772
-2.67874444456
-2.69096732791
-2.73789112706
-2.82947698332
-2.82900109493
-2.73137314248
-2.67877165353
-2.66455863421
-2.6621650085
-2.66187877734
-2.66185647692
-2.66185636476
-2.66185748226
-2.66185270284
-2.66185216932
-2.66185310305
-2.66185818752
-2.66185445189
-2.66187207811
-2.66215215735
-2.66453865669
-2.67874755844
-2.73135021239
-2.82900616097
-2.82895071161
-2.73043300051
-2.67677241581
-2.66216614723
-2.65970134847
-2.65941448543
-2.6594005341
-2.65940505571
-2.65941047197
-2.65942104001
-2.65942746667
-2.65942237093
-2.65941357148
-2.65940263565
-2.65941439283
-2.65969703457
-2.6621552503
-2.67675636986
-2.73041590254
-2.82895574813
-2.82894971754
-2.73032738512
-2.67653332899
-2.66188234403
-2.65941750276
-2.65914024452
-2.65913413012
-2.65915517517
-2.65917076641
-2.65917588363
-2.65918446911
-2.65918012434
-2.65917557773
-2.65914943075
-2.65915144097
-2.65942099948
-2.66188040266
-2.676525874
-2.73031559818
-2.82895408881
-2.82895136752
-2.73030967716
-2.67651123923
-2.6618646316
-2.65940905268
-2.65914355445
-2.65916217814
-2.65915818669
-2.65915723698
-2.65915849226
-2.65915985927
-2.65915867611
-2.65915871091
-2.65916383534
-2.6591625283
-2.6594182635
-2.66186955586
-2.67651082936
-2.73030354457
-2.82895471703
-2.82895164412
-2.73030071174
-2.67650795034
-2.66186901677
-2.65942077703
-2.65917398156
-2.65916037016
-2.65915717999
-2.65916196304
-2.65916384296
-2.65916616152
-2.65916348426
-2.65915982128
-2.65916172389
-2.65918711193
-2.65944072481
-2.66188113088
-2.67651454534
-2.73029967057
-2.82895385222
-2.82895084439
-2.73029458366
-2.67650622913
-2.66187342653
-2.65943597456
-2.65919376389
-2.65916057852
-2.65916451338
-2.65917207952
-2.65917717328
-2.65917600755
-2.65917234811
-2.65916316824
-2.65916181485
-2.65919391041
-2.65945580782
-2.6618846599
-2.67651510951
-2.73029680088
-2.82895205945
-2.8289502425
-2.73029006358
-2.67650484763
-2.66187524996
-2.65944279736
-2.65919135128
-2.65916072807
-2.65916727181
-2.65918130377
-2.65918407875
-2.65918294776
-2.65917182403
-2.65916150458
-2.65915949471
-2.65919224018
-2.65945643843
-2.66188209866
-2.67651304724
-2.73029265629
-2.82895088053
-2.82895159783
-2.73028982204
-2.67650448804
-2.66187551348
-2.6594447774
-2.65918968478
-2.65915931724
-2.65916641212
-2.65917912862
-2.65918572255
-2.65918280049
-2.65916798184
-2.6591583342
-2.65915554816
-2.65918851245
-2.65945212718
-2.6618776491
-2.6765099069
-2.73029224891
-2.8289521327
-2.82895413059
-2.73029060814
-2.67650436643
-2.66187458338
-2.65944106987
-2.65918790908
-2.65915694908
-2.65916102199
-2.65917069532
-2.65917127486
-2.65916915555
-2.6591542118
-2.65914770501
-2.65914829371
-2.6591811703
-2.65942937689
-2.6618713319
-2.67650603251
-2.73029248085
-2.82895390799
-2.82895666585
-2.73029556507
-2.67650430869
-2.66186967629
-2.65942851785
-2.65918525607
-2.65915155065
-2.65915256479
-2.65915830637
-2.65915725936
-2.65915600068
-2.65914285948
-2.65913819554
-2.65914117015
-2.65916174988
-2.65941047789
-2.66186052043
-2.67650299009
-2.73029444335
-2.82895535339
-2.82895719706
-2.73030032537
-2.67650345072
-2.66186106503
-2.65941132066
-2.65915777971
-2.65915628467
-2.65914940318
-2.6591503571
-2.6591484956
-2.65914710873
-2.65913943956
-2.65914030802
-2.65914597075
-2.65911992719
-2.65938925272
-2.66185001928
-2.67650072285
-2.73030148108
-2.82895495417
-2.82895570171
-2.7303142148
-2.67652161843
-2.66187559345
-2.65941541999
-2.65914225051
-2.65915578344
-2.6591770209
-2.65918203741
-2.65918102775
-2.65918078078
-2.65917448424
-2.65915204167
-2.65911961944
-2.6591191611
-2.65939711253
-2.66186565704
-2.6765211973
-2.73031609842
-2.8289527255
-2.82895642433
-2.73041652101
-2.67675546459
-2.66215502905
-2.65969680992
-2.65941575574
-2.65940938633
-2.65942364972
-2.65944299657
-2.65944288809
-2.6594346543
-2.65941165556
-2.6594019874
-2.65938505002
-2.65939535578
-2.65968243107
-2.66214974951
-2.67676024303
-2.73042084102
-2.82895309772
-2.8290060223
-2.73135253368
-2.67874959071
-2.66454206451
-2.66215591298
-2.66187703877
-2.66186266375
-2.66186946097
-2.66187290981
-2.66186906173
-2.66186274494
-2.66185635796
-2.66185005569
-2.66184397948
-2.66186239997
-2.66214832925
-2.66454321188
-2.67875841341
-2.73136140373
-2.82900278574
-2.82947703808
-2.73789729922
-2.690972881
-2.67875263508
-2.67675841549
-2.67652485006
-2.67650647913
-2.67650646857
-2.6765052144
-2.67650133403
-2.67649609722
-2.67649559617
-2.67649387948
-2.67649428521
-2.6765171277
-2.6767583887
-2.67875790932
-2.69098642921
-2.73790684222
-2.82947430394
-2.83217416273
-2.76677091414
-2.73789547277
-2.73135309092
-2.73041898173
-2.73031634735
-2.73030344861
-2.7302968036
-2.7302919527
-2.73028817121
-2.7302862774
-2.73028431698
-2.73028910389
-2.73029724104
-2.73031267975
-2.73041876394
-2.73136043219
-2.7379066449
-2.76677328288
-2.8321719068
-2.83965712523
-2.83217259576
-2.82947509352
-2.82900395264
-2.82895362293
-2.82895227727
-2.82895360348
-2.82895357954
-2.82895264402
-2.82895222499
-2.82895355682
-2.82895508138
-2.82895638709
-2.82895570475
-2.82895318501
-2.82895336306
-2.82900296862
-2.82947439542
-2.83217204121
-2.83965448505
-2.83212187673
-2.76662514751
-2.73779991427
-2.7312776982
-2.7303619382
-2.73028430142
-2.73029346912
-2.73030853598
-2.73032170318
-2.73033024215
-2.73033311047
-2.73033331342
-2.73032535496
-2.73031194949
-2.73030251156
-2.73038138565
-2.73129599186
-2.7378175127
-2.76663878744
-2.83212781003
-2.76661932694
-0.353032375513
-0.28653805117
-0.280134994979
-0.279939319069
-0.279968485045
-0.279964850859
-0.279956373956
-0.279950014509
-0.279946252364
-0.279945648218
-0.279948087396
-0.279953108004
-0.279960483685
-0.279962357959
-0.279932930366
-0.280128617737
-0.286531825563
-0.35302244182
-2.76662976154
-2.73779219043
-0.286538551597
-0.209026198589
-0.202176713486
-0.202399302702
-0.202556694076
-0.202578829822
-0.202578329022
-0.202576635341
-0.20257578009
-0.202575816481
-0.202576153178
-0.202577829533
-0.202578471597
-0.202556216765
-0.202399198475
-0.202176744493
-0.209026210028
-0.286531558628
-2.7378089355
-2.73126930385
-0.280134747647
-0.202176439917
-0.196004276758
-0.196559100426
-0.196791739381
-0.196824207432
-0.196823135373
-0.196820036022
-0.196817763286
-0.196817174189
-0.196818112457
-0.1968210035
-0.19682158916
-0.196791149988
-0.196558767274
-0.196005045545
-0.202177620058
-0.280130329496
-2.73128894522
-2.73035323974
-0.27993821397
-0.202398664931
-0.196558475718
-0.197227127637
-0.197481876916
-0.197513332438
-0.197508123749
-0.19750121197
-0.197498358875
-0.19749797333
-0.197499333056
-0.197505148534
-0.197508236868
-0.197478612414
-0.197225058348
-0.196558019331
-0.202399303354
-0.279934093002
-2.73037490875
-2.73027571319
-0.279966173877
-0.202555844166
-0.196790807592
-0.197480607073
-0.197735357299
-0.197758400353
-0.197748520259
-0.197737776486
-0.197731937318
-0.197728159943
-0.197735872282
-0.19774440629
-0.197751783364
-0.197729631059
-0.197476592973
-0.196788239643
-0.202554666608
-0.279962051597
-2.73029657195
-2.73028518813
-0.27996148395
-0.20257650116
-0.196821762492
-0.197511448508
-0.197758455051
-0.197767866241
-0.19774449637
-0.1977233017
-0.197713998702
-0.197707015491
-0.197714845611
-0.197729239727
-0.197758952326
-0.197751192529
-0.197504498662
-0.196817800512
-0.202575243333
-0.279957944814
-2.73030677663
-2.7303010288
-0.279952250764
-0.202575150811
-0.19681991745
-0.197506223945
-0.197746178646
-0.197735352883
-0.197706219458
-0.197674645569
-0.197660180925
-0.1976562377
-0.197663835778
-0.197686925905
-0.197722039128
-0.197736715863
-0.197496457378
-0.196814590956
-0.202572954673
-0.279949031374
-2.73032223303
-2.73031444977
-0.279945300373
-0.202572599725
-0.19681590376
-0.197498051475
-0.197726156261
-0.197705377176
-0.197674516683
-0.197606216744
-0.197635788143
-0.197600928102
-0.197623068088
-0.197647274061
-0.197698387711
-0.197717494188
-0.19748923654
-0.196809293472
-0.202569902145
-0.279943285373
-2.73033233115
-2.73032225082
-0.279941588173
-0.202571216866
-0.196813364827
-0.19749339127
-0.19771711788
-0.197691131217
-0.197658331039
-0.197630019333
-0.197564323617
-0.197570471334
-0.197607992339
-0.197644752841
-0.197688769277
-0.197710721007
-0.1974861631
-0.196807161036
-0.202568619673
-0.279940519435
-2.73033586555
-2.73032450643
-0.279940866068
-0.202570970135
-0.196812603047
-0.197492294036
-0.197713206592
-0.197688985594
-0.197658125366
-0.197588837921
-0.197591291029
-0.197570906713
-0.197610662557
-0.19763033524
-0.197678275157
-0.197706028593
-0.197485079781
-0.196807060685
-0.202568670552
-0.279940512841
-2.73033559852
-2.73032173147
-0.279943375257
-0.20257216894
-0.196814281595
-0.197494865247
-0.197720550224
-0.197699504573
-0.197666666752
-0.197608130681
-0.197595612394
-0.197604641107
-0.197632792061
-0.197644395593
-0.197684082964
-0.197713942081
-0.197487947107
-0.19680984068
-0.202570352296
-0.279943454376
-2.73032777947
-2.73031277603
-0.279948858747
-0.202574210407
-0.196817273238
-0.197499823689
-0.197737065432
-0.197715660203
-0.197692624382
-0.197632028888
-0.19763614208
-0.197645938595
-0.197647583309
-0.197666667123
-0.197707655797
-0.197735970991
-0.197497169731
-0.196815088292
-0.202574252169
-0.279949973006
-2.73031537015
-2.73029797778
-0.279956565132
-0.202575575409
-0.19681957127
-0.19750718232
-0.197750967063
-0.197747281374
-0.197716693658
-0.19767567405
-0.197674832537
-0.197670673346
-0.19767429058
-0.197706114181
-0.197753907811
-0.197749320064
-0.197505785284
-0.19681917208
-0.202576755969
-0.279959728382
-2.73029886169
-2.7302879656
-0.279959440646
-0.20255423407
-0.196788343604
-0.197476833096
-0.197728047921
-0.197748845652
-0.197737075563
-0.197706258511
-0.19770080407
-0.197700489416
-0.197712068488
-0.197731480083
-0.197750497224
-0.197727019714
-0.197476984265
-0.196789412114
-0.202556094053
-0.27996458634
-2.73028885725
-2.73036705454
-0.279930962223
-0.202397685588
-0.196557128787
-0.197223702556
-0.197476404347
-0.197503794921
-0.197497191048
-0.197486668541
-0.197483842918
-0.197483404074
-0.197486538207
-0.197496400917
-0.197505515674
-0.197476601525
-0.197224691334
-0.196558535267
-0.202400491409
-0.279937370518
-2.73036848216
-2.73128193634
-0.280127278583
-0.202175582553
-0.196003951706
-0.196557212068
-0.196788534142
-0.196817410627
-0.196814614857
-0.196807536809
-0.196805476312
-0.196805547184
-0.196809081268
-0.196814364433
-0.196818613165
-0.196789353349
-0.196558574584
-0.196006174988
-0.202179692814
-0.28013438624
-2.73128608928
-2.73780476861
-0.286531556022
-0.209025483461
-0.202177027853
-0.202398830373
-0.202554606149
-0.202575116956
-0.202573083905
-0.202569555176
-0.202568439758
-0.202568509126
-0.202570293793
-0.20257418418
-0.202576648482
-0.202556263544
-0.202400947272
-0.202180185268
-0.209031375257
-0.286541420684
-2.73781196713
-2.76662811157
-0.353023561348
-0.286531752535
-0.280130953762
-0.279935620772
-0.279963783508
-0.279960004235
-0.27995059771
-0.279944669788
-0.27994213769
-0.279942402639
-0.279945197888
-0.279951960509
-0.279961926433
-0.279966590029
-0.279939357676
-0.280136022672
-0.286542526795
-0.353035025708
-2.76663660689
-2.83212498396
-2.76662817104
-2.73780931299
-2.73128952949
-2.73037598953
-2.73029810267
-2.73030930155
-2.73032561106
-2.73033763748
-2.73034460719
-2.73034449129
-2.73033570993
-2.73032316579
-2.73030633332
-2.73029578085
-2.73037477772
-2.7312916379
-2.73781683123
-2.76663978001
-2.83212468262
-2.82936477729
-2.73769852892
-2.69084382242
-2.67864856142
-2.67668056078
-2.67647276076
-2.67648266908
-2.67650602074
-2.67652757086
-2.67654311244
-2.67654993055
-2.67654912209
-2.6765369839
-2.6765148014
-2.67651044641
-2.67671745339
-2.67868398468
-2.69087613323
-2.73772513385
-2.82937907312
-2.73769093299
-0.286473506369
-0.208970603752
-0.202114534857
-0.202331769566
-0.202484323166
-0.202501740587
-0.202496592804
-0.202490861096
-0.202489974555
-0.202490565227
-0.202491788452
-0.202493465548
-0.202497459568
-0.2024799855
-0.202326954584
-0.202109513308
-0.208965765324
-0.286471230916
-2.73772169063
-2.69083336964
-0.208972187921
-0.118664534936
-0.111653291116
-0.112785324035
-0.113251823449
-0.113333176674
-0.113342242174
-0.113342507515
-0.11334010165
-0.1133389154
-0.113339751651
-0.113342172126
-0.113333748943
-0.113252261682
-0.112784241743
-0.111651933363
-0.118662438919
-0.208969333681
-2.69087629092
-2.67863713335
-0.202116458505
-0.111653882758
-0.105899108702
-0.107752263013
-0.108424715109
-0.108541281349
-0.108553029097
-0.108552198582
-0.108551175058
-0.108550685443
-0.108550902598
-0.108550912041
-0.108539005285
-0.108423305709
-0.107752771195
-0.105899134499
-0.11165299145
-0.202114112447
-2.67868574064
-2.67666905605
-0.202333504991
-0.112785954814
-0.107752314507
-0.109907529476
-0.110654347615
-0.110777306546
-0.11075765732
-0.110738782164
-0.110745749738
-0.110753351817
-0.110761235093
-0.110763234033
-0.110762273514
-0.110652968064
-0.109906635154
-0.107752297065
-0.112785050447
-0.202331109477
-2.6767200901
-2.67646215342
-0.202485682297
-0.11325227778
-0.108424354683
-0.110654291643
-0.111394018383
-0.111394355771
-0.111226040379
-0.111167556503
-0.111206667925
-0.111246775977
-0.111288506557
-0.111329682877
-0.111396662964
-0.111371354656
-0.110652327273
-0.108422779678
-0.113251660976
-0.202483149486
-2.67651550332
-2.67647437065
-0.202502553568
-0.11333216875
-0.108541313801
-0.110772100604
-0.111408009747
-0.111122780868
-0.110736857315
-0.110633018871
-0.11069932246
-0.11076968281
-0.110845466481
-0.110940560483
-0.111143938975
-0.11133926087
-0.110768315851
-0.108537242425
-0.113332574735
-0.202499533211
-2.67652405754
-2.67650012227
-0.202496592613
-0.113341123518
-0.108552486566
-0.110760770896
-0.111267771958
-0.110769961598
-0.110285362409
-0.110151563488
-0.11022891004
-0.110308242712
-0.110399241356
-0.110528258797
-0.11081353527
-0.111155204721
-0.110736006535
-0.108547706958
-0.113338772605
-0.20249503071
-2.67655169806
-2.67652468163
-0.202490142612
-0.113341058117
-0.108550830506
-0.110745670731
-0.11119828114
-0.110657056278
-0.110155754848
-0.110004539401
-0.110079794487
-0.11015696115
-0.110258384803
-0.110401169906
-0.110713530793
-0.111086721837
-0.110711082067
-0.108546427017
-0.113334005674
-0.202493346658
-2.67656988667
-2.67654016903
-0.202487667305
-0.113339471416
-0.108549433627
-0.11074310246
-0.111195189296
-0.110677627239
-0.110200992718
-0.110051978101
-0.110133596001
-0.110220362185
-0.110304138161
-0.11046305616
-0.110772744506
-0.111124021857
-0.110718074291
-0.108545966483
-0.113332023457
-0.202491970717
-2.67657713844
-2.67654615485
-0.202487984781
-0.113338180585
-0.108548790329
-0.11074147667
-0.111192932552
-0.110699579668
-0.110251420011
-0.11011667969
-0.110213874955
-0.11029444513
-0.110369764505
-0.110522182455
-0.110826247318
-0.11115709507
-0.110725159529
-0.108546138921
-0.113332002072
-0.202491587256
-2.676575426
-2.6765394628
-0.202489044041
-0.113339705215
-0.108549328845
-0.110740955572
-0.111194501265
-0.11072804831
-0.110309010789
-0.11020029436
-0.110260696356
-0.110345484925
-0.110445042714
-0.110591028054
-0.110892804709
-0.111197321254
-0.110733599007
-0.108547491268
-0.113334942791
-0.202491383958
-2.67655966395
-2.67652182578
-0.202492230284
-0.113341011594
-0.108549764115
-0.110750253334
-0.111239917418
-0.110827789667
-0.110448568874
-0.110348090994
-0.110413047243
-0.110478908321
-0.110556921633
-0.110688055291
-0.110969179994
-0.111243393943
-0.110742603187
-0.108549395413
-0.113340850956
-0.202492361945
-2.67653627041
-2.67649605699
-0.202497087536
-0.113332584702
-0.108538784569
-0.110763787691
-0.111360173423
-0.111091869233
-0.110798103126
-0.110702224998
-0.110736050899
-0.110766919452
-0.110810214924
-0.110909091007
-0.111143057127
-0.111328980347
-0.110755374184
-0.10853904687
-0.113332994251
-0.202498081914
-2.67650461338
-2.67648924651
-0.202479969519
-0.113251151452
-0.108423540783
-0.110652934983
-0.11136581526
-0.111335805646
-0.111179944867
-0.111101598659
-0.111111990994
-0.111116677554
-0.111131149307
-0.11118018046
-0.111309836767
-0.111347189825
-0.110653836795
-0.108424127906
-0.113251683065
-0.20248166746
-2.67649488805
-2.67669471843
-0.20232720007
-0.112784274916
-0.107752291987
-0.109906450063
-0.110652227809
-0.110761497699
-0.11073815174
-0.110716547664
-0.110716179816
-0.11071596096
-0.110717598391
-0.110734287088
-0.110758815355
-0.110653632398
-0.109907282062
-0.10775263206
-0.112785063861
-0.202329730501
-2.67670166087
-2.67866241193
-0.202110083915
-0.111652020154
-0.105898817135
-0.107751943438
-0.108422814164
-0.108537138729
-0.108548118588
-0.108545494346
-0.108545238006
-0.108545491681
-0.108547166941
-0.108548977598
-0.108538741666
-0.108423999467
-0.107752547997
-0.105899231257
-0.111653050191
-0.2021133343
-2.67867326241
-2.69085422811
-0.208966301062
-0.118662517745
-0.111652773324
-0.112784815802
-0.113251547227
-0.113332490538
-0.113338731148
-0.113333274016
-0.113331161788
-0.113331474766
-0.11333470723
-0.113340255811
-0.11333310552
-0.113251895697
-0.112785434993
-0.111653385497
-0.118664064904
-0.208970291972
-2.6908685099
-2.73770904635
-0.286471815608
-0.20896958062
-0.202114372876
-0.202331416809
-0.202483818245
-0.202500100984
-0.202496316829
-0.20249491194
-0.202493754933
-0.202493369147
-0.202493415019
-0.202494353917
-0.202499481759
-0.202483262723
-0.202331369263
-0.202114894606
-0.208971538577
-0.286475496065
-2.73772530783
-2.82937444216
-2.73771763169
-2.69087202067
-2.67868397397
-2.6767180443
-2.67651484703
-2.67652477446
-2.67655388687
-2.67657508963
-2.67658428363
-2.67658195782
-2.67656733957
-2.67654643397
-2.67651752447
-2.67650618198
-2.67671124434
-2.67868191226
-2.69087590585
-2.73773007532
-2.82937688559
-2.82884562978
-2.73111537204
-2.67859371721
-2.6644172361
-2.66205334024
-2.66180558855
-2.66181959066
-2.66185990778
-2.6618925036
-2.66191335423
-2.66192286947
-2.66192172084
-2.66190604228
-2.66187474057
-2.66185574048
-2.66210393581
-2.66446381398
-2.67864135622
-2.73115520789
-2.8288666749
-2.73110687725
-0.280054020841
-0.202103061005
-0.1959231739
-0.196471349355
-0.196698853855
-0.196724330067
-0.19672114689
-0.196719906506
-0.196719483922
-0.196720213133
-0.196722185372
-0.196724979449
-0.19672287687
-0.196691988823
-0.196465083418
-0.195917596423
-0.202098560948
-0.280052527496
-2.73115188097
-2.67858181785
-0.202105061513
-0.111639740399
-0.105881179712
-0.1077318673
-0.108402752894
-0.108521972808
-0.108532910912
-0.108527447073
-0.108522548009
-0.108521253809
-0.108522184892
-0.108524228977
-0.108517998382
-0.108403373775
-0.107729634584
-0.105878230885
-0.111636332914
-0.202103052252
-2.67864314819
-2.66440429257
-0.195925851011
-0.105882116068
-0.101854756711
-0.104701951632
-0.105650986211
-0.105729693548
-0.105621928208
-0.105591382873
-0.105621221108
-0.105651727006
-0.105682777002
-0.105705622154
-0.105728331779
-0.105631771939
-0.104701489214
-0.101853700488
-0.105879563549
-0.195923101657
-2.66446733627
-2.66204064332
-0.196474074196
-0.107733030593
-0.104702070692
-0.107932140926
-0.108738277308
-0.108446859867
-0.108081928543
-0.108014327853
-0.108127641794
-0.10824168255
-0.108356202749
-0.108450189539
-0.108632539938
-0.108773694349
-0.107920042688
-0.104701564181
-0.107730356164
-0.196470199569
-2.66210910936
-2.66179479987
-0.196701283468
-0.108403002038
-0.105643616562
-0.108751726124
-0.109066043339
-0.10837926343
-0.107846063801
-0.107773320153
-0.107973830281
-0.108177094054
-0.108381392445
-0.108530688792
-0.108792971224
-0.109205360117
-0.108728096163
-0.105645663418
-0.108403168597
-0.196696010486
-2.66186501662
-2.66181395347
-0.196726171619
-0.108521970424
-0.105727133044
-0.108494265338
-0.108436220335
-0.1076024386
-0.106983376124
-0.106890814277
-0.107124988762
-0.107368661537
-0.107619772013
-0.107799369483
-0.108091373477
-0.108629548319
-0.108481867861
-0.105716222874
-0.108516296892
-0.19672592233
-2.66188967523
-2.66185805699
-0.196720528883
-0.108534408839
-0.1056542122
-0.108182913139
-0.10798849975
-0.107083580301
-0.106403989083
-0.106262634294
-0.106474729803
-0.106710866174
-0.106969656431
-0.107177494069
-0.107513822818
-0.108123747503
-0.108152462807
-0.105596629396
-0.108519074572
-0.196727931607
-2.66192976917
-2.6618932504
-0.196719346448
-0.108527177422
-0.105620442281
-0.108091880161
-0.107879020761
-0.106970586566
-0.106279850948
-0.106100366907
-0.106283185107
-0.106503218905
-0.106766930009
-0.107015515367
-0.107400055894
-0.108035447403
-0.108081052462
-0.105559828792
-0.108512697419
-0.19672561371
-2.66195691943
-2.66191491443
-0.196718743367
-0.108522015084
-0.105614795822
-0.108096817399
-0.107917694498
-0.10705633965
-0.106408264371
-0.10623713633
-0.106414759487
-0.106638426384
-0.106903108806
-0.107188168763
-0.107598965286
-0.108211193288
-0.108182063045
-0.105587584079
-0.108510019009
-0.196723533355
-2.66196587542
-2.66192248377
-0.196719383702
-0.108519943083
-0.105609905212
-0.108102388854
-0.107957643013
-0.107149505703
-0.106558118572
-0.106415246956
-0.106596009354
-0.106817635032
-0.107082510055
-0.107380588998
-0.107803485301
-0.108386767421
-0.108283186597
-0.105615951353
-0.108510246834
-0.196722577532
-2.66196083
-2.66191395904
-0.19672050204
-0.108521954452
-0.105606312455
-0.108108903127
-0.108000009864
-0.107251667737
-0.106730508524
-0.106634825907
-0.106816339941
-0.107038265085
-0.107300742919
-0.107594930319
-0.108018685328
-0.108565126301
-0.108385063947
-0.105645275848
-0.108515150738
-0.196722283786
-2.66193777915
-2.66189072732
-0.196722645311
-0.108525728072
-0.105632778413
-0.108192125711
-0.108126742277
-0.107422826547
-0.106961225163
-0.106903774714
-0.107075190365
-0.107266236387
-0.107480927471
-0.10773385277
-0.10814401583
-0.108678079193
-0.108458933069
-0.105671115106
-0.108522795604
-0.196723456414
-2.66189897425
-2.66185206979
-0.196720023219
-0.108520470283
-0.105709044386
-0.108471194687
-0.108524380166
-0.107856971085
-0.10742769922
-0.107369669849
-0.107493091789
-0.107622252427
-0.107759885771
-0.10795411719
-0.108350024583
-0.108885290228
-0.108600730573
-0.105707665627
-0.10852055923
-0.196720120392
-2.66185354893
-2.66182940205
-0.196693087624
-0.10840289526
-0.105635590154
-0.108707926876
-0.109079889841
-0.108527087686
-0.108135150793
-0.108061084589
-0.108128682191
-0.108195815545
-0.108265530689
-0.108408030306
-0.108776687416
-0.109220625572
-0.108723433408
-0.105627406021
-0.108402728227
-0.196694287386
-2.66182759812
-2.66207755293
-0.196466346575
-0.107730034605
-0.104701870156
-0.10790924575
-0.108699211828
-0.108459962025
-0.108190151019
-0.108119711336
-0.108138566701
-0.108157544366
-0.108177693088
-0.108265456476
-0.108508580705
-0.108699502829
-0.107899242713
-0.104701758668
-0.107730500327
-0.196468118661
-2.66207588122
-2.66443699762
-0.195918596632
-0.105879063247
-0.1018537916
-0.104701621298
-0.105633472594
-0.105700319895
-0.105615105546
-0.105579254289
-0.105578059299
-0.105577098664
-0.105577658097
-0.105611718988
-0.105699749602
-0.105634109321
-0.104701700273
-0.101853826147
-0.105879683949
-0.195921022165
-2.66444055754
-2.67861645152
-0.202099265795
-0.111636946555
-0.105879735767
-0.107730454627
-0.108403160193
-0.108515657655
-0.108519570101
-0.108511517136
-0.108508908178
-0.108509470888
-0.10851430858
-0.108521618052
-0.108518938228
-0.108402959772
-0.107730777652
-0.105879990004
-0.111637798734
-0.202102392799
-2.67862337368
-2.73113588637
-0.280052571986
-0.202103101109
-0.195923161797
-0.196470535293
-0.196696707524
-0.196726972606
-0.196729207279
-0.196727192945
-0.196725317427
-0.196724498892
-0.196724337782
-0.196725514435
-0.196722768735
-0.196695589418
-0.196469740649
-0.195922647448
-0.202103753275
-0.280054762383
-2.73114600918
-2.82886046215
-2.73114649379
-2.67863852336
-2.6644634231
-2.66210610676
-2.66186131523
-2.6618872771
-2.66192919258
-2.66195939631
-2.66196766713
-2.66196276671
-2.66194408516
-2.66191296978
-2.66186742408
-2.66184240178
-2.66209059687
-2.66445232869
-2.67863350616
-2.73115244856
-2.82886148389
-2.82875298412
-2.73014740302
-2.67655827285
-2.66196859697
-2.65952413297
-2.65927111313
-2.65930602152
-2.65935647234
-2.65939072167
-2.6594182376
-2.65943281606
-2.65943669058
-2.65942084145
-2.65938331
-2.65935264671
-2.65959409404
-2.66202994158
-2.67660238821
-2.73019055297
-2.82877933712
-2.7301380408
-0.27986615137
-0.202326623516
-0.196475872591
-0.197137509081
-0.197383692731
-0.197408110579
-0.197408900903
-0.197406876506
-0.197406632854
-0.197408298131
-0.197411587172
-0.19741570082
-0.197414851086
-0.197375565648
-0.197129030523
-0.196468911672
-0.202319969674
-0.279864498223
-2.7301857315
-2.67654514402
-0.202328902262
-0.112773561135
-0.107732878679
-0.109884408755
-0.110608537709
-0.110631075296
-0.110489970819
-0.110446253657
-0.110473680798
-0.110503986797
-0.11053741199
-0.110568445951
-0.110618454615
-0.110592213551
-0.109882171556
-0.107728608842
-0.11276880492
-0.202324538471
-2.67660111078
-2.66195375357
-0.196478903633
-0.107733967993
-0.10469768175
-0.107867888755
-0.10856809931
-0.108277772904
-0.107929447129
-0.107881880223
-0.108029486593
-0.108179334522
-0.108329922211
-0.108425803731
-0.108545188891
-0.108659279005
-0.107851969107
-0.104696035583
-0.107730117311
-0.196474560842
-2.66203035843
-2.6595087372
-0.197140485392
-0.109885772323
-0.107853416021
-0.111103435868
-0.111403672715
-0.110782998469
-0.110279424766
-0.110246469801
-0.110526113089
-0.110809306476
-0.111095524706
-0.111254299046
-0.111418182559
-0.111701658399
-0.111164837078
-0.107876916147
-0.109882030324
-0.197133830738
-2.65959365941
-2.6592593725
-0.197386491051
-0.11059576324
-0.108588592103
-0.111454538974
-0.111504760454
-0.1107426057
-0.110130526617
-0.110075678847
-0.110419231941
-0.110777874511
-0.111150901315
-0.111358425433
-0.111540763299
-0.111892642593
-0.111559461175
-0.108594247808
-0.110613694095
-0.197378041302
-2.6593624416
-2.65930323065
-0.197409310117
-0.110618032268
-0.108354042746
-0.110941879158
-0.110867684754
-0.109995714076
-0.109266842695
-0.109112724693
-0.109431195767
-0.109803841241
-0.110229711315
-0.110518594773
-0.110764116963
-0.111193312247
-0.110978413949
-0.108319211831
-0.110632119859
-0.197418059773
-2.65940892447
-2.65936425728
-0.197410469792
-0.110513017614
-0.108096938524
-0.110565893095
-0.11041417359
-0.109440769318
-0.108543421821
-0.108185139297
-0.108387609323
-0.108726079447
-0.109199583374
-0.10963899392
-0.110035279596
-0.110572163838
-0.110465419851
-0.107965490659
-0.110499373107
-0.197418897945
-2.6594655754
-2.65940845656
-0.197408678371
-0.110468283741
-0.108006193991
-0.110452706937
-0.110284968102
-0.10925520102
-0.108216693105
-0.107687517755
-0.107779615451
-0.108091902643
-0.108623199894
-0.109239272217
-0.109835589484
-0.110474974929
-0.11040264879
-0.107902375855
-0.110459310083
-0.197415407307
-2.65950037996
-2.65943684626
-0.197407820591
-0.110457367047
-0.107985456076
-0.110445833947
-0.110317720909
-0.109324433489
-0.108287771283
-0.107713131343
-0.107770955709
-0.108087822526
-0.108655203619
-0.109381904539
-0.110102134128
-0.110776617693
-0.110653385967
-0.10803725852
-0.110486653848
-0.197412426768
-2.65951013427
-2.659451428
-0.197408775029
-0.110450659099
-0.107966804336
-0.11044197023
-0.110364101701
-0.109446632039
-0.108494625136
-0.107966802488
-0.108020465925
-0.108336064103
-0.108907823737
-0.109662839477
-0.110421890771
-0.111091552486
-0.110905491386
-0.108173546953
-0.110517654644
-0.197410963187
-2.65950453183
-2.65944013176
-0.197410414697
-0.110448385549
-0.107949587685
-0.110441062745
-0.110425077935
-0.109623160073
-0.108837511507
-0.108439196665
-0.10853622348
-0.108845848068
-0.109376229905
-0.11007652372
-0.110792441353
-0.11142044245
-0.111160983988
-0.108311054266
-0.110547914124
-0.197410340238
-2.6594698992
-2.65940803271
-0.197412946378
-0.110489627145
-0.108019550252
-0.110535932475
-0.110573393335
-0.10989138853
-0.109319569186
-0.109092553674
-0.109224204881
-0.109493554718
-0.109893487385
-0.110416498774
-0.110998324197
-0.111566184357
-0.111280089198
-0.108393587782
-0.110582722734
-0.197411008943
-2.65941362696
-2.6593572335
-0.197411442308
-0.110604592483
-0.108286239914
-0.11089125753
-0.110970068132
-0.110354539177
-0.10991947259
-0.109816008315
-0.109940461462
-0.110117320848
-0.110345160049
-0.110661491367
-0.111124739236
-0.111665467693