/*--------------------------------*- C++ -*----------------------------------*\
| =========                 |                                                 |
| \\      /  F ield         | OpenFOAM: The Open Source CFD Toolbox           |
|  \\    /   O peration     | Version:  3.0.1                                 |
|   \\  /    A nd           | Web:      www.OpenFOAM.org                      |
|    \\/     M anipulation  |                                                 |
\*---------------------------------------------------------------------------*/
FoamFile
{
    version     2.0;
    format      ascii;
    class       volScalarField;
    location    "0.2";
    object      k_0;
}
// * * * * * * * * * * * * * * * * * * * * * * * * * * * * * * * * * * * * * //

dimensions      [0 2 -2 0 0 0 0];

internalField   nonuniform List<scalar> 
7968
(
0.0447377194251
0.0448631204016
0.0448998087787
0.0449049923813
0.0449054504883
0.0449053928928
0.0449052609047
0.0449051037705
0.0449049543351
0.0449048524814
0.0449048356796
0.0449049065902
0.0449050381729
0.0449051888771
0.0449053268802
0.0449053979326
0.0449049512788
0.0448997572857
0.0448630590429
0.0447377597312
0.0448631547682
0.0465970827472
0.0471331422625
0.0472192120766
0.0472289863645
0.0472299172786
0.0472300587026
0.0472300753031
0.04723009806
0.047230109947
0.0472301199017
0.0472301187549
0.047230114822
0.0472301056927
0.0472300090897
0.0472291096415
0.0472193468063
0.0471332477044
0.0465971151463
0.0448631199226
0.0448998522912
0.0471331445118
0.0479612992109
0.0481151227595
0.0481351336958
0.0481373123129
0.0481376283852
0.0481377695131
0.0481378590464
0.0481379029631
0.0481379185589
0.0481379012273
0.04813783621
0.048137748851
0.0481374881016
0.0481353643961
0.048115393751
0.0479615164983
0.0471332791998
0.0448997826054
0.0449050480398
0.0472192256093
0.0481151396489
0.0482880933711
0.0483113895357
0.0483139925157
0.0483143760791
0.0483145606357
0.0483146938089
0.0483147682358
0.0483147716495
0.0483147175048
0.0483145865961
0.0483144523224
0.0483141257955
0.0483115856101
0.0482883368882
0.0481153569807
0.0472193432434
0.0449049623004
0.0449055087406
0.0472290084032
0.0481351660843
0.0483114029665
0.0483353076997
0.0483380102925
0.0483384504935
0.0483386795353
0.048338841352
0.0483388926943
0.0483388638733
0.0483387916042
0.048338644498
0.0483384671611
0.0483380899574
0.0483354449074
0.0483115903013
0.0481353326833
0.0472291024696
0.0449054206531
0.0449054479157
0.0472299425847
0.0481373507315
0.048314005044
0.0483380071334
0.0483407571251
0.0483412426776
0.0483415166029
0.0483417221546
0.0483418279098
0.0483418012214
0.0483416718276
0.0483414190712
0.0483411853673
0.0483407631359
0.0483380865912
0.0483141313025
0.0481374610136
0.0472300135179
0.0449053658992
0.0449053078994
0.0472300735616
0.0481376690532
0.048314377776
0.0483384240326
0.0483411973581
0.0483417446107
0.0483421859851
0.0483425484678
0.0483427262042
0.0483427147863
0.0483425328593
0.0483421525536
0.0483417273239
0.0483411737251
0.0483384549662
0.0483144570873
0.0481377293719
0.0472301211972
0.0449052439095
0.0449051402426
0.0472301120203
0.0481378096368
0.0483145493932
0.0483386228417
0.0483414324588
0.0483421670035
0.048342754405
0.0483432350862
0.0483434638224
0.0483434505601
0.0483432428047
0.0483427487609
0.0483421555123
0.0483414405345
0.04833861202
0.0483145839545
0.0481378221117
0.0472301356707
0.0449051064684
0.0449049783523
0.047230120765
0.0481378975456
0.0483146705271
0.0483387484902
0.0483416380487
0.0483425121169
0.0483432053369
0.0483437707104
0.0483440183897
0.0483440273474
0.0483438540815
0.048343252546
0.0483425695574
0.0483417286063
0.0483387668394
0.0483147108749
0.0481378967092
0.0472301611579
0.0449049897395
0.0449048696971
0.0472301339074
0.0481379448039
0.0483147303061
0.048338813509
0.0483417594494
0.048342685994
0.0483434188792
0.0483440165225
0.0483442628564
0.0483442655539
0.0483441563909
0.0483435282307
0.048342826722
0.0483419376307
0.048338905474
0.0483148090901
0.048137954798
0.047230191771
0.0449049368426
0.0449048549032
0.047230148069
0.048137953408
0.0483147310489
0.0483388041588
0.0483417572171
0.0483426859164
0.0483434234899
0.0483440079868
0.0483442646156
0.0483442873419
0.0483442010851
0.0483435753391
0.0483428948586
0.0483420033346
0.0483389601161
0.0483148557879
0.0481379734966
0.0472302044232
0.0449049728137
0.0449049419553
0.0472301435234
0.0481379246896
0.0483146773072
0.0483387294337
0.0483416399433
0.0483425232153
0.0483432290438
0.0483438296853
0.0483441353075
0.0483441647255
0.0483440509642
0.0483434875329
0.0483428743455
0.0483419769112
0.048338989458
0.048314838303
0.048137978521
0.0472302204254
0.0449050980642
0.0449050887069
0.0472301302902
0.0481378650687
0.0483145751032
0.0483386021895
0.0483413881328
0.0483421356453
0.0483427510502
0.0483432528203
0.0483435391465
0.048343571621
0.0483434653291
0.0483430366891
0.048342532684
0.0483417808482
0.0483389019373
0.0483147661924
0.0481379167876
0.0472302106715
0.044905266566
0.0449052544188
0.0472301225614
0.0481377695154
0.0483144521557
0.0483384500463
0.0483411705901
0.0483417354398
0.048342169862
0.0483425581256
0.0483427949148
0.0483428503346
0.0483428247746
0.0483425448531
0.0483421364264
0.0483415806681
0.0483387455602
0.0483146236849
0.0481378024713
0.047230185461
0.044905439904
0.0449054018447
0.0472300183124
0.0481374976722
0.0483141232138
0.0483380858552
0.0483407843445
0.0483411806605
0.0483414442507
0.0483417024072
0.0483419048538
0.0483419717887
0.048341961558
0.0483417971119
0.04834157675
0.0483411042937
0.0483383209265
0.0483142491827
0.0481374835274
0.0472300528128
0.0449055840833
0.0449054761443
0.0472291046601
0.0481353586105
0.0483115684174
0.0483354277368
0.0483380813133
0.04833845421
0.0483386327902
0.0483387565865
0.0483388904156
0.048338970177
0.0483390105691
0.048338906197
0.0483387416765
0.0483383172476
0.0483355843102
0.0483116227104
0.0481352791056
0.0472290973954
0.0449056453414
0.0449050265266
0.0472193399334
0.04811536847
0.0482883004544
0.0483115543054
0.0483141010909
0.0483144312302
0.048314573559
0.0483146942772
0.0483147943291
0.0483148461215
0.048314855022
0.0483147673853
0.0483146190277
0.0483142428929
0.0483116190688
0.048288268534
0.0481152319196
0.0472192955997
0.0449051772844
0.0448998212323
0.0471332360739
0.0479614761488
0.0481153048358
0.0481352791014
0.048137411806
0.048137686474
0.0481377888505
0.0481378677382
0.0481379292658
0.0481379646264
0.048137964199
0.0481379064406
0.0481377942598
0.0481374760625
0.0481352737183
0.0481152247312
0.04796132054
0.0471331639049
0.0448999428452
0.044863110742
0.0465971223358
0.0471332558172
0.0472193151529
0.0472290608965
0.0472299791367
0.0472300805985
0.0472301068975
0.0472301421541
0.0472301699242
0.0472301926227
0.0472302112454
0.0472302002694
0.047230172047
0.0472300502894
0.047229095614
0.0472192944509
0.0471331659001
0.0465971048402
0.0448631998446
0.0447377697282
0.0448631023156
0.0448997587353
0.0449049295847
0.0449053848915
0.0449053313392
0.0449052120155
0.044905080009
0.0449049670715
0.0449049135849
0.0449049454438
0.0449050619059
0.0449052208782
0.044905386867
0.0449055284178
0.0449055904002
0.0449051274107
0.0448999046877
0.044863168404
0.0447378264176
0.0448660005208
0.0466019907186
0.0471381253604
0.0472241859444
0.0472339100425
0.0472347641668
0.0472347984055
0.0472347497604
0.0472346722982
0.047234610604
0.0472345767712
0.0472345677264
0.0472345831982
0.0472346165784
0.0472345877764
0.0472337342964
0.0472240212191
0.0471379374319
0.046601901801
0.0448660410795
0.0466020243642
0.0652971626409
0.068786507808
0.0693976624856
0.0694820265597
0.0694914447067
0.0694925587781
0.0694928614145
0.0694930250433
0.069493120638
0.0694931359782
0.0694930767056
0.0694929372826
0.0694926861961
0.0694916496166
0.069482256293
0.0693979174609
0.0687867728117
0.0652975623735
0.0466019610967
0.0471381779505
0.068786542666
0.0731625361302
0.0740288276661
0.0741671191148
0.0741848062576
0.0741868450649
0.0741872124429
0.0741873727661
0.0741874520802
0.0741874681275
0.0741874232901
0.074187295203
0.0741869665312
0.0741849634952
0.0741673144688
0.0740290473335
0.0731627432464
0.0687868029777
0.0471379587602
0.0472242608233
0.0693977289686
0.074028850127
0.0749804141036
0.0751385501455
0.0751595950951
0.075162123345
0.0751625822971
0.0751627744166
0.0751628606842
0.0751628675107
0.0751628044685
0.0751626344256
0.0751622142291
0.0751597301841
0.0751387279328
0.0749806036174
0.0740290234661
0.0693979009522
0.0472240057643
0.0472340038231
0.0694821137114
0.0741671505059
0.0751385639453
0.0753015457995
0.075323519264
0.0753263243992
0.0753269426514
0.0753272137628
0.0753273284132
0.0753273265174
0.0753272187423
0.0753269511215
0.0753263686794
0.0753236133272
0.0753016799879
0.0751387221658
0.0741672877669
0.0694822329063
0.0472337267097
0.0472348710739
0.0694915504233
0.0741848338001
0.0751596024354
0.0753235144324
0.0753458620728
0.0753489936707
0.0753498867544
0.0753503123528
0.0753504840645
0.0753504683909
0.0753503120194
0.0753498769651
0.0753489985247
0.0753459097233
0.075323603496
0.0751597191935
0.0741849419143
0.0694916389526
0.047234592241
0.0472349165922
0.0694926740231
0.0741868781756
0.0751621197043
0.0753262991931
0.0753489657761
0.0753524718589
0.0753536607724
0.0753541972729
0.075354415075
0.0753543917497
0.0753542191961
0.0753536545286
0.0753524973501
0.0753490017606
0.0753263484272
0.0751621981401
0.0741869471877
0.0694927030389
0.0472346348313
0.047234869701
0.0694929736269
0.0741872362624
0.0751625684064
0.0753269066872
0.0753498285743
0.0753536087315
0.0753550085187
0.0753556533877
0.0753559608652
0.075355947548
0.0753557166468
0.0753550031772
0.0753536247989
0.0753498552195
0.0753269176552
0.0751626123777
0.0741872792329
0.0694929576747
0.0472346050924
0.0472348035291
0.0694931351871
0.0741873912803
0.0751627515752
0.0753271614804
0.0753502039371
0.0753540860765
0.075355594245
0.0753563012279
0.0753565807645
0.0753567205048
0.0753564942689
0.0753556515857
0.0753542062361
0.0753502811187
0.0753271888428
0.075162780543
0.0741874137882
0.0694930929617
0.0472345850862
0.0472347581727
0.0694932237763
0.0741874699126
0.0751628333029
0.075327264898
0.0753503546307
0.0753542810749
0.0753558460686
0.075356493478
0.0753569362696
0.0753569382443
0.0753568847976
0.0753560297321
0.0753545184359
0.075350497125
0.0753273311252
0.0751628721099
0.0741874837659
0.0694931740895
0.0472345966447
0.0472347346622
0.0694932365057
0.0741874796616
0.0751628381052
0.0753272635451
0.0753503525068
0.0753542908798
0.0753558715628
0.0753565730142
0.0753569738199
0.0753569924902
0.075356932462
0.0753560286786
0.0753545587279
0.0753505340779
0.0753273613143
0.0751628925018
0.0741874927269
0.0694931788242
0.047234613506
0.04723473775
0.0694931710043
0.0741874262831
0.0751627732205
0.0753271647101
0.075350212323
0.0753541213647
0.0753556600762
0.0753563841191
0.075356791326
0.0753568950117
0.0753567825757
0.0753559293955
0.0753544367746
0.0753504528291
0.0753272960775
0.0751628413004
0.0741874410638
0.0694931176991
0.0472346746027
0.047234758728
0.0694930309634
0.0741872988767
0.0751626108558
0.0753269169003
0.0753498241389
0.0753535663426
0.0753549846038
0.0753555598475
0.0753560057035
0.0753561264075
0.0753559357813
0.0753552681311
0.0753538879048
0.0753500625308
0.0753270601567
0.075162680216
0.0741872979961
0.0694929723788
0.0472347399965
0.0472347975638
0.06949278392
0.0741869752395
0.0751621989398
0.0753263511906
0.0753489932933
0.0753524460302
0.075353611862
0.0753540707936
0.0753544168143
0.0753545057638
0.0753543709812
0.075353873744
0.0753527709303
0.075349197353
0.0753264794166
0.0751622462716
0.0741869392644
0.06949267777
0.0472347911405
0.0472347641759
0.0694917346683
0.0741849691532
0.0751597127509
0.0753235968753
0.0753459068959
0.0753489977973
0.0753498749083
0.0753502298871
0.0753504570798
0.0753505165284
0.0753504478473
0.0753500752851
0.075349209094
0.0753460581844
0.0753236808553
0.075159716145
0.0741848887938
0.0694915633617
0.0472347473361
0.0472338990553
0.0694823206847
0.0741673146458
0.0751387079345
0.0753016606179
0.0753235959907
0.0753263490144
0.0753269348088
0.0753271903843
0.0753273391274
0.075327378742
0.0753273175693
0.0753270798945
0.0753264907687
0.0753236841113
0.0753016872709
0.0751386561386
0.0741671781559
0.0694820927993
0.0472338584459
0.0472241703818
0.0693979699385
0.0740290394152
0.0749805763554
0.0751386957036
0.0751597016664
0.0751621903927
0.0751626171125
0.0751627864556
0.0751628850409
0.0751629105195
0.0751628685911
0.0751627006567
0.0751622586975
0.0751597220566
0.0751386567903
0.0749804620664
0.0740288355825
0.0693976851104
0.0472240859654
0.047138066231
0.0687867931451
0.0731627237157
0.0740289857206
0.0741672494641
0.0741849083769
0.0741869209517
0.0741872672044
0.0741874109566
0.0741874887974
0.0741875032635
0.074187455895
0.0741873058559
0.0741869407979
0.0741848863963
0.0741671700737
0.0740288258247
0.0731624542999
0.068786430787
0.047137915938
0.0466020023428
0.0652975545234
0.0687867651731
0.0693978454729
0.0694821555487
0.0694915634618
0.0694926262314
0.0694929005617
0.0694930443657
0.0694931160582
0.0694931259007
0.0694930749034
0.0694929226105
0.0694926270996
0.0694915189255
0.0694820505689
0.0693976502548
0.0687864085625
0.0652971533065
0.0466017742718
0.0448660739233
0.0466019958929
0.0471379749614
0.0472239995341
0.047233698511
0.0472345449431
0.0472345667746
0.0472345165732
0.047234474598
0.0472344515927
0.0472344640846
0.0472345338509
0.0472346013863
0.0472346689419
0.0472346439803
0.0472337755831
0.0472240219386
0.0471378730526
0.0466017471332
0.044866131036
0.0449054123864
0.0471404630263
0.0479683024895
0.0481220660364
0.0481419596689
0.0481439710973
0.0481440803986
0.0481440454041
0.0481439626796
0.0481438848203
0.0481438237609
0.0481437896592
0.0481437779327
0.0481438056918
0.0481436567835
0.0481416684308
0.0481218145387
0.0479680345548
0.0471402357564
0.0449053035515
0.0471405014994
0.0687889887842
0.0731645065874
0.0740307229727
0.0741689734757
0.0741865951334
0.0741885769049
0.0741888828412
0.0741889935509
0.0741890419074
0.0741890352404
0.0741889775781
0.0741888542188
0.0741885567711
0.0741865943589
0.0741689963324
0.0740307676719
0.0731645410979
0.0687889866655
0.0471401619754
0.0479683698664
0.0731645384106
0.0786593005949
0.0798898352249
0.0801204553931
0.0801551213061
0.0801595768672
0.0801602263629
0.080160398784
0.0801604551675
0.0801604564904
0.0801604055409
0.0801602451487
0.0801596088208
0.0801551661499
0.0801205168181
0.0798899068883
0.0786593452533
0.0731644929245
0.0479678823972
0.0481221596302
0.0740307737844
0.0798898513718
0.0812568007756
0.0815255886632
0.0815681246956
0.0815740077789
0.0815749930849
0.0815752720828
0.081575360737
0.0815753639185
0.081575283411
0.0815750095402
0.0815740373473
0.0815681755367
0.0815256579991
0.0812568722312
0.0798898836884
0.0740306908683
0.0481216390463
0.0481420715904
0.0741690343
0.0801204770575
0.0815255941546
0.0818055379716
0.0818507360959
0.0818573979577
0.0818587049097
0.0818591274441
0.081859268779
0.0818592623185
0.0818591157639
0.0818586973119
0.0818574213022
0.081850780578
0.0818055946385
0.081525652244
0.0801204893753
0.0741689154703
0.0481415059795
0.0481440913931
0.0741866595496
0.0801551417473
0.0815681276214
0.0818507340573
0.0818968811201
0.0819038987751
0.0819053433627
0.0819058427974
0.0819060039267
0.0819059484766
0.0819056841838
0.0819051300387
0.0819037758794
0.0818968789503
0.081850774972
0.0815681674296
0.0801551361022
0.0741865120219
0.0481434966771
0.0481441965387
0.0741886355426
0.0801595915973
0.0815740045048
0.0818573865943
0.0819038832406
0.0819109259189
0.0819123136041
0.0819127648083
0.0819128815902
0.081912736656
0.0819123655019
0.0819117315578
0.0819104582892
0.081903752212
0.0818573984814
0.0815740237029
0.0801595760957
0.0741884744783
0.0481436374668
0.0481441562853
0.0741889378497
0.0801602348778
0.0815749843336
0.0818586833124
0.0819053198886
0.0819122988456
0.0819136185881
0.0819139913043
0.0819141059441
0.0819139066977
0.0819134637943
0.0819128055292
0.0819115587958
0.0819050215499
0.0818586516559
0.0815749858063
0.0801602076533
0.0741887679848
0.0481435917252
0.0481440683251
0.0741890452913
0.0801604041078
0.0815752561168
0.081859094101
0.081905805244
0.0819127326322
0.0819140049466
0.0819141970781
0.0819141222871
0.08191391757
0.081913703812
0.0819131499879
0.0819119735171
0.0819054590531
0.0818590537072
0.0815752555448
0.0801603664109
0.0741888899104
0.0481435768974
0.0481439970275
0.0741890929663
0.0801604616678
0.0815753401977
0.0818592287231
0.0819059657209
0.0819128782027
0.0819141174447
0.0819140728181
0.0819141305753
0.0819140279161
0.0819137836444
0.0819133116692
0.0819122032933
0.0819056681736
0.0818592080933
0.0815753492034
0.0801604278053
0.0741889613208
0.0481435996391
0.048143948141
0.0741890895221
0.0801604607714
0.0815753390793
0.0818592227709
0.0819059220117
0.0819127782868
0.081913976448
0.0819139284391
0.0819140418619
0.0819138769133
0.0819136452283
0.0819131640089
0.0819121175492
0.0819056476349
0.0818592213999
0.081575359881
0.0801604365115
0.0741889778307
0.0481436285847
0.0481439531629
0.0741890355252
0.0801604101523
0.0815752591179
0.0818590801168
0.0819056766037
0.0819124392195
0.0819135818501
0.0819137662946
0.0819137862627
0.0819136381732
0.0819133401704
0.0819127935656
0.0819117997703
0.0819054320687
0.0818590958605
0.0815752895865
0.080160394076
0.0741889525235
0.0481437177063
0.0481439817581
0.0741889255484
0.080160251748
0.0815749908755
0.0818586682592
0.0819051451792
0.0819118227892
0.0819129562828
0.0819132058199
0.0819133922672
0.0819132471378
0.0819128776844
0.0819122838149
0.0819112727258
0.0819049663707
0.0818587072857
0.0815750253596
0.0801602408504
0.0741888501505
0.0481438009601
0.0481440300072
0.0741886383617
0.0801596200546
0.0815740275961
0.0818573986122
0.0819037901449
0.0819105171358
0.08191170355
0.0819120004592
0.0819122248874
0.0819121418088
0.081911822722
0.0819112709297
0.081910263983
0.0819037440943
0.0818574578031
0.0815740512256
0.080159597916
0.074188557281
0.0481438880322
0.0481438884348
0.074186678514
0.0801551819806
0.0815681689171
0.0818507659713
0.0818968748889
0.0819037707017
0.0819050815352
0.0819054712758
0.0819056874145
0.0819056684178
0.0819054581281
0.0819049780355
0.0819037476167
0.0818969223455
0.0818508085587
0.081568170068
0.0801551389619
0.0741865747564
0.0481437520496
0.0481419008849
0.0741690764089
0.0801205336165
0.0815256514202
0.0818055835922
0.0818507645656
0.0818573921804
0.0818586611622
0.0818590519891
0.0818592079513
0.0818592223661
0.0818590999749
0.0818587092707
0.0818574559118
0.0818508080347
0.081805593697
0.0815256252426
0.0801204620936
0.0741689348937
0.048141730668
0.0481220190925
0.0740308381127
0.079889920689
0.0812568644965
0.0815256403977
0.0815681583802
0.081574015929
0.0815749853885
0.0815752540208
0.0815753512955
0.0815753631753
0.0815752952382
0.0815750279689
0.081574051877
0.081568170357
0.0815256239633
0.0812568131665
0.0798898181587
0.0740306508438
0.0481217705364
0.0479682174886
0.0731645976657
0.0786593521414
0.0798898708205
0.0801204722106
0.0801551206115
0.0801595637202
0.0801601998832
0.0801603594194
0.0801604195024
0.0801604304111
0.0801603932092
0.0801602356276
0.0801595907082
0.0801551283933
0.0801204497798
0.0798898075004
0.0786592239863
0.0731643695961
0.047967892851
0.0471403728989
0.068789020853
0.0731644852091
0.0740306645336
0.0741688816762
0.0741864746677
0.0741884325385
0.0741887268399
0.0741888447938
0.0741889123155
0.0741889298535
0.0741889036939
0.0741887993757
0.0741885039638
0.0741865235396
0.0741688870213
0.0740306093577
0.0731643411368
0.0687887573718
0.0471399784213
0.0449053559972
0.0471402218565
0.0479679222337
0.0481216475738
0.0481414950428
0.0481434525415
0.0481435605955
0.0481434832411
0.048143434335
0.0481434369011
0.0481434694348
0.0481435492119
0.0481436268058
0.0481437089744
0.0481436048614
0.0481416128079
0.0481216797198
0.0479678295578
0.0471399409192
0.0449052870726
0.0449134367969
0.047228254967
0.0481235859201
0.048296396352
0.0483195326167
0.0483218903635
0.0483220490003
0.0483219604961
0.0483218691883
0.0483217840945
0.0483217029034
0.048321622979
0.0483215734521
0.0483215858686
0.0483214679596
0.0483191119786
0.0482959943789
0.0481231628579
0.0472278862373
0.0449132289348
0.0472282967958
0.0694011596097
0.0740316216404
0.0749830411221
0.0751411076032
0.0751620662792
0.0751645314564
0.0751649369869
0.0751650871211
0.0751651392435
0.075165121723
0.0751650329192
0.0751648449922
0.0751644246144
0.0751619632764
0.0751410214869
0.0749829702691
0.0740315262385
0.0694009823701
0.0472277983881
0.0481236600949
0.0740316527334
0.0798905275951
0.0812574251667
0.081526198329
0.0815687302486
0.0815746233157
0.0815756121266
0.0815758848848
0.0815759645435
0.0815759571827
0.0815758711576
0.0815755945925
0.0815746067701
0.0815687203514
0.0815261887093
0.0812574151314
0.0798904768981
0.0740314598606
0.0481229746327
0.0482964968253
0.0749830875084
0.0812574389681
0.0827860805048
0.0831027390816
0.0831558834798
0.0831638720821
0.0831653766667
0.0831658228262
0.0831659506273
0.083165938495
0.0831657877249
0.0831653325796
0.0831638546701
0.0831558914599
0.0831027579253
0.0827860888413
0.0812573916473
0.0749828774707
0.0482957758195
0.0483196481198
0.0751411592514
0.081526215837
0.0831027428405
0.0834343502834
0.0834913278377
0.0835004604199
0.0835024345993
0.0835030681594
0.0835032422566
0.0835031995218
0.0835029424171
0.0835022531719
0.0835003106737
0.0834912720512
0.0834343571411
0.0831027518133
0.081526159709
0.0751409223305
0.0483188962498
0.0483220058604
0.0751621152012
0.0815687445572
0.0831558879448
0.0834913260286
0.0835497205782
0.0835594995498
0.0835617534199
0.0835624541877
0.0835626211974
0.0835625303755
0.0835621803119
0.0835613354911
0.083559084564
0.0835494792081
0.0834912734182
0.0831558811026
0.0815686849474
0.0751618526246
0.0483212389311
0.0483221351391
0.0751645586681
0.081574628576
0.0831638716004
0.0835004478827
0.0835594955177
0.0835695471607
0.083571751805
0.0835721902135
0.0835722117158
0.0835720714024
0.0835717647294
0.0835710844242
0.083568836406
0.0835590120461
0.083500300641
0.0831638488853
0.0815745591454
0.0751643012495
0.0483213278486
0.0483220353112
0.0751649533809
0.0815756159841
0.0831653665264
0.0835024207378
0.0835617583852
0.0835717630217
0.0835734563803
0.083572981151
0.0835726086331
0.0835724398045
0.0835724743966
0.0835726377058
0.0835708592019
0.0835611038597
0.0835021887959
0.0831653319426
0.0815755158752
0.07516471142
0.0483212629611
0.0483219397579
0.0751650982491
0.081575881111
0.0831658065079
0.0835030574014
0.0835624672616
0.0835722129633
0.0835730074253
0.0835710871731
0.083570121341
0.0835699531253
0.0835705947513
0.0835721760928
0.0835712837576
0.0835617766467
0.0835028022915
0.0831657716865
0.0815757731605
0.0751648863125
0.0483212403987
0.0483218564645
0.0751651520372
0.0815759497427
0.0831659326836
0.0835032385572
0.0835626497093
0.083572262928
0.0835726614624
0.0835701395597
0.0835689112416
0.0835687574072
0.0835696648745
0.083571856583
0.0835713549952
0.0835619798465
0.0835029915422
0.0831659086814
0.0815758619851
0.0751649834456
0.0483212875173
0.0483218004744
0.0751651370871
0.0815759376123
0.0831659214161
0.0835032080141
0.0835625776109
0.0835721484701
0.083572525696
0.0835700031957
0.0835687920178
0.0835686337097
0.0835695361121
0.0835717167452
0.0835712457681
0.0835619169108
0.083502966982
0.083165908703
0.081575876704
0.0751650160199
0.0483213576806
0.0483217757584
0.0751650682322
0.0815758587503
0.083165778411
0.0835029683309
0.0835622509945
0.0835718727831
0.083572594828
0.0835706845689
0.0835697155296
0.0835695641401
0.0835702003625
0.0835717868727
0.0835709792081
0.0835615974473
0.0835027280913
0.0831657737911
0.0815758262468
0.0751649906353
0.0483214752095
0.0483217782418
0.0751649026573
0.0815755933903
0.0831653315013
0.0835022896951
0.0835614231119
0.0835712147391
0.0835727886647
0.0835722913919
0.0835719467316
0.0835717744978
0.0835718129582
0.0835720091921
0.0835703789203
0.0835608196057
0.0835020750023
0.0831653333699
0.0815755881364
0.0751648548991
0.0483216169914
0.0483218418763
0.0751645033637
0.0815746207633
0.0831638503203
0.0835003370332
0.0835591624813
0.0835689582539
0.08357101296
0.0835713914612
0.0835714437827
0.0835713064701
0.0835710091944
0.083570388018
0.0835683117734
0.0835587169314
0.0835001978272
0.0831638589545
0.0815746203338
0.0751644724734
0.048321731876
0.0483217415645
0.0751620601001
0.0815687389837
0.0831558865974
0.0834912734733
0.0835495145538
0.083559082951
0.0835612047972
0.0835618586629
0.0835620441481
0.0835619615392
0.0835616309299
0.0835608365112
0.0835587253036
0.0835493005272
0.0834912282055
0.0831558940445
0.0815687304697
0.0751620233427
0.048321651902
0.0483193681263
0.0751411193229
0.0815262153753
0.0831027536886
0.0834343456698
0.0834912684611
0.0835003057807
0.083502211259
0.0835028208116
0.0835030090063
0.083502982308
0.0835027460142
0.0835020894875
0.0835002070329
0.0834912284322
0.0834343462501
0.0831027505167
0.081526192108
0.0751410564889
0.0483192555419
0.0482962458306
0.0749830594082
0.081257441424
0.0827860885372
0.0831027416413
0.0831558678407
0.0831638337982
0.0831653222525
0.0831657575553
0.083165899058
0.0831658998078
0.0831657706291
0.0831653309844
0.0831638516832
0.0831558861288
0.0831027462164
0.0827860776931
0.0812574005448
0.0749829528629
0.0482960588129
0.0481233793102
0.0740316044647
0.0798904965397
0.0812573888714
0.0815261497743
0.0815686725279
0.0815745433736
0.0815754999936
0.0815757500853
0.0815758376392
0.081575850528
0.0815757995035
0.081575556712
0.0815745945306
0.0815687086721
0.081526172186
0.0812573854891
0.0798904489016
0.0740314681451
0.0481231173189
0.047228051215
0.0694010373489
0.0740314659565
0.0749828611421
0.0751409002773
0.0751618240827
0.0751642631883
0.0751646692006
0.0751648363253
0.0751649279625
0.0751649571103
0.0751649297964
0.0751647898384
0.0751643948277
0.075161949158
0.0751409909354
0.0749828957487
0.0740314292877
0.0694008716146
0.0472277018693
0.0449132985702
0.0472278705788
0.0481230228038
0.0482957974357
0.0483188730929
0.0483211906561
0.0483212373533
0.0483211290027
0.0483210793179
0.0483211215408
0.0483211816439
0.0483212735375
0.0483213702657
0.0483215126292
0.0483214514673
0.048319081738
0.0482959304065
0.0481230261124
0.0472276480819
0.0449131749653
0.0449165643939
0.0472393554847
0.048144795572
0.0483210214244
0.0483448938124
0.0483474668149
0.048347646122
0.0483476453331
0.0483476804704
0.0483476069826
0.0483474855847
0.0483473185158
0.0483471641008
0.0483470619269
0.0483468391073
0.0483443711694
0.0483205629932
0.0481443624847
0.0472389417619
0.0449162614978
0.0472394031745
0.0694858307009
0.0741702207942
0.0751415390982
0.0753045191766
0.0753265002641
0.075329330521
0.0753299737111
0.0753302398048
0.0753303265791
0.0753303001005
0.0753301649771
0.0753298432633
0.0753291665756
0.0753263239497
0.0753043667903
0.0751414235986
0.0741700919962
0.0694856350586
0.0472388616482
0.0481448782678
0.0741702528262
0.0801213981744
0.0815264831125
0.0818064694256
0.0818516673762
0.0818582653527
0.0818594891471
0.0818598636981
0.0818599744914
0.0818599487564
0.0818597890433
0.0818593867931
0.0818582018253
0.0818516334203
0.0818064249658
0.0815264342459
0.0801213101975
0.0741700253162
0.0481441851176
0.0483211357678
0.0751415871831
0.0815264969324
0.0831030250813
0.0834346314354
0.0834915899127
0.0835007019346
0.0835026180956
0.0835031945509
0.0835033470748
0.0835033068734
0.0835030724242
0.083502438998
0.0835005474142
0.0834915194062
0.0834346201325
0.0831030016173
0.081526412297
0.0751413360603
0.048320360862
0.0483450281098
0.0753045713981
0.081806488048
0.0834346307082
0.083782853722
0.083844311474
0.0838548169798
0.0838572396735
0.0838579187469
0.0838580836247
0.0838580330313
0.0838577820178
0.0838570271455
0.0838545970493
0.083844175336
0.0837828285015
0.0834346307506
0.0818063917438
0.075304273752
0.0483441962096
0.0483475874717
0.0753265395471
0.0818516750537
0.0834915763723
0.0838442783111
0.0839074360476
0.0839185696406
0.0839209248818
0.083921059163
0.0839209533962
0.0839209047145
0.083920912787
0.0839206824752
0.0839182946366
0.0839072528425
0.083844288955
0.0834916403047
0.0818516119181
0.07532620631
0.0483466206173
0.0483477106895
0.0753293359251
0.0818582514615
0.0835006457834
0.0838547485735
0.0839185452956
0.0839294294885
0.0839301836816
0.0839276285386
0.0839263553178
0.0839263179633
0.0839274963924
0.0839299102106
0.0839290933758
0.0839183060679
0.08385480629
0.0835008669969
0.0818582406066
0.0753289942569
0.0483467267906
0.0483476425428
0.0753299490835
0.081859458972
0.0835025333361
0.0838571687704
0.0839209030065
0.0839301812202
0.0839261536246
0.0839162184116
0.0839118891086
0.0839119134406
0.0839161971497
0.0839259270702
0.0839298230966
0.0839206265255
0.0838572430174
0.0835028799571
0.0818594950361
0.075329611811
0.0483466943074
0.0483476078293
0.0753302002859
0.0818598139595
0.0835031154157
0.0838578592521
0.0839210373935
0.0839276171411
0.0839161810654
0.083895017976
0.0838863512618
0.0838864425658
0.0838951661393
0.0839160964168
0.0839272958055
0.0839207605595
0.0838579314755
0.083503481655
0.0818598891547
0.0753298991118
0.0483467214635
0.0483475326616
0.0753302810259
0.081859921393
0.0835032853674
0.0838580376744
0.0839209307649
0.0839263366528
0.0839118564784
0.0838863036704
0.0838758808178
0.0838760071633
0.0838865089294
0.0839117969667
0.083926025745
0.083920659696
0.0838581029233
0.0835036380995
0.0818600212844
0.075330055798
0.048346815943
0.0483474162823
0.0753302544069
0.0818599072375
0.0835032838843
0.0838580258783
0.0839208957298
0.0839262972891
0.083911850546
0.0838863740914
0.0838759446584
0.0838760621146
0.083886554515
0.0839117971085
0.0839259974228
0.0839206300177
0.0838580790043
0.0835036106219
0.0818600338014
0.0753301193929
0.0483469220607
0.0483473702772
0.0753301430316
0.0818597789695
0.0835031049103
0.0838578241011
0.0839209278486
0.0839274887
0.0839161552658
0.0838951261577
0.0838865404558
0.0838865660944
0.083895235033
0.0839160576234
0.0839271886085
0.0839206591357