/*--------------------------------*- C++ -*----------------------------------*\
| =========                 |                                                 |
| \\      /  F ield         | OpenFOAM: The Open Source CFD Toolbox           |
|  \\    /   O peration     | Version:  3.0.1                                 |
|   \\  /    A nd           | Web:      www.OpenFOAM.org                      |
|    \\/     M anipulation  |                                                 |
\*---------------------------------------------------------------------------*/
FoamFile
{
    version     2.0;
    format      ascii;
    class       surfaceVectorField;
    location    "0.2";
    object      Uf_0;
}
// * * * * * * * * * * * * * * * * * * * * * * * * * * * * * * * * * * * * * //

dimensions      [0 1 -1 0 0 0 0];

internalField   nonuniform List<vector> 
22672
(
(-0.000135597765437 -0.000102413883518 8.93705562756e-05)
(-0.00010280961241 -0.000135888412843 8.94038911291e-05)
(-0.000103037694939 -0.000102610690991 0.000271515474507)
(-0.000141475793501 -0.000100678122878 3.33629641429e-05)
(-0.000150701743724 -0.000120620280224 8.02210283502e-06)
(-0.00015064770967 -9.66589575056e-05 0.000126531653276)
(-0.000119183252429 -0.000100018023069 2.283408212e-05)
(-0.000129647541809 -0.000116849318197 -8.7067671959e-06)
(-0.000132260565916 -9.61085821968e-05 9.45909110236e-05)
(-9.7714015928e-05 -9.71135434033e-05 2.15303938064e-05)
(-0.0001069317714 -0.000111480475029 -9.8429608553e-06)
(-0.000111157765807 -9.33053747222e-05 9.00459798036e-05)
(-7.81017678236e-05 -9.41418500841e-05 1.93923547016e-05)
(-8.76010585064e-05 -0.000105158211246 -1.15329476748e-05)
(-9.30883995183e-05 -9.03440268063e-05 8.55829342358e-05)
(-6.10662196365e-05 -9.10086638295e-05 1.67902325466e-05)
(-6.95254579735e-05 -9.75711665141e-05 -1.36850188621e-05)
(-7.5551774905e-05 -8.68378187489e-05 8.05772439751e-05)
(-4.63010151824e-05 -8.80192207738e-05 1.41719578424e-05)
(-5.39291432205e-05 -9.00348499577e-05 -1.62912885274e-05)
(-5.97424666905e-05 -8.36073455844e-05 7.53181059148e-05)
(-3.35326559394e-05 -8.55194530279e-05 1.19484426164e-05)
(-4.06914061511e-05 -8.31593935904e-05 -1.85893046308e-05)
(-4.55647631171e-05 -8.05565659652e-05 7.04472113234e-05)
(-2.20105813936e-05 -8.38015024756e-05 1.02984502921e-05)
(-2.91184206804e-05 -7.80418089164e-05 -2.00194318625e-05)
(-3.25589975285e-05 -7.79429860935e-05 6.65825586219e-05)
(-1.09531879485e-05 -8.30182813244e-05 9.2448977054e-06)
(-1.80519089183e-05 -7.49168172587e-05 -2.1186112681e-05)
(-1.98301774071e-05 -7.6434984462e-05 6.39258917369e-05)
(9.18901259814e-07 -8.26165592812e-05 9.15734090039e-06)
(-8.30301094771e-06 -7.42925492641e-05 -2.19615537036e-05)
(-8.59178189023e-06 -7.61262430678e-05 6.24862503289e-05)
(1.1034314555e-05 -8.33063277931e-05 9.84123895331e-06)
(1.69815147806e-06 -7.35832615981e-05 -2.16807076588e-05)
(3.36992281043e-06 -7.57548534945e-05 6.3528207418e-05)
(2.3984891382e-05 -8.54409271532e-05 1.08887691429e-05)
(1.37199832235e-05 -7.80483535192e-05 -2.10019621844e-05)
(1.72524598014e-05 -7.76559610544e-05 6.51482842377e-05)
(3.99009761366e-05 -8.80684683106e-05 1.23631179257e-05)
(2.77612386492e-05 -8.36736271971e-05 -2.02149113388e-05)
(3.22180112736e-05 -8.04000934001e-05 6.7794526863e-05)
(5.93126329469e-05 -9.09938094265e-05 1.40968851039e-05)
(4.53373752372e-05 -9.05525280196e-05 -1.90205047786e-05)
(5.03669658674e-05 -8.36965131871e-05 7.11615518775e-05)
(8.21166046017e-05 -9.36320315032e-05 1.58807762764e-05)
(6.67765567354e-05 -9.76277051151e-05 -1.75109123845e-05)
(7.16539061713e-05 -8.69290824385e-05 7.4826445856e-05)
(0.000107180345886 -9.53512040153e-05 1.79308400692e-05)
(9.08812350673e-05 -0.000103644882897 -1.6113828942e-05)
(9.47590239676e-05 -8.96562962082e-05 7.85659731596e-05)
(0.000129998706135 -9.86802736962e-05 2.57621608545e-05)
(0.000118368575986 -0.000107048833425 -1.39974905826e-05)
(0.000121102679829 -9.11355702373e-05 8.41990864451e-05)
(0.000131386250537 -0.000107329046515 7.38127244502e-05)
(0.000140367308359 -0.00011466531903 -2.57124395919e-06)
(0.000139633129393 -9.73029315092e-05 0.000113233636175)
(0.000117240892561 -0.000127783650136 7.09813452763e-05)
(0.000115863659752 -0.000108853867359 0.000259138452068)
(-0.000122758128244 -0.000148908569699 8.05543768846e-06)
(-0.000101924896117 -0.000139715795028 3.34199539807e-05)
(-9.84826214071e-05 -0.000148793060418 0.000126618352472)
(-0.000128839854474 -0.000136067506134 -3.40476285038e-05)
(-0.00013984428101 -0.000122792213682 -3.40627401466e-05)
(-0.000135372094984 -0.000130425896418 8.28980838709e-06)
(-0.000110116043227 -0.000129415229263 -4.13838101712e-05)
(-0.000118379317445 -0.000113329243331 -4.6380173629e-05)
(-0.000120206288224 -0.000123418955205 -2.22061766542e-05)
(-8.92901638453e-05 -0.000121325151939 -4.29063023365e-05)
(-9.49066993917e-05 -0.000103579733004 -4.74960999299e-05)
(-0.000102421457338 -0.000116280997568 -2.86863391515e-05)
(-7.03890436648e-05 -0.000111074967246 -4.46103212385e-05)
(-7.48312302539e-05 -9.09683231849e-05 -4.856556457e-05)
(-8.45969224643e-05 -0.000106516710076 -3.30456367752e-05)
(-5.46375872835e-05 -9.97007232811e-05 -4.67665399361e-05)
(-5.68859048965e-05 -7.61132283879e-05 -5.01876219863e-05)
(-6.81117300618e-05 -9.49487187015e-05 -3.71560599371e-05)
(-4.19391014035e-05 -8.89131233707e-05 -4.90525510007e-05)
(-4.2977435116e-05 -6.10908894886e-05 -5.21556187014e-05)
(-5.4041728832e-05 -8.30457720016e-05 -4.15791279035e-05)
(-3.15872425282e-05 -8.01791668619e-05 -5.05571791098e-05)
(-3.26992467664e-05 -4.81418529751e-05 -5.40339311979e-05)
(-4.15376107759e-05 -7.26753748302e-05 -4.52959553202e-05)
(-2.26478618522e-05 -7.40960424267e-05 -5.15039948356e-05)
(-2.45216785203e-05 -3.90008374076e-05 -5.48337436591e-05)
(-3.07827296147e-05 -6.47660889342e-05 -4.78989206901e-05)
(-1.46119970805e-05 -7.08149738331e-05 -5.239256409e-05)
(-1.68886571868e-05 -3.30008802568e-05 -5.57195739109e-05)
(-2.08138409194e-05 -5.978386198e-05 -4.98664303359e-05)
(-7.59617184723e-06 -7.03869190692e-05 -5.27996022628e-05)
(-1.05650823487e-05 -3.02042288234e-05 -5.64766140113e-05)
(-1.10593013866e-05 -5.78854348577e-05 -5.10198989245e-05)
(2.09852323888e-06 -7.38139338487e-05 -5.25239087965e-05)
(-5.0027568262e-06 -3.23934539505e-05 -5.65398864666e-05)
(-1.7413075969e-06 -5.89437713252e-05 -5.08065178837e-05)
(1.30677559788e-05 -8.06300797726e-05 -5.21056426661e-05)
(2.95222369145e-06 -3.94692804916e-05 -5.58206142108e-05)
(8.43864989719e-06 -6.45969743887e-05 -4.94811940313e-05)
(2.67630018763e-05 -8.96196617985e-05 -5.15985340432e-05)
(1.40176248286e-05 -4.89935120567e-05 -5.58274615973e-05)
(2.12529728845e-05 -7.28706115237e-05 -4.83230506824e-05)
(4.48875597953e-05 -0.000100021282881 -5.0628302267e-05)
(2.92559693414e-05 -6.24393231616e-05 -5.542136725e-05)
(3.77083247179e-05 -8.36511107027e-05 -4.62034881951e-05)
(6.76446651661e-05 -0.000109837858234 -4.95055176029e-05)
(5.02650086583e-05 -7.64575375498e-05 -5.47707568153e-05)
(5.80664604053e-05 -9.48452790114e-05 -4.39131873265e-05)
(9.42824973017e-05 -0.000117219073086 -4.80421595939e-05)
(7.58742202565e-05 -8.8876613017e-05 -5.44100707618e-05)
(8.14467838144e-05 -0.000104746558016 -4.14122938893e-05)
(0.000120629100362 -0.000124003230397 -4.23308953963e-05)
(0.000105030310474 -9.79173852552e-05 -5.29534264797e-05)
(0.000106287876394 -0.000111325219488 -3.55020081636e-05)
(0.000123443285511 -0.000132661361005 -5.40262313317e-06)
(0.000132962221609 -0.000108225528551 -4.35602459592e-05)
(0.000129239744365 -0.000119504555648 -9.28984510026e-06)
(0.000113666831069 -0.000117749522832 1.9176410098e-05)
(0.000107944392785 -0.000129352907347 0.000113385293058)
(-0.000119324105317 -0.000124090374821 -8.69822385439e-06)
(-0.000101635187375 -0.000115095091101 2.28002924124e-05)
(-9.82449047393e-05 -0.000126484473363 9.47356229592e-05)
(-0.000119800845359 -0.000109970146969 -4.63952852718e-05)
(-0.000133615348219 -0.000100186676571 -4.14738956071e-05)
(-0.000128887456972 -0.00011024111568 -2.20927009301e-05)
(-9.68969913697e-05 -9.78573792942e-05 -5.24924633876e-05)
(-0.000106535644546 -8.65176403399e-05 -5.25875767749e-05)
(-0.000109191878628 -9.88284545516e-05 -4.96754391179e-05)
(-7.29866119386e-05 -8.3955539694e-05 -5.31553621634e-05)
(-7.89804639477e-05 -7.18390459903e-05 -5.29027670421e-05)
(-8.80536194042e-05 -8.62087686804e-05 -5.56046536163e-05)
(-5.27677920825e-05 -6.69656924573e-05 -5.41428653178e-05)
(-5.59810242209e-05 -5.3070017177e-05 -5.26604293302e-05)
(-6.82433475563e-05 -6.99092068365e-05 -5.806093975e-05)
(-3.74449043612e-05 -4.83240311365e-05 -5.55767007516e-05)
(-3.67733743463e-05 -3.14661626281e-05 -5.33102762207e-05)
(-5.08648495439e-05 -5.11063404603e-05 -5.99010584875e-05)
(-2.7374119025e-05 -3.04496192655e-05 -5.71369988987e-05)
(-2.40316836875e-05 -9.43333073342e-06 -5.37321663521e-05)
(-3.80575102049e-05 -3.11981162183e-05 -6.16454811404e-05)
(-2.13621960652e-05 -1.54269939256e-05 -5.83104957472e-05)
(-1.69832376486e-05 9.54156841853e-06 -5.49208575854e-05)
(-2.90663695203e-05 -1.39140155973e-05 -6.35996843936e-05)
(-1.61683329337e-05 -4.81882751013e-06 -5.90493227343e-05)
(-1.35886749004e-05 2.01174107836e-05 -5.57336599384e-05)
(-2.2263706678e-05 -5.01238689157e-07 -6.42071663821e-05)
(-1.23452459233e-05 6.62718478172e-07 -5.98036238321e-05)
(-1.14595148807e-05 2.86036779132e-05 -5.71769675877e-05)
(-1.61266248775e-05 6.96131172157e-06 -6.53184216722e-05)
(-1.013481877e-05 6.22712645534e-07 -6.02168982151e-05)
(-1.10370070167e-05 3.39806842848e-05 -5.77813346917e-05)
(-1.12227365591e-05 1.00702149253e-05 -6.62872321277e-05)
(-3.27729263435e-06 -5.07560612561e-06 -5.98365918809e-05)
(-1.1519084834e-05 2.75413881181e-05 -5.77027101225e-05)
(-7.25075344029e-06 7.16140045706e-06 -6.66903644826e-05)
(1.97722981637e-06 -1.6047894048e-05 -5.9542433142e-05)
(-9.24422663679e-06 2.07090154602e-05 -5.61588042532e-05)
(-1.4480708493e-06 -4.37329242221e-07 -6.53413264761e-05)
(1.05995262983e-05 -3.17824248384e-05 -5.96502948042e-05)
(-3.35890675368e-06 9.04445792005e-06 -5.65180779851e-05)
(7.22594513018e-06 -1.4300333208e-05 -6.65833885676e-05)
(2.71671164143e-05 -4.94724707613e-05 -5.95638217983e-05)
(9.50526647197e-06 -1.18547977265e-05 -5.70669222761e-05)
(2.07417202906e-05 -3.26080373365e-05 -6.70937905103e-05)
(5.07730747954e-05 -6.60131884487e-05 -5.96753099741e-05)
(3.12782014684e-05 -3.24361998993e-05 -5.80343266981e-05)
(4.07370744393e-05 -5.13117531112e-05 -6.75906328009e-05)
(8.00522578543e-05 -7.97042949779e-05 -5.93213376476e-05)
(5.95764507117e-05 -5.09886344983e-05 -5.91701309419e-05)
(6.59320365205e-05 -6.8037573531e-05 -6.71528823154e-05)
(0.000109164501993 -9.15420332092e-05 -5.41827770426e-05)
(9.22091282123e-05 -6.54658385742e-05 -5.86487010985e-05)
(9.30472174663e-05 -8.09986603763e-05 -6.1569089144e-05)
(0.000115565686721 -0.00010246657751 -1.8981212728e-05)
(0.000125117284457 -7.83281862518e-05 -4.97164140626e-05)
(0.000119692210939 -9.29343920182e-05 -3.631588707e-05)
(0.000109922053114 -8.69751518634e-05 1.16069267088e-05)
(0.000101241940735 -0.000103717539953 8.4780656946e-05)
(-0.000114367282155 -9.86763786509e-05 -9.97537934038e-06)
(-9.91711653688e-05 -9.09700362851e-05 2.13377873897e-05)
(-9.58170422199e-05 -0.00010259733147 9.02730965149e-05)
(-0.000110262692258 -8.31247634194e-05 -4.76661871102e-05)
(-0.000125856832529 -7.57989994225e-05 -4.31223198028e-05)
(-0.000122043558933 -8.86638453106e-05 -2.84557950838e-05)
(-8.23067464826e-05 -6.69116099529e-05 -5.29978804294e-05)
(-9.27005807088e-05 -5.89724211615e-05 -5.34101596301e-05)
(-9.66712295742e-05 -7.38347387778e-05 -5.54570283833e-05)
(-5.41478246449e-05 -4.7818222364e-05 -5.24078342089e-05)
(-5.99117576091e-05 -4.00567072693e-05 -5.25161305829e-05)
(-7.06208377216e-05 -5.63133232201e-05 -5.98855930335e-05)
(-3.14755290365e-05 -2.40866448538e-05 -5.18278402331e-05)
(-3.21060584685e-05 -1.67106852059e-05 -5.05932198095e-05)
(-4.68318070222e-05 -3.39487411201e-05 -5.89607415533e-05)
(-1.57036409963e-05 1.2682025081e-06 -5.14657418212e-05)
(-1.12882286013e-05 9.9708944449e-06 -4.90233798452e-05)
(-2.73669791722e-05 -6.51589835186e-06 -5.71208349139e-05)
(-7.67006730666e-06 2.37924021958e-05 -5.15160250388e-05)
(-1.40201816583e-06 3.70425598223e-05 -4.74343464629e-05)
(-1.54025774528e-05 1.95141482681e-05 -5.44047753869e-05)
(-4.79242788882e-06 4.15474306211e-05 -5.23440217766e-05)
(8.50774874796e-07 6.06010657709e-05 -4.72586220984e-05)
(-9.92490840869e-06 4.07452423486e-05 -5.38192457549e-05)
(-6.60851490675e-06 5.30002281573e-05 -5.38613047918e-05)
(-2.08739287015e-06 7.62055551842e-05 -4.72645628478e-05)
(-9.45681431955e-06 5.64157208393e-05 -5.41461605035e-05)
(-9.49653265331e-06 5.80117132063e-05 -5.51546784472e-05)
(-6.43730354548e-06 8.88360104742e-05 -4.6867458453e-05)
(-1.02258267622e-05 6.58547889835e-05 -5.72159975967e-05)
(-1.27601166268e-05 5.72490996458e-05 -5.52671465991e-05)
(-1.1829483031e-05 9.51192481903e-05 -4.65485815019e-05)
(-1.12672233828e-05 6.88348226477e-05 -5.77490489215e-05)
(-1.43355294926e-05 5.2512044803e-05 -5.40249224949e-05)
(-1.63249840701e-05 8.6894140492e-05 -4.72379718599e-05)
(-1.31301512267e-05 6.45164794768e-05 -5.76575031124e-05)
(-1.43952779794e-05 4.1295028601e-05 -5.31344490963e-05)
(-2.05658481913e-05 7.57084602724e-05 -4.74338228764e-05)
(-1.44419790497e-05 5.7193808218e-05 -5.48291320911e-05)
(-6.50845209811e-06 2.27367544433e-05 -5.39347054571e-05)
(-2.20541622609e-05 5.83080840725e-05 -4.88307877469e-05)
(-1.29169309924e-05 3.99680960109e-05 -5.70527036144e-05)
(7.30615193077e-06 -2.61178260271e-07 -5.5537427176e-05)
(-1.36591988964e-05 3.48250298485e-05 -5.11934257217e-05)
(-2.02885729471e-06 1.81695337219e-05 -6.04137193686e-05)
(3.22538210955e-05 -2.40092187936e-05 -5.7529147666e-05)
(7.34639762097e-06 8.17042558115e-06 -5.40477252252e-05)
(1.9155581774e-05 -8.5799934548e-06 -6.54944865449e-05)
(6.52614686222e-05 -4.33558008116e-05 -5.84974943928e-05)
(4.01622872583e-05 -1.50713852516e-05 -5.72289320325e-05)
(4.78075364913e-05 -3.21357180571e-05 -6.8887337685e-05)
(9.91739134667e-05 -5.89392539955e-05 -5.41823381185e-05)
(7.80913778514e-05 -3.35612356735e-05 -5.80565016559e-05)
(7.95453912931e-05 -5.02461056748e-05 -6.57987394423e-05)
(0.00011068990485 -7.07265157722e-05 -1.91282746258e-05)
(0.000116919409202 -4.91338903632e-05 -5.00472533006e-05)
(0.000112063931078 -6.47992780258e-05 -4.07028631184e-05)
(0.000107244623846 -5.83317187391e-05 1.1164309681e-05)
(9.83580313687e-05 -7.34655295385e-05 8.20526875453e-05)
(-0.000108424568645 -7.60796647529e-05 -1.18091530726e-05)
(-9.65787540059e-05 -6.85387019596e-05 1.90797541188e-05)
(-9.32394193345e-05 -8.12156101282e-05 8.60242597334e-05)
(-9.77704046008e-05 -5.93988830321e-05 -4.88662923227e-05)
(-0.000115809136008 -5.37989649092e-05 -4.49014644356e-05)
(-0.000112493225194 -6.71038599713e-05 -3.26149076441e-05)
(-6.34998529623e-05 -4.01361775001e-05 -5.29284097836e-05)
(-7.5649361232e-05 -3.56044326031e-05 -5.43688050014e-05)
(-8.03481578331e-05 -5.01117688298e-05 -5.75870477908e-05)
(-3.06298760767e-05 -1.6147532692e-05 -5.07015161834e-05)
(-3.6094231593e-05 -1.43425564634e-05 -5.18118375755e-05)
(-4.82107323769e-05 -2.8364756931e-05 -5.8515769315e-05)
(-3.02559974733e-06 1.3239984102e-05 -4.77887594216e-05)
(-2.72074498227e-06 8.7653448787e-06 -4.77358839248e-05)
(-1.80372900581e-05 3.22968424499e-07 -5.29922423327e-05)
(5.40132049184e-06 4.18269666712e-05 -4.49919844869e-05)
(1.73137743891e-05 4.67587170963e-05 -4.34434536484e-05)
(3.01933322587e-06 3.35162361462e-05 -4.51073867572e-05)
(4.86471401076e-06 6.62416394302e-05 -4.31769435225e-05)
(2.30330154826e-05 7.55784931084e-05 -3.91123698362e-05)
(9.57243271564e-06 6.11028031845e-05 -3.78765845278e-05)
(2.57859516445e-06 8.68665189743e-05 -4.21791631696e-05)
(2.14992851217e-05 9.6931293095e-05 -3.5086890276e-05)
(8.14279776218e-06 8.70688688167e-05 -3.3912297297e-05)
(-9.35142158399e-07 0.000101081393389 -4.0270716509e-05)
(1.21516108926e-05 0.000110340134674 -3.20760138056e-05)
(3.05926286391e-06 0.000107290949605 -3.04866778747e-05)
(-8.54462851648e-06 0.000108239040656 -3.82613615077e-05)
(7.3208561691e-07 0.000122087023936 -2.92021214376e-05)
(-3.61768712702e-06 0.000119723024483 -2.55101593829e-05)
(-1.62810330322e-05 0.000107907055296 -3.85194067628e-05)
(-1.21723875038e-05 0.0001270182082 -2.80435669718e-05)
(-1.25855068287e-05 0.000124386423494 -2.40366625844e-05)
(-2.62220841348e-05 9.98669931063e-05 -4.06468722415e-05)
(-2.43887839953e-05 0.000123052405151 -2.99367345229e-05)
(-1.90317639026e-05 0.000118817121962 -2.6097570437e-05)
(-2.77315674573e-05 8.45888209131e-05 -4.3130161527e-05)
(-3.58681018531e-05 0.000108400895448 -3.29720494743e-05)
(-2.62496517791e-05 0.000105220025518 -3.10700534605e-05)
(-2.89884362795e-05 6.36111411924e-05 -4.60895080115e-05)
(-4.30535347426e-05 9.71461764077e-05 -3.81476634377e-05)
(-3.21392295248e-05 8.34022153489e-05 -3.74769256759e-05)
(-1.44837758295e-05 3.87596355625e-05 -4.9703723771e-05)
(-3.85277827342e-05 6.69760708934e-05 -4.27463157475e-05)
(-2.82285689831e-05 5.91208164169e-05 -4.65636820234e-05)
(8.1569345721e-06 1.14243235473e-05 -5.37475095918e-05)
(-1.99895230205e-05 4.08696356483e-05 -4.92212740304e-05)
(-1.00117067195e-05 2.93754164338e-05 -5.52642607647e-05)
(4.65268137923e-05 -1.28860466199e-05 -5.67879392956e-05)
(1.59807172413e-05 1.07400894315e-05 -5.44356133529e-05)
(2.41086163712e-05 1.41724624536e-07 -6.41238452264e-05)
(8.63194345665e-05 -3.16736389408e-05 -5.3921416838e-05)
(6.07530700014e-05 -8.26305201432e-06 -5.74249125606e-05)
(6.2410138769e-05 -2.2542578454e-05 -6.50486127675e-05)
(0.000104234539871 -4.48228798023e-05 -1.97546689937e-05)
(0.000106495475479 -2.50379250903e-05 -5.05871531815e-05)
(0.000101652042424 -3.96044873063e-05 -4.19762874693e-05)
(0.000104402011109 -3.38032794856e-05 1.00424053176e-05)
(9.5304926043e-05 -4.89429260382e-05 7.97305951115e-05)
(-0.000101024186308 -5.5177315961e-05 -1.40125572442e-05)
(-9.36792495333e-05 -4.8873392862e-05 1.64767360573e-05)
(-8.99913495742e-05 -6.08845156582e-05 8.13928393934e-05)
(-8.28849327158e-05 -3.85599750565e-05 -5.04039771143e-05)
(-0.000104425444582 -3.57915668817e-05 -4.70445048852e-05)
(-0.000100877117516 -4.7787252532e-05 -3.61012355627e-05)
(-4.16782518962e-05 -1.81214360409e-05 -5.32522327932e-05)
(-5.70154246522e-05 -1.80477938744e-05 -5.57010435433e-05)
(-6.11673132452e-05 -2.9682595454e-05 -5.87011960245e-05)
(-1.83551294801e-06 8.738220648e-06 -4.88462053168e-05)
(-9.39083492391e-06 1.3280465847e-06 -5.10610265405e-05)
(-2.0627849802e-05 -6.08266643381e-06 -5.54301147769e-05)
(1.90101407577e-05 3.95120613962e-05 -4.33905781516e-05)
(2.80361426692e-05 3.2360050244e-05 -4.50431860682e-05)
(1.50508724272e-05 2.66020223395e-05 -4.43355508903e-05)
(3.41324759265e-05 6.77764016501e-05 -3.75638389977e-05)
(4.55792020049e-05 6.32684154049e-05 -3.7167298866e-05)
(3.35081409535e-05 5.8964372192e-05 -3.15100320335e-05)
(3.82812524062e-05 9.50070395023e-05 -3.10223165897e-05)
(5.02738904962e-05 8.92532416396e-05 -2.6893922702e-05)
(3.82605408704e-05 8.99392074181e-05 -1.769254739e-05)
(3.16749945705e-05 0.000119274425251 -2.49837409121e-05)
(4.57811091935e-05 0.000109232342112 -1.84385199782e-05)
(3.63685269944e-05 0.000121153737486 -5.56423631775e-06)
(1.45881898386e-05 0.000135244342441 -2.10074187342e-05)
(2.81327599122e-05 0.000129587182562 -1.24810329845e-05)
(2.32839419482e-05 0.000144241058889 -2.03751060792e-06)
(-3.87491277285e-06 0.000144284806381 -1.89843269016e-05)
(9.77746115875e-06 0.000139716158448 -9.69215224037e-06)
(6.91309354898e-06 0.000155714666624 9.45694314319e-07)
(-2.10355594481e-05 0.000144725486914 -1.9460894732e-05)
(-1.17350054093e-05 0.000140494723814 -8.9108305403e-06)
(-1.21860501667e-05 0.000161847322184 3.78607195812e-06)
(-3.7620903932e-05 0.000132720984484 -2.22619117557e-05)
(-3.64035924646e-05 0.000138672548236 -1.17188582094e-05)
(-3.23520997286e-05 0.000155205867498 1.06114668739e-06)
(-5.51060261539e-05 0.000112654169059 -2.7989551385e-05)
(-5.59492971914e-05 0.000128778056777 -1.5485338529e-05)
(-4.99354373969e-05 0.000136570123537 -2.79857621783e-06)
(-5.17836905324e-05 8.75608705477e-05 -3.48044711738e-05)
(-6.81557550302e-05 0.000106019071379 -2.35390450355e-05)
(-5.91040509738e-05 0.00011266239452 -1.21033763274e-05)
(-4.55972750379e-05 6.08836573778e-05 -4.22638660069e-05)
(-6.52068909291e-05 8.54157419121e-05 -3.25397787324e-05)
(-5.61332871983e-05 8.13968590368e-05 -2.45381490212e-05)
(-1.43161316324e-05 3.54246489981e-05 -4.99093777915e-05)
(-4.54320088559e-05 5.36436356121e-05 -4.44916276075e-05)
(-3.98106220884e-05 5.19740766308e-05 -4.39748397628e-05)
(2.43865100414e-05 1.07890797524e-05 -5.50725866179e-05)
(-8.52811599529e-06 2.85779585924e-05 -5.2020540724e-05)
(-3.71491996355e-06 2.4188574696e-05 -5.64699387803e-05)
(7.12820454119e-05 -9.64804202188e-06 -5.40906489041e-05)
(4.14740361636e-05 7.89745982689e-06 -5.70742931126e-05)
(4.20176387202e-05 -8.71089707916e-07 -6.29930952376e-05)
(9.66855065749e-05 -2.2600167331e-05 -2.07900788702e-05)
(9.50881996055e-05 -7.18335301132e-06 -5.12086430698e-05)
(8.95017455445e-05 -1.85687566732e-05 -4.3196827748e-05)
(0.000101296869188 -1.42227936215e-05 8.70427083839e-06)
(9.18524354819e-05 -2.72153228536e-05 7.71469980912e-05)
(-9.33985870287e-05 -3.75408143201e-05 -1.65552115838e-05)
(-9.07549829083e-05 -3.21785850687e-05 1.39899666106e-05)
(-8.68757263234e-05 -4.31056865465e-05 7.67436922111e-05)
(-6.75821671723e-05 -2.26017647532e-05 -5.23415713143e-05)
(-9.31510761711e-05 -2.19019498123e-05 -4.91485397232e-05)
(-8.87253553416e-05 -3.20624516913e-05 -3.96515368572e-05)
(-2.01668549861e-05 -2.36186407692e-06 -5.35098372906e-05)
(-3.81419582971e-05 -6.00997726117e-06 -5.70912522517e-05)
(-4.12191263618e-05 -1.46168731424e-05 -5.93782837295e-05)
(2.2354799345e-05 2.20324021875e-05 -4.72580072919e-05)
(1.48751961283e-05 1.03133990254e-05 -5.07393936878e-05)
(7.62413012959e-06 9.28875434236e-06 -5.14089220959e-05)
(5.64846048963e-05 4.73206760296e-05 -3.88199067827e-05)
(5.33028702812e-05 3.55392608812e-05 -4.25056196852e-05)
(4.69210981821e-05 3.67562776972e-05 -3.71909686598e-05)
(7.19937067713e-05 7.59425865083e-05 -2.64973825702e-05)
(7.41948252061e-05 6.40100365047e-05 -2.95119967428e-05)
(6.63619470589e-05 6.51258784723e-05 -1.61221372973e-05)
(6.6744242952e-05 0.00010545194471 -1.43101260904e-05)
(7.9788047517e-05 8.79058804952e-05 -1.42516863742e-05)
(7.17932162001e-05 0.000101442106246 6.72312992879e-06)
(4.88264428254e-05 0.000128100695561 -5.93581205057e-06)
(6.8435713943e-05 0.000110298665294 -4.32272751115e-06)
(6.24791334692e-05 0.000128753267595 1.69636540363e-05)
(2.75105114177e-05 0.000142140762185 -1.16576649066e-06)
(4.21757701091e-05 0.000124758447101 1.20883298696e-06)
(3.76447970246e-05 0.000147906040741 2.62359608137e-05)
(1.15079705038e-06 0.000148656601855 3.81344120947e-07)
(1.6294171805e-05 0.000136162099863 3.9713482977e-06)
(1.40022615942e-05 0.000157465157209 2.99845216234e-05)
(-2.67986684179e-05 0.000147164248757 -1.16879401772e-06)
(-1.32254540248e-05 0.000132910236984 4.55909358541e-06)
(-1.3090865759e-05 0.000161002687225 3.559063192e-05)
(-5.05221594719e-05 0.000136004981799 -4.94228498268e-06)
(-4.75624448415e-05 0.000129733469131 1.27674167322e-06)
(-4.43161324633e-05 0.000153552681074 3.27145089503e-05)
(-7.30881024727e-05 0.000118074160814 -1.10348321795e-05)
(-7.38828935504e-05 0.000122630019037 -3.29805037477e-06)
(-6.88105508344e-05 0.00013714941226 2.87693694174e-05)
(-7.87811999113e-05 9.56308246561e-05 -2.12743525942e-05)
(-9.06028459995e-05 9.89531648196e-05 -1.01781370432e-05)
(-8.73273484843e-05 0.000117707726963 1.28219907455e-05)
(-7.28209577455e-05 6.85732754287e-05 -3.4767540333e-05)
(-9.22601832855e-05 8.5948652138e-05 -2.41757053666e-05)
(-8.89084047262e-05 8.91917211668e-05 -6.42299302364e-06)
(-4.25314884655e-05 4.40402940022e-05 -4.660279054e-05)
(-6.99434864349e-05 5.52733742461e-05 -3.94724688608e-05)
(-6.71063409745e-05 5.75982635873e-05 -3.18448400485e-05)
(1.1799914499e-06 2.36865673739e-05 -5.40222472187e-05)
(-2.87772671427e-05 3.61994680331e-05 -5.02680488843e-05)
(-2.82565994493e-05 3.52222275402e-05 -5.12567823646e-05)
(5.62768859713e-05 5.12608438479e-06 -5.41922872783e-05)
(2.37206620794e-05 1.40579649278e-05 -5.65870289982e-05)
(2.15283552423e-05 1.28840914177e-05 -6.11785350488e-05)
(8.90605367977e-05 -5.89549739944e-06 -2.17142933612e-05)
(8.42322707454e-05 4.42878243876e-06 -5.1580572672e-05)
(7.73659991525e-05 -3.4016293378e-06 -4.43117356569e-05)
(9.82252309332e-05 2.84061037518e-07 7.41636797852e-06)
(8.82468409679e-05 -1.04413324097e-05 7.46106922313e-05)
(-8.62109275859e-05 -2.32917177944e-05 -1.86033615289e-05)
(-8.81779147965e-05 -1.84664962737e-05 1.1917198157e-05)
(-8.36931034613e-05 -2.80355294746e-05 7.25468671612e-05)
(-5.32806433177e-05 -1.17249480448e-05 -5.38982206606e-05)
(-8.3634364383e-05 -1.20051877423e-05 -5.05477450636e-05)
(-7.73651864683e-05 -1.94950525186e-05 -4.2761902596e-05)
(2.10013457852e-06 5.87872100113e-06 -5.43208086489e-05)
(-2.14676885879e-05 -9.90212171561e-07 -5.80827616016e-05)
(-2.17483262192e-05 -5.32314135095e-06 -6.03128173239e-05)
(4.97147828702e-05 2.44511063731e-05 -4.59870060811e-05)
(3.33507288824e-05 1.25813269343e-05 -5.1012142543e-05)
(3.03535443768e-05 1.61465532905e-05 -4.97718556726e-05)
(8.47669842721e-05 4.43419151611e-05 -3.31977096453e-05)
(7.31680700433e-05 3.06673558851e-05 -3.94451361598e-05)
(7.07853941436e-05 3.49113517926e-05 -3.00543828188e-05)
(9.05272879105e-05 7.11558966886e-05 -1.72663005467e-05)
(0.00010100020163 6.01716208099e-05 -2.19818695826e-05)
(9.81757606045e-05 6.20236930729e-05 -1.79540401942e-06)
(7.95196335577e-05 9.70290955221e-05 -4.2642877949e-06)
(0.000105665255044 7.55046053665e-05 -3.35909331377e-06)
(0.000101898663863 9.45903603315e-05 2.35191847557e-05)
(6.50175729528e-05 0.000114586425207 2.82191752639e-06)
(8.59953100777e-05 8.93251768182e-05 3.70108713686e-06)
(8.28440204515e-05 0.000113919203098 3.55564899161e-05)
(3.46371529195e-05 0.000125082175926 6.34594777533e-06)
(5.26709785416e-05 0.000105105899793 1.30878055438e-05)
(5.20011880495e-05 0.00013191299616 5.00798075278e-05)
(3.19475236439e-06 0.000129268238587 8.14909776217e-06)
(2.04800069276e-05 0.000112619923814 1.70069202835e-05)
(2.00148205342e-05 0.000140920455307 5.50021378372e-05)
(-3.47506293789e-05 0.000127110134317 7.00462927636e-06)
(-1.53808980479e-05 0.00011158445226 1.73868435707e-05)
(-1.60869669784e-05 0.000141481134002 5.92715667055e-05)
(-6.5798101619e-05 0.000118745728986 2.92097628113e-06)
(-5.59237378576e-05 0.000102849841078 9.96596332148e-06)
(-5.61920252933e-05 0.000133133239048 5.79291393548e-05)
(-8.83818721092e-05 0.000102700633411 -2.44135523845e-06)
(-8.99272299262e-05 9.42021711633e-05 5.80051220783e-06)
(-8.57735820328e-05 0.000120379752026 5.10199502605e-05)
(-0.000103646473769 8.37235470091e-05 -1.30794898156e-05)
(-0.00010958452878 8.06215641057e-05 -2.33389564211e-06)
(-0.000107059406871 9.8510959849e-05 3.36221463654e-05)
(-9.15892849677e-05 6.23048571027e-05 -2.88806338944e-05)
(-0.000113669470376 6.97155944247e-05 -1.96768633317e-05)
(-0.000116211485038 7.79633682594e-05 4.22095143613e-06)
(-6.21948966241e-05 4.19488805541e-05 -4.31377272051e-05)
(-9.02742080609e-05 4.63613682791e-05 -3.49060908446e-05)
(-9.3641308017e-05 5.30274829306e-05 -2.04202628383e-05)
(-1.27699765062e-05 2.65250160392e-05 -5.28328306639e-05)
(-4.4125956673e-05 3.30010627827e-05 -4.95131862775e-05)
(-4.7954590465e-05 3.45862902689e-05 -4.61500505689e-05)
(4.31056466212e-05 1.27119218666e-05 -5.39753143919e-05)
(1.03263112922e-05 1.69356481553e-05 -5.62062885118e-05)
(4.85399049829e-06 1.83447229805e-05 -5.86633519879e-05)
(8.21882131611e-05 5.41892927847e-06 -2.24499113322e-05)
(7.56008322785e-05 1.02015314998e-05 -5.2069656654e-05)
(6.63535831338e-05 5.4939349774e-06 -4.47533051708e-05)
(9.572649614e-05 1.02235228193e-05 6.16015535006e-06)
(8.47982082191e-05 1.48904966646e-06 7.23175040477e-05)
(-8.06338191147e-05 -1.20250694954e-05 -2.00271853777e-05)
(-8.63222272189e-05 -7.04350151374e-06 1.04035376052e-05)
(-8.10206373099e-05 -1.54301347878e-05 6.9267549861e-05)
(-4.30739285552e-05 -4.92136490644e-06 -5.47322860046e-05)
(-7.69825793284e-05 -4.70893040947e-06 -5.16384767473e-05)
(-6.87421944564e-05 -1.04111946657e-05 -4.4780683304e-05)
(1.41923501458e-05 7.05748457816e-06 -5.47740954958e-05)
(-9.98730336819e-06 2.27101411546e-06 -5.85997245971e-05)
(-6.9137919916e-06 -5.07803124949e-07 -6.04286334999e-05)
(6.48341980587e-05 1.98436596342e-05 -4.44702726217e-05)
(4.60749487805e-05 1.05146905011e-05 -5.1333126498e-05)
(4.7534903841e-05 1.40810275094e-05 -4.84553842894e-05)
(9.57740151305e-05 3.54978669349e-05 -2.82292960971e-05)
(8.87946804823e-05 2.22350770401e-05 -3.72138519259e-05)
(9.26986821773e-05 2.72902704355e-05 -2.23789504535e-05)
(0.000109495804304 5.43013525077e-05 -8.07466234969e-06)
(0.000119797435875 3.85291647666e-05 -1.77770671658e-05)
(0.000126021829664 4.88746125579e-05 8.03900181103e-06)
(9.67544591966e-05 7.02836360575e-05 4.60628161799e-06)
(0.00012165313552 4.93099770644e-05 3.83956585969e-06)
(0.000123699274918 6.90666110985e-05 3.90245772139e-05)
(7.69602396181e-05 8.18865415626e-05 1.39669751542e-05)
(9.759965462e-05 5.81278922299e-05 7.74720730197e-06)
(9.98085333538e-05 8.10964216124e-05 5.10373603403e-05)
(3.27950768163e-05 8.80751464281e-05 2.37487780519e-05)
(5.88586286564e-05 6.36201534904e-05 2.47211058993e-05)
(6.46483435239e-05 9.7615669588e-05 8.56519750558e-05)
(7.52062338865e-06 9.08458365702e-05 2.62446660919e-05)
(2.32503234902e-05 7.26302350833e-05 2.71475354273e-05)
(2.35741197703e-05 0.000100204812322 6.52296805903e-05)
(-3.73105344214e-05 8.80895225044e-05 2.03481776158e-05)
(-1.81361034424e-05 7.3075549783e-05 2.45577544021e-05)
(-2.08690486914e-05 9.99438513946e-05 8.32870812167e-05)
(-7.32072347358e-05 8.07833764069e-05 1.28454992482e-05)