/*--------------------------------*- C++ -*----------------------------------*\
| =========                 |                                                 |
| \\      /  F ield         | OpenFOAM: The Open Source CFD Toolbox           |
|  \\    /   O peration     | Version:  3.0.1                                 |
|   \\  /    A nd           | Web:      www.OpenFOAM.org                      |
|    \\/     M anipulation  |                                                 |
\*---------------------------------------------------------------------------*/
FoamFile
{
    version     2.0;
    format      ascii;
    class       surfaceScalarField;
    location    "0.4";
    object      alphaPhi;
}
// * * * * * * * * * * * * * * * * * * * * * * * * * * * * * * * * * * * * * //

dimensions      [0 3 -1 0 0 0 0];

internalField   nonuniform List<scalar> 
3731
(
-1.24691e-05
-9.43021e-06
-1.24606e-05
-1.17108e-05
-1.49372e-05
-2.41629e-05
-5.68544e-06
-1.51554e-05
-3.01753e-05
2.22751e-06
-1.13859e-05
-2.79455e-05
7.82124e-06
-5.53011e-06
-2.02881e-05
1.23104e-05
4.02207e-06
-7.97742e-06
1.39175e-05
1.39102e-05
5.94032e-06
1.4487e-05
2.31401e-05
2.04272e-05
1.57974e-05
3.08117e-05
3.62242e-05
1.80962e-05
3.70753e-05
5.43202e-05
9.55191e-23
-3.01788e-21
1.3352e-22
-1.91533e-21
5.93295e-23
-3.83643e-22
3.65088e-23
-1.41451e-22
2.21722e-23
-3.77134e-23
1.59691e-23
2.75267e-25
1.18905e-23
1.01123e-24
7.53055e-24
1.15704e-24
3.79472e-24
9.00906e-25
1.47328e-24
5.52083e-25
4.14282e-25
2.76267e-25
5.39416e-26
1.22151e-25
-1.00502e-26
4.80417e-26
-9.94748e-27
1.77659e-26
-5.45381e-27
6.09238e-27
-2.40901e-27
1.94165e-27
-9.52418e-28
5.77729e-28
-3.63977e-28
1.63836e-28
-1.411e-28
4.63816e-29
-5.42257e-29
1.35567e-29
-2.07439e-29
3.96464e-30
-7.74984e-30
1.15301e-30
-2.9397e-30
3.17015e-31
-1.16192e-30
8.02286e-32
-4.76289e-31
1.63844e-32
-1.96504e-31
6.71504e-34
-7.83922e-32
-1.30918e-31
-3.0248e-32
-1.0745e-31
-1.12528e-32
-6.32949e-32
-4.02087e-33
-3.24492e-32
-1.36944e-33
-1.52686e-32
-4.43765e-34
-6.70962e-33
-1.35923e-34
-2.7899e-33
-3.90243e-35
-1.10078e-33
-1.01738e-35
-4.10905e-34
-2.39185e-36
-1.41439e-34
-6.3355e-37
-4.54855e-35
-2.63886e-37
-1.82214e-35
-9.51029e-40
-1.34134e-35
-8.92397e-38
1.93529e-21
-1.03037e-19
2.62844e-21
-6.36865e-20
9.68751e-22
-1.0595e-20
6.7188e-22
-3.39328e-21
4.98134e-22
-1.00143e-21
3.96298e-22
1.40885e-23
2.95916e-22
6.54142e-23
1.76657e-22
7.7659e-23
7.82058e-23
6.07113e-23
2.3434e-23
3.66358e-23
2.10731e-24
1.85522e-23
-1.266e-24
8.31794e-24
-1.14983e-24
3.43893e-24
-6.66187e-25
1.31805e-24
-3.17839e-25
4.70746e-25
-1.34794e-25
1.5737e-25
-5.35022e-26
4.96453e-26
-2.09059e-26
1.5099e-26
-8.12418e-27
4.57667e-27
-3.14451e-27
1.37906e-27
-1.22488e-27
4.08826e-28
-4.73208e-28
1.18119e-28
-1.83359e-28
3.17285e-29
-7.09731e-29
7.38735e-30
-2.76588e-29
1.08156e-30
-1.07213e-29
-7.01521e-30
-4.12879e-30
-9.98411e-30
-1.56956e-30
-6.80889e-30
-5.83237e-31
-3.82759e-30
-2.10393e-31
-1.94857e-30
-7.32264e-32
-9.28611e-31
-2.44906e-32
-4.20082e-31
-7.82263e-33
-1.81907e-31
-2.35287e-33
-7.54638e-32
-6.44069e-34
-2.96769e-32
-1.59186e-34
-1.07607e-32
-4.4703e-35
-3.64644e-33
-1.94645e-35
-1.55488e-33
-7.25954e-38
-1.19648e-33
-8.30934e-36
4.55892e-20
-2.30607e-18
5.99423e-20
-1.37071e-18
1.81751e-20
-1.98038e-19
1.04236e-20
-4.68132e-20
7.79575e-21
-1.29134e-20
6.60038e-21
2.69657e-22
5.25655e-21
1.51384e-21
3.3579e-21
1.8772e-21
1.60231e-21
1.51186e-21
5.57602e-22
9.23501e-22
1.14849e-22
4.76173e-22
-8.36425e-24
2.18855e-22
-1.59586e-23
9.30295e-23
-1.09506e-23
3.68198e-23
-5.74024e-24
1.35802e-23
-2.60865e-24
4.68611e-24
-1.09871e-24
1.52648e-24
-4.53214e-25
4.80536e-25
-1.84286e-25
1.50986e-25
-7.45482e-26
4.69135e-26
-3.01867e-26
1.43214e-26
-1.21425e-26
4.22886e-27
-4.87083e-27
1.15382e-27
-1.94154e-27
2.6645e-28
-7.73543e-28
3.40207e-29
-3.05829e-28
-2.49265e-28
-1.20574e-28
-2.96537e-28
-4.71523e-29
-1.99718e-28
-1.81157e-29
-1.13849e-28
-6.79498e-30
-5.95382e-29
-2.47629e-30
-2.94362e-29
-8.73182e-31
-1.39459e-29
-2.95641e-31
-6.37352e-30
-9.42565e-32
-2.8024e-30
-2.73482e-32
-1.16536e-30
-7.1474e-33
-4.46352e-31
-2.13171e-33
-1.59668e-31
-9.65518e-34
-7.24596e-32
-3.80048e-36
-5.79881e-32
-4.22921e-34
8.57095e-19
-3.92889e-17
1.05995e-18
-2.65758e-17
2.72566e-19
-3.06658e-18
1.11424e-19
-4.99428e-19
7.61645e-20
-1.05489e-19
6.78989e-20
4.19984e-21
5.74498e-20
2.06804e-20
3.83762e-20
2.64309e-20
1.89158e-20
2.15237e-20
6.8875e-21
1.32851e-20
1.61258e-21
6.99579e-21
-4.60875e-23
3.3238e-21
-1.8366e-22
1.46837e-21
-1.38887e-22
6.05436e-22
-7.72301e-23
2.32289e-22
-3.68163e-23
8.32502e-23
-1.62009e-23
2.81559e-23
-6.95308e-24
9.20717e-24
-2.92758e-24
2.99907e-24
-1.22408e-24
9.62287e-25
-5.09896e-25
3.02765e-25
-2.10663e-25
9.16685e-26
-8.65269e-26
2.55701e-26
-3.53119e-26
5.98325e-27
-1.44029e-26
7.41708e-28
-5.83822e-27
-4.7677e-27
-2.36805e-27
-5.54868e-27
-9.57387e-28
-3.80613e-27
-3.82631e-28
-2.23418e-27
-1.50204e-28
-1.21416e-27
-5.7752e-29
-6.2832e-28
-2.16219e-29
-3.14102e-28
-7.79445e-30
-1.52295e-28
-2.63921e-30
-7.10783e-29
-8.11149e-31
-3.12176e-29
-2.24293e-31
-1.26024e-29
-7.11678e-32
-4.75735e-30
-3.34589e-32
-2.30105e-30
-1.38314e-34
-1.91102e-30
-1.46432e-32
1.20557e-17
-4.49438e-16
1.69167e-17
-5.63512e-16
3.50211e-18
-4.61052e-17
9.84948e-19
-5.68837e-18
5.35623e-19
-6.64731e-19
4.93291e-19
4.97107e-20
4.36391e-19
1.99324e-19
2.99165e-19
2.55286e-19
1.48426e-19
2.07825e-19
5.41501e-20
1.29608e-19
1.26577e-20
7.0015e-20
-5.87411e-22
3.47847e-20
-1.83766e-21
1.6188e-20
-1.41992e-21
7.00572e-21
-8.13852e-22
2.80544e-21
-4.01343e-22
1.04592e-21
-1.82967e-22
3.67708e-22
-8.11533e-23
1.2495e-22
-3.51971e-23
4.21323e-23
-1.51219e-23
1.39324e-23
-6.4504e-24
4.50161e-24
-2.72735e-24
1.39331e-24
-1.14461e-24
3.9633e-25
-4.77409e-25
9.39357e-26
-1.99169e-25
1.13394e-26
-8.27838e-26
-6.60913e-26
-3.45578e-26
-7.64841e-26
-1.44529e-26
-5.37782e-26
-6.01802e-27
-3.26712e-26
-2.48051e-27
-1.85446e-26
-1.00749e-27
-1.01008e-26
-4.00635e-28
-5.34002e-27
-1.53434e-28
-2.74772e-27
-5.49314e-29
-1.35756e-27
-1.7806e-29
-6.2678e-28
-5.19671e-30
-2.65751e-28
-1.75551e-30
-1.05774e-28
-8.5526e-31
-5.46354e-29
-3.70698e-33
-4.69856e-29
-3.7896e-31
1.06239e-16
-9.81391e-16
2.99008e-16
-1.11853e-15
4.52026e-17
1.51178e-16
9.82978e-18
-8.19577e-17
3.22048e-18
-4.22976e-18
2.81255e-18
4.34203e-19
2.53815e-18
1.45001e-18
1.75379e-18
1.81742e-18
8.65997e-19
1.46307e-18
3.16261e-19
9.23684e-19
7.29013e-20
5.18728e-19
-6.31829e-21
2.74241e-19
-1.50222e-20
1.36362e-19
-1.16981e-20
6.21757e-20
-6.848e-21
2.58917e-20
-3.46801e-21
9.98233e-21
-1.62895e-21
3.62926e-21
-7.43215e-22
1.27591e-21
-3.30931e-22
4.43593e-22
-1.45685e-22
1.50745e-22
-6.3551e-23
4.9892e-23
-2.75025e-23
1.57677e-23
-1.18161e-23
4.57222e-24
-5.05438e-24
1.09813e-24
-2.16522e-24
1.27216e-25
-9.2622e-25
-7.21491e-25
-3.99323e-25
-8.30749e-25
-1.73417e-25
-6.01111e-25
-7.55546e-26
-3.79793e-25
-3.27966e-26
-2.26359e-25
-1.40929e-26
-1.30143e-25
-5.94744e-27
-7.27694e-26
-2.4109e-27
-3.96546e-26
-9.07243e-28
-2.06493e-26
-3.0882e-28
-9.96283e-27
-9.49795e-29
-4.42228e-27
-3.42153e-29
-1.8558e-27
-1.72351e-29
-1.02616e-27
-7.8418e-32
-9.11085e-28
-7.7667e-30
3.50782e-15
-5.32193e-15
1.51052e-14
-1.79402e-14
2.5036e-16
1.47698e-14
1.28476e-16
1.38964e-17
2.13784e-17
-3.9366e-17
1.31772e-17
3.03404e-18
1.15477e-17
8.12078e-18
7.92324e-18
9.74864e-18
3.86487e-18
7.75682e-18
1.42477e-18
5.01114e-18
3.23483e-19
2.99926e-18
-5.42386e-20
1.73212e-18
-1.03846e-19
9.34e-19
-8.00974e-20
4.47423e-19
-4.71156e-20
1.91133e-19
-2.4213e-20
7.51325e-20
-1.16217e-20
2.79393e-20
-5.42537e-21
1.00855e-20
-2.47401e-21
3.59821e-21
-1.11548e-21
1.25383e-21
-4.98671e-22
4.25023e-22
-2.2169e-22
1.37393e-22
-9.80775e-23
4.07418e-23
-4.32809e-23
9.93331e-24
-1.91584e-23
1.08598e-24
-8.48598e-24
-6.43905e-24
-3.79924e-24
-7.40297e-24
-1.72313e-24
-5.53643e-24
-7.89692e-25
-3.65793e-24
-3.62219e-25
-2.29967e-24
-1.64719e-25
-1.39729e-24
-7.36227e-26
-8.24335e-25
-3.14521e-26
-4.73963e-25
-1.23672e-26
-2.58825e-25
-4.4067e-27
-1.29731e-25
-1.42808e-27
-6.01576e-26
-5.49885e-28
-2.66493e-26
-2.85537e-28
-1.58133e-26
-1.36944e-30
-1.44369e-26
-1.30931e-28
1.32721e-13
-1.56235e-13
3.97715e-13
-5.37818e-13
1.78507e-14
-6.48742e-13
1.07801e-16
1.00546e-14
2.27151e-16
2.6975e-16
5.69937e-17
2.07694e-17
4.1012e-17
3.52766e-17
2.71632e-17
3.96205e-17
1.31154e-17
3.12352e-17
5.00671e-18
2.13342e-17
1.10482e-18
1.41901e-17
-3.9587e-19
9.21975e-18
-6.25135e-19
5.43834e-18
-4.6354e-19
2.7041e-18
-2.67557e-19
1.15577e-18
-1.37339e-19
4.53358e-19
-6.67587e-20
1.69985e-19
-3.17659e-20
6.24955e-20
-1.48446e-20
2.28036e-20
-6.88139e-21
8.15531e-21
-3.17176e-21
2.84147e-21
-1.45988e-21
9.44987e-22
-6.70378e-22
2.88321e-22
-3.07849e-22
7.17481e-23
-1.41875e-22
7.18138e-24
-6.54953e-23
-4.84724e-23
-3.06247e-23
-5.58057e-23
-1.45916e-23
-4.32866e-23
-7.07527e-24
-3.00424e-23
-3.43385e-24
-1.99997e-23
-1.64898e-24
-1.28192e-23
-7.77959e-25
-7.9392e-24
-3.48608e-25
-4.79407e-24
-1.4243e-25
-2.73232e-24
-5.30178e-26
-1.4152e-24
-1.81315e-26
-6.85022e-25
-7.48218e-27
-3.21136e-25
-3.98892e-27
-2.04891e-25
-2.03019e-29
-1.91382e-25
-1.86287e-27
2.22297e-12
-3.11422e-12
1.90017e-11
-6.51343e-10
4.74451e-14
-4.85727e-12
1.13335e-14
-3.07601e-15
1.02389e-15
9.39298e-15
1.8696e-16
9.60067e-16
1.0768e-16
1.1797e-16
6.7444e-17
1.17728e-16
3.32694e-17
9.51866e-17
1.37507e-17
7.27881e-17
2.72989e-18
5.66475e-17
-2.48598e-18
4.23687e-17
-3.27528e-18
2.72996e-17
-2.24582e-18
1.3812e-17
-1.239e-18
5.70089e-18
-6.27046e-19
2.1791e-18
-3.07442e-19
8.14275e-19
-1.49471e-19
3.03958e-19
-7.20781e-20
1.13745e-19
-3.46872e-20
4.20481e-20
-1.6668e-20
1.51983e-20
-8.02637e-21
5.25187e-21
-3.86672e-21
1.66435e-21
-1.86369e-21
4.25056e-22
-9.00876e-22
3.68603e-23
-4.35881e-22
-3.15669e-22
-2.13947e-22
-3.64302e-22
-1.07656e-22
-2.93744e-22
-5.54399e-23
-2.14856e-22
-2.84419e-23
-1.51606e-22
-1.43556e-23
-1.0205e-22
-7.11858e-24
-6.58923e-23
-3.33097e-24
-4.15929e-23
-1.40689e-24
-2.46429e-23
-5.47082e-25
-1.31298e-23
-1.97952e-25
-6.64002e-24
-8.7696e-26
-3.30572e-24
-4.77628e-26
-2.26962e-24
-2.6039e-28
-2.15644e-24
-2.2774e-26
1.18706e-09
-8.05672e-09
-2.25855e-12
-1.86815e-09
2.24566e-12
-2.33175e-11
3.2906e-12
-2.72542e-12
1.68215e-13
1.01926e-12
5.35929e-15
1.18935e-13
2.43842e-16
5.25416e-15
1.284e-16
2.80176e-16
6.29509e-17
2.21957e-16
2.66205e-17
1.84377e-16
2.61681e-18
1.50866e-16
-1.27231e-17
1.3045e-16
-1.45131e-17
1.12701e-16
-8.72887e-18
5.83532e-17
-4.51223e-18
2.21048e-17
-2.25261e-18
8.08398e-18
-1.12568e-18
3.01507e-18
-5.67702e-19
1.1554e-18
-2.87247e-19
4.50351e-19
-1.45804e-19
1.74939e-19
-7.4106e-20
6.66249e-20
-3.78152e-20
2.42453e-20
-1.92869e-20
8.0569e-21
-9.82981e-21
2.11974e-21
-5.00687e-21
1.39921e-22
-2.54834e-21
-1.81115e-21
-1.31743e-21
-2.09385e-21
-7.03295e-22
-1.75521e-21
-3.85203e-22
-1.35602e-21
-2.08033e-22
-1.01217e-21
-1.09652e-22
-7.10616e-22
-5.69059e-23
-4.74828e-22
-2.77075e-23
-3.12066e-22
-1.2052e-23
-1.91678e-22
-4.89988e-24
-1.04717e-22
-1.88268e-24
-5.54528e-23
-8.96132e-25
-2.94426e-23
-4.95785e-25
-2.17393e-23
-2.92897e-27
-2.08807e-23
-2.4229e-25
2.72442e-05
3.80931e-05
5.30998e-05
2.84646e-05
3.5461e-05
3.55226e-05
4.65699e-05
4.19909e-05
3.8762e-05
3.28945e-05
3.91199e-05
4.6212e-05
3.99892e-05
3.103e-05
3.35813e-05
4.55278e-05
4.06497e-05
2.99065e-05
3.05359e-05
4.36951e-05
4.11324e-05
2.93678e-05
2.93819e-05
4.22864e-05
4.15678e-05
2.93201e-05
2.94191e-05
4.15307e-05
4.22352e-05
2.9684e-05
3.01576e-05
4.14968e-05
4.32368e-05
3.00606e-05
3.11006e-05
4.22938e-05
4.40457e-05
3.16625e-05
4.34838e-05
3.18388e-05
4.4347e-05
3.26143e-05
4.53601e-05
3.393e-05
4.81385e-05
2.64618e-05
5.06452e-05
6.70352e-07
2.85533e-05
2.53186e-08
7.68183e-07
-2.99287e-09
4.27965e-08
3.51235e-10
8.16587e-09
-2.5649e-12
1.30281e-09
1.63121e-13
1.71116e-11
-8.23148e-16
3.01397e-13
-5.96708e-15
4.32952e-14
-4.63433e-16
1.4077e-14
3.63399e-18
6.27788e-16
1.31732e-17
-1.41043e-17
1.02112e-17
-3.99794e-17
7.75661e-19
-2.64707e-17
-6.37388e-18
-1.84399e-18
-5.38576e-18
1.46395e-17
-4.77318e-18
1.23278e-17
-4.54956e-18
1.11117e-17
-4.67964e-18
1.0885e-17
1.15343e-17
-2.30647e-08
2.84438e-05
-2.04434e-08
2.56072e-09
1.47447e-08
-3.85256e-08
6.10111e-09
4.53437e-09
3.08109e-05
3.99791e-05
3.31479e-06
2.40258e-05
-1.34977e-07
2.09709e-06
-1.53168e-07
-5.95167e-09
5.00524e-05
3.61394e-05
4.53427e-05
2.8733e-05
2.34807e-05
1.77187e-05
4.89177e-06
1.08234e-06
5.05099e-05
3.11574e-05
5.27315e-05
2.65113e-05
5.23303e-05
1.81174e-05
8.90055e-06
3.76237e-05
4.66858e-05
2.81666e-05
4.80172e-05
2.518e-05
4.92203e-05
1.69142e-05
5.96021e-06
3.54048e-05
4.33332e-05
2.71198e-05
4.30049e-05
2.55083e-05
4.22008e-05
1.77183e-05
3.39274e-06
1.29045e-05
4.12734e-05
2.7377e-05
3.96914e-05
2.70903e-05
3.4672e-05
2.27377e-05
7.01802e-06
4.59436e-06
4.03895e-05
2.84843e-05
3.83987e-05
2.9081e-05
3.17413e-05
2.93952e-05
1.96682e-05
7.63022e-06
4.08225e-05
2.99556e-05
3.89724e-05
3.09311e-05
3.46706e-05
3.3697e-05
3.41494e-05
2.01896e-05
4.22736e-05
3.11658e-05
4.07249e-05
3.24798e-05
3.89669e-05
3.5455e-05
3.98639e-05
3.32524e-05
4.38406e-05
3.16721e-05
4.29601e-05
3.33603e-05
4.25908e-05
3.58243e-05
4.02633e-05
4.21914e-05
4.50679e-05
3.19643e-05
4.48977e-05
3.35305e-05
4.51742e-05
3.55478e-05
3.86883e-05
4.67493e-05
4.71337e-05
3.29691e-05
4.67901e-05
3.38741e-05
4.71253e-05
3.52127e-05
3.7122e-05
4.86915e-05
5.08827e-05
3.27324e-05
5.01396e-05
3.46173e-05
4.9815e-05
3.55372e-05
3.64776e-05
5.04594e-05
4.57627e-05
9.0957e-06
5.28919e-05
2.74842e-05
5.38024e-05
3.46131e-05
3.63564e-05
5.39234e-05
7.82358e-06
1.24614e-07
3.01862e-05
6.49272e-07
4.82325e-05
7.87036e-06
2.70635e-05
5.60045e-05
1.68753e-07
-1.08459e-09
7.79091e-07
3.79278e-08
6.63775e-06
1.39117e-07
4.12786e-07
2.60994e-05
7.89852e-09
-6.75948e-10
4.49636e-08
9.12185e-10
1.75201e-07
8.39615e-09
3.62166e-08
5.48131e-07
7.1351e-10
5.11674e-12
1.59629e-09
3.02357e-11
9.56799e-09
2.61219e-10
1.3773e-09
4.40365e-08
2.00181e-11
7.11132e-14
4.64112e-11
7.81438e-13
3.17943e-10
7.79099e-12
8.66286e-11
1.60722e-09
3.50431e-13
-2.12489e-15
1.15778e-12
-5.87806e-16
8.90603e-12
9.2982e-14
8.21291e-13
1.02089e-10
5.95544e-15
-1.16251e-15
5.93109e-15
-9.61859e-17
9.87046e-14
-1.45112e-16
-3.32182e-11
3.41135e-11
1.251e-15
-2.32e-16
7.5442e-16
1.43146e-16
2.81326e-15
-3.05725e-15
-2.29976e-09
2.26655e-09
5.41031e-16
1.28175e-17
-5.48879e-16
2.27644e-17
2.12881e-13
-2.16499e-13
-2.11151e-09
3.65336e-08
-4.40813e-17
2.64355e-17
-6.07013e-17
3.83734e-17
5.83624e-12
-6.05281e-12
-9.73603e-12
1.45176e-08
-7.40727e-17
2.14864e-17
-8.48455e-17
3.12119e-17
1.04491e-11
3.1273e-17
1.80769e-17
7.12913e-13
-5.29012e-17
4.91111e-18
-6.38012e-17
8.33133e-18
-4.88643e-17
8.25725e-18
4.05828e-18
-2.2394e-17
-1.12836e-17
-8.81319e-18
-1.67237e-17
-1.18298e-17
-1.33554e-17
-1.35852e-17
-1.20782e-17
-4.94395e-18
2.00313e-17
-7.73163e-18
2.44118e-17
-1.1385e-17
2.45026e-17
-1.51898e-17
-1.7191e-17
1.77887e-17
1.80897e-17
-6.61334e-18
2.52181e-17
-9.58924e-18
3.13544e-17
-1.40999e-17
-2.02766e-17
3.257e-17
1.62382e-17
-6.08713e-18
2.32774e-17
-8.28252e-18
3.37741e-17
-1.08426e-17
-1.37296e-17
4.88028e-17
1.58085e-17
-6.0743e-18
2.20941e-17
-7.96648e-18
3.00282e-17
-9.89988e-18
-1.15409e-17
4.05148e-17
1.66451e-17
2.31178e-17
3.10053e-17
4.04119e-17
2.10889e-10
2.06905e-09
-3.34647e-11
1.07962e-09
1.16072e-10
-2.19264e-10
3.07421e-10
-2.4212e-10
1.65473e-11
1.66292e-10
2.42065e-13
1.01154e-11
2.36465e-15
2.41756e-13
3.03248e-16
2.23644e-15
8.04367e-17
3.9985e-16
2.30819e-17
2.29155e-16
-1.83314e-17
2.86165e-16
-6.00522e-17
1.04869e-15
-4.30615e-17
4.25113e-16
-2.5606e-17
1.59525e-16
-1.25175e-17
6.25561e-17
-6.3725e-18
2.212e-17
-3.36364e-18
8.52046e-18
-1.81523e-18
3.47591e-18
-9.87201e-19
1.45614e-18
-5.37973e-19
6.08726e-19
-2.92884e-19
2.48405e-19
-1.5971e-19
9.62303e-20
-8.67473e-20
3.37125e-20
-4.68746e-20
9.0966e-21
-2.51909e-20
2.96051e-22
-1.35065e-20
-9.39259e-21
-7.36595e-21
-1.08577e-20
-4.18235e-21
-9.44937e-21
-2.43377e-21
-7.71005e-21
-1.37497e-21
-6.06075e-21
-7.51635e-22
-4.40475e-21
-4.06838e-22
-3.02643e-21
-2.05675e-22
-2.06539e-21
-9.1855e-23
-1.31345e-21
-3.91521e-23
-7.3426e-22
-1.6045e-23
-4.08747e-22
-8.19998e-24
-2.32568e-22
-4.58093e-24
-1.84282e-22
-2.9718e-26
-1.77858e-22
-2.30062e-24
-4.49951e-09
-1.86798e-08
-2.07506e-11
-2.02773e-08
1.2542e-09
-1.90311e-09
7.89345e-09
-3.24476e-08
3.22563e-10
3.5328e-09
2.74072e-12
1.5869e-10
4.89231e-14
2.7918e-12
-2.26502e-15
4.94112e-14
2.79321e-16
2.31387e-15
6.4135e-16
1.73509e-14
-1.91257e-16
2.9412e-14
-7.90158e-17
1.80981e-15
-6.90968e-17
4.55103e-16
-4.56425e-17
2.34692e-16
-2.46226e-17
1.06995e-16
-1.41639e-17
4.27212e-17
-8.4099e-18
1.88451e-17
-5.04112e-18
8.7216e-18
-3.00768e-18
4.07693e-18
-1.7791e-18
1.87157e-18
-1.04324e-18
8.26374e-19
-6.09045e-19
3.4182e-19
-3.52155e-19
1.25909e-19
-2.01454e-19
3.434e-20
-1.14069e-19
-2.72543e-21
-6.44346e-20
-4.37368e-20
-3.70876e-20
-5.05011e-20
-2.24222e-20
-4.55282e-20
-1.38129e-20
-3.91378e-20
-8.10783e-21
-3.21876e-20
-4.57031e-21
-2.40549e-20
-2.57474e-21
-1.69243e-20
-1.35034e-21
-1.19748e-20
-6.18277e-22
-7.88104e-21
-2.7748e-22
-4.50555e-21
-1.21887e-22
-2.65048e-21
-6.67313e-23
-1.62368e-21
-3.74309e-23
-1.37533e-21
-2.70913e-25
-1.32711e-21
-1.9468e-23
-5.92998e-08
-1.40909e-06
-1.26871e-09
-3.48915e-07
1.78431e-08
-5.52756e-08
8.12324e-08
-4.49398e-07
5.11078e-10
1.30136e-08
1.44262e-11
6.3428e-10
6.94363e-13
1.61297e-11
6.53375e-15
7.29132e-13
-1.33179e-17
1.0259e-14
1.72438e-17
4.65865e-14
-7.4195e-16
4.39975e-14
-8.6735e-17
2.66057e-15
-8.66577e-17
4.10868e-16
-6.4063e-17
2.68132e-16
-4.22688e-17
1.4273e-16
-2.88047e-17
7.12764e-17
-1.95346e-17
3.77613e-17
-1.30298e-17
2.01453e-17
-8.4943e-18
1.05266e-17
-5.42353e-18
5.28261e-18
-3.40654e-18
2.50578e-18
-2.117e-18
1.09671e-18
-1.29684e-18
4.19652e-19
-7.82324e-19
1.12642e-19
-4.65697e-19
-4.12199e-20
-2.77195e-19
-1.82212e-19
-1.6827e-19
-2.10344e-19
-1.08211e-19
-1.95781e-19
-7.01821e-20
-1.76354e-19
-4.25519e-20
-1.50625e-19
-2.46506e-20
-1.15249e-19
-1.44405e-20
-8.29644e-20
-7.8585e-21
-6.08121e-20
-3.68889e-21
-4.14201e-20
-1.75304e-21
-2.42453e-20
-8.29322e-22
-1.51696e-20
-4.84563e-22
-1.00469e-20
-2.71727e-22
-9.04976e-21
-2.23589e-24
-8.71996e-21
-1.49059e-22
2.84387e-07
1.64238e-06
-1.27429e-07
-3.12656e-07
-7.16609e-09
-4.07914e-07
-2.2966e-10
-4.24549e-07
-6.0721e-10
7.3666e-09
-7.50481e-12
4.95189e-11
5.7445e-13
7.64691e-11
2.25979e-13
3.81778e-11
1.97087e-16
2.32138e-13
-3.04784e-15
3.24175e-14
-2.47961e-16
4.84424e-14
-1.11397e-16
1.64818e-15
-1.12629e-16
4.44362e-16
-9.44409e-17
3.16537e-16
-7.4684e-17
1.98548e-16
-5.79777e-17
1.21505e-16
-4.35341e-17
7.43048e-17
-3.16254e-17
4.43317e-17
-2.21893e-17
2.53387e-17
-1.5135e-17
1.36846e-17
-1.01065e-17
6.88785e-18
-6.64507e-18
3.14856e-18
-4.29587e-18
1.23177e-18
-2.72724e-18
3.12443e-19
-1.70555e-18
-2.4748e-19
-1.07137e-18
-6.7492e-19
-6.84926e-19
-7.81541e-19
-4.66675e-19
-7.47736e-19
-3.16697e-19
-6.99205e-19
-1.97718e-19
-6.16019e-19
-1.17713e-19
-4.81857e-19
-7.17049e-20
-3.56073e-19
-4.0521e-20
-2.70188e-19
-1.9536e-20
-1.90403e-19
-9.90029e-21
-1.14524e-19
-5.06746e-21
-7.67691e-20
-3.14356e-21
-5.51446e-20
-1.76166e-21
-5.25372e-20
-1.69694e-23
-5.12855e-20
-1.10788e-21
1.08412e-06
2.6035e-07
-1.28009e-07
3.04818e-07
-1.25515e-07
-3.21364e-07
-7.31567e-09
-4.35054e-07
-2.47612e-11
7.81634e-11
-1.56102e-12
2.32677e-11
1.78229e-12
8.56459e-11
-3.14105e-12
8.6966e-11
-3.58455e-14
2.29803e-11
-5.02326e-15
1.5134e-15
-3.83734e-16
1.11743e-14
-1.52026e-16
1.05692e-15
-1.5122e-16
5.15753e-16
-1.41776e-16
3.95369e-16
-1.26646e-16
2.83452e-16
-1.07802e-16
1.97444e-16
-8.77599e-17
1.34038e-16
-6.87188e-17
8.79633e-17
-5.16157e-17
5.4373e-17
-3.75114e-17
3.13765e-17
-2.66128e-17
1.66779e-17
-1.85135e-17
7.87886e-18
-1.26648e-17
3.10532e-18
-8.49545e-18
6.96206e-19
-5.56322e-18
-1.08947e-18
-3.70037e-18
-2.20628e-18
-2.48509e-18
-2.58255e-18
-1.78016e-18
-2.52251e-18
-1.25749e-18
-2.41574e-18
-8.08168e-19
-2.18563e-18
-4.96708e-19
-1.74793e-18
-3.14717e-19
-1.33659e-18
-1.84793e-19
-1.04824e-18
-9.19265e-20
-7.63314e-19
-5.00719e-20
-4.75086e-19
-2.78192e-20
-3.43796e-19
-1.8232e-20
-2.68295e-19
-1.03739e-20
-2.70446e-19
-1.27213e-22
-2.90565e-19
-1.06605e-20
-9.51263e-08
6.53803e-08
-8.18613e-09
9.53391e-08
-4.08905e-08
-7.43924e-10
-1.79438e-10
-7.41603e-08
-5.07221e-12
-9.89191e-11
8.26918e-13
1.49381e-11
-2.06027e-11
1.12312e-10
-8.10172e-12
7.97016e-11
-2.02609e-15
1.77739e-11
-6.43366e-16
9.7012e-17
-2.38428e-16
1.19558e-15
-1.96054e-16
8.66207e-16
-2.01041e-16
5.79948e-16
-1.98657e-16
4.73692e-16
-1.89022e-16
3.72308e-16
-1.73221e-16
2.84339e-16
-1.52039e-16
2.10229e-16
-1.28115e-16
1.50031e-16
-1.03101e-16
9.96211e-17
-8.00727e-17
6.14909e-17
-6.09356e-17
3.46616e-17
-4.54149e-17
1.67626e-17
-3.32727e-17
6.55049e-18
-2.37943e-17
1.11747e-18
-1.60313e-17
-3.94762e-18
-1.13709e-17
-6.31881e-18
-7.98299e-18
-7.61146e-18
-5.94041e-18
-7.47079e-18
-4.35614e-18
-7.21474e-18
-2.88702e-18
-6.69897e-18
-1.84916e-18
-5.47017e-18
-1.21835e-18
-4.38494e-18
-7.43324e-19
-3.5413e-18
-3.84558e-19
-2.65873e-18
-2.27027e-19
-1.73223e-18
-1.37182e-19
-1.36238e-18
-9.50691e-20
-1.15692e-18
-5.97858e-20
-1.27912e-18
-1.25899e-21
-2.03343e-18
-1.94076e-19
-5.52755e-08
1.82073e-07
-4.05658e-09
7.79644e-08
1.75631e-09
5.16175e-09
-9.1659e-10
-6.34562e-09
-7.47358e-10
-1.04079e-08
-2.17137e-11
1.65068e-09
-4.59153e-11
8.52372e-11
-1.02479e-11
3.41636e-11
-3.68042e-16
2.66461e-13
-2.98754e-16
1.87303e-17
-2.18756e-16
9.44439e-16
-2.19462e-16
7.90061e-16
-2.21433e-16
6.14733e-16
-2.4149e-16
5.51911e-16
-2.54854e-16
4.61927e-16
-2.44634e-16
3.53042e-16
-2.25564e-16
2.8115e-16
-2.05087e-16
2.2405e-16
-1.75932e-16
1.59142e-16
-1.45581e-16
1.02859e-16
-1.21982e-16
6.15802e-17
-1.0077e-16
3.02028e-17
-7.91355e-17
1.14797e-17
-6.0256e-17
7.49423e-19
-4.04715e-17
-1.13781e-17
-3.11349e-17
-1.58284e-17
-2.25415e-17
-2.01944e-17
-1.71878e-17
-1.91811e-17
-1.31025e-17
-1.85258e-17
-8.95965e-18
-1.77389e-17
-6.0683e-18
-1.46991e-17
-4.14916e-18
-1.25645e-17
-2.62821e-18
-1.03739e-17
-1.43241e-18
-8.01615e-18
-9.23492e-19
-5.56357e-18
-6.08055e-19
-4.77632e-18
-4.62295e-19
-4.4713e-18
-4.33146e-19
-6.58613e-18
-2.41007e-20
-2.32828e-17
-5.09622e-18
-4.2259e-09
1.82477e-06
1.17943e-08
4.89316e-08
4.68351e-09
3.1325e-09
-7.61969e-09
3.01025e-09
-2.37746e-07
1.14118e-07
-2.09643e-11
9.2601e-08
-2.08926e-12
2.57777e-11
-1.88912e-13
3.21707e-11
-1.97308e-16
9.45937e-14
-1.86842e-16
8.33612e-18
-1.75815e-16
4.1575e-16
-3.56759e-17
4.28852e-16
-2.63821e-16
7.40883e-16
-2.74276e-16
4.7243e-16
-3.00705e-16
4.84439e-16
-2.84575e-16
4.04424e-16
-2.78603e-16
3.32293e-16
-2.68703e-16
2.93414e-16
-2.44777e-16
1.99676e-16
-2.30702e-16
1.39417e-16
-2.31962e-16
9.99407e-17
-2.20775e-16
5.27324e-17
-1.61312e-16
1.46721e-17
-1.27727e-16
-3.00966e-18
-8.91749e-17
-2.1743e-17
-7.63695e-17
-3.41789e-17
-5.51004e-17
-4.63327e-17
-4.27809e-17
-4.14174e-17
-3.41954e-17
-4.05288e-17
-2.4052e-17
-4.04553e-17
-1.75577e-17
-3.38343e-17
-1.23888e-17
-3.14025e-17
-8.14779e-18
-2.6166e-17
-4.7677e-18
-2.08825e-17
-3.37398e-18
-1.5813e-17
-2.45299e-18
-1.48533e-17
-2.48776e-18
-1.67639e-17
-5.23678e-18
-5.35545e-17
-6.81972e-19
-3.53935e-16
-1.32999e-16
2.70213e-07
1.79755e-05
8.34187e-09
3.0158e-07
2.04474e-09
6.41457e-09
-2.86204e-09
4.94233e-09
-5.76967e-09
1.14777e-07
-2.33461e-09
8.8397e-08
-2.33322e-08
2.09939e-08
-1.51261e-11
-2.32936e-08
1.62068e-16
-1.73054e-11
7.34288e-16
-8.89417e-16
5.66626e-15
-5.86187e-15
1.72649e-14
-2.4812e-14
8.18171e-16
-3.10186e-14
5.96963e-16
-1.30864e-15
-1.00939e-16
-7.24946e-16
-3.14455e-16
6.83842e-17
-3.36773e-16
3.16662e-16
-3.17328e-16
3.84044e-16
-3.18293e-16
2.32643e-16
-3.04159e-16
1.61246e-16
-3.21982e-16
1.2997e-16
-2.61193e-16
4.87914e-17
-2.18176e-16
1.19481e-18
-1.85875e-16
-6.42153e-18
-1.69807e-16
-4.52267e-17
-1.5992e-16
-4.87362e-17
-1.12293e-16
-7.40526e-17
-9.00515e-17
-7.48102e-17
-7.68311e-17
-7.31932e-17
-5.56388e-17
-7.66084e-17
-4.47647e-17
-6.66978e-17
-3.22646e-17
-6.81532e-17
-2.21616e-17
-5.61432e-17
-1.4285e-17
-4.71014e-17
-1.11297e-17
-4.00435e-17
-9.7688e-18
-4.205e-17
-2.15345e-17
-8.27171e-17
-8.59458e-17
-4.63265e-16
-1.96933e-17
-4.90348e-16
-3.28722e-16
9.52866e-06
4.61403e-05
-1.49229e-08
2.17018e-05
-9.29731e-08
7.51541e-08
-1.59007e-06
1.49897e-06
-6.48429e-06
1.53528e-05
-2.46814e-06
2.58642e-05
-1.02249e-06
7.30478e-06
-1.85073e-09
-5.41411e-07
7.94813e-16
-1.90737e-09
1.98619e-15
-2.54373e-16
9.06519e-15
-4.86463e-15
1.68231e-14
-1.55405e-14
1.64126e-14
-1.62027e-14
4.35268e-15
-6.82938e-14
1.0308e-14
-9.11248e-15
7.03564e-15
-5.60422e-15
-1.40263e-16
-5.17147e-15
-4.9525e-17
4.30567e-17
-3.99764e-17
3.20211e-17
-3.84777e-17
4.10706e-17
-4.66436e-17
2.15949e-17
-1.79073e-16
6.59018e-17
-2.70899e-16
2.26156e-16
-3.07291e-16
-6.89522e-17
-2.17751e-16
-2.73396e-16
-2.30283e-16
-7.30498e-17
-1.89821e-16
-1.63146e-16
-1.53769e-16
-2.02296e-16
-1.41628e-16
-9.62086e-17
-1.0977e-16
-1.09259e-16
-9.96167e-17
-1.10118e-16
-7.24023e-17
-1.2568e-16
-5.31353e-17
-1.0044e-16
-3.89407e-17
-9.24245e-17
-3.41422e-17
-9.10694e-17
-5.22709e-17
-1.26052e-16
-1.74283e-16
-4.06025e-16
-1.15804e-15
1.93767e-18
-3.33865e-16
-4.00637e-15
-2.41107e-15
3.74627e-05
5.08679e-05
1.8234e-05
5.45305e-05
2.77105e-06
3.90031e-05
3.42001e-06
3.34873e-05
1.25079e-05
4.8346e-05
1.2518e-05
5.0984e-05
2.91991e-07
4.10195e-05
-6.39193e-08
2.53234e-05
-7.74128e-08
1.06505e-08
-1.32559e-10
-7.72803e-08
-1.53328e-09
1.40073e-09
-2.06893e-08
1.91561e-08
2.92799e-14
-2.06894e-08
2.02524e-14
-2.07856e-14
7.41552e-15
-1.1334e-14
4.40999e-16
-6.99631e-17
-8.68136e-17
-7.4233e-16
-1.4848e-15
1.09044e-15
-2.66881e-14
1.40046e-14
-7.60431e-13
1.56426e-13
-3.2861e-12
2.30076e-12
-2.04735e-13
1.39924e-13
-5.91536e-15
-1.92992e-13
-2.39553e-15
-1.95168e-15
-3.00057e-16
-2.61662e-15
-4.72693e-16
-5.27521e-16
-4.97026e-16
-2.55979e-16
-1.90703e-16
-6.22239e-16
-1.93925e-16
-4.24796e-16
-1.79143e-16
-2.35252e-16
-1.86867e-16
-1.28707e-16
-1.36189e-16
-1.75695e-16
-1.12517e-16
-1.46136e-16
-9.74198e-17
-1.5693e-16
-1.13558e-16
-1.91526e-16
-2.96281e-16
-5.90737e-16
-5.01775e-16
-3.64413e-16
-2.50151e-14
1.76354e-14
-1.30891e-14
-6.92955e-14
-5.52991e-14
4.95731e-05
4.80437e-05
5.16525e-05
5.24514e-05
4.72036e-05
5.63273e-05
4.82112e-05
5.9341e-05
5.63105e-05
5.75888e-05
5.71056e-05
5.03335e-05
5.21199e-05
4.6054e-05
3.5077e-05
4.50224e-05
3.25694e-07
3.95675e-05
-5.01534e-06
1.94162e-05
-4.31633e-06
1.52635e-05
-3.82907e-06
1.54091e-05
-1.81861e-08
1.0298e-05
-1.21448e-07
1.03262e-07
-1.10473e-07
-5.2712e-08
7.80872e-13
-1.10474e-07
-2.93324e-15
-2.85338e-13
-7.45419e-14
7.26997e-14
-1.63399e-12
1.53138e-12
-2.18441e-12
-9.36377e-12
-1.51129e-11
2.93812e-11
-2.31743e-12
8.86833e-12
-3.61847e-12
-6.52605e-12
-2.62472e-13
1.46335e-12
-1.14925e-14
-2.63582e-13
-9.73025e-15
-1.74505e-15
-1.62751e-14
8.90853e-15
-1.21812e-15
-1.53203e-14
-4.22851e-16
-9.87407e-16
-2.14602e-16
-6.89828e-16
-2.64303e-16
-1.54429e-16
-2.07901e-16
-3.86541e-16
-2.07933e-16
-1.7673e-16
-2.29547e-16
-2.21525e-16
-6.04176e-16
-4.47811e-16
-2.34934e-16
-4.58816e-16
-8.04925e-15
4.07361e-17
-4.48793e-13
3.43357e-13
-4.32868e-13
-1.08784e-12
-1.49398e-12
5.23016e-05
4.44336e-05
5.69867e-05
4.7766e-05
6.22051e-05
5.11373e-05
6.81636e-05
5.34506e-05
7.33309e-05
5.24704e-05
7.53291e-05
4.83483e-05
7.60295e-05
4.53575e-05
7.4945e-05
4.61106e-05
6.48115e-05
4.97014e-05
3.99612e-05
5.06815e-05
2.64325e-05
5.04237e-05
2.12902e-05
4.79796e-05
1.26618e-05
4.34137e-05
3.84599e-07
3.82993e-05
-7.54218e-06
2.64221e-05
-3.29422e-09
8.85316e-06
-1.12183e-08
7.92377e-09
-1.10832e-07
9.9615e-08
-1.89833e-08
-9.18239e-08
-1.6865e-10
-1.82221e-08
-1.51515e-09
1.40229e-09
-2.07231e-11
4.71518e-09
-1.5325e-10
7.12708e-12
-4.18058e-11
6.36341e-11
-1.08549e-12
-4.15574e-11
-1.00223e-12
-3.63155e-15
-2.05333e-12
1.22482e-12
-9.99195e-14
-1.94811e-12
-2.44529e-14
-6.97243e-14
-6.63567e-16
-2.40422e-14
-6.27724e-16
-2.83379e-16
-2.73571e-16
-8.752e-16
-3.30874e-16
-1.90533e-16
-6.22836e-16
-2.57495e-16
-2.95949e-16
-3.87348e-16
-2.58325e-15
-3.78931e-15
-9.33414e-14
1.56716e-14
-6.98632e-12
5.53666e-12
-1.15327e-11
-1.28602e-11
-3.45048e-11
5.27008e-05
4.21921e-05
5.63906e-05
4.40761e-05
6.14718e-05
4.60579e-05
6.75271e-05
4.73996e-05
7.29291e-05
4.70721e-05
7.62577e-05
4.50207e-05
7.85601e-05
4.30553e-05
8.13554e-05
4.33156e-05
8.41619e-05
4.6895e-05
8.39238e-05
5.09246e-05
8.22571e-05
5.21346e-05
8.04262e-05
4.9862e-05
7.77528e-05
4.61288e-05
7.18972e-05
4.41941e-05
5.7639e-05
4.28576e-05
3.26676e-05
4.06269e-05
9.60851e-06
3.75877e-05
-2.54313e-06
3.06177e-05
-3.36994e-06
1.76867e-05
-3.13131e-08
4.83684e-06
-2.17967e-07
1.88089e-07
-5.86347e-11
9.26851e-08
-1.97949e-10
9.37692e-10
-1.70037e-09
2.04656e-09
-2.23775e-11
-1.65145e-09
-4.71862e-11
2.91484e-11
-1.72074e-10
1.19042e-10
-8.82202e-12
-1.55179e-10
-1.71579e-12
-1.89533e-11
-2.71646e-14
-1.68545e-12
-1.82872e-14
-8.6064e-15
-5.15634e-16
-1.83295e-14
-5.05683e-16
-3.71539e-16
-4.19099e-16
-4.77411e-16
-1.27137e-15
-1.40736e-15
-2.2865e-14
-2.33758e-14
-1.25993e-12
2.45281e-13
-9.56265e-11
7.94258e-11
-2.5029e-10
-8.42927e-11
-6.58471e-10
5.47129e-05
4.14025e-05
5.66698e-05
4.21193e-05
5.99147e-05
4.28135e-05
6.40936e-05
4.32212e-05
6.82745e-05
4.28916e-05
7.15112e-05
4.17842e-05
7.39785e-05
4.05881e-05
7.69169e-05
4.03772e-05
8.17011e-05
4.21108e-05
8.76145e-05
4.50118e-05
9.28791e-05
4.68722e-05
9.63818e-05
4.63601e-05
9.82018e-05
4.43114e-05
9.92011e-05
4.31976e-05
9.82922e-05
4.37694e-05
9.37451e-05
4.51785e-05
8.49555e-05
4.63924e-05
7.15505e-05
4.56287e-05
5.13856e-05
4.23771e-05
2.53383e-05
3.86922e-05
3.68848e-06
3.42301e-05
-3.37804e-06
1.9967e-05
-6.49967e-07
3.68818e-06
-3.78279e-08
-2.06141e-06
-3.60113e-10
-3.20631e-08
-3.14126e-09
3.11318e-09
-9.1638e-09
6.2145e-09
-4.8226e-10
-9.25668e-09
-1.18404e-10
-1.91911e-11
-2.46421e-12
-1.1662e-10
-2.43886e-12
-1.32822e-15
-1.99209e-14
-2.40008e-12
-3.29741e-15
-1.70682e-14
-3.943e-15
-9.54939e-16
-1.31316e-14
-1.04317e-14
-4.55948e-13