/*--------------------------------*- C++ -*----------------------------------*\
| =========                 |                                                 |
| \\      /  F ield         | OpenFOAM: The Open Source CFD Toolbox           |
|  \\    /   O peration     | Version:  3.0.1                                 |
|   \\  /    A nd           | Web:      www.OpenFOAM.org                      |
|    \\/     M anipulation  |                                                 |
\*---------------------------------------------------------------------------*/
FoamFile
{
    version     2.0;
    format      ascii;
    class       volScalarField;
    location    "8.9";
    object      alpha.water;
}
// * * * * * * * * * * * * * * * * * * * * * * * * * * * * * * * * * * * * * //

dimensions      [0 0 0 0 0 0 0];

internalField   nonuniform List<scalar> 
7968
(
1.00000287428
1.00000154456
1.00000129843
1.00000116436
1.00000110837
1.00000109718
1.00000110341
1.00000113163
1.00000117673
1.00000122951
1.00000130434
1.00000135293
1.00000137079
1.00000138537
1.00000140433
1.00000142486
1.00000151912
1.00000178068
1.00000236533
1.00000334448
1.00000150067
1.00000144507
1.00000119726
1.00000108526
1.00000128482
1.00000129686
1.00000118054
1.00000107285
1.00000105648
1.0000010844
1.00000114861
1.0000011873
1.00000126745
1.00000141886
1.00000161647
1.00000168997
1.00000151846
1.00000183004
1.00000230957
1.00000182515
1.00000189419
1.00000120555
1.00000105199
1.00000098742
1.00000107473
1.00000110593
1.0000010679
1.00000102653
1.00000102967
1.00000106127
1.00000111073
1.00000113717
1.00000119015
1.00000129714
1.00000146136
1.00000156045
1.00000151697
1.00000172136
1.00000210685
1.00000229065
1.000001344
1.00000097655
1.00000088856
1.00000084658
1.00000089047
1.00000093134
1.00000094022
1.00000094285
1.00000096098
1.00000099163
1.00000103471
1.00000104445
1.000001066
1.00000113578
1.00000127376
1.00000140413
1.00000149148
1.00000173082
1.00000208501
1.00000189603
1.00000076714
1.0000006887
1.0000006916
1.00000070244
1.00000074888
1.00000079894
1.00000083504
1.00000086069
1.00000088244
1.00000090183
1.00000092964
1.00000091915
1.00000091035
1.00000094668
1.00000106368
1.00000121822
1.0000013863
1.00000164666
1.00000192568
1.0000015183
1.00000036959
1.00000037345
1.00000045154
1.00000053678
1.00000062842
1.00000070513
1.00000076492
1.00000080843
1.0000008332
1.00000084029
1.00000084391
1.0000008094
1.00000077
1.00000077328
1.00000086979
1.00000105452
1.00000129765
1.00000159611
1.00000186221
1.0000012456
1.00000004643
1.00000008145
1.00000020214
1.00000035371
1.00000050539
1.00000062863
1.00000072662
1.0000007986
1.00000083653
1.00000084021
1.00000081866
1.00000075723
1.00000068683
1.00000065963
1.00000073439
1.00000092062
1.00000117677
1.00000144254
1.00000164347
1.00000108597
1.00000000032
1
1.00000005047
1.00000017967
1.0000003692
1.00000055252
1.00000070565
1.00000082062
1.00000088614
1.00000089981
1.00000085966
1.00000077085
1.00000067123
1.00000061649
1.00000066622
1.0000008351
1.00000105751
1.00000125585
1.00000137107
1.00000098834
0.999999999974
1.00000000041
1.0000000092
1.00000007315
1.00000025849
1.00000047423
1.00000067806
1.00000083887
1.00000093858
1.00000097165
1.00000092914
1.00000082203
1.00000069512
1.00000061203
1.00000064278
1.00000080365
1.00000100196
1.00000115894
1.00000122637
1.0000008925
1.00000000004
0.999999999848
1.00000000044
1.0000000317
1.00000016674
1.00000037917
1.00000061113
1.00000081419
1.00000095222
1.00000101266
1.00000098167
1.00000086958
1.00000072988
1.00000063302
1.00000065307
1.00000080203
1.00000099211
1.00000114624
1.0000011981
1.00000079647
0.999999999636
0.999999999643
1.00000000034
1.00000000153
1.00000008787
1.00000027785
1.00000048577
1.00000069109
1.00000086015
1.00000095263
1.00000094874
1.00000084539
1.00000070607
1.00000060035
1.00000060352
1.00000073788
1.00000092917
1.00000109002
1.00000114976
1.0000008028
0.999999999041
0.999999999641
1.00000000037
1.00000000013
1.00000002773
1.00000016871
1.00000035777
1.00000053741
1.00000069786
1.00000080723
1.00000082647
1.00000074327
1.00000061701
1.00000051489
1.00000051189
1.00000064636
1.00000085317
1.00000102734
1.00000110364
1.00000082341
1.00000000039
1.00000000008
1.00000000009
1.00000000043
1.00000000441
1.00000010635
1.00000024299
1.0000003895
1.00000051464
1.00000061572
1.00000065469
1.00000059875
1.00000050316
1.00000043062
1.00000044744
1.00000058025
1.00000079935
1.00000102642
1.00000115161
1.00000076719
1.00000000001
0.999999999928
1.00000000029
1.00000000016
1.00000000046
1.00000004256
1.0000001376
1.00000024661
1.00000034716
1.00000042854
1.00000047724
1.00000045318
1.00000039081
1.00000034423
1.00000037564
1.00000051647
1.00000075993
1.00000105482
1.00000126488
1.00000075219
1.00000000002
1.00000000005
1.00000000025
1.00000000019
1.0000000003
1.00000000018
1.00000006475
1.00000013523
1.00000021138
1.00000028233
1.00000033415
1.00000033751
1.00000031134
1.00000029375
1.00000033553
1.00000047537
1.00000072652
1.00000106549
1.00000136347
1.00000088427
1.00000000001
0.999999999993
1.00000000003
1.00000000035
1.00000000065
1.00000000016
1.00000001438
1.00000007066
1.00000012246
1.0000001854
1.00000024612
1.00000026952
1.00000027422
1.00000028347
1.00000033641
1.00000047277
1.00000071394
1.0000010563
1.00000139463
1.00000112059
0.999999999995
0.999999999915
0.999999999908
1.00000000044
1.00000000094
1
1
1.00000003431
1.00000008387
1.00000013494
1.00000020748
1.00000025164
1.00000028061
1.0000003166
1.0000003892
1.00000053595
1.00000077464
1.00000113748
1.00000152833
1.00000143735
1.00000013043
1
1.00000000008
1.00000000064
1
1
1
1.00000002541
1.00000007494
1.00000012858
1.00000020829
1.00000027039
1.00000032455
1.0000003902
1.00000049582
1.00000066468
1.00000086722
1.00000120037
1.0000016079
1.0000018367
1.00000009229
1.00000000012
1.00000000074
1
1
1
1
1.00000003296
1.00000008358
1.00000013942
1.00000022755
1.00000029593
1.00000037346
1.00000047779
1.00000064195
1.00000087572
1.00000103043
1.00000139858
1.00000195409
1.00000161804
1.00000147788
1.00000019674
1
1
1
1
1.00000001311
1.00000004468
1.00000008427
1.00000013181
1.00000020127
1.00000025721
1.0000003052
1.0000003474
1.00000041577
1.00000054727
1.00000075115
1.00000106441
1.00000150598
1.00000229204
1.00000192477
1.00000149737
1.000001333
1.00000120137
1.0000010652
1.00000093804
1.00000084995
1.00000086246
1.00000090577
1.00000089123
1.00000092131
1.00000097202
1.00000094948
1.00000096455
1.00000097863
1.00000102472
1.00000115188
1.00000138656
1.0000017303
1.00000186575
1.00000142985
1.00000133332
1.00000129541
1.00000120556
1.00000113921
1.00000107054
1.00000085453
1.0000005423
1.00000049022
1.00000047512
1.00000061457
1.00000055511
1.00000074961
1.00000095285
1.00000098734
1.00000100949
1.00000112835
1.0000013175
1.00000144872
1.00000107111
1.00000117573
1.00000120156
1.00000120527
1.0000011305
1.00000100799
1.0000009667
1.00000092578
1.00000081288
1.0000007811
1.00000078785
1.00000085959
1.00000086516
1.00000089547
1.00000093406
1.00000089983
1.00000091755
1.00000104563
1.00000121288
1.00000124241
1.00000069754
1.00000097834
1.00000102622
1.00000102932
1.00000093322
1.00000088486
1.00000088403
1.0000008804
1.0000008532
1.00000086216
1.00000089211
1.00000093709
1.00000093538
1.00000092133
1.00000089689
1.0000008433
1.00000084185
1.00000091833
1.00000102386
1.00000101923
1.0000004664
1.00000080306
1.00000087695
1.00000080844
1.0000007792
1.00000079093
1.00000080555
1.00000081028
1.00000081955
1.00000084596
1.0000008691
1.0000008803
1.00000086027
1.00000080492
1.00000077174
1.00000073904
1.00000075939
1.00000080203
1.00000085529
1.00000084914
1.00000032659
1.00000064128
1.00000069927
1.00000064288
1.00000067307
1.00000071907
1.0000007529
1.00000077024
1.00000076459
1.0000007943
1.00000081628
1.00000079178
1.00000075061
1.00000065603
1.0000006026
1.00000059136
1.00000064754
1.00000071182
1.000000749
1.0000007233
1.00000022781
1.00000042669
1.0000003841
1.00000045672
1.0000005637
1.00000066213
1.00000072374
1.00000075559
1.00000078127
1.00000081507
1.0000008234
1.00000077233
1.00000069359
1.00000056506
1.00000046736
1.00000044967
1.00000053704
1.00000062599
1.00000067185
1.00000061162
1.00000020801
1.00000023609
1.0000000381
1.00000027646
1.00000046041
1.00000061544
1.00000067845
1.00000077013
1.00000086052
1.000000908
1.00000090069
1.00000082873
1.0000007155
1.00000057006
1.00000044177
1.00000037747
1.00000041881
1.00000055511
1.00000058488
1.00000045614
1.00000019864
1.0000000001
1.00000000011
1.0000000953
1.00000032723
1.00000053907
1.00000069161
1.00000083317
1.00000094762
1.00000100232
1.00000099117
1.00000090908
1.00000077681
1.00000061982
1.00000045376
1.00000029982
1.00000024289
1.00000048578
1.0000005527
1.00000042876
1.00000021989
1.00000000002
1.00000000016
1.00000000404
1.00000016679
1.00000040101
1.00000062617
1.00000081815
1.00000095871
1.00000103142
1.00000103397
1.00000096159
1.00000082964
1.00000066906
1.0000004942
1.00000033011
1.00000029301
1.00000059398
1.00000067457
1.00000059988
1.00000027695
0.999999999825
1.00000000011
1.00000000033
1.00000005396
1.00000025374
1.00000047577
1.00000068462
1.00000085056
1.00000095284
1.00000098228
1.0000009322
1.00000081021
1.00000065106
1.00000047037
1.00000029553
1.00000025208
1.0000005292
1.00000063078
1.00000056121
1.0000002744
0.999999999606
1.00000000002
1.00000000046
1.00000001085
1.00000016546
1.00000035517
1.00000054273
1.00000069631
1.00000080496
1.00000085326
1.00000082355
1.00000071672
1.00000057115
1.00000041464
1.00000027111
1.00000020173
1.00000038983
1.00000048947
1.0000003821
1.00000022257
0.99999999863
0.999999998798
1.00000000046
1.00000000008
1.0000000883
1.00000024
1.00000039583
1.00000052652
1.00000062431
1.00000068024
1.00000067277
1.00000058491
1.00000045681
1.00000034943
1.00000030195
1.00000033472
1.00000045494
1.00000052001
1.00000042712
1.00000020722
0.999999999791
0.999999998885
0.999999999999
1.00000000078
1.00000002179
1.00000015043
1.00000027313
1.00000036833
1.00000045155
1.00000050376
1.00000051699
1.00000045382
1.00000034502
1.00000027983
1.00000026065
1.00000033722
1.00000046066
1.00000056814
1.00000055471
1.00000021866
1.00000000003
1.00000000008
1.00000000014
1.00000000033
1.00000000025
1.00000008158
1.00000016772
1.00000023365
1.00000031336
1.00000036226
1.00000038973
1.00000035597
1.00000027419
1.00000025281
1.00000026085
1.00000033639
1.00000046237
1.00000057343
1.00000060524
1.0000002529
1.00000000004
1.00000000015
0.999999999782
1.00000000042
1.00000000044
1.00000002982
1.00000010173
1.0000001619
1.00000022648
1.000000281
1.00000031396
1.00000031042
1.00000026977
1.00000027054
1.00000029038
1.00000037298
1.00000050075
1.00000062562
1.00000069115
1.00000036584
1.00000000001
1.00000000005
1.00000000017
1.00000000066
1.00000000015
1.00000001011
1.00000006887
1.00000011706
1.00000017565
1.00000023785
1.00000028811
1.00000030788
1.00000032247
1.00000033168
1.0000003641
1.0000004484
1.00000059095
1.00000076882
1.00000085141
1.00000051771
1.00000002376
1.00000000736
1.00000000411
1.00000000002
1.00000000016
1.00000002758
1.00000007307
1.00000011059
1.00000015608
1.00000021069
1.00000027518
1.00000028949
1.00000033916
1.00000040754
1.00000045958
1.00000055517
1.0000007349
1.00000096166
1.0000010817
1.00000075847
1.00000013891
1.00000009289
1.00000006503
1.00000005214
1.00000005957
1.00000007901
1.00000009247
1.00000010263
1.00000012716
1.00000014044
1.00000021113
1.00000012553
1.00000023908
1.00000043442
1.0000005341
1.00000064618
1.00000082423
1.00000105873
1.00000123955
1.00000095633
1.00000051724
1.00000023035
1.00000009563
1.00000006037
1.00000006461
1.00000007291
1.00000008519
1.00000011432
1.00000015349
1.00000018205
1.00000021269
1.00000022618
1.00000018509
1.00000024051
1.00000030725
1.00000044826
1.00000058695
1.00000075903
1.00000091226
1.00000056973
1.00000169422
1.00000126508
1.00000114236
1.00000094133
1.00000059854
1.00000024037
1.00000005932
1.0000000216
1.00000001549
1.00000000944
1.00000000897
1.00000000034
1.00000001478
1.00000028651
1.00000035528
1.00000049567
1.00000064185
1.00000079682
1.00000102085
1.00000098168
1.00000122229
1.00000129365
1.00000129312
1.00000112457
1.00000096483
1.00000054449
1.00000000092
1.00000000078
1.00000000132
1.00000000002
1.00000000016
1
1.00000000118
1.00000029908
1.00000042299
1.00000046162
1.00000062462
1.00000081793
1.00000086967
1.00000048726
1.00000106954
1.00000124626
1.00000126404
1.00000100649
1.00000059171
1.00000050723
1.0000003752
1.00000019544
1.00000013392
1.00000016337
1.0000001777
1.00000011675
1.00000012229
1.00000026456
1.00000019835
1.0000002066
1.00000036703
1.00000065582
1.00000074756
1.00000036142
1.00000090883
1.00000106816
1.00000099157
1.00000058695
1.00000053165
1.00000056089
1.00000058841
1.0000005421
1.00000052036
1.00000046012
1.00000043127
1.00000044012
1.00000029802
1.00000033957
1.00000019537
1.00000015873
1.00000018768
1.00000036407
1.00000057867
1.00000019184
1.00000076416
1.00000095776
1.00000057014
1.00000050072
1.00000057452
1.00000064192
1.00000064036
1.00000049318
1.00000042525
1.00000036536
1.00000037753
1.00000035088
1.00000034378
1.00000032926
1.00000021288
1.00000017895
1.00000019073
1.00000022601
1.00000042847
1.00000003933
1.00000062528
1.00000083716
1.00000045518
1.00000052209
1.00000067097
1.00000071475
1.00000065636
1.00000050328
1.00000051482
1.00000043728
1.0000004034
1.00000043851
1.00000034367
1.0000002818
1.00000015216
1.0000000867
1.00000020954
1.00000022655
1.00000034517
1.00000002919
1.00000035327
1.00000019017
1.00000024525
1.0000006137
1.00000075339
1.00000074932
1.00000071889
1.00000066642
1.00000068904
1.00000064022
1.00000056102
1.0000005016
1.00000036429
1.00000024039
1.00000004759
1.00000001668
1.0000002314
1.00000030408
1.00000027032
1.00000005677
1.00000033036
1.00000002284
1.0000000698
1.00000060505
1.00000067395
1.00000069195
1.00000079549
1.00000087221
1.00000088752
1.00000082249
1.00000070579
1.00000058004
1.00000042884
1.00000029194
1.00000016008
1.00000000981
1.00000007833
1.00000020937
1.00000002671
1.00000002245
1.00000027116
1.00000001921
1.00000006657
1.00000060635
1.0000007331
1.00000083602
1.00000096226
1.00000104187
1.00000102641
1.00000093254
1.00000079728
1.0000006533
1.00000050013
1.00000033525
1.00000014811
1.00000002492
1.00000008995
1.00000013897
1.00000001726
1.00000002036
1.00000008961
1.00000003916
1.00000006213
1.00000053943
1.00000066338
1.00000084164
1.0000010099
1.00000109044
1.00000106334
1.00000096421
1.00000083394
1.00000057895
1.00000054827
1.00000037515
1.00000016358
1.00000002565
1.00000011761
1.00000025136
1.00000035062
1.00000010964
1.00000003929
1.00000001567
1.00000004593
1.00000043689
1.00000052972
1.00000070151
1.00000090258
1.00000100632
1.00000099808
1.00000092123
1.00000080757
1.00000057937
1.00000053586
1.00000036324
1.00000015304
1.00000001346
1.00000007217
1.00000018442
1.00000029773
1.00000012958
1.00000002592
1.000000003
1.00000001853
1.00000030254
1.0000004743
1.00000063766
1.00000079077
1.00000087161
1.00000087836
1.00000082578
1.00000073065
1.00000060746
1.00000046837
1.00000031137
1.00000013393
1.00000002182
1.000000085
1.00000014418
1.00000002668
1.00000005517
1.00000000124
1.00000000013
1.0000000003
1.00000018473
1.00000034368
1.00000050044
1.00000063248
1.00000069669
1.0000007201
1.00000069256
1.00000061956
1.0000005063
1.00000036853
1.0000002517
1.0000001527
1.0000000158
1.00000013167
1.00000025046
1.0000000496
1.00000006036
1.00000000029
1.00000000016
1.00000000083
1.00000008697
1.00000027346
1.00000040685
1.00000050224
1.00000050891
1.00000054445
1.00000052608
1.00000048222
1.00000039969
1.00000026996
1.00000018115
1.00000002318
1.00000001052
1.00000023896
1.00000033136
1.00000031031
1.00000008522
1.00000004965
1.00000010889
1.00000000007
1.00000002066
1.00000017434
1.00000029618
1.00000037122
1.0000003335
1.00000038876
1.00000036114
1.00000034234
1.00000031837
1.00000021347
1.00000016405
1.00000004195
1.0000000909
1.00000021513
1.00000025079
1.0000003608
1.00000007659
1.000000084
1.00000014599
1.00000000044
1.00000001039
1.00000012039
1.00000021914
1.00000029559
1.00000029273
1.00000033838
1.0000003077
1.00000028099
1.00000029882
1.00000019882
1.00000019454
1.0000001549
1.00000017812
1.00000020428
1.00000026399
1.00000045046
1.00000018928
1.00000016064
1.0000002487
1.00000022313
1.0000001014
1.00000012118
1.00000019709
1.00000024926
1.0000002989
1.00000033579
1.00000033932
1.00000033993
1.00000030821
1.00000011306
1.00000022899
1.00000019467
1.00000018894
1.00000024398
1.00000047623
1.00000065005
1.0000003648
1.00000027502
1.00000037934
1.00000040846
1.00000034781
1.00000019711
1.0000002074
1.00000022802
1.00000021834
1.00000021137
1.00000021676
1.00000018559
1.00000011333
1.00000006899
1.00000020246
1.00000020279
1.00000024921
1.00000047031
1.00000077989
1.00000085482
1.00000047932
1.00000039115
1.00000042259
1.00000043745
1.00000041073
1.00000037898
1.00000030936
1.00000016463
1.00000002363
1.00000000448
1.00000002847
1.00000003486
1.00000000207
1.00000000061
1.0000001662
1.0000003426
1.00000047875
1.0000006849
1.00000088223
1.00000090705
1.00000046552
1.00000049373
1.00000030487
1.00000024983
1.00000023833
1.00000020956
1.00000013431
1.00000009831
1.00000009611
1.00000004003
1.00000002429
1.00000002005
1.00000000376
1.00000000006
1.00000001054
1.00000000186
1.00000021933
1.000000411
1.00000050556
1.00000044553
1.00000001453
1.00000075625
1.00000078138
1.00000073221
1.00000040571
1.00000000518
1.00000000044
1.00000000005
1.00000000033
1.00000000113
1.00000000025
1.0000000004
1.00000000009
1.00000000079
1.00000000025
1.00000000005
1.00000012526
1.00000031399
1.00000045887
1.00000053737
1.00000015623
1.00000076901
1.00000104398
1.00000108403
1.0000008001
1.00000037444
1.00000000006
1.00000000021
0.999999490685
0.999998653693
1.00000000026
1
0.999999684852
1.0000000001
1.00000002729
1.00000000003
1.00000000006
1.00000012751
1.00000053605
1.00000059896
1.0000001613
1.00000073406
1.00000108313
1.0000010636
1.00000023002
1
1.00000000159
1
1
1
1.00000001381
1.00000000068
1.0000000005
1.00000000144
1.00000001103
1
1.00000000069
1.00000000012
1.00000007396
1.00000051852
1.00000006827
1.00000060102
1.00000084476
1.00000035932
1
1.00000001037
1.00000008727
1.00000011596
1.00000021502
1.00000009597
1.0000000933
1.00000011155
1.00000000047
1.00000000059
1.00000000252
1.00000001366
1
1.00000000144
1.00000000011
1.00000020922
1.00000000028
1.00000045394
1.00000068313
1
1.00000000674
1.00000009086
1.00000035131
1.000000295
1.00000010754
1.00000000118
1.0000000097
1.00000007088
1.00000000006
1.00000000065
1.00000001039
1.00000001176
1.00000000362
1
1.00000000129
1.00000000005
1.00000000055
1.00000025571
1.00000044104
1
1.00000007697
1.00000048151
1.00000057955
1.00000045585
1.00000030047
1.00000029518
1.00000020155
1.00000017018
1.00000017469
1.00000013427
1.00000009133
1.00000000949
1.00000000342
1.00000000685
1
1.00000000246
1.00000000017
1.00000004306
1
1.00000002203
1.00000054855
1.0000006683
1.00000067922
1.00000067554
1.00000055417
1.00000056483
1.00000045381
1.00000035293
1.00000029197
1.00000019949
1.00000011554
1.00000000722
1.00000000166
1.0000000051
1.00000001183
1.00000003503
1.00000000002
1.0000000728
0.999999870157
1
1.00000050705
1.00000064406
1.00000069312
1.00000083367
1.00000091425
1.00000082822
1.00000067191
1.00000051448
1.00000038386
1.00000025548
1.00000017253
1.00000007364
1.00000000018
1.00000000078
1.00000000699
0.999999999936
1.00000000001
1.0000000772
0.999999883468
1
1.00000017302
1.00000067358
1.00000091819
1.00000110312
1.00000113021
1.00000095811
1.0000007499
1.0000004769
1.000000279
1.00000031262
1.00000021435
1.00000008317
1.00000000004
1.00000000236
1.00000003024
1
1
1.00000007665
1
1
1.00000033238
1.00000069069
1.00000086907
1.00000118748
1.00000117537
1.00000096366
1.0000007122
1.00000025287
1.00000000185
1.00000020278
1.00000023241
1.00000009796
1.00000000003
1.00000000009
1.00000003116
1.00000003731
1.00000002007
1.00000006898
1.00000000003
1.0000000102
1.00000031856
1.00000065256
1.00000080349
1.00000111402
1.00000110849
1.000000904
1.00000063725
1.00000022826
1.0000000016
1.00000018095
1.00000021142
1.00000009011
1
1.00000000014
1.00000002209
1.00000006733
1.00000002623
1.00000006025
1.00000000003
1.00000001498
1.00000022105
1.0000006345
1.00000087266
1.00000103484
1.00000100977
1.00000083864
1.00000064163
1.00000036999
1.00000021247
1.00000026385
1.00000018404
1.00000006303
1.00000000001
1.00000000018
1.00000002508
1
1
1.00000005144
1.00000000017
1.00000002937
1.00000045131
1.00000060966
1.00000073068
1.00000085227
1.00000085041
1.000000745
1.00000060288
1.00000047189
1.00000035026
1.00000023329
1.00000014688
1.00000006864
1.00000000003
1.00000000036
1.00000001167
1
1.00000000001
1.00000004029
1.00000003828
1.00000013682
1.0000005284
1.00000064636
1.00000073223
1.00000071901
1.00000056883
1.000000568
1.00000046174
1.00000037334
1.00000028439
1.00000017109
1.00000009908
1
1.00000000039
1.00000000144
1.0000000322
1.00000001788
1.00000000461
1.00000027592
1.00000054701
1.00000000074
1.00000021629
1.00000054448
1.00000065878
1.00000050757
1.00000037779
1.00000032872
1.00000025818
1.0000002128
1.00000019969
1.00000012628
1.00000008585
1.00000000029
1.00000000118
1.00000000073
1
1.00000000164
1.00000000002
1.00000031411
1.00000054467
1.00000000001
1
1.00000033709
1.00000053729
1.00000044516
1.00000030392
1.00000004592
1.00000005266
1.00000001298
1.0000000078
1.00000002004
1.00000006276
1.00000000147
1.00000000103
1.00000000006
1.00000000018
1.00000004205
1.00000000004
1.00000036449
1.00000063758
1.00000054184
1
1.00000000617
1.00000032078
1.0000004494
1.00000029391
1.00000025794
1.00000020663
1.00000008014
1
1
1.00000000034
1.00000000159
1.00000000089
1.00000000046
1.00000000008
1.00000038987
1.00000013127
1.00000041011
1.00000071852
1.00000084369
1.00000067785
1
1.0000000067
1.00000011213
1.00000000986
1
1.00000003625
1.00000001281
1
1
1.0000000054
1.00000000108
1.0000000006
1.00000000025
1.00000038342
1.00000072305
1.00000030178
1.00000040856
1.00000060428
1.00000074199
1.00000072382
1.00000062539
1.0000002321
1
0.999999735285
0.999999359032
1.00000000023
1.00000000018
1.0000000012
1
1.00000000244
1.0000000003
1.00000003409
1.00000041884
1.00000074255
1.00000077101
1.00000024415
1.00000013272
1.00000020417
1.00000024891
1.00000026218
1.00000017657
1.00000003344
1.00000003447
1.00000001933
1.00000000037
1.00000000043
1.00000000021
1.00000000051
1.00000000039
1.00000000014
1.00000000008
1.00000000004
1.0000001371
1.00000030942
1.00000022353
1
1.00000013643
1.00000024995
1.0000001615
1.00000000282
1.00000000022
1.00000000001
1.00000000003
1
1
1.00000000001
0.999999999508
1.00000000008
1.00000000006
1.00000000037
1.00000000001
1
1
1.00000004082
1.00000011409
1.00000000001
1.0000002668
1.00000056686
1.00000068382
1.00000030024
1.00000000024
1.00000000001
1.00000000001
0.999995590105
0.999991314469
0.999997281458
0.999999196556
0.999994563462
0.99999861918
1.00000000057
1.00000000004
1
1.00000000001
1.00000004758
1.00000019751
1.00000000008
1.00000028344
1.00000070868
1.0000005184
1.00000000006
0.999991523199
0.999995447833
1.00000000013
1
0.999996816749
1
1
0.999999370475
1
1.00000000112
0.99999366123
0.999993965216
1.00000000002
1.00000000003
1.00000008699
1.00000000008
1.00000018841
1.00000040911
1
0.999986568295
0.999990881344
1
0.999995004959
0.999988145689
0.999988153914
0.999990216023
0.999990592995
0.999992646701
0.999994633825
1.00000000052
1.00000000185
0.999995883406
0.999991408447
1.00000000004
1.00000000004
1.0000000003
1.00000011679
1.00000006337
0.999989579365
0.99998797365
0.999999969547
1.0000000225
1
1
1
1
1.00000000001
1.00000000003
1.00000000005
1.00000000025
1.00000000049
1.00000000189
0.999996563264
0.999994722367
1.00000000001
1.00000000005
1.00000005672
1.00000000005
0.999992178677
1
1.00000013411
1.00000042462
1.00000038865
1.00000024371
1.00000020287
1.00000009956
1.00000005324
1.00000005056
1.00000004512
1.00000004131
1.00000000378
1.00000000175
1.00000000212
0.999996742333
1.0000000001
1.00000000002
1.00000000003
1
0.999999997435
1.00000015304
1.00000039488
1.00000068263
1.00000066784
1.00000052169
1.00000044836
1.00000027213
1.00000013967
1.00000008024
1.00000006049
1.00000004464
1.00000000639
1.00000000478
1
1.00000000206
1.00000000008
1.00000000017
1.00000000001
0.999995954338
0.999995840042
1.00000000061
1.00000062159
1.0000007546
1.00000089831
1.000000893
1.00000066857
1.00000040462
1.00000015963
1.00000005159
1.00000005685
1.00000006287
1.00000000434
1.00000000001
0.999988990105
1
0.999998977833
1
1.00000000209
0.999993290533
0.999991441633
1
1.00000073339
1.00000107199
1.00000119342
1.0000010417
1.00000068154
1.00000022867
1.0000000032
1.0000000026
1.00000000158
1.00000006915
1.00000000663
1.00000000002
0.99998912932
1
0.99999898898
1
1.00000000003
0.999998694384
0.999996003081
1.00000002679
1.00000078043
1.00000103926
1.00000127538
1.00000103501
1.00000053209
1.00000000348
1.00000000255
1.00000000133
1.00000000201
1.00000001427
1.00000002733
1
0.999986603426
1
1
1
1.00000000002
0.99999979492
0.999996899516
1.00000004147
1.00000078241
1.00000101105
1.00000121938
1.00000096737
1.00000041274
1
1.00000000199
1.00000000174
1.0000000023
1.00000000139
1.00000002409
1
0.999986620693
1
1
1
1.00000001214
0.999994159897
0.999992317003
1
1.0000007749
1.00000110233
1.00000115951
1.0000009319
1.0000005071
1.00000000001
1.00000000009
1.00000000449
1.00000000246
1.00000002331
1.0000000156
1
0.999988386755
1
0.999998704313
1
1.00000000138
0.999996666145
0.999997119846
1.00000001507
1.00000069676
1.00000093965
1.00000099938
1.00000088911
1.00000061952
1.00000035693
1.0000001441
1.00000004894
1.00000002716
1.00000003733
1.00000001177
0.999999946482
0.999988076956
1
0.999998703827
1.00000000002
1.00000000012
1
1.00000000002
1.00000022012
1.00000047827
1.00000093014
1.00000085287
1.00000065485
1.00000055671
1.00000036145
1.00000021952
1.00000011047
1.00000003438
1.00000001691
1
0.999999513413
0.999999999999
1
0.999999999999
1.00000000001
1.00000005307
1.00000032441
0.999994746211
1
1.00000020619
1.00000065763
1.00000064708
1.0000004086
1.00000035293
1.00000019939
1.00000012275
1.00000010489
1.00000005819
1.0000000262
1
0.999997612081
1
0.999998103327
1
1.00000000002
1.00000018872
1.00000043712
0.999991198421
0.999990187562
0.99999998414
1.0000002455
1.000000023
1
1
1
1
1.00000000021
1.00000000022
1.00000000037
1.0000000007
1.00000000144
0.999997741386
0.999995380346
1.00000000001
0.999999999997
1.00000025324
1.00000063048
1.00000018748
0.999989234847
0.999992739397
1
0.999997167309
0.999992180903
0.999991530674
0.999992836215
0.999993423348
0.999995142447
0.999997411994
1.00000000048
1.00000000178
0.99999652972
0.999992181899
1
1.00000000003
1.00000000011
1.00000026323
1.00000075372
1.00000093824
1.00000039138
0.999993610919
0.999998242933
1
1
0.999998088758
1
1
1
1
1.00000000085
0.999994718627
0.999994353387
1
1
1.00000039995
1.00000000002
1.00000022762
1.00000049621
1.00000072034
1.00000066207
1.00000039539
1.00000000001
1.00000000002
0.999996795804
0.999991649119
0.999998896055
1.00000000002
0.999995821303
0.999999190587
1.00000000053
1.00000000011
1.00000000002
1.00000000066
1.00000037745
1.00000042788
1
1.00000002993
1.00000003784
1.00000004756
1.00000005118
1.00000000643
1.00000000006
1.00000000004
1.00000000001
1.00000000004
0.999999999962
0.999999999943
1.00000000003
1
1
1.00000000001
1.00000000002
1
1.00000000007
1.00000000005
0.999999998764
1.00000000019
1.00000000065
1.00000000107
1.00000000006
1.00000000001
1
0.999999999974
0.999999999779
1
0.999999999775
1.00000000003
1.00000000003
1.00000000002
1
1
1
1.00000000001
1
1.00000000002
1.00000000005
1.00000001514
1.00000004094
1.00000008463
1.00000000202
1.00000000002
1
1
0.999996392019
0.999989738247
0.999994934324
0.999996409325
0.999993601568
0.99999967696
1
1
1
1
1.00000000003
1
1.00000000002
1.00000002495
1.0000001092
1.00000004441
1
0.999906706533
0.999616100432
0.99953281917
0.999577076847
0.999631709897
0.999666849208
0.999673162213
0.999640338155
0.99958755309
0.999561599906
0.99966622969
0.999915808395
1
1
1.00000000002
1.00000000005
1.0000000235
1.00000004737
1
0.999783792807
0.999532054687
0.999878370547
1
1
1
1
1
1
1
1
0.999744411044
0.999587389599
0.999808480145
1
1
1.00000000002
1.00000000574
1.00000000001
0.999901651681
0.999515562069
1
1.00000005467
1.00000000054
1
1
1
1
1.00000001592
1
1.00000001009
1
0.999860495264
0.999603980059
0.999921288579
1
1
1.00000000024
1.00000000005
0.999591935762
0.999830129697
1.0000000536
1.00000012117
1.0000002271
1.00000015971
1.00000011471
1.00000002246
1
1
1
1.00000002318
1.0000000104
1
0.999758216046
0.999696298884
1
1.00000000001
1
0.999997594012
0.999497521466
0.999918491425
1.00000013037
1.0000003249
1.00000038113
1.00000031577
1.00000019807
1.00000005126
1.00000000001
1.00000000001
1
1.00000000219
1.00000001227
1.00000000638
1
0.999606195946
1.00000000017
1.00000000001
1
0.999977257662
0.999574337935
1.00000011355
1.00000029623
1.00000047983
1.00000055842
1.00000046995
1.00000023588
1.00000002213
1.00000000041
1.00000000049
1.00000000003
1.00000000172
1.00000003891
1
1
0.999619984521
0.999999999988
1.00000000011
1
0.999963878142
0.999656755204
1.0000003784
1.00000053902
1.00000069686
1.000000711
1.00000054255
1.00000012894
1.00000000009
1.00000000057
1.00000000148
1.00000000087
1.00000000003
1.00000002552
1
1
0.999663396426
1
1
1.00000000001
0.999967507498
0.999693498964
1.00000038126
1.000000629
1.00000073532
1.00000079015
1.00000045948
1
1
1.00000000048
1.00000000122
1.00000000164
1.00000000002
1.0000000123
1
1
0.999699763614
1
1
1.00000000001
0.999968949313
0.99969679542
1.00000042205
1.00000064587
1.00000076879
1.00000077077
1.00000036459
1
1
1
1.00000000074
1.00000000147
1.00000000002
1.00000000622
1
1
0.999700631921
1
1.00000000002
1
0.999964831184
0.999662624238
1.00000040074
1.00000060525
1.00000075627
1.00000073287
1.00000043221
1
0.999999999995
1
1.00000000005
1.00000000155
1.00000000002
1.0000000039
1
1
0.999666275768
1
1.00000000008
1.00000000004
0.999976226078