/*--------------------------------*- C++ -*----------------------------------*\
| =========                 |                                                 |
| \\      /  F ield         | OpenFOAM: The Open Source CFD Toolbox           |
|  \\    /   O peration     | Version:  3.0.1                                 |
|   \\  /    A nd           | Web:      www.OpenFOAM.org                      |
|    \\/     M anipulation  |                                                 |
\*---------------------------------------------------------------------------*/
FoamFile
{
    version     2.0;
    format      ascii;
    class       surfaceScalarField;
    location    "8.9";
    object      alphaPhi;
}
// * * * * * * * * * * * * * * * * * * * * * * * * * * * * * * * * * * * * * //

dimensions      [0 3 -1 0 0 0 0];

internalField   nonuniform List<scalar> 
22672
(
4.96774311353e-06
4.57796661197e-06
-9.54571994031e-06
1.21461036052e-05
3.64888011578e-06
-1.08272684055e-05
1.91395218639e-05
3.5937859586e-06
-1.05872318274e-05
2.42064694625e-05
4.28158560134e-06
-9.34856254826e-06
2.63540784476e-05
5.6673640009e-06
-7.81500264652e-06
2.53654643011e-05
7.39187540799e-06
-6.40329079017e-06
2.20717201757e-05
8.71862095032e-06
-5.42490610834e-06
1.67047975457e-05
9.992148043e-06
-4.6252538254e-06
9.9307391003e-06
1.09666705513e-05
-4.19263904989e-06
2.48660178907e-06
1.14967229813e-05
-4.05261066697e-06
-5.03412860412e-06
1.15348914089e-05
-4.01418447238e-06
-1.20369471504e-05
1.10733590183e-05
-4.07056247728e-06
-1.7778818995e-05
1.01479250154e-05
-4.40607384788e-06
-2.15573214402e-05
8.89629970028e-06
-5.11781726405e-06
-2.30256000867e-05
7.53925432646e-06
-6.07099537788e-06
-2.15750607737e-05
5.91671477426e-06
-7.36727575072e-06
-1.71892337871e-05
4.50967557176e-06
-8.89552787236e-06
-1.08904790367e-05
3.83025760458e-06
-1.01290414814e-05
-4.37820692864e-06
3.87471007264e-06
-1.03870112439e-05
4.76036826992e-06
-9.1385850321e-06
4.0567310913e-06
1.13364619043e-05
-1.08152525109e-05
1.23461693842e-05
1.15051173755e-05
-1.61456975609e-05
2.03495116647e-05
1.25703170703e-05
-1.69799041305e-05
2.57579775038e-05
1.46608053354e-05
-1.57877179316e-05
2.78168196313e-05
1.75664854526e-05
-1.39579853937e-05
2.66892701148e-05
2.06384432938e-05
-1.21190451787e-05
2.29290962128e-05
2.31332723462e-05
-1.06545081659e-05
1.71993274125e-05
2.52595271718e-05
-9.53763924181e-06
1.01863208274e-05
2.68367574616e-05
-8.8571061225e-06
2.56049681773e-06
2.76888915975e-05
-8.5663678428e-06
-5.14577859329e-06
2.77550281583e-05
-8.51388363499e-06
-1.23964498036e-05
2.70203363441e-05
-8.69632684296e-06
-1.85010271763e-05
2.55223501328e-05
-9.26986909039e-06
-2.27305529764e-05
2.34267810914e-05
-1.03009767706e-05
-2.44278874339e-05
2.09402301543e-05
-1.17036561817e-05
-2.30191028858e-05
1.79636476766e-05
-1.34557258722e-05
-1.83281886238e-05
1.50710055197e-05
-1.52522690772e-05
-1.10506035752e-05
1.29922825932e-05
-1.64396350665e-05
-3.45127876996e-06
1.19117817761e-05
-1.56364143754e-05
1.16833179953e-05
-1.03742516352e-05
4.01417319495e-06
1.79339539488e-05
-1.06116735421e-05
1.34287893255e-05
1.90909979635e-05
-1.7000524826e-05
2.23085048682e-05
2.10310671251e-05
-1.73404971196e-05
2.80556666862e-05
2.40899886682e-05
-1.51763772438e-05
3.0032277623e-05
2.79257523748e-05
-1.2335907265e-05
2.85421463914e-05
3.17923853301e-05
-9.66384266858e-06
2.42732928675e-05
3.50170134963e-05
-7.61492057627e-06
1.80446890384e-05
3.76917295534e-05
-6.20362873605e-06
1.06136198711e-05
3.96610668643e-05
-5.39326697844e-06
2.61605820839e-06
4.07310072629e-05
-5.04457801284e-06
-5.47272081126e-06
4.0826395102e-05
-4.98261058672e-06
-1.31658675233e-05
3.99241990024e-05
-5.21073762218e-06
-1.97921063651e-05
3.80623409344e-05
-5.91377408376e-06
-2.45460510495e-05
3.54222579695e-05
-7.24155554509e-06
-2.66045393008e-05
3.22115703302e-05
-9.21287188942e-06
-2.52770114645e-05
2.8427453833e-05
-1.17913482522e-05
-2.0248110943e-05
2.46122686632e-05
-1.45701842113e-05
-1.21070057211e-05
2.15665489022e-05
-1.67153963592e-05
-3.39877278488e-06
1.96174717831e-05
-1.6413943998e-05
1.83956382163e-05
-1.01110947791e-05
4.7030069809e-06
2.26431311276e-05
-9.41220949364e-06
1.55245518487e-05
2.41232072838e-05
-1.58537820985e-05
2.53759977235e-05
2.64034249011e-05
-1.52238337944e-05
3.14872425028e-05
2.98262745129e-05
-1.18475612517e-05
3.32730922661e-05
3.39880050122e-05
-7.84813310127e-06
3.12264951758e-05
3.81162599685e-05
-4.27730970604e-06
2.6261288904e-05
4.16112559981e-05
-1.62906862943e-06
1.93281464006e-05
4.45257691565e-05
9.9072564219e-08
1.12621373986e-05
4.6688985657e-05
1.03806262405e-06
2.68147495573e-06
4.78855391361e-05
1.42610540628e-06
-6.00517512766e-06
4.80098236114e-05
1.50319835056e-06
-1.43689749072e-05
4.70283001252e-05
1.25967658803e-06
-2.17370304812e-05
4.49931565809e-05
4.37217267478e-07
-2.72065618916e-05
4.21045612772e-05
-1.21279648023e-06
-2.98161536255e-05
3.86019039853e-05
-3.7807656248e-06
-2.86738086187e-05
3.45372583115e-05
-7.25216928345e-06
-2.3279208209e-05
3.0391951371e-05
-1.11743030302e-05
-1.41743084185e-05
2.69793684037e-05
-1.4517738718e-05
-4.07205658409e-06
2.46961013294e-05
-1.51808952632e-05
2.31559957996e-05
-8.83243082234e-06
6.10186385284e-06
2.44631379883e-05
-7.92190160902e-06
1.84325584357e-05
2.58701649638e-05
-1.40776817504e-05
2.9212362307e-05
2.80679394626e-05
-1.24443466101e-05
3.56484392889e-05
3.12987159374e-05
-7.90854659397e-06
3.72122038807e-05
3.52348384065e-05
-2.81062689237e-06
3.45946400653e-05
3.90926752694e-05
1.64111820892e-06
2.88789277182e-05
4.2410444052e-05
4.91649359736e-06
2.11173214768e-05
4.5216060064e-05
7.07128570837e-06
1.2207409865e-05
4.73442651737e-05
8.25460421669e-06
2.77249803532e-06
4.85602126144e-05
8.76021235093e-06
-6.79337593408e-06
4.8712222389e-05
8.86345121806e-06
-1.60618322218e-05
4.77551414739e-05
8.54159273968e-06
-2.4319399959e-05
4.57735158384e-05
7.47718640495e-06
-3.05732088599e-05
4.29807729301e-05
5.37757315462e-06
-3.37505659183e-05
3.9622875676e-05
2.15635992447e-06
-3.28182037059e-05
3.57917228419e-05
-2.1868512166e-06
-2.70942070685e-05
3.18509884994e-05
-7.18305682043e-06
-1.70658389349e-05
2.86201508418e-05
-1.16691706256e-05
-5.46335176509e-06
2.64137922926e-05
-1.33201936191e-05
2.49462585563e-05
-7.25363507444e-06
7.79152116014e-06
2.32645908959e-05
-6.59300165858e-06
2.1470841135e-05
2.44984186667e-05
-1.23076034868e-05
3.30473018672e-05
2.63254233024e-05
-9.83397150891e-06
3.97460165415e-05
2.89881818117e-05
-4.38820595403e-06
4.10439367735e-05
3.23379123074e-05
1.59898014933e-06
3.78343725648e-05
3.55901925852e-05
6.71201898395e-06
3.13816852681e-05
3.84332838592e-05
1.0429818172e-05
2.28239659909e-05
4.09021931235e-05
1.28715568867e-05
1.31113216451e-05
4.28337472404e-05
1.42231339373e-05
2.871392554e-06
4.39862719225e-05
1.48138430992e-05
-7.53148752018e-06
4.41566993689e-05
1.49583786291e-05
-1.76808923786e-05
4.32887383016e-05
1.46157862136e-05
-2.68175538888e-05
4.15194769653e-05
1.33906797472e-05
-3.38477740888e-05
3.9059880963e-05
1.09510899216e-05
-3.7604842971e-05
3.6152299292e-05
7.22762040297e-06
-3.69151494005e-05
3.28891475638e-05
2.21285575903e-06
-3.09167310443e-05
2.95052158823e-05
-3.65267011536e-06
-2.00876622192e-05
2.68180191773e-05
-9.02695617169e-06
-7.13740506762e-06
2.49665324684e-05
-1.15030073189e-05
2.36858817367e-05
-5.87704790389e-06
9.13072850392e-06
1.97811654206e-05
-5.64732162153e-06
2.39621578058e-05
2.05554034399e-05
-1.08884445925e-05
3.62586439542e-05
2.18555983129e-05
-7.82668458148e-06
4.32243227355e-05
2.37963238677e-05
-1.77384208544e-06
4.43498740887e-05
2.63612923784e-05
4.85104632818e-06
4.06829151187e-05
2.88405420671e-05
1.04165838514e-05
3.36279222412e-05
3.10408637536e-05
1.44473846119e-05
2.43803534168e-05
3.30060087554e-05
1.71437235304e-05
1.39638397805e-05
3.45643232512e-05
1.86859080909e-05
2.98911106757e-06
3.55461512431e-05
1.94148214204e-05
-8.18770063226e-06
3.57191582299e-05
1.96143276335e-05
-1.91245167533e-05
3.50072844472e-05
1.92182485442e-05
-2.90481793421e-05
3.36139133195e-05
1.7829207308e-05
-3.6744147791e-05
3.16632142976e-05
1.50926155762e-05
-4.09672160916e-05
2.93950058758e-05
1.09803393758e-05
-4.04331169877e-05
2.68830218512e-05
5.47200202464e-06
-3.41456095115e-05
2.42599728903e-05
-1.04228931475e-06
-2.25853388228e-05
2.2271209435e-05
-7.01348217248e-06
-8.48343616296e-06
2.09320884624e-05
-1.00674727565e-05
2.0116312653e-05
-4.9138839825e-06
1.03866498872e-05
1.42925356234e-05
-4.89802242551e-06
2.6060853072e-05
1.47051581985e-05
-9.82396021724e-06
3.88909288993e-05
1.54898229931e-05
-6.46432030039e-06
4.60881086741e-05
1.66999016829e-05
-1.00775341194e-07
4.7105660267e-05
1.83953643887e-05
6.94835771487e-06
4.31179498248e-05
2.00286291197e-05
1.27996008011e-05
3.56028670346e-05
2.14868904033e-05
1.70690288703e-05
2.57673817852e-05
2.28044784119e-05
2.00369849148e-05
1.46261890824e-05
2.37784583773e-05
2.19270255069e-05
3.08017008359e-06
2.44835329706e-05
2.26086061697e-05
-8.65459411576e-06
2.4628432476e-05
2.28254622238e-05
-2.03710848894e-05
2.41125059184e-05
2.26112467013e-05
-3.0989570584e-05
2.32950868611e-05
2.0937293696e-05
-3.92231595387e-05
2.20010611594e-05
1.78957245335e-05
-4.37952551258e-05
2.04883254299e-05
1.34787562414e-05
-4.33647102716e-05
1.88209998957e-05
7.63145565726e-06
-3.68294787188e-05
1.70609078364e-05
6.63811386633e-07
-2.47154915048e-05
1.58006510963e-05
-5.64344886797e-06
-9.75825954621e-06
1.49766370287e-05
-9.00179651929e-06
1.45326164582e-05
-4.17457845506e-06
1.13246250813e-05
7.48274046726e-06
-4.51482537091e-06
2.75767748559e-05
7.65829856608e-06
-9.20529745064e-06
4.0773405953e-05
8.01446258722e-06
-5.72128864009e-06
4.81465936712e-05
8.57539936599e-06
7.5130089274e-07
4.91172685135e-05
9.40287136501e-06
8.02180370066e-06
4.49393381788e-05
1.01947220504e-05
1.40118181326e-05
3.7094212638e-05
1.09075666196e-05
1.84244235893e-05
2.67136848615e-05
1.14844011093e-05
2.17005732605e-05
1.51782480376e-05
1.20298347391e-05
2.32840249112e-05
3.12575592381e-06
1.2410026319e-05
2.41259629101e-05
-9.13313148581e-06
1.24835415629e-05
2.44037462698e-05
-2.12439982305e-05
1.21993112086e-05
2.40240360257e-05
-3.24370174941e-05
1.17395541054e-05
2.27485324798e-05
-4.10730697122e-05
1.12036546204e-05
1.94334412196e-05
-4.58684890402e-05
1.04540644925e-05
1.48296610369e-05
-4.54909747506e-05
9.64218363876e-06
8.80128251044e-06
-3.87742580018e-05
8.77669961474e-06
1.56747264683e-06
-2.62762886921e-05
8.18749524361e-06
-4.88483005089e-06
-1.07225021203e-05
7.80959181287e-06
-8.38675469302e-06
7.61891931019e-06
-3.8088197338e-06
1.18103349274e-05
8.91883712436e-08
-4.41678259392e-06
2.83521753233e-05
8.92003015406e-08
-8.97274628685e-06
4.17340589467e-05
7.71654299025e-08
-5.44458187213e-06
4.92055153649e-05
5.98247757276e-08
1.04410867875e-06
5.01710569585e-05
3.99130560312e-08
8.39740523696e-06
4.59182522345e-05
2.11398939011e-08
1.44263709329e-05
3.79109691431e-05
1.91310871943e-09
1.89129133578e-05
2.7265763735e-05
-1.76812867527e-08
2.2147256666e-05
1.55171506807e-05
-3.24901167254e-08
2.38109008508e-05
3.14680210592e-06
-4.43100896965e-08
2.48246460676e-05
-9.45599739391e-06
-4.77866097663e-08
2.51340921635e-05
-2.18594636165e-05
-4.31660530314e-08
2.46459154815e-05
-3.32642068582e-05
-3.18665062135e-08
2.3176142932e-05
-4.20748128703e-05
-1.5188078154e-08
2.00294307141e-05
-4.69569714131e-05
6.79497470289e-09
1.53294089189e-05
-4.65878843505e-05
3.1768000865e-08
9.24130921696e-06
-3.97700202404e-05
6.21415575296e-08
1.89667556714e-06
-2.70776871204e-05
8.8922467922e-08
-4.59377599855e-06
-1.12239960225e-05
1.09054234806e-07
-8.15316564434e-06
1.11552292656e-07
-3.71664373384e-06
1.18061062e-05
-7.30118634055e-06
-4.41572928955e-06
2.83441121579e-05
-7.47616949543e-06
-8.97263732925e-06
4.17239995347e-05
-7.85376838843e-06
-5.44896598064e-06
4.91941120415e-05
-8.44622681917e-06
1.03592349133e-06
5.01579724226e-05
-9.30930209276e-06
8.38534744791e-06
4.59039130668e-05
-1.0134067766e-05
1.44092565234e-05
3.78961423269e-05
-1.08805996697e-05
1.88902648294e-05
2.72519575252e-05
-1.14923986154e-05
2.21188756943e-05
1.5507917124e-05
-1.20652523487e-05
2.37767699297e-05
3.14278781865e-06
-1.24671933304e-05
2.47879764817e-05
-9.45440783522e-06
-1.25468072461e-05
2.50961822824e-05
-2.18511599883e-05
-1.22536006864e-05
2.46071598486e-05
-3.32509039658e-05
-1.17713967603e-05
2.31392544921e-05
-4.20580375556e-05
-1.12063054449e-05
1.99982343373e-05
-4.69383171254e-05
-1.04181668087e-05
1.53052233513e-05
-4.65687003741e-05
-9.56239140207e-06
9.22452353167e-06
-3.97516013965e-05
-8.64308577835e-06
1.88810988875e-06
-2.70630636886e-05
-8.00544797562e-06
-4.59418306868e-06
-1.12167316707e-05
-7.59139711639e-06
-8.14589336856e-06
-7.39583461323e-06
-3.70935930095e-06
1.13125041166e-05
-1.41082005188e-05
-4.5054900213e-06
2.75538305389e-05
-1.45174376171e-05
-9.20005462519e-06
4.07446865594e-05
-1.53155690905e-05
-5.72907448702e-06
4.81141764952e-05
-1.65473432087e-05
7.31648171742e-07
4.9080266638e-05
-1.82661769746e-05
7.99078084156e-06
4.48991188352e-05
-1.99193009361e-05
1.39663738568e-05
3.70528788315e-05
-2.13981758476e-05
1.83638030695e-05
2.66756700942e-05
-2.2738553232e-05
2.16233426829e-05
1.51514846158e-05
-2.37319435793e-05
2.31908509499e-05
3.11448960238e-06
-2.44533550111e-05
2.40231280502e-05
-9.12759251127e-06
-2.46020127829e-05
2.42972599258e-05
-2.12184341738e-05
-2.40791575333e-05
2.39163764747e-05
-3.23977455183e-05
-2.32421211373e-05
2.2650019567e-05
-4.10259881689e-05
-2.19281923599e-05
1.93501152705e-05
-4.58166112775e-05
-2.03923106509e-05
1.47647497685e-05
-4.54379526007e-05
-1.86973144251e-05
8.75624487564e-06
-3.87238569726e-05
-1.69015545952e-05
1.54435409817e-06
-2.62362442196e-05
-1.56075816999e-05
-4.88549589227e-06
-1.07023451147e-05
-1.47591185163e-05
-8.36619197776e-06
-1.43126787868e-05
-3.78551490817e-06
1.03695298784e-05
-1.96019913909e-05
-4.87575045254e-06
2.60289252154e-05
-2.03668508344e-05
-9.80998529498e-06
3.88508595954e-05
-2.16698160925e-05
-6.46768033213e-06
4.60429083623e-05
-2.36178546662e-05
-1.21542241352e-07
4.70543257058e-05
-2.61903058556e-05
6.91272403352e-06
4.30616328396e-05
-2.8673167713e-05
1.27465573637e-05
3.55439536769e-05
-3.08773299454e-05
1.69968253037e-05
2.5710907481e-05
-3.28484423233e-05
1.99429217229e-05
1.45847166114e-05
-3.44129120792e-05
2.1807141197e-05
3.06384868049e-06
-3.53981886774e-05
2.24656815498e-05
-8.64408157514e-06
-3.55706531468e-05
2.2676550839e-05
-2.03346961734e-05
-3.48555159143e-05
2.24669568102e-05
-3.09360733737e-05
-3.34536483129e-05
2.08128918549e-05
-3.91580541731e-05
-3.14973076861e-05
1.77910840818e-05
-4.37232595958e-05
-2.92244092005e-05
1.33972889197e-05
-4.32905601082e-05
-2.67045092879e-05
7.57447643343e-06
-3.67587021181e-05
-2.40679993079e-05
6.34565663222e-07
-2.46588643474e-05
-2.20655997476e-05
-5.64183890215e-06
-9.72978824012e-06
-2.07180085052e-05
-8.97020194325e-06
-1.99066617437e-05
-4.13582056928e-06
9.11334472418e-06
-2.30997105529e-05
-5.6156270358e-06
2.39285736063e-05
-2.43174519423e-05
-1.086462762e-05
3.62168507581e-05
-2.61377964339e-05
-7.82028022724e-06
4.31787184315e-05
-2.87941260831e-05
-1.78559164138e-06
4.42988250699e-05
-3.21375816652e-05
4.82714510811e-06
4.06256330849e-05
-3.53804094479e-05
1.03804412313e-05
3.35668842339e-05
-3.82136443439e-05
1.43950602331e-05
2.43231988723e-05
-4.06751203576e-05
1.70703562527e-05
1.39227301393e-05
-4.26013412025e-05
1.85888872489e-05
2.97368381542e-06
-4.37498423256e-05
1.93006873308e-05
-8.17419347281e-06
-4.39168348004e-05
1.94940459653e-05
-1.90872254641e-05
-4.30464212297e-05
1.91039260284e-05
-2.89937223073e-05
-4.12759848751e-05
1.77288236741e-05
-3.66784224021e-05
-3.88212125286e-05
1.50085942445e-05
-4.08937661151e-05
-3.59222399743e-05
1.09131601467e-05
-4.03548626287e-05
-3.26666323879e-05
5.42320030027e-06
-3.40688078685e-05
-2.92878291226e-05
-1.06624774955e-06
-2.25233920634e-05
-2.66059468802e-05
-7.00508951467e-06
-8.45298725097e-06
-2.47606573885e-05
-1.00277718737e-05
-2.34942482592e-05
-4.86542004744e-06
7.77508752909e-06
-2.43140374053e-05
-6.5607588362e-06
2.14460856997e-05
-2.57119230724e-05
-1.22765321219e-05
3.30173100548e-05
-2.7893689047e-05
-9.81533347656e-06
3.97134836593e-05
-3.11064153947e-05
-4.38388882961e-06
4.10071195945e-05
-3.50265536845e-05
1.59531572067e-06
3.77905331889e-05
-3.8868674329e-05
6.70483050288e-06
3.13322830403e-05
-4.21693973775e-05
1.0414005174e-05
2.27762133559e-05
-4.49605888486e-05
1.2841535803e-05
1.30766696308e-05
-4.70768209604e-05
1.41750186282e-05
2.85925563999e-06
-4.82837017185e-05
1.4751266466e-05
-7.51823679416e-06
-4.84300936109e-05
1.48907427212e-05
-1.76476079061e-05
-4.74715535487e-05
1.4554495019e-05
-2.67724263905e-05
-4.54925095802e-05
1.334133478e-05
-3.3795077818e-05
-4.27082445439e-05
1.09096732875e-05
-3.75454330883e-05
-3.9364252471e-05
7.19235350823e-06
-3.68500376473e-05
-3.55486267001e-05
2.18657895574e-06
-3.08519240221e-05
-3.1625784793e-05
-3.66018172971e-06
-2.00350362746e-05
-2.8416122625e-05
-9.00673357983e-06
-7.10804892833e-06
-2.62294928677e-05
-1.14581668785e-05
-2.47710549891e-05
-5.83126411616e-06
6.1047171424e-06
-2.25338510398e-05
-7.88489955875e-06
1.84315657932e-05
-2.39967582854e-05
-1.40420115751e-05
2.9206431543e-05
-2.6255523723e-05
-1.24130247502e-05
3.56378903448e-05
-2.96535986111e-05
-7.8842788756e-06
3.71953686058e-05
-3.37939444494e-05
-2.79013849074e-06
3.45705661056e-05
-3.79037101442e-05
1.65984713603e-06
2.8848042686e-05
-4.13813861282e-05
4.93451760913e-06
2.10859482643e-05
-4.42811815572e-05
7.08268935648e-06
1.21850085984e-05
-4.64310921209e-05
8.25520957328e-06
2.76718439695e-06
-4.76167131678e-05
8.7508324685e-06
-6.77950314071e-06
-4.77342385904e-05
8.85082670931e-06
-1.6033831231e-05
-4.67509257823e-05
8.53369298266e-06
-2.42850725117e-05
-4.47182787985e-05
7.47700203209e-06
-3.05361438558e-05
-4.1836007333e-05
5.37882325403e-06
-3.37107563722e-05
-3.83462869165e-05
2.15663158333e-06
-3.27771668042e-05
-3.43005119841e-05
-2.18172546705e-06
-2.7057412764e-05
-3.01805455072e-05
-7.16501863801e-06
-1.70419558239e-05
-2.67989938905e-05
-1.16326102006e-05
-5.45845062123e-06
-2.45430791645e-05
-1.32699390469e-05
-2.30246072833e-05
-7.20492096629e-06
4.71166186775e-06
-1.78620090094e-05
-9.38350360795e-06
1.55406586399e-05
-1.90031903937e-05
-1.58225601027e-05
2.53901630768e-05
-2.09206651153e-05
-1.51843525958e-05
3.1495479281e-05
-2.39528508545e-05
-1.18060844843e-05
3.32723189839e-05
-2.77647058808e-05
-7.80609533842e-06
3.12163568077e-05
-3.16111038663e-05
-4.23664423395e-06
2.62447392496e-05
-3.48190801004e-05
-1.59068643799e-06
1.93111459106e-05
-3.74807807224e-05
1.33197145842e-07
1.12530820949e-05
-3.94377235602e-05
1.06469687857e-06
2.68632468303e-06
-4.0497512244e-05
1.44755497537e-06
-5.98565543932e-06
-4.05860908519e-05
1.52382779806e-06
-1.43400030923e-05
-3.96813412315e-05
1.28475595137e-06
-2.17061963228e-05
-3.78208999751e-05
4.68804972939e-07
-2.71784281282e-05
-3.51860617561e-05
-1.17772631732e-06
-2.97922931314e-05
-3.19878899317e-05
-3.74454932353e-06
-2.86555358237e-05
-2.82255620211e-05
-7.21172984056e-06
-2.32686904772e-05
-2.44386141222e-05
-1.11288027521e-05
-1.41739686512e-05
-2.14261182184e-05
-1.44676222746e-05
-4.0772987853e-06
-1.95057746008e-05
-1.51339946921e-05
-1.83035926158e-05
-8.79833463034e-06
4.02974474845e-06
-1.13012996562e-05
-1.05904296526e-05
1.34590596131e-05
-1.14572578832e-05
-1.69752473501e-05
2.23408892078e-05
-1.25043349145e-05
-1.72981554104e-05
2.80821565988e-05
-1.45722914157e-05
-1.51218694629e-05
3.00474486625e-05
-1.74565768553e-05
-1.22734208123e-05
2.85458852098e-05
-2.05097647647e-05
-9.59977552747e-06
2.42701801081e-05
-2.29896615491e-05
-7.55371180866e-06
1.80416728845e-05
-2.5104059433e-05
-6.1482085841e-06
1.06168613166e-05
-2.66708365772e-05
-5.34207275025e-06
2.62947179209e-06
-2.7514861351e-05
-4.99526217023e-06
-5.44935550091e-06
-2.75754651172e-05
-4.93180294831e-06
-1.31369107696e-05
-2.68384227323e-05
-5.1553706202e-06
-1.97650100686e-05
-2.53418703196e-05
-5.8509407645e-06
-2.45262821035e-05
-2.32518259032e-05
-7.17297808417e-06
-2.65960752082e-05
-2.07771889754e-05
-9.14092676623e-06
-2.52809619058e-05
-1.78223477227e-05
-1.17183502521e-05
-2.02620737178e-05
-1.49542121208e-05
-1.45033171773e-05
-1.21272792872e-05
-1.29020908242e-05
-1.66588508151e-05
-3.41553758026e-06
-1.1842686334e-05
-1.63748577528e-05
-1.16266025361e-05
-1.00925383124e-05
4.07311939412e-06
-4.56660830165e-06
-1.0807796883e-05
1.23789699423e-05
-3.6335052345e-06
-1.61296103332e-05
2.03893395139e-05
-3.5691049068e-06
-1.69456193919e-05
2.57963575832e-05
-4.24532703939e-06
-1.57339814965e-05
2.78434684875e-05
-5.6200682316e-06
-1.38836191627e-05
2.67019198629e-05
-7.3336751758e-06
-1.20345412768e-05
2.29344499986e-05
-8.65190764002e-06
-1.05702860974e-05
1.72056651476e-05
-9.91806177811e-06
-9.45720708198e-06
1.01989520833e-05
-1.0886815076e-05
-8.77730558916e-06
2.58210689306e-06
-1.14128887173e-05
-8.48512799276e-06
-5.11657884618e-06
-1.14482063174e-05
-8.4285773902e-06
-1.23644433512e-05
-1.09849155745e-05
-8.60564937771e-06
-1.84745582062e-05
-1.00599006149e-05
-9.17186497085e-06
-2.27164767538e-05
-8.81167778347e-06
-1.01982439846e-05
-2.4431516644e-05
-7.46022353135e-06
-1.16019431e-05
-2.30378054474e-05
-5.852533533e-06
-1.33635422631e-05
-1.83539769877e-05
-4.45690439964e-06
-1.518116156e-05
-1.10775028468e-05
-3.78973491814e-06
-1.63888580872e-05
-3.47015278388e-06
-3.84121057851e-06
-1.56088473279e-05
-4.72679955904e-06
-1.03699776751e-05
4.9661078223e-06
-9.53269974876e-06
1.21583140107e-05
-1.08257057939e-05
1.9159499184e-05
-1.05702877785e-05
2.4227010821e-05
-9.31283866991e-06
2.63667209896e-05
-7.7597783045e-06
2.53698756291e-05
-6.33683005207e-06
2.20740513078e-05
-5.3560790772e-06
1.6711926857e-05
-4.5559347664e-06
9.94601547255e-06
-4.12090355175e-06
2.51221697131e-06
-3.97909270671e-06
-4.99920807799e-06
-3.93678655627e-06
-1.19971587659e-05
-3.98697247492e-06
-1.77414539976e-05
-4.31561434389e-06
-2.15298564868e-05
-5.02328639683e-06
-2.30100506525e-05
-5.98004365005e-06
-2.15748136881e-05
-7.28778856095e-06
-1.71925830825e-05
-8.83915656079e-06
-1.08905595415e-05
-1.00917821054e-05
-4.3726931411e-06
-1.0359099326e-05
-9.09948992879e-06
8.3880479101e-06
7.99847456153e-06
-2.59322610281e-05
1.65602162726e-05
9.82485419389e-06
-2.88243167974e-05
2.29140095204e-05
1.16116661677e-05
-2.85527201685e-05
2.68210264264e-05
1.36763723409e-05
-2.69319812403e-05
2.79239579543e-05
1.58775236224e-05
-2.47954848078e-05
2.63482052861e-05
1.7848300802e-05
-2.26758622943e-05
2.24812525333e-05
1.93677816682e-05
-2.09257558561e-05
1.6823559431e-05
2.05886114436e-05
-1.95561783569e-05
9.97564655072e-06
2.14642350533e-05
-1.88089578436e-05
2.55394484949e-06
2.19350745879e-05
-1.85659846393e-05
-4.94809598649e-06
2.19750142576e-05
-1.84871713899e-05
-1.20324392109e-05
2.15716181051e-05
-1.85578571312e-05
-1.80667273898e-05
2.07387038107e-05
-1.91105039222e-05
-2.24058527551e-05
1.95302025143e-05
-2.03089057345e-05
-2.45383207901e-05
1.80088141338e-05
-2.19473536032e-05
-2.40791126281e-05
1.61040670269e-05
-2.39305666276e-05
-2.08863047386e-05
1.39286157848e-05
-2.60169699827e-05
-1.52631308433e-05
1.18868291883e-05
-2.76390630053e-05
-7.79932768853e-06
1.00937373374e-05
-2.7944566405e-05
8.18856619049e-06
-2.51264807811e-05
1.03126618185e-05
1.57203789686e-05
-2.88498441829e-05
1.8131216036e-05
1.71722588126e-05
-3.1311689125e-05
2.34880722062e-05
1.9385576179e-05
-3.01107049733e-05
2.64949526046e-05
2.22466484181e-05
-2.73649092502e-05
2.70891524712e-05
2.54010581802e-05
-2.4075752209e-05
2.53356837822e-05
2.83685376988e-05
-2.08858384469e-05
2.14839412567e-05
3.08259778795e-05
-1.82609584814e-05
1.606280521e-05
3.27885211629e-05
-1.63164250913e-05
9.59840666386e-06
3.41985926089e-05
-1.51270739695e-05
2.59008069821e-06
3.49730966882e-05
-1.45960834519e-05
-4.50420412604e-06
3.50577890017e-05
-1.4502385123e-05
-1.12158005772e-05
3.44308939333e-05
-1.48440124339e-05
-1.70120615222e-05
3.31147063498e-05
-1.58496342209e-05
-2.13307172388e-05
3.11834594957e-05
-1.7635591583e-05
-2.36427974993e-05
2.87375538434e-05
-2.01203287009e-05
-2.36418726116e-05
2.58150335e-05
-2.31676325153e-05
-2.12948576534e-05
2.26954326654e-05
-2.63661189906e-05
-1.6637348128e-05
1.98610711303e-05
-2.90714053419e-05
-9.56385103482e-06
1.76474510555e-05
-3.02636412561e-05
1.61173932025e-05
-2.78669442064e-05
1.21350204092e-05
2.16305323283e-05
-2.86568756517e-05
2.03863981477e-05
2.21095466838e-05
-3.01892245401e-05
2.55794430319e-05
2.41737467142e-05
-2.73217484811e-05
2.8194661117e-05
2.71040769635e-05
-2.26490583197e-05
2.83254442124e-05
3.03605498809e-05
-1.74262159081e-05
2.61302034888e-05
3.34608348282e-05
-1.25609315792e-05
2.19390178744e-05
3.61004908118e-05
-8.69827525188e-06
1.62980765691e-05
3.82143940421e-05
-5.9885818113e-06
9.71326572694e-06
3.97578812011e-05
-4.36776182087e-06
2.62152716803e-06
4.06322079003e-05
-3.61196430186e-06
-4.56838920471e-06
4.07545404336e-05
-3.48945917113e-06
-1.14280451435e-05
4.00928647931e-05
-4.01306210188e-06
-1.74660303941e-05
3.86819627459e-05
-5.44305821298e-06
-2.21302737545e-05
3.66108816521e-05
-8.00474916726e-06
-2.48625550488e-05
3.39797164876e-05
-1.17227682379e-05
-2.53025229232e-05
3.08945316219e-05
-1.6430893942e-05
-2.33119889985e-05
2.766022083e-05
-2.15255217283e-05
-1.88003183486e-05
2.4757375732e-05
-2.61233880695e-05
-1.13079196722e-05
2.2707101802e-05
-2.89660096129e-05
2.21786347671e-05
-2.74802761185e-05
1.42121059293e-05
2.5141079388e-05
-2.7134890813e-05
2.32620775787e-05
2.47538769854e-05
-2.75481174745e-05
2.8515697745e-05
2.64472440196e-05
-2.27509852433e-05
3.07674697468e-05
2.90280915699e-05
-1.60233817984e-05
3.03175382656e-05
3.19173727782e-05
-8.9550582909e-06
2.75080461183e-05
3.4698370345e-05
-2.70538647138e-06
2.28183896787e-05
3.71496095624e-05
2.01143683996e-06
1.68264516505e-05
3.91552893914e-05
5.15008743704e-06
9.98441390806e-06
4.06427580542e-05
6.99520045796e-06
2.6663373432e-06
4.15106885469e-05
7.8656820531e-06
-4.76875538361e-06
4.16686212808e-05
8.02419224301e-06
-1.19300552629e-05
4.10749863261e-05
7.4388388765e-06
-1.83611701869e-05
3.97542386058e-05
5.79604066783e-06
-2.35350400714e-05
3.77942074439e-05
2.77773178667e-06
-2.68699560896e-05
3.53194106595e-05
-1.78555999572e-06
-2.7861719447e-05
3.25169406518e-05
-7.88283104739e-06
-2.62070843333e-05
2.96244993359e-05
-1.47932324915e-05
-2.1621307447e-05
2.70665831723e-05
-2.14127387683e-05
-1.33388421547e-05
2.53923754285e-05
-2.61486508375e-05
2.57550206581e-05
-2.57476784884e-05
1.64172028232e-05
2.59269734019e-05
-2.51250263914e-05
2.64176008837e-05
2.50566985868e-05
-2.43809333559e-05
3.17695995056e-05
2.62951394394e-05
-1.76442731806e-05
3.36464235667e-05
2.83010137595e-05
-9.05832552731e-06
3.26182207603e-05
3.06134506644e-05
-4.78534843012e-07
2.9292926711e-05
3.30229327693e-05
6.64181711266e-06
2.41460807454e-05
3.52110645517e-05
1.20018521542e-05
1.7731009324e-05
3.70494742538e-05
1.55921426691e-05
1.04808941923e-05
3.84596305697e-05
1.76878206425e-05
2.74098074037e-06
3.93152551199e-05
1.86955355459e-05
-5.14293739581e-06
3.95056252723e-05
1.89103430415e-05
-1.27812156474e-05
3.89827351823e-05
1.82721024395e-05
-1.97108635642e-05
3.77752715488e-05
1.63857823431e-05
-2.53879661797e-05
3.59801766521e-05
1.28686893418e-05
-2.92241779813e-05
3.37373614554e-05
7.57460418387e-06
-3.07555049351e-05
3.12618938599e-05
5.99505372277e-07
-2.94433804406e-05
2.89040450908e-05
-7.77474412357e-06
-2.47456669941e-05
2.69001303876e-05
-1.62004476508e-05
-1.55159192769e-05
2.56744787024e-05
-2.28320588474e-05
2.65261073243e-05
-2.35406575093e-05
1.8370115901e-05
2.4114392981e-05
-2.31505639661e-05
2.93723831791e-05
2.30619079968e-05
-2.13151124529e-05
3.48555481825e-05
2.38583201516e-05
-1.28803486639e-05
3.64058087557e-05
2.52384449411e-05
-2.87592841168e-06
3.50070533214e-05
2.70157020468e-05
6.59545325014e-06
3.1246223815e-05
2.89658501094e-05
1.45298993396e-05
2.56714836221e-05
3.08064883516e-05
2.04091020842e-05
1.88285755507e-05
3.24062513967e-05
2.43576546396e-05
1.11112018894e-05
3.36828697086e-05
2.67172385406e-05
2.85242847218e-06
3.44880248495e-05
2.7899820006e-05
-5.58410258843e-06
3.46986218509e-05
2.82018880397e-05
-1.37803525266e-05
3.42660768044e-05
2.75286733516e-05
-2.1249506801e-05
3.32188893159e-05
2.54161962808e-05
-2.74283497618e-05
3.16662620343e-05
2.14438286021e-05
-3.17066235259e-05
2.97515565232e-05
1.54916803813e-05
-3.35731931389e-05
2.76951331274e-05
7.64616868895e-06
-3.2545729327e-05
2.58212978962e-05
-1.59740402616e-06
-2.7692192335e-05
2.44111267937e-05
-1.13915053792e-05
-1.74518677853e-05
2.36092049377e-05
-1.96780703197e-05
2.4642119028e-05
-2.14449435316e-05
1.98926943214e-05
2.00734844384e-05
-2.14991318647e-05
3.18152250311e-05
1.9033445767e-05
-1.87825403017e-05
3.74630859757e-05
1.94732676161e-05
-9.08951959125e-06
3.88092296782e-05
2.03231038769e-05
1.79532772084e-06
3.71518915727e-05
2.16099499962e-05
1.19141079834e-05
3.30760127221e-05
2.30846109091e-05
2.03736703793e-05
2.7158936525e-05
2.45195781257e-05
2.66513368351e-05
1.99406978508e-05
2.58042078051e-05
3.09639719728e-05
1.17844282857e-05
2.68846044919e-05
3.36404113332e-05
3.00122651907e-06
2.76347538233e-05
3.50512652375e-05
-5.99777582376e-06
2.78437744134e-05
3.54681513289e-05
-1.47340034014e-05
2.74556223344e-05
3.47649089347e-05
-2.27129245282e-05
2.65970428132e-05
3.24299559854e-05
-2.93415579591e-05
2.5361271776e-05
2.8026220357e-05
-3.39773384338e-05
2.38548916155e-05
2.15127647216e-05
-3.60856803239e-05
2.22670080306e-05
1.30084555762e-05
-3.52079522322e-05
2.08736161926e-05
3.02764736899e-06
-3.01621892938e-05
1.9949538337e-05
-7.59767195757e-06
-1.89827059902e-05
1.94836810794e-05
-1.71214445076e-05
2.04983818929e-05
-1.97528669164e-05
2.10976643496e-05
1.43086922089e-05
-2.0230897126e-05
3.37326257455e-05
1.35016485813e-05
-1.69271639988e-05
3.95029331883e-05
1.37014730554e-05
-6.46285122547e-06
4.07218194836e-05
1.4171079385e-05
4.83234040823e-06
3.88925997252e-05