/*--------------------------------*- C++ -*----------------------------------*\
| =========                 |                                                 |
| \\      /  F ield         | OpenFOAM: The Open Source CFD Toolbox           |
|  \\    /   O peration     | Version:  3.0.1                                 |
|   \\  /    A nd           | Web:      www.OpenFOAM.org                      |
|    \\/     M anipulation  |                                                 |
\*---------------------------------------------------------------------------*/
FoamFile
{
    version     2.0;
    format      ascii;
    class       surfaceVectorField;
    location    "8.9";
    object      Uf;
}
// * * * * * * * * * * * * * * * * * * * * * * * * * * * * * * * * * * * * * //

dimensions      [0 1 -1 0 0 0 0];

internalField   nonuniform List<vector> 
22672
(
(0.00198708466448 0.000508441631449 -0.00140519629259)
(0.000591569896253 0.00183117773527 -0.00140167420088)
(0.00128920989905 0.00121042724874 -0.00381828568592)
(0.00485841991967 0.000136317017185 -0.00147435702483)
(0.00313543231827 0.00145954639333 -0.00268598496207)
(0.00414800831501 0.00132753966361 -0.00433090564292)
(0.00765577737269 2.25451107682e-05 -0.00125072728783)
(0.00653629175691 0.00143750944682 -0.00298060444787)
(0.00720687595527 0.00152284941136 -0.00423489196123)
(0.00968254877903 0.00014222135087 -0.000859972569515)
(0.00913997279229 0.0017126294761 -0.00271406772439)
(0.00948691220967 0.00184611718321 -0.00373942586582)
(0.0105415873216 0.000477130365554 -0.000454559468612)
(0.0107366856721 0.00226694031996 -0.0022833231852)
(0.0108352659996 0.00230135641419 -0.00312600383815)
(0.0101461393689 0.000845177220119 -0.000155566377441)
(0.0108474072567 0.00295674382653 -0.00184301138655)
(0.010804504596 0.00279579239123 -0.00256132087982)
(0.00882864230409 0.00118038529566 3.53300499665e-05)
(0.0099599208226 0.00348744070471 -0.00155353830339)
(0.00987303803035 0.00314661136451 -0.00216996851484)
(0.00668187673806 0.00150663341287 0.000170217661682)
(0.00810527493287 0.00399684987176 -0.001312729959)
(0.00801727875799 0.0034868346325 -0.00185010878785)
(0.0039722596164 0.00172995374948 0.000230572694646)
(0.00552122044308 0.00438665711826 -0.00117292180776)
(0.00545953162798 0.00374425409363 -0.00167706378254)
(0.000994613142451 0.00181436884876 0.000248235528181)
(0.00255692734368 0.00459867666914 -0.00112014834416)
(0.00253408121648 0.00388204922148 -0.00162105307142)
(-0.00201366912692 0.00175323820614 0.000244730378321)
(-0.00053804478599 0.00461394315953 -0.00110965327557)
(-0.000518015930041 0.00389203609755 -0.00160568281213)
(-0.00481478655138 0.00154953627511 0.00020088335019)
(-0.00356247316242 0.00442933023151 -0.00114038477028)
(-0.00350328153776 0.00377183894287 -0.00162823387277)
(-0.00711152639794 0.00123497040937 8.43311561692e-05)
(-0.00627171371145 0.00405915756749 -0.00125631485802)
(-0.00618585483218 0.00352701358499 -0.0017624380756)
(-0.00862292043477 0.0008885928868 -0.000101595306982)
(-0.00830902027493 0.00355850900163 -0.00147722019179)
(-0.00822437284684 0.00319108730869 -0.00204713475687)
(-0.00921022728109 0.000530610538453 -0.000379112605658)
(-0.00939598280978 0.0030156926861 -0.00176618605606)
(-0.00935851358362 0.00282307777408 -0.00242840529068)
(-0.00863000948846 0.00020792907694 -0.0007649499185)
(-0.00952198251732 0.00236667911972 -0.0021673026798)
(-0.00961711595377 0.00236948714946 -0.00294691644979)
(-0.006875678729 7.67454335369e-05 -0.00116024235952)
(-0.00821167614765 0.00180386514419 -0.00260461481464)
(-0.00855907197238 0.00190407706245 -0.0035582160917)
(-0.00435617946021 0.000189712282056 -0.001384949578)
(-0.00589012375769 0.00153209881415 -0.00287278521247)
(-0.00655844534796 0.00158501136188 -0.00405161995148)
(-0.00175127774942 0.000553933000947 -0.00132138498436)
(-0.00276836166935 0.00154987931665 -0.00259047104788)
(-0.00378177233924 0.00138569396083 -0.00415480635856)
(-0.000468186289697 0.00190413998261 -0.0013224676992)
(-0.0011730429944 0.0012503038134 -0.00365543641711)
(0.00162268354347 0.0028919364838 -0.00268246287036)
(0.000224819105547 0.00453457001149 -0.00147151714682)
(0.00142324253664 0.00390759510013 -0.00432609919684)
(0.00493844716693 0.00288959447718 -0.0041922323851)
(0.00314123287033 0.00460203258446 -0.00419193515766)
(0.00445961913378 0.00418890351792 -0.00645827420111)
(0.00813977415973 0.00327564384656 -0.00444394488444)
(0.00703578411277 0.00502811373063 -0.00484963234127)
(0.00759646680832 0.00471412393547 -0.00679195652355)
(0.0103031526552 0.00401148657354 -0.00413741834008)
(0.00990332643491 0.00586430931296 -0.00454980085667)
(0.00982926423616 0.00552457278205 -0.00631508359539)
(0.0111266814071 0.00495116504761 -0.00367177510313)
(0.0114920309721 0.00702657881202 -0.0039656485166)
(0.0109968401679 0.00654183398744 -0.00558319261862)
(0.01067565883 0.00582984713501 -0.00324098331249)
(0.0115733155335 0.00825535967271 -0.00337552747586)
(0.010929585525 0.00756130832047 -0.00484761873597)
(0.00917159121282 0.00655618721278 -0.00290159831235)
(0.0104938940663 0.0092532896524 -0.00293434145886)
(0.00986796582112 0.00837485625606 -0.00426180666914)
(0.006879688474 0.00714930635733 -0.00265586942844)
(0.00844803044112 0.0101037896899 -0.00261038309507)
(0.00794941618094 0.00905573547124 -0.00381506195428)
(0.00407449257075 0.00754170006952 -0.00252364284657)
(0.00571439524828 0.010734679142 -0.00242268488627)
(0.00540650817805 0.00955516128041 -0.0035428501896)
(0.00102417164089 0.0076898412264 -0.00247803714791)
(0.00263502030998 0.0110755303343 -0.00234771600449)
(0.00252923298833 0.00982643106036 -0.00342655578318)
(-0.00205832846839 0.00757791047169 -0.00249476842417)
(-0.000564861630359 0.0111019832359 -0.00233307169316)
(-0.00046948839608 0.00984859657267 -0.00340556197654)
(-0.00495858648932 0.00721426013505 -0.00259758297849)
(-0.0037100845677 0.0108081064752 -0.00237828573364)
(-0.00341149553903 0.00961600628358 -0.00347853932069)
(-0.00740040724211 0.00663814930495 -0.00281786620598)
(-0.00657551068323 0.010208912943 -0.00253735749307)
(-0.00608139967923 0.00914209931362 -0.00370795496702)
(-0.00909220854173 0.00591768229011 -0.00314181094087)
(-0.00880704984664 0.00937068685302 -0.00283999296312)
(-0.00817957232774 0.00847067670576 -0.00412039631312)
(-0.0097711370748 0.00505825557593 -0.0035543761302)
(-0.0100908623493 0.00837606858258 -0.0032675934627)
(-0.00944485388996 0.00765945926342 -0.00468146685174)
(-0.00920762380345 0.00414032721045 -0.00400696757594)
(-0.0102541019382 0.00718543958466 -0.00383033050086)
(-0.00974924425452 0.00666934422001 -0.005382293522)
(-0.00733125823693 0.00341026174977 -0.0043171576676)
(-0.00894660029495 0.00602838791039 -0.00440933994726)
(-0.00885078655019 0.00566315178335 -0.00610090920879)
(-0.0044202286842 0.0030238005488 -0.00407830668236)
(-0.00637286332701 0.00519690008881 -0.0047143624958)
(-0.00690109668907 0.00486053793803 -0.00657585386947)
(-0.00138050964067 0.00301173509102 -0.00259155376272)
(-0.00276507748614 0.00476469932659 -0.00407921142456)
(-0.0040467939041 0.00433150767611 -0.00625456544339)
(-9.76686567484e-05 0.00467331670271 -0.00139034714779)
(-0.00128102539908 0.00401981950489 -0.00414970539724)
(0.00160566019674 0.006125565674 -0.00298098943412)
(0.000113581090732 0.0071735552797 -0.00125504616735)
(0.00162666064849 0.00679334146969 -0.00424466818874)
(0.0053714965559 0.00661358946166 -0.00484933511383)
(0.00353085419468 0.007636377574 -0.00444730721648)
(0.00499696253459 0.00715295900249 -0.00680020464532)
(0.00892337257517 0.00747438397865 -0.0049554883135)
(0.0079016021881 0.00841240653021 -0.00496012883306)
(0.00837657706878 0.00792198715002 -0.00693619292237)
(0.0112222287987 0.00870681427908 -0.00437803103319)
(0.0110286064111 0.00963597542611 -0.00434431011834)
(0.0106685205036 0.00906116136224 -0.00607054660114)
(0.0120128656127 0.0101149939635 -0.00366940088933)
(0.0126371879487 0.0111702787238 -0.00343149140195)
(0.0117503502829 0.0104245557517 -0.00493436125685)
(0.0114168093464 0.0114162976552 -0.00306888562223)
(0.012606726701 0.0127169291419 -0.00260282373268)
(0.0115562605279 0.0117727570737 -0.00386553793932)
(0.00970926848432 0.0124941003034 -0.00264312624158)
(0.0112942337142 0.0140067776048 -0.00201195028949)
(0.0103085968958 0.0128979880484 -0.00304597173879)
(0.00721783107619 0.0133434879463 -0.0023771985529)
(0.00899036933064 0.0150766607543 -0.00163334351209)
(0.00822347101432 0.0138144138664 -0.0024814577794)
(0.00424541048556 0.0138972778186 -0.00224675804419)
(0.00602730302344 0.0158643918228 -0.00144123554118)
(0.00555976863177 0.0144825777113 -0.00215731524081)
(0.00104639538709 0.0141069553743 -0.00220275054974)
(0.00275154786162 0.0162923645668 -0.00137453332534)
(0.00259017891207 0.0148477726552 -0.00201784103162)
(-0.00218910507555 0.0139581975808 -0.00221658900263)
(-0.000633681314078 0.0163305175417 -0.00135819467606)
(-0.000495987137575 0.0148846371834 -0.00199305446557)
(-0.00526635234654 0.0134518948647 -0.00231806024822)
(-0.00398514767453 0.0159696392287 -0.00139260510114)
(-0.00353977910169 0.0145842776327 -0.00208430498469)
(-0.00791683710786 0.0126285623049 -0.00255948425021)
(-0.00709400418388 0.0152248976261 -0.00155594523275)
(-0.00634233352138 0.0139581230505 -0.00236551849134)
(-0.00981840559398 0.0115621038511 -0.00296577548495)
(-0.00959172104605 0.0141688669104 -0.00191342219854)
(-0.00861133018281 0.0130571935605 -0.00289662943884)
(-0.0106417950857 0.0102825041272 -0.00354354783336)
(-0.0111124856802 0.0128845948052 -0.00248456747551)
(-0.0100631620228 0.0119394017233 -0.00368515435553)
(-0.0101107835116 0.0088951449235 -0.00423270287217)
(-0.0113844384648 0.0113709529564 -0.00328336289079)
(-0.0104900847218 0.0106151240295 -0.00471654315212)
(-0.00809922481858 0.00766822412305 -0.00480654477546)
(-0.0100562209924 0.00984488488851 -0.00418295177469)
(-0.00966907622936 0.009260969788 -0.00582807551776)
(-0.00484278843103 0.00680695626003 -0.004715267238)
(-0.00722554150671 0.00862659950872 -0.00480151855081)
(-0.00765717112814 0.00812950145888 -0.00668615853108)
(-0.00135950623784 0.00630348474643 -0.00287800480963)
(-0.00314653397536 0.00784696854059 -0.00431585491654)
(-0.00456117812594 0.00735874435162 -0.00656557800212)
(1.68593119157e-05 0.00735823553929 -0.00116469773787)
(-0.00147085135328 0.00697354798109 -0.00404444425126)
(0.00188119479289 0.00857385168732 -0.0027213639497)
(0.000239284382241 0.00905722355429 -0.000867888065187)
(0.00195327437148 0.00891395040671 -0.00376488329335)
(0.00620980298111 0.00931988303771 -0.00455810093571)
(0.00426664528028 0.00964925713109 -0.00414871632619)
(0.00581011538846 0.00922610587094 -0.00634150840298)
(0.0101503710733 0.0104393872514 -0.0043489506379)
(0.00913596236232 0.0105613453641 -0.00439470604129)
(0.00951994290801 0.0100575608698 -0.00608952856263)
(0.0125948599308 0.0119349997878 -0.0033977704871)
(0.012525940127 0.0119304857638 -0.00340646241533)
(0.0119114796599 0.0112987231941 -0.00473902133648)
(0.0133091918745 0.0135810942121 -0.00236491424531)
(0.0141628799284 0.0135951765442 -0.00212149527597)
(0.0129028922752 0.0127549064417 -0.00313925254564)
(0.0124905479742 0.0151028047702 -0.00154588839995)
(0.0139711202247 0.0152464757921 -0.00100116918438)
(0.0125048102966 0.0141805452714 -0.00171092607139)
(0.0105044645564 0.0163800314588 -0.00100216755999)
(0.0123857463269 0.0166444706448 -0.00019166855534)
(0.0110072208231 0.0153965889063 -0.00065163307891)
(0.00773121104611 0.0173852576277 -0.000697380500366)
(0.00976264588051 0.0178102716015 0.000326233198276)
(0.00868461408683 0.0163926356397 3.96196933809e-05)
(0.00450481499813 0.0180439300081 -0.000569010822337)
(0.00649068975355 0.0186755535928 0.000585767694533)
(0.00582501285966 0.0171245608511 0.000415212446051)
(0.00107256077263 0.018298331416 -0.000529977451667)
(0.00292528137208 0.0191541711232 0.000675883303448)
(0.00269061151901 0.0175325969003 0.000570427396114)
(-0.00240208666938 0.0181255220237 -0.000534210774574)
(-0.000744827440662 0.0192038825828 0.00069739383658)
(-0.000552644369317 0.017582202089 0.000601263753507)
(-0.00574759388046 0.0175293664078 -0.000630490085669)
(-0.00440242979609 0.0188112736836 0.000648034200442)
(-0.00377478320599 0.0172607744358 0.000503855569105)
(-0.00869480445163 0.0165556604506 -0.000909883181076)
(-0.00784254715228 0.0179972187026 0.000419851871721)
(-0.00679174416414 0.0165831325681 0.000174873551599)
(-0.0108826070782 0.0152873999314 -0.0014322141891)
(-0.0106742538019 0.0168417839615 -7.90837129113e-05)
(-0.00930908503941 0.0156037184535 -0.000485129443298)
(-0.0119264371947 0.013782120778 -0.00222438253294)
(-0.0124721092522 0.0154407246054 -0.000869994783954)
(-0.0110122645218 0.0143890001527 -0.00151231443562)
(-0.0114694974391 0.0121547628292 -0.0032336117933)
(-0.0129002493442 0.0138148709602 -0.00195724015257)
(-0.0116356831806 0.0129781600574 -0.00290087336951)
(-0.00931165907913 0.0106655276523 -0.00417792555005)
(-0.0115424242207 0.0121567532782 -0.00322270677331)
(-0.010898981614 0.0115287807395 -0.00446972456969)
(-0.00566970632285 0.00954698925946 -0.00440210622936)
(-0.00844938421525 0.0107917224544 -0.0042126787494)
(-0.008783246039 0.0102949795112 -0.00580709712884)
(-0.00162881909416 0.00878660126757 -0.00260254784478)
(-0.00387596406518 0.00987841558602 -0.00399523283102)
(-0.00536006715871 0.00946583817506 -0.00607236014952)
(-0.000105656938428 0.00926237736011 -0.000763309880456)
(-0.00178601670347 0.0091335203934 -0.00353297963778)
(0.00244073890458 0.0100283605356 -0.00229524044167)
(0.00057177105146 0.00978522781068 -0.000475839831881)
(0.00241625698828 0.0101155793102 -0.0031687606771)
(0.00737300782777 0.0107675795289 -0.00398532143177)
(0.00519920326135 0.0103480394018 -0.00369671448456)
(0.00682673164075 0.0102561920506 -0.00563106911588)
(0.0116849190766 0.0119072350408 -0.00345221781872)
(0.0105383570839 0.0112271498862 -0.00370307574825)
(0.010883957591 0.0110063048997 -0.00497773502548)
(0.0142593399335 0.0134304115813 -0.00213018720421)
(0.0141652451909 0.0125194610553 -0.00239112799577)
(0.0133664549543 0.0121595595881 -0.00316341649623)
(0.0148848367649 0.0151055757003 -0.000757750215043)
(0.0158336922341 0.0140939091943 -0.000766093945111)
(0.0142657828946 0.0135245296981 -0.00112425113058)
(0.0138378046724 0.0166501973379 0.000353050660227)
(0.0154459462975 0.0156370416536 0.000649555755936)
(0.0136673631832 0.0148859704952 0.000656443417076)
(0.0115515174105 0.0179513233218 0.00113673220293)
(0.0135852742493 0.0169641455883 0.00168576859116)
(0.0119318111932 0.0160665230592 0.0019665889126)
(0.00844687800043 0.0189871186111 0.00160938139317)
(0.0106328488117 0.0180863875433 0.00237057505726)
(0.00935206278852 0.0170504135765 0.00282850037941)
(0.00488292167586 0.0196791756705 0.00183066182032)
(0.007025357696 0.0189376650864 0.00272755009259)
(0.00623859684168 0.0177880707156 0.00330182301365)
(0.00110896920213 0.0199559814027 0.0019032545917)
(0.00313060680644 0.0194240405354 0.00286121783527)
(0.00285298716474 0.0182113660785 0.00350406315819)
(-0.00271736608779 0.019783074523 0.0018796388116)
(-0.000873060013659 0.0194848425084 0.00289301041945)
(-0.000648131387331 0.0182743711331 0.00354535755255)
(-0.00642473446891 0.0191659961029 0.00169837615783)
(-0.00488451049707 0.019102011124 0.00281585613071)
(-0.00414348361864 0.0179597290803 0.0034166150952)
(-0.00972774901195 0.0181609095929 0.00125065133989)
(-0.00869368801714 0.0183093639449 0.00249196488315)
(-0.0074455733721 0.0172859537645 0.0029908552081)
(-0.0122292622001 0.0168591178935 0.000483135692237)
(-0.0118769886836 0.0171922707449 0.00181574356076)
(-0.0102428321532 0.0163143915409 0.00215101366717)
(-0.0135001979479 0.0153210462679 -0.000602852403588)
(-0.013954157927 0.0158491155794 0.000786937276279)
(-0.0121885322937 0.0151220541386 0.000862532529161)
(-0.0131272505186 0.0136579872757 -0.00194633513258)
(-0.0145667653955 0.014316658394 -0.00059234627428)
(-0.0130022944038 0.0137628194734 -0.000874748054017)
(-0.010837653929 0.012137413978 -0.00325745997266)
(-0.0131773853198 0.012740368374 -0.00219238413619)
(-0.0123485219716 0.0123950515078 -0.00287322748846)
(-0.00682631529397 0.0109984065135 -0.00380580535106)
(-0.00984448726481 0.0114480350704 -0.00350337656473)
(-0.0101376248144 0.011246747373 -0.00466767123544)
(-0.00218533606017 0.0102464302737 -0.0021559948667)
(-0.00480396465738 0.0105654920944 -0.00352556624008)
(-0.00636887561341 0.0104996207476 -0.0053280805991)
(-0.000433468875528 0.00997848480506 -0.000359858461656)
(-0.00224258729039 0.0103429484526 -0.00290146152909)
(0.00311660332871 0.0100312369354 -0.00187731387477)
(0.000937464319401 0.00930581061449 -0.000189935305491)
(0.00289768356107 0.00998022667722 -0.00263720090642)
(0.00858832418666 0.0107374061251 -0.00341446880104)
(0.0060708735203 0.00979934197642 -0.0032802246868)
(0.00783658598757 0.010080885185 -0.00492303863146)
(0.0132188985777 0.0117643242128 -0.0026419859253)
(0.0118313060272 0.0105301442073 -0.00311753948338)
(0.0122235217933 0.0107041770216 -0.0039335857686)
(0.015898373425 0.0131249645406 -0.00102703473668)
(0.0156765497815 0.0115952480361 -0.00158581795197)
(0.0147820898576 0.0116528561984 -0.0017552808299)
(0.0164175307486 0.0146033072659 0.000641212025868)
(0.0173711983294 0.0129351396251 0.000333042588245)
(0.0156175304949 0.0128155909281 0.000639590952774)
(0.0151336964989 0.0159609162614 0.00198227368687)
(0.0167972067038 0.0142360499836 0.00198206417932)
(0.014827490196 0.013983494059 0.00268480250023)
(0.0125526176937 0.01713235269 0.00291961144549)
(0.0146956533819 0.0153732834788 0.00318005681933)
(0.012869630795 0.0150241180236 0.00417191615159)
(0.00912953266528 0.0180869826318 0.00348874375667)
(0.0114460939294 0.0163608433621 0.00398438035892)
(0.0100431931076 0.0159146843919 0.00514860435285)
(0.00524448403871 0.0187423769531 0.00375810610754)
(0.00752954797424 0.0171334612925 0.00441279348751)
(0.00667482613936 0.0166021628934 0.0056892287987)
(0.00114852622716 0.0190161690665 0.00385097366302)
(0.00333036828977 0.0175944684847 0.0045870043766)
(0.00303045360183 0.0170129855966 0.00592550841784)
(-0.00301260977471 0.0188628417812 0.00382922773857)
(-0.000984858850091 0.0176626383735 0.00463230336338)
(-0.000739920289876 0.0170869780495 0.00598332124634)
(-0.00707235613488 0.0182934435199 0.00360944485602)
(-0.0053292944558 0.0173154554286 0.00453287218379)
(-0.0045220838707 0.0168034259382 0.00584628574284)
(-0.0107270073228 0.0173713448523 0.00305705710402)
(-0.00948810014 0.0166077542957 0.00413698304655)
(-0.00812216980786 0.0161907206371 0.0053562469869)
(-0.0135390846922 0.0161900428467 0.0021195451448)
(-0.0129991731094 0.0156239200074 0.00332707914503)
(-0.0112002288844 0.015310119012 0.00438041630894)
(-0.0150419046231 0.0148223139598 0.000797443405587)
(-0.0153257428611 0.0144608908678 0.00212173677885)
(-0.0133769345667 0.014243679196 0.00289103388598)
(-0.0147660237727 0.0133424442413 -0.000838395277888)
(-0.0161105083931 0.0131556330556 0.000509361983654)
(-0.0143686927625 0.0130591287062 0.000885133035057)
(-0.012366658524 0.0119767744982 -0.00243830072826)
(-0.0146943949803 0.0118020625075 -0.00138385976815)
(-0.0137698709714 0.0118791384478 -0.00146107356768)
(-0.00803504076682 0.0109443704984 -0.00322313745375)
(-0.011135726743 0.0107271846469 -0.00291018774763)
(-0.0114738570015 0.0109263708591 -0.0036107860136)
(-0.00285495617015 0.0102237437596 -0.00172942983504)
(-0.00567421222163 0.00998659022436 -0.00310043141932)
(-0.00737384473639 0.0103007062732 -0.00460120649222)
(-0.000797351499481 0.00947433768372 -6.9256117891e-05)
(-0.00271598395561 0.0101851074861 -0.00235082630437)
(0.00365228805746 0.00906205167814 -0.00159284611752)
(0.00127543799864 0.00791243968991 -4.57124617585e-06)
(0.00325640562481 0.00896696117271 -0.00225892887098)
(0.0095848548279 0.00957235412105 -0.00298329536914)
(0.00679288983903 0.00822213916476 -0.00295263588326)
(0.00864886723049 0.00893638825774 -0.00435537612282)
(0.0145034402987 0.0103589959918 -0.00206137151004)
(0.0128999458325 0.00874221547394 -0.00270365897279)
(0.0133415914874 0.00936868885844 -0.0031306713844)
(0.0172896998591 0.0114373438333 -0.000225740627041)
(0.0169398357307 0.00951850621279 -0.00105507065848)
(0.0159862030824 0.0100583771015 -0.000709535373227)
(0.0177399074845 0.0126302066069 0.0016738947417)
(0.0186605265348 0.0105444933332 0.00110528645713)
(0.0167858901418 0.0109723082008 0.00194041749001)
(0.0162731128404 0.013736162242 0.00317984731179)
(0.017957717949 0.0115361920597 0.00291370024125)
(0.0158597359647 0.0119056390406 0.00416662801358)
(0.0134511099523 0.0147149312037 0.00424482573276)
(0.0156750219224 0.0124163185507 0.00423921746216)
(0.013730831604 0.0127598613225 0.00577894084937)
(0.00975208451811 0.0155412695401 0.00490843008975)
(0.0121834084304 0.0132023737507 0.00516470071137)
(0.0106961361237 0.0135145640987 0.00685746724708)
(0.00558548877788 0.0161206972245 0.00524169175657)
(0.00797819557099 0.0138256969895 0.00571120266019)
(0.00710145481165 0.0141267588479 0.00747433313687)
(0.00119561258874 0.0163662629166 0.00536833407696)
(0.00350972405754 0.0142184264975 0.00581795312526)
(0.0032149182469 0.0145018677459 0.00776589346925)
(-0.00327509438951 0.0162476819102 0.00533594780861)
(-0.00107485744511 0.0142876292269 0.00585196590628)
(-0.000816303439709 0.0145798987008 0.00784569431224)
(-0.00764980384841 0.0157620184589 0.00506041037432)
(-0.00570711661754 0.0140028815938 0.00586084394061)
(-0.00487116638787 0.0143412487765 0.00768726469759)
(-0.0116192546223 0.0149708510119 0.00440700508756)
(-0.0101969822476 0.0134455364346 0.00535554978034)
(-0.00874580517508 0.0138099160619 0.00713165337102)
(-0.014697631015 0.0139786705257 0.00332927077908)
(-0.0139884736023 0.0126652605659 0.0044115383527)
(-0.0120771577066 0.013065910511 0.0060370235846)
(-0.0163868505753 0.0128524987925 0.00183365535692)
(-0.0165129564621 0.0117579802295 0.0030664957205)
(-0.0144466274461 0.012180725643 0.00439211983865)
(-0.0161732074351 0.0116449213322 -3.61025066121e-05)
(-0.0174205121932 0.0107531887773 0.00129004240837)
(-0.0155693025213 0.0112178161626 0.00218879060017)
(-0.0136582072805 0.0105500831416 -0.00185574678752)
(-0.0159762157067 0.00970397056354 -0.000847159398989)
(-0.0149956906742 0.0102726888198 -0.000416921357556)
(-0.00903410978683 0.00974988195056 -0.0027874817132)
(-0.0122140268351 0.00890846583526 -0.00249344952933)
(-0.0126011327438 0.00956473375534 -0.00280539636962)
(-0.0033933676488 0.0092240885654 -0.00144025770218)
(-0.00640204369153 0.00837281790464 -0.00276910506916)
(-0.00819061703115 0.00912299394024 -0.00402699261854)
(-0.00114040905841 0.00804651340972 0.000116783008003)
(-0.00307698888912 0.00913998155024 -0.00196555995575)
(0.0041546572051 0.0071398635141 -0.00136436101192)
(0.00159253498701 0.00571698068717 0.00012044923079)
(0.00359237605637 0.00704606587721 -0.00195920624233)
(0.0104243351645 0.00745551893055 -0.00267299948692)
(0.00737301640031 0.0058820346235 -0.00272268193311)
(0.00931990650681 0.00695324223777 -0.00392958184083)
(0.0155563584461 0.00797516385086 -0.00169735812122)
(0.0137270695685 0.0061959061914 -0.00245287729464)
(0.0142387722341 0.00721216236 -0.0025857255091)
(0.0184352188994 0.00872045205548 0.000275956425691)
(0.017915223221 0.00667993830548 -0.000770556136939)
(0.0169547491815 0.00765181944666 -4.03081321733e-05)
(0.0188422249312 0.00956657722796 0.00234509195667)
(0.0196647755167 0.00735812385191 0.0015543426468)
(0.0177402488829 0.00829229292267 0.00277934297492)
(0.017247127048 0.0103560679501 0.00397307039162)
(0.0188791846257 0.00801142941961 0.00345993040745)
(0.0167225891443 0.00895834400411 0.00511983524655)
(0.014241086176 0.0110714434798 0.00515909244077)
(0.0164778862406 0.00859473282981 0.00487615127801)
(0.0144728399749 0.00957903347049 0.00682759758632)
(0.0103068934522 0.0116595287217 0.00596747328181)
(0.0127707505837 0.00912176650995 0.00594417860817)
(0.0112836392123 0.0101500977605 0.00801476908162)
(0.00585042643308 0.0120937577175 0.00628746402888)
(0.00835995290535 0.00951135740697 0.00628933855927)
(0.00748290440416 0.0106045573979 0.00877077592589)
(0.00123203519304 0.0123193362002 0.00630158495457)
(0.00364689875297 0.00979338668648 0.00628712655676)
(0.00338302763809 0.0109265398886 0.00904340228576)
(-0.0034618512152 0.012212758281 0.00637686203828)
(-0.00115056140175 0.00985134712358 0.00631362018944)
(-0.000876072254124 0.0110014609495 0.00913014280014)
(-0.00814842914806 0.0118567845038 0.00615598334662)
(-0.00603507761922 0.00964497854525 0.00641724632459)
(-0.00516508191559 0.0107963810085 0.00904445909262)
(-0.0123958083965 0.0113073414101 0.00536008304548)
(-0.0107543470824 0.00931801363496 0.00615521234739)
(-0.00929247211951 0.0104175732327 0.00837488443346)
(-0.0156892328273 0.0105831394324 0.00414876329413)
(-0.0147939882424 0.00880040628162 0.0050861182274)
(-0.0128274063915 0.00985900795258 0.00715826519441)
(-0.0175180634978 0.00977190311636 0.00252288277195)
(-0.0174593536045 0.00819531435093 0.00363925098828)
(-0.0153458730966 0.00921147687468 0.00539148583098)
(-0.0173458427674 0.00890392127724 0.000478985515989)
(-0.0184507083498 0.00752838578745 0.00175997737796)
(-0.0165635963176 0.0085157304763 0.00305257191975)
(-0.0147317541525 0.00813422412953 -0.0014848621408)
(-0.0169771630728 0.00682435011339 -0.000548542088995)
(-0.0159993803433 0.00783975200576 0.000265519137996)
(-0.00988617084732 0.00759512542524 -0.00247507288529)
(-0.0130609292617 0.00632024816663 -0.00224020447227)
(-0.0135222408764 0.00737201309642 -0.00225738274137)
(-0.00390329620074 0.0072632874951 -0.00121206435898)
(-0.00699320189282 0.00599064322333 -0.00253852768579)
(-0.00887597801852 0.00709759335534 -0.00360072206451)
(-0.00146495344059 0.00581303806316 0.000238811062203)
(-0.0034195193395 0.00717757451979 -0.00166983695545)
(0.00452984669394 0.00452295968834 -0.0012378716904)
(0.00180260600632 0.00299305599588 0.000172252099537)
(0.00383937905613 0.00445871874166 -0.00180592554103)
(0.0110307053862 0.00468614833801 -0.00250255974083)
(0.00774542235372 0.00306328544759 -0.00260689329355)
(0.00979849314349 0.00437985195028 -0.00368211333056)
(0.0163093517618 0.0049685329489 -0.00152607531035)
(0.0142468523931 0.00320576351777 -0.00233982038039)
(0.0148718283501 0.00451048205461 -0.00228851107595)
(0.0192586169143 0.00539253570442 0.00050783008417)
(0.0185293755324 0.00343013718936 -0.000666279445565)
(0.0176395048068 0.00474446317498 0.00030052356072)
(0.0196468716328 0.00588509166561 0.00266918109758)
(0.0203047008847 0.00376112767803 0.00174276230491)
(0.0184229726706 0.00511630363944 0.00320872291461)
(0.0179756839552 0.00634437980235 0.00436301129384)
(0.0194762998928 0.00407786888128 0.00368860041137)
(0.0173511444649 0.00550706807884 0.00560472347282)
(0.014837624205 0.00675116180808 0.00566123744542)
(0.0170072999818 0.00436300711027 0.0051577794294)
(0.0150357276229 0.0058770161463 0.00736975561916)
(0.0106854135693 0.00711695729475 0.00626604388563)
(0.0131539450734 0.00459374119126 0.00625625777588)
(0.0117173966289 0.00621304004764 0.00868020304255)
(0.00607124872955 0.00740629337188 0.00628900108715)
(0.00863202730416 0.0048119151828 0.00626800460706)
(0.00779886984376 0.00652141994571 0.00931357343796)
(0.00125026892708 0.00754077735746 0.00629916179163)
(0.0037402058714 0.00496399239969 0.00628569456162)
(0.00350807644727 0.00672405951672 0.00965034189071)
(-0.00365326569213 0.0074843206304 0.00635400447575)
(-0.00121762820876 0.00499339956768 0.00632839319672)
(-0.000924835733173 0.0067730491171 0.00976145301768)
(-0.00849759287729 0.00725276189944 0.00641647532536)
(-0.00628811241839 0.00487970899606 0.00636894494273)
(-0.00541755863471 0.00665405481678 0.00960957181225)
(-0.0129747848419 0.0069180641992 0.00588124752931)
(-0.0111480811244 0.00469580801361 0.00638192044822)
(-0.00968942447665 0.00640117158769 0.00909937775326)
(-0.0164291944638 0.00650862141234 0.00457660592155)
(-0.0153160358389 0.00448145017754 0.00540377755466)
(-0.0133907492042 0.00607374175952 0.00777335087944)
(-0.018347354702 0.00603336307417 0.00287634559429)
(-0.0180745338572 0.00418161565145 0.00389509601292)
(-0.0160020287749 0.00568606674246 0.0059318475399)
(-0.0181963467943 0.00552228337622 0.000732449772978)
(-0.0191106214433 0.00385686440982 0.00197074788744)
(-0.0172817589645 0.00527501216771 0.00352050284137)
(-0.0155096649938 0.00507696508287 -0.00130388442047)
(-0.0176121198894 0.00351067163706 -0.000430883912725)
(-0.0167185388529 0.00487568237118 0.000626983954451)
(-0.0105104894843 0.004778570006 -0.00230365927278)
(-0.013598961923 0.00327499048163 -0.00212471376412)
(-0.0141821941296 0.0046185068068 -0.00195393473512)
(-0.00428899281674 0.00460368672442 -0.00108765226461)
(-0.0073757487946 0.00312382964484 -0.00242312417649)
(-0.00937223023722 0.00447466961901 -0.00335470481627)
(-0.001681960923 0.00304756211864 0.000288371696958)
(-0.00367608181965 0.0045440338599 -0.00152353273824)
(0.00472413077788 0.00156465006048 -0.00119676950362)
(0.00187353930966 3.5631872189e-05 0.000182587573991)
(0.00396482985281 0.00154230547802 -0.00176670515212)
(0.0113408654793 0.00161259210599 -0.00244415393311)
(0.00787144025986 3.5641660861e-05 -0.00257601348683)
(0.0100434905297 0.00151122846346 -0.00358908952965)
(0.0166936151141 0.0016965753742 -0.0014800245156)
(0.0144197995371 3.08357848434e-05 -0.00231263878121)
(0.0151940980078 0.00154654056773 -0.00217782433203)
(0.0196821885261 0.00182746857021 0.000568652775177)
(0.0187350435564 2.39074045928e-05 -0.000649054510145)
(0.0179899614514 0.0016136626598 0.00041764825698)
(0.0200683906946 0.00198269180188 0.00276218161871)
(0.0205208817491 1.594503213e-05 0.00178356766575)
(0.0187758731903 0.00172977146951 0.00335896528164)
(0.0183672525774 0.00212691371358 0.00448336854694)
(0.0196801327205 8.43804173166e-06 0.00373676658987)
(0.0176819469289 0.00185262643432 0.00577054643385)