/*--------------------------------*- C++ -*----------------------------------*\
| =========                 |                                                 |
| \\      /  F ield         | OpenFOAM: The Open Source CFD Toolbox           |
|  \\    /   O peration     | Version:  3.0.1                                 |
|   \\  /    A nd           | Web:      www.OpenFOAM.org                      |
|    \\/     M anipulation  |                                                 |
\*---------------------------------------------------------------------------*/
FoamFile
{
    version     2.0;
    format      ascii;
    class       volScalarField;
    location    "7.1";
    object      ddt0(epsilon);
}
// * * * * * * * * * * * * * * * * * * * * * * * * * * * * * * * * * * * * * //

dimensions      [0 2 -4 0 0 0 0];

internalField   nonuniform List<scalar> 
7968
(
-7.00870024281e-05
-8.30931480462e-05
-9.34199326209e-05
-0.00010005919182
-0.000104196950658
-0.000106023885812
-0.000106619751745
-0.000106424662853
-0.000106402901851
-0.000106410738318
-0.00010673495305
-0.000107221788591
-0.000107627023993
-0.000107917943682
-0.000107262102241
-0.00010522754365
-0.000101112348934
-9.40419612502e-05
-8.31321413427e-05
-7.00009826453e-05
-8.31128990334e-05
-0.000142452656913
-0.000187589869143
-0.000216886135832
-0.000234488856544
-0.000244679965327
-0.00024988552178
-0.000252295747096
-0.000253659075454
-0.000255095613019
-0.000257155045773
-0.00025950301304
-0.000261094011448
-0.000260455088116
-0.000255703774163
-0.00024464971443
-0.000224668308546
-0.000192582581044
-0.000144594799716
-8.3014860244e-05
-9.37067563197e-05
-0.000187320415627
-0.000259620517803
-0.000308128221183
-0.0003390622464
-0.000357515971653
-0.000367730662668
-0.000373218719121
-0.000376708064816
-0.000379904848763
-0.000383519110282
-0.000387002612607
-0.000388827823831
-0.000386722121611
-0.000377667188705
-0.000358167731055
-0.000324175702259
-0.000270915204166
-0.000192706701809
-9.37370679529e-05
-0.000100431499645
-0.000216512649654
-0.000308051869491
-0.000370480324242
-0.000410957165115
-0.000435642544133
-0.000449955532384
-0.000458312276925
-0.000464642457948
-0.000470316078942
-0.000475047433235
-0.000477873009719
-0.000479253272136
-0.000475748741912
-0.00046341509778
-0.000437741903943
-0.000393595942617
-0.000325050802092
-0.000225251268887
-0.000100747980291
-0.000104219415324
-0.000234293714474
-0.000338689180999
-0.000410644238708
-0.000457741718366
-0.000487300996665
-0.000506353240394
-0.000519964116012
-0.000529171196068
-0.000536147017965
-0.00054185066851
-0.000545458567617
-0.000544957113416
-0.000537471066856
-0.000521430860536
-0.000491386818729
-0.000440193756768
-0.000360992824558
-0.000246154210834
-0.000105065974703
-0.000105999273951
-0.000244076634225
-0.000356541656844
-0.000434716445065
-0.000486670499554
-0.000522132053532
-0.0005466423427
-0.000562114306469
-0.000572523807169
-0.00058053543413
-0.000587144313252
-0.000591383731912
-0.000590853517207
-0.000582149398878
-0.000561407322394
-0.000526106090491
-0.000470014286513
-0.000383611335443
-0.00025885204685
-0.000107277280185
-0.000106513255732
-0.000248612997333
-0.000365827079217
-0.00044809881863
-0.000504907827065
-0.00054588459873
-0.000572121171254
-0.000588661516764
-0.000599945132568
-0.000608796493956
-0.000616213306654
-0.000621083705914
-0.000620798938024
-0.000611664898872
-0.000589166219541
-0.000548741802358
-0.000488010606827
-0.000396865038611
-0.000265830166169
-0.000108172038562
-0.000106361247236
-0.000250106409966
-0.000370052146896
-0.000455243366489
-0.000517395623665
-0.000560204590324
-0.000587411980458
-0.000604613683284
-0.000616501261988
-0.000625954761477
-0.000634011052282
-0.000639423241794
-0.000639422537395
-0.000630142737682
-0.00060680116877
-0.000564315587166
-0.000498367286527
-0.00040400787679
-0.000269159371619
-0.00010837011576
-0.000105935260458
-0.000250290856541
-0.00037194023191
-0.00045950229993
-0.000525016911038
-0.000568883954851
-0.000596686383484
-0.000614288010208
-0.000626486207842
-0.000636305420471
-0.000644758550686
-0.000650524290744
-0.000650727045193
-0.00064137061364
-0.000617525755857
-0.000573850056933
-0.000505064094706
-0.000407737931768
-0.000270573316924
-0.000108390590043
-0.000105693667845
-0.000250388860264
-0.000373339636229
-0.000463769556169
-0.000530202166309
-0.00057471423948
-0.000602944891534
-0.000620767013417
-0.000633110603174
-0.000643023841565
-0.00065158527485
-0.000657442102459
-0.00065765152237
-0.000648146142179
-0.000623916077787
-0.000579525151874
-0.000509497843308
-0.000409891168588
-0.000271241838566
-0.000108304157367
-0.000105638743472
-0.000251116823735
-0.000375178161797
-0.000466554359627
-0.000533984804731
-0.000579077168086
-0.000607675059475
-0.000625683473899
-0.000638058123059
-0.000647867752913
-0.000656219734767
-0.000661843451392
-0.000661780021479
-0.000651954983727
-0.000627323745797
-0.000582415833237
-0.000511743279407
-0.000411359996293
-0.000271836878362
-0.000108288747929
-0.0001059389966
-0.000252419444059
-0.000377177119346
-0.000467510906054
-0.000535837037867
-0.000581395317653
-0.000610290885164
-0.000628470710099
-0.00064080968038
-0.000650389249062
-0.000658294930134
-0.000663387895369
-0.000662791350616
-0.000652481761095
-0.000627441669174
-0.000582234531298
-0.000511548573387
-0.000411840763172
-0.000272313451316
-0.000108450857382
-0.000106318217921
-0.000253370118564
-0.000377976733039
-0.000467599576448
-0.000534062436103
-0.000579561349962
-0.000608573743053
-0.000626800991789
-0.000639028982592
-0.000648236725116
-0.000655530524727
-0.000659920361634
-0.00065863177698
-0.000647765500281
-0.000622428132697
-0.00057742485659
-0.000508515063161
-0.000410174290186
-0.000271734423066
-0.000108468114
-0.000106485187645
-0.000252522757186
-0.000375370593324
-0.000463209278523
-0.000525543586778
-0.000570015201304
-0.000598683415921
-0.000616706393181
-0.000628616085203
-0.000637329328056
-0.000643926801608
-0.000647560664072
-0.000645593008518
-0.000634309358529
-0.00060908023489
-0.000565252483386
-0.000500010245749
-0.000404099338676
-0.000268679981712
-0.00010811663451
-0.000105940064496
-0.000248018730302
-0.000366366086408
-0.000450552667574
-0.000507873395649
-0.000548371220665
-0.00057577810079
-0.000593111566278
-0.000604445792719
-0.000612523225253
-0.000618389384575
-0.00062130505442
-0.000618853758751
-0.000607594371698
-0.000583579020605
-0.000543727516569
-0.000482513370394
-0.000390812564646
-0.000261439362432
-0.000107088895204
-0.000104114186901
-0.000237680178955
-0.000347475624187
-0.00042518003213
-0.00047766102605
-0.000511705440481
-0.00053489404279
-0.000550606132983
-0.000560937892484
-0.000568197556649
-0.00057331338923
-0.000575671318017
-0.000573216274938
-0.000563004305018
-0.00054309793495
-0.000508131607003
-0.000451526564168
-0.00036710716908
-0.00024800319466
-0.000104724273328
-0.000100279379159
-0.000218891632219
-0.000314744602933
-0.000382010594423
-0.000427222550804
-0.000456096749549
-0.000473794528043
-0.000484638543192
-0.000492726766763
-0.000498834346724
-0.000503183234859
-0.000505469370353
-0.000504676874555
-0.000498160676801
-0.000481767281952
-0.000451340586382
-0.000402271711704
-0.000329260093092
-0.000226030905387
-0.000100407777481
-9.35273318714e-05
-0.000188482033701
-0.000263608647402
-0.000315522430244
-0.00034996226875
-0.000371661698964
-0.000384614645786
-0.000392203306927
-0.000397146206843
-0.000401097087194
-0.00040466375361
-0.000407320096833
-0.000407435413312
-0.000402725506406
-0.000390304361877
-0.000367015228937
-0.000329293482612
-0.000272884207924
-0.00019255969195
-9.33428305271e-05
-8.29213886948e-05
-0.000142553529243
-0.000188632442877
-0.00021950989285
-0.000239164555552
-0.000251155395459
-0.000257955684867
-0.000261657216689
-0.000263954917173
-0.000265905472709
-0.000267985182779
-0.000269865707249
-0.000270415800893
-0.000268166230877
-0.000261389194973
-0.000248144510038
-0.000226170445579
-0.000192628482026
-0.000143965957562
-8.26045168502e-05
-6.998826688e-05
-8.28386455816e-05
-9.32666091912e-05
-9.99909252588e-05
-0.000104103095962
-0.000106125801026
-0.000106935735168
-0.000107219361822
-0.000107358418001
-0.000107460479739
-0.000107747172988
-0.000108215123175
-0.000108433178746
-0.000108245614752
-0.000107254200047
-0.000104924163756
-0.000100572413759
-9.3443110252e-05
-8.26879635271e-05
-6.97996738989e-05
-8.23492201698e-05
-0.000137675371966
-0.000180438747631
-0.000209129730679
-0.000227621480109
-0.000238980522301
-0.000245587935047
-0.000249545793673
-0.000251598725974
-0.00025336843716
-0.000255409621681
-0.000257417977407
-0.000258323802744
-0.00025637692732
-0.00025044450014
-0.000238478703503
-0.000218160900409
-0.000186640564029
-0.00014048909244
-8.24534195914e-05
-0.000137635068977
-7.75711006308e-05
-9.47480827071e-05
-0.000107561506974
-0.000116335928151
-0.000122000943238
-0.000125475124983
-0.000127578020315
-0.000128951099838
-0.000130040989507
-0.000131028245275
-0.000131773581602
-0.000131887733053
-0.000130803706356
-0.000127833372045
-0.000122145734716
-0.000112815240127
-9.89205487855e-05
-8.0204265887e-05
-0.000140337950579
-0.000180353331029
-9.47045135464e-05
-0.000114135727117
-0.00012964036111
-0.000140746408831
-0.000148142007263
-0.000152775954926
-0.000155594302277
-0.000157396076488
-0.000158701727443
-0.000159736708902
-0.000160364024639
-0.000160172451153
-0.000158525991522
-0.0001546065552
-0.00014748229696
-0.00013618302571
-0.000119904343312
-9.89907659672e-05
-0.000186482976358
-0.000208898554032
-0.000107436325184
-0.000129576160262
-0.000147862824628
-0.000161286485822
-0.000170401200893
-0.000176197932493
-0.000179718433906
-0.000182024196089
-0.000183560470905
-0.000184574051931
-0.000184926028639
-0.000184266308881
-0.000181953488266
-0.000177040280689
-0.000168497350306
-0.000155281852064
-0.000136629092709
-0.000113233503752
-0.000218484369181
-0.000227081223774
-0.000116088266599
-0.000140619986278
-0.000161285284666
-0.000176705197605
-0.000187356765692
-0.000194337834022
-0.000198695808704
-0.00020130806308
-0.000202938714337
-0.00020395116635
-0.000204185180251
-0.000203124080528
-0.000200010281444
-0.000194051542799
-0.000184258466939
-0.000169429324546
-0.000148777568634
-0.000123223389756
-0.000239912363511
-0.00023792075034
-0.000121563303035
-0.000147949771899
-0.000170473284869
-0.00018751435855
-0.000199613935906
-0.000207523929776
-0.000212219438633
-0.000214950344885
-0.000216666073259
-0.000217774231217
-0.00021805692707
-0.000216875210181
-0.000213336825942
-0.000206502861704
-0.000195496040128
-0.000179357136168
-0.000157141227699
-0.000129888693442
-0.000253632028207
-0.000243791766125
-0.000124775393666
-0.000152496687173
-0.000176404764028
-0.000194797821445
-0.000207903097932
-0.000216171949115
-0.000220954073547
-0.000223724926131
-0.000225550179701
-0.000226849425853
-0.000227332293308
-0.000226240446913
-0.00022256484021
-0.00021524555161
-0.000203314752872
-0.00018603196043
-0.00016263204986
-0.000134114103696
-0.000261811286549
-0.00024656296359
-0.000126539624553
-0.000155186719535
-0.000180083157448
-0.000199504008685
-0.000213032537475
-0.000221391367752
-0.000226140947771
-0.000228916298359
-0.000230865191717
-0.000232398830685
-0.000233152578504
-0.000232258495165
-0.000228614651659
-0.00022107732765
-0.000208604518714
-0.000190417003126
-0.000166092567015
-0.000136652070725
-0.000266176767833
-0.00024787043251
-0.000127511759355
-0.000156792137327
-0.000182397972681
-0.000202389702033
-0.00021609466092
-0.000224444750094
-0.000229133680546
-0.000231908010015
-0.000233964288694
-0.000235700936843
-0.000236692330955
-0.000235989746784
-0.000232425071939
-0.000224797733417
-0.000212013252507
-0.000193245782678
-0.000168215652268
-0.000138112946979
-0.000268249332693
-0.000248383411808
-0.000128157867316
-0.000157852477173
-0.000183969151057
-0.000204193688908
-0.000217986490357
-0.000226341045435
-0.000231010424663
-0.000233796576475
-0.0002359169921
-0.000237763253966
-0.000238877455591
-0.000238267093392
-0.000234734498336
-0.000227047864757
-0.000214082850731
-0.000194988805104
-0.000169490737412
-0.000138942476906
-0.000269252241467
-0.000249207029204
-0.000128714099601
-0.000158616170036
-0.000184898825792
-0.000205255064135
-0.000219141398649
-0.000227569255356
-0.000232294597751
-0.000235116095362
-0.000237246664448
-0.000239076433015
-0.000240158202784
-0.000239501583034
-0.000235911264442
-0.000228147922478
-0.000215073282239
-0.000195825175414
-0.000170145780496
-0.000139362751842
-0.000269844690373
-0.000250307975012
-0.000129095714746
-0.000158962378794
-0.00018505212741
-0.000205410529585
-0.000219381818551
-0.000227942957446
-0.000232795366046
-0.000235676146884
-0.00023777020551
-0.000239471743158
-0.000240385734203
-0.000239564059732
-0.00023584287577
-0.000227997045029
-0.000214893701764
-0.000195673241395
-0.000170052341429
-0.000139321072526
-0.000270016788328
-0.000250500943988
-0.000128942766084
-0.000158473599604
-0.000184094181243
-0.000204112398654
-0.000218048381385
-0.000226731515344
-0.000231738438953
-0.000234692613833
-0.000236723600209
-0.00023823417147
-0.000238908066165
-0.000237858709773
-0.000233988315033
-0.000226110770338
-0.000213127106548
-0.000194213152245
-0.000168934125647
-0.000138496546976
-0.000268880942597
-0.000248557554272
-0.000127685974493
-0.000156500016202
-0.00018132189389
-0.000200493723065
-0.000214117987058
-0.000222799685147
-0.000227921169719
-0.00023094536859
-0.000232917709893
-0.000234238087501
-0.000234679548813
-0.000233424308793
-0.000229473510833
-0.000221707512575
-0.00020908803071
-0.000190820708078
-0.000166175089304
-0.00013636988011
-0.000265100694499
-0.000242868026438
-0.000124628952547
-0.000152218539309
-0.000175776641575
-0.000193676357465
-0.000206482574068
-0.000214895245184
-0.00022000181666
-0.000223057403827
-0.000224990537152
-0.000226180333012
-0.000226457261058
-0.000225114547065
-0.000221253703882
-0.00021386585296
-0.000201994097932
-0.000184649277235
-0.000160997266686
-0.000132270660682
-0.000257053543574
-0.000231547298625
-0.000118970985784
-0.000144732306062
-0.000166492592528
-0.000182847316691
-0.000194295729408
-0.000201963606226
-0.000206810880968
-0.000209800718171
-0.000211699069664
-0.000212833375328
-0.00021307295871
-0.000211831917191
-0.00020832318237
-0.00020168942983
-0.000190854436838
-0.000174698925782
-0.000152522227682
-0.000125446720964
-0.000242901103826
-0.000212338326643
-0.000109852238665
-0.000133181823547
-0.000152567563607
-0.000166976966319
-0.000176955600635
-0.000183499709994
-0.000187670249804
-0.000190397651998
-0.000192213786519
-0.000193346398973
-0.000193689005387
-0.000192791032075
-0.000189936523697
-0.000184189884959
-0.000174527658069
-0.000159964421821
-0.000139839919445
-0.000115032014032
-0.000220667594611
-0.000182441626921
-9.64362771745e-05
-0.000116944363689
-0.000133490121598
-0.00014556512748
-0.00015383568544
-0.00015922451349
-0.000162659746798
-0.00016491815994
-0.000166509822649
-0.000167628155626
-0.000168138213064
-0.000167584951533
-0.000165316999581
-0.000160519329977
-0.000152302130125
-0.000139772427726
-0.00012223377526
-0.000100182982172
-0.00018767786359
-0.000138364663601
-7.84857057856e-05
-9.65103887906e-05
-0.000110219626542
-0.000119864880196
-0.000126327100085
-0.000130485481421
-0.000133125158028
-0.000134882960098
-0.000136178209231
-0.000137168473884
-0.000137721820695
-0.000137425709257
-0.000135717058072
-0.000131928256321
-0.000125296329393
-0.00011498734815
-0.000100181414544
-8.07345725979e-05
-0.000140628297503
-8.2228407163e-05
-0.000138248139472
-0.000182347236179
-0.000212729161823
-0.000233020817806
-0.000246073903867
-0.000254126671636
-0.000258805921127
-0.000261673439183
-0.000263851085207
-0.000265827782898
-0.000267333293089
-0.000267265778152
-0.000264259027153
-0.000256634266994
-0.000242799048144
-0.000220695309849
-0.000187722017232
-0.000140636580837
-8.22269010641e-05
-9.16648557616e-05
-0.000174978157978
-0.000242951334547
-0.000291413331283
-0.000324356604484
-0.000345420272948
-0.000357997351759
-0.000365224274709
-0.000369698595132
-0.000373209009743
-0.000376568257462
-0.000379336084442
-0.000379955557808
-0.000376223252211
-0.000365512544096
-0.000344742751394
-0.000310400058665
-0.000258369879699
-0.000184002818749
-9.26555706789e-05
-0.00017491890371
-9.26610032936e-05
-0.000113470263076
-0.000130659625379
-0.000143128741882
-0.000151255598331
-0.00015598091286
-0.000158433253939
-0.000159647860102
-0.000160345753657
-0.000160858513586
-0.000161083061262
-0.000160585537797
-0.000158660220475
-0.000154457958791
-0.000147037414276
-0.000135453512272
-0.000118957032133
-9.79459858178e-05
-0.00018378053047
-0.000242801857476
-0.000113462889334
-0.00013459284684
-0.000153695713436
-0.000167990235952
-0.000177289734426
-0.000182436355886
-0.000184694259495
-0.000185266407447
-0.000185050386342
-0.000184535720011
-0.00018368371891
-0.000182133267093
-0.000179210200868
-0.000174099682301
-0.00016592576253
-0.000153924966083
-0.00013779651036
-0.00011916629743
-0.000258425796998
-0.000291088638216
-0.000130721879004
-0.000153918354063
-0.000175635033904
-0.000192027833977
-0.000202585164303
-0.000208122637988
-0.000210338800249
-0.000210379526563
-0.000209362524521
-0.00020792119054
-0.00020610159418
-0.000203542945739
-0.000199532135443
-0.000193385844648
-0.000184187995907
-0.000171249739679
-0.000154491860404
-0.000136269350422
-0.000311861763318
-0.000323776711407
-0.00014339468086
-0.000168801609855
-0.000192863510525
-0.00021100935901
-0.00022254100068
-0.000228679888967
-0.000230644112646
-0.000230082954226
-0.000228360782904
-0.000226310958611
-0.000223945468789
-0.000220791831341
-0.000216021698523
-0.00020889278615
-0.000198720498125
-0.000184863424292
-0.000167303189408
-0.000148831101606
-0.000348919599908
-0.000344508364175
-0.000151860175572
-0.000179076143366
-0.000204924122184
-0.000224298804129
-0.00023680368136
-0.000242956316054
-0.000244602274789
-0.000243517334034
-0.00024133614903
-0.000239081060937
-0.000236666090297
-0.00023352158393
-0.000228473414111
-0.000220532839857
-0.00020945750059
-0.000194780364122
-0.00017648469694
-0.000157573788132
-0.000373687042421
-0.000356668499466
-0.000157026978485
-0.000185523071555
-0.000212577275906
-0.000233008306138
-0.000245401379371
-0.00025107008832
-0.000252154308446
-0.000250611332794
-0.000248228986683
-0.000246154975546
-0.00024414288059
-0.000241500122531
-0.00023686118204
-0.000228806207636
-0.000217022794991
-0.000201714221451
-0.000182768984421
-0.00016338950629
-0.000389487242855
-0.000363349822063
-0.000159962561946
-0.000189246978068
-0.000217031811091
-0.000237810444123
-0.000249672053434
-0.000254614012001
-0.000255039533882
-0.000253108260925
-0.000250742568253
-0.000249084578866
-0.000247723877244
-0.000245794356059
-0.000241778095114
-0.00023410195579
-0.000222151639798
-0.000206418886723
-0.000186956976983
-0.000167121934577
-0.000399090893079
-0.000367106222452
-0.000161639682572
-0.000191335290221
-0.000219590500755
-0.000240237377116
-0.00025159985453
-0.000255907402325
-0.000255794088635
-0.000253607512231
-0.000251359654609
-0.000250151201494
-0.000249427227586
-0.000248150880881
-0.000244682179536
-0.000237369525536
-0.000225501182156
-0.000209559461313
-0.000189748494733
-0.000169470874414
-0.000404702332652
-0.000369786925806
-0.000162757753684
-0.000192567977948
-0.000220948711911
-0.000241467111624
-0.000252570613922
-0.000256571065317
-0.000256207695411
-0.000253939604041
-0.000251827824271
-0.000250939265153
-0.000250630246555
-0.00024975460805
-0.00024660278653
-0.000239487519836
-0.000227673355256
-0.000211620454895
-0.000191558228458
-0.00017094539781
-0.000407993056267
-0.000372353263681
-0.000163618333153
-0.000193298565513
-0.000221556389466
-0.000241984909773
-0.000253066049033
-0.000257103390521
-0.000256816526034
-0.000254651113572
-0.000252652527714
-0.000251870846211
-0.000251657472904
-0.000250860272909
-0.000247773830402
-0.00024070936101
-0.000228909629415
-0.00021279708063
-0.000192572883233
-0.000171774771801
-0.000409867887897
-0.000374433993379
-0.000164053515954
-0.000193352210996
-0.000221242226577
-0.000241608240462
-0.000252893199838
-0.000257299534092
-0.000257403379401
-0.000255512945275
-0.000253598103588
-0.000252715488248
-0.000252297827489
-0.000251284844357
-0.000248039290786
-0.000240897914887
-0.000229085588613
-0.000212973196197
-0.000192730580542
-0.000171873520842
-0.00041019949381
-0.000374509718783
-0.000163528726513
-0.000192146416197
-0.000219364248512
-0.000239575299241
-0.000251082652909
-0.000255951165178
-0.000256597588195
-0.000255112848909
-0.000253304711279
-0.00025221976977
-0.000251428397093
-0.000250034000958
-0.000246545833066
-0.000239363868666
-0.00022768006498
-0.000211735937846
-0.000191587428934
-0.000170842022748
-0.000407706119014
-0.000370193018063
-0.000161208216646
-0.000188785999782
-0.000215050119043
-0.000234806549278
-0.000246516796564
-0.000251745354846
-0.000252930648855
-0.000251932372262
-0.000250323714693
-0.000249080038541
-0.000247928333529
-0.000246143448727
-0.000242440167972
-0.000235342414132
-0.000224050535599
-0.000208446206507
-0.00018859820775
-0.000168044080591
-0.000400265734829
-0.000358722590149
-0.000156159127248
-0.000182317452406
-0.000207247017316
-0.000226096473086
-0.00023800687886
-0.00024366413004
-0.000245322409446
-0.00024485454346
-0.000243601686049
-0.000242370455314
-0.000241045878244
-0.000239000579395
-0.000235175255252
-0.000228283321614
-0.000217502795053
-0.00020233291067
-0.000182961438259
-0.000162676218648
-0.000385337917584
-0.000337084318529
-0.000147469208459
-0.000171871728815
-0.000195058901977
-0.000212671033194
-0.000224144486957
-0.000230306465473
-0.000232610095402
-0.000232770946246
-0.000232046883932
-0.000231096913397
-0.000229883474019
-0.000227829685279
-0.000224019115332
-0.000217413739045
-0.00020716624281
-0.000192623067346
-0.000173845444248
-0.000153856361971
-0.000360040886812
-0.000302156953612
-0.00013440925804
-0.000156925367359
-0.000178040888929
-0.000194109526495
-0.000204729994534
-0.000210736167308
-0.000213572476913
-0.000214434076073
-0.000214394898605
-0.000213991947423
-0.000213202639176
-0.000211498247121
-0.000208072953203
-0.000202045358512
-0.000192472431271
-0.000178647069214
-0.000160528441268
-0.000140701835449
-0.000321083761043
-0.000250591572265
-0.000116659533197
-0.00013773110136
-0.000156751340539
-0.00017113947419
-0.000180786574714
-0.000186524441562
-0.000189540031514
-0.000190975106825
-0.000191647686074
-0.000191941044098
-0.000191781296734
-0.000190664356914
-0.000187845612667
-0.000182439982993
-0.000173547409021
-0.000160411284528
-0.000142801989735
-0.000122561064703
-0.000264661732594
-0.000178709519108
-9.51384339189e-05
-0.00011671071106
-0.000134556971808
-0.000147701875573
-0.000156574960391
-0.000162098881084
-0.000165348929557
-0.000167294042404
-0.000168601275247
-0.000169541893586
-0.000169977452551
-0.000169392554529
-0.000167038360691
-0.000162057742678
-0.000153529717686
-0.0001405687964
-0.000122534272674
-0.000100025298157
-0.0001865079839
-9.18226891584e-05
-0.000178533274488
-0.00025054650781
-0.000302982754202
-0.000339630542561
-0.000363976787324
-0.000379302174082
-0.000388673702337
-0.000394645713664
-0.000398970006732
-0.000402396755777
-0.000404529424806
-0.000403728043906
-0.000397727048192
-0.000383926811252
-0.000359388849022
-0.000320868787844
-0.000264642644684
-0.0001865134197
-9.25523836592e-05
-9.61003535366e-05
-0.00019927133026
-0.000294405154956
-0.000367474757752
-0.000418142403678
-0.000448980821232
-0.000464582083553
-0.000470465206455
-0.000471702236436
-0.000471771820205
-0.000472288957356
-0.00047291005199
-0.00047168684661
-0.000465510390846
-0.000450631376248
-0.000422817961168
-0.000377424013055
-0.000309381774243
-0.000213767599183
-9.93377942366e-05
-0.000199247942647
-0.000108812720123
-0.000140209358845
-0.000167099077845
-0.000186294053512
-0.000197674270063
-0.000202649512104
-0.000203292354698
-0.000201610495776
-0.000199076800499
-0.000196500031767
-0.000193970291064
-0.000191033373746
-0.000186822105067
-0.000180237060605
-0.000170128623406
-0.000155449802973
-0.000135549381604
-0.000111344732586
-0.000213560815582
-0.0002945572843
-0.000140478670841
-0.000173405158525
-0.000202702718737
-0.000223416772137
-0.000235060611015
-0.000239145115057
-0.000238047579667
-0.000233959073276
-0.000228729509478
-0.000223426578999
-0.000218256368413
-0.000212864471825
-0.000206593413681
-0.000198488400256
-0.000187586356853
-0.000173130841437
-0.000155046211021
-0.000135789821498
-0.000309869918077
-0.000368346686076
-0.000168185187567
-0.000203930953751
-0.000235886482041
-0.00025802466743
-0.000269746521387
-0.000273056796099
-0.000270947838923
-0.000265104840245
-0.000257695112703
-0.000250193877148
-0.000242961356006
-0.000235635715748
-0.000227415674451
-0.000217462669162
-0.000205447173219
-0.000190654218661
-0.000173090174894
-0.000156081456602
-0.000380138748741
-0.000420626495076
-0.000188925057414
-0.000227113696982
-0.000261022743095
-0.000283950187927
-0.000295968054645
-0.000298967177954
-0.000295591937393
-0.000288135411155
-0.000279026662385
-0.000270211184153
-0.000261933067351
-0.000253960425399
-0.000244930191235
-0.000233486211657
-0.000219768350136
-0.000204273902064
-0.000186938291546
-0.000171146951695
-0.000429300419035
-0.000454149061928
-0.000202619357955
-0.000242516388717
-0.000277602074689
-0.000300809359647
-0.000312245168145
-0.000313953433827
-0.000309275632658
-0.000300557621199
-0.000290403190833
-0.000281174725329
-0.00027299405958
-0.000265581629169
-0.000257105215562
-0.000245458610151
-0.000230730235273
-0.000214077705315
-0.000196704447041
-0.000181641383018
-0.000462326793495
-0.000473393989073
-0.000210586171493
-0.000251445077503
-0.000286705055151
-0.000309658508747
-0.000319380199766
-0.000319081330735
-0.000312826225463
-0.00030302235415
-0.00029238939341
-0.000283592660169
-0.000276390870261
-0.000270397230557
-0.000263531771943
-0.000252878195351
-0.00023822828625
-0.000221032392079
-0.00020331580003
-0.000188656479565
-0.000483671639377
-0.000483449557487
-0.000214662638836
-0.000255941385927
-0.00029123541933
-0.000312802282372
-0.000320350076183
-0.000317905833819
-0.000309977739255
-0.000299224419637
-0.000288547857467
-0.000280630857417
-0.00027490169335
-0.000270637605696
-0.00026552178962
-0.000256416295228
-0.000242589176898
-0.000225624648699
-0.000207830856681
-0.000193283724331
-0.000497126529274
-0.000488917598775
-0.000216612810025
-0.000257826169398
-0.000292812919078
-0.000313242610426
-0.000319237047166
-0.000315183007088
-0.000305935682679
-0.000294464392437
-0.000283884455737
-0.000276864624893
-0.000272567461693
-0.000269846429399
-0.000266122206815
-0.000258203141801
-0.000245228129783
-0.000228707414754
-0.000210975511563
-0.000196435884015
-0.000505729539477
-0.000492974550523
-0.00021767467149
-0.000258489328543
-0.000293106173039
-0.000312938593622
-0.000318225052202
-0.000313422521298
-0.000303510567623
-0.000291682561614
-0.000281246629411
-0.000274869832355
-0.000271537524059
-0.000269816428128
-0.000266940792822
-0.000259700263016
-0.000247224090388
-0.000230993361433
-0.000213325533938
-0.000198692636649
-0.00051155424297
-0.000496991651433
-0.000218335152144
-0.000258505155227
-0.000292684411862
-0.000312285190106
-0.000317512308098
-0.000312756417124
-0.000302938140324
-0.000291261835211
-0.000281043812076
-0.00027493372563
-0.000271894165107
-0.000270458644443
-0.000267863289382
-0.000260918521704
-0.000248721913143
-0.000232678348989
-0.000215023188583
-0.000200265033567
-0.000515634367514
-0.000500193383695
-0.000218332850868
-0.00025763618982
-0.000291313697552
-0.00031103519557
-0.000316838418112
-0.00031291282364
-0.000303948627826
-0.00029293395382
-0.000282987112055
-0.000276752569047
-0.000273343440116
-0.000271508600285
-0.000268658765314
-0.000261648602519
-0.000249515773707
-0.000233550820015
-0.000215864689492
-0.0002009728719
-0.000517653464693
-0.000500095163263
-0.000216772630571
-0.000254952992734
-0.000287957650129
-0.000307806068701
-0.000314367385827
-0.000311583897625
-0.000303867893468
-0.00029388069165
-0.00028435257503
-0.000277816824502
-0.000273655205021
-0.000271010073145
-0.00026763882978
-0.000260519486067
-0.000248599563102
-0.000232912163705
-0.000215325743203
-0.000200266313908
-0.00051574322666
-0.000492807236157
-0.000212288684973
-0.000249021761174
-0.000281226236414
-0.000301190688641
-0.000308656536763
-0.000307028544044
-0.000300631170422
-0.000291778438976
-0.000282852071836
-0.000276086852802
-0.000271191350992
-0.00026766960425
-0.000263692767657
-0.000256505370251
-0.000245098316246
-0.000229942358767
-0.000212606819455
-0.000197330388607
-0.000507099276368
-0.000473881960838
-0.000203414432984
-0.000238371640592
-0.000269813388831
-0.000289966985772
-0.000298563008674
-0.000298389345683
-0.000293278306274
-0.000285684730587
-0.000277595715048
-0.000270908959525
-0.000265623364757
-0.000261431524373
-0.000256852821198
-0.000249585442427
-0.000238676375016
-0.00022410107126
-0.000206865304487
-0.000191137350618
-0.00048805798288
-0.000439007277223
-0.000188910690202
-0.000221797235995
-0.000251907472371
-0.000272289632501
-0.000282132318717
-0.000283620800823
-0.000280097368985
-0.000273960875146
-0.000267126928227
-0.000261081668529
-0.000256007429433
-0.000251581006111
-0.000246593762684
-0.000239328225521
-0.000228782767438
-0.000214585398261
-0.000197151312885
-0.000180597977533
-0.000454539343245
-0.000384509537881
-0.000168091061709
-0.000198794517541
-0.000227070018244
-0.00024702500267
-0.000257867595828
-0.000261117338979
-0.000259412709083
-0.000255098525844
-0.000249995506958
-0.000245251604316
-0.000241085926026
-0.000237097220464
-0.000232273843147
-0.00022520604863
-0.0002148726435
-0.000200673874711
-0.000182750492545
-0.000164724061898
-0.000402085038439
-0.000307721363215
-0.000141320957704