/*--------------------------------*- C++ -*----------------------------------*\
| =========                 |                                                 |
| \\      /  F ield         | OpenFOAM: The Open Source CFD Toolbox           |
|  \\    /   O peration     | Version:  3.0.1                                 |
|   \\  /    A nd           | Web:      www.OpenFOAM.org                      |
|    \\/     M anipulation  |                                                 |
\*---------------------------------------------------------------------------*/
FoamFile
{
    version     2.0;
    format      ascii;
    class       volScalarField;
    location    "7.1";
    object      ddt0(k);
}
// * * * * * * * * * * * * * * * * * * * * * * * * * * * * * * * * * * * * * //

dimensions      [0 2 -3 0 0 0 0];

internalField   nonuniform List<scalar> 
7968
(
-7.67514671689e-05
-8.45638997877e-05
-9.02080352439e-05
-9.36814011703e-05
-9.59014489507e-05
-9.67737525422e-05
-9.7037779776e-05
-9.68472342568e-05
-9.68920722548e-05
-9.70038077492e-05
-9.73277391973e-05
-9.76959184535e-05
-9.80283242784e-05
-9.83365780295e-05
-9.80916273151e-05
-9.70961056477e-05
-9.49373239001e-05
-9.10423593292e-05
-8.47457021103e-05
-7.67039814911e-05
-8.46035650202e-05
-0.000116647689549
-0.000137529744784
-0.000149789531312
-0.000156623516571
-0.000160579732284
-0.000162713417721
-0.000163959145585
-0.000164987727758
-0.000166179398732
-0.000167687746812
-0.000169293780504
-0.000170534972929
-0.000170793667186
-0.000169272975625
-0.00016498292274
-0.00015663085698
-0.00014231518104
-0.00011900994018
-8.46122876715e-05
-9.04969542033e-05
-0.000137327893367
-0.000167483846303
-0.000185741463808
-0.000196710865313
-0.000203154788302
-0.00020691477434
-0.000209339180963
-0.000211366409962
-0.000213507232427
-0.000215912750101
-0.000218262614374
-0.000219927235877
-0.000220047733245
-0.000217475684379
-0.000210796055612
-0.00019816694153
-0.000176879076619
-0.000142440259409
-9.06994715375e-05
-9.40306929982e-05
-0.000149452210925
-0.000185603380187
-0.000207795696083
-0.00022137046465
-0.000229557039153
-0.00023460046212
-0.000238090804057
-0.000241374314139
-0.000244679722785
-0.000247779958912
-0.00025005751242
-0.000251789347417
-0.000251706892622
-0.000248395058423
-0.000240137005493
-0.00022471339856
-0.000198872794294
-0.000157173862976
-9.45544276864e-05
-9.58739042919e-05
-0.000156294536224
-0.000196234807242
-0.000221009847994
-0.000236369170824
-0.000246012940125
-0.000252549856728
-0.000257967893762
-0.000262421694163
-0.000266429222217
-0.000270117960553
-0.000273004470886
-0.000274311550565
-0.000273077855644
-0.000268714040058
-0.000259310901117
-0.000241960427175
-0.000213016262807
-0.000166331742781
-9.69787595989e-05
-9.66556517794e-05
-0.000159826932766
-0.000202110952919
-0.000228599977088
-0.000245397278818
-0.000256856714589
-0.000265387493174
-0.000271643214606
-0.000276799714648
-0.000281468145039
-0.000285713228653
-0.000288972207307
-0.000290351067531
-0.000288754170129
-0.000282942817163
-0.000271980255976
-0.000253181877789
-0.000222044120445
-0.000172009419549
-9.82079467811e-05
-9.68045740966e-05
-0.000161354436268
-0.000205082572499
-0.000232826445474
-0.000251222571401
-0.000264632844292
-0.000273932016889
-0.000280870629734
-0.000286691556214
-0.000291974418908
-0.000296722572582
-0.000300293488925
-0.000301738460971
-0.000299913175588
-0.000293418308064
-0.00028068177875
-0.00026041832854
-0.000227683008825
-0.000175352993181
-9.87234675991e-05
-9.66635280724e-05
-0.000161831119414
-0.000206509111707
-0.000235319548154
-0.000255632615971
-0.000269808238775
-0.000279714247102
-0.000287237874511
-0.000293633961861
-0.00029942253376
-0.000304572840344
-0.000308373407206
-0.000309837966307
-0.000307808528561
-0.000300844598403
-0.000287241604037
-0.000265119119341
-0.000231140985007
-0.000177221254902
-9.88157702951e-05
-9.63560661577e-05
-0.000161931660112
-0.000207338000851
-0.000237152139704
-0.000258764173186
-0.000273491970403
-0.000283874191871
-0.000291847904095
-0.000298643550609
-0.000304786882353
-0.000310192226893
-0.000314112577616
-0.000315551422347
-0.000313334744919
-0.000306004694576
-0.000291788772695
-0.000268460321844
-0.000233323744054
-0.00017828390832
-9.88714538751e-05
-9.6235348321e-05
-0.00016210828616
-0.000208173378089
-0.000239369069623
-0.000261288195758
-0.000276396543563
-0.000287122005044
-0.000295367633504
-0.000302386879708
-0.000308683655449
-0.000314175601562
-0.000318096717794
-0.000319452598111
-0.000317066034102
-0.00030945983392
-0.000294836116337
-0.000270900815735
-0.000234798323297
-0.000178953944989
-9.88890424443e-05
-9.6212234255e-05
-0.000162625246792
-0.000209301015023
-0.000240929727042
-0.000263412387594
-0.000278823624967
-0.00028975450225
-0.00029811615751
-0.000305167876646
-0.000311424652835
-0.000316819938304
-0.000320622839126
-0.000321838048279
-0.000319289198923
-0.000311477667279
-0.000296584065825
-0.000272306079402
-0.000235819858388
-0.000179471593066
-9.89493418217e-05
-9.63989915285e-05
-0.000163443129028
-0.00021056332822
-0.000241809259144
-0.000264859231572
-0.000280472593099
-0.000291466243565
-0.000299798103609
-0.000306716298625
-0.000312771431197
-0.000317917667087
-0.000321504760914
-0.000322539714852
-0.000319841065982
-0.000311897715438
-0.000296879809652
-0.000272542989274
-0.000236215312553
-0.000179785370439
-9.90774322403e-05
-9.66635042077e-05
-0.00016417203073
-0.000211438922276
-0.000242535408992
-0.000265071832474
-0.000280662676939
-0.000291577245518
-0.000299729076721
-0.000306388182716
-0.00031211085293
-0.000316903792139
-0.000320202390555
-0.00032101847605
-0.000318181270664
-0.00031018356267
-0.000295257136731
-0.000271613609175
-0.000235595376051
-0.000179496959144
-9.90900451457e-05
-9.68319477071e-05
-0.000164220769889
-0.000211123913315
-0.000241762343713
-0.000263021874178
-0.000278285118672
-0.000288942967435
-0.000296779339452
-0.000303045653992
-0.000308346538264
-0.000312722787312
-0.000315689319289
-0.000316279931237
-0.000313345517387
-0.000305421074847
-0.000290898873511
-0.000268499838317
-0.000233132870105
-0.00017805139869
-9.89315207444e-05
-9.66766237606e-05
-0.000162824124697
-0.000208508612028
-0.00023818381308
-0.000257789103585
-0.00027190896889
-0.000282069942034
-0.000289441742186
-0.000295220361183
-0.000300030223901
-0.000303950773894
-0.000306559526315
-0.000306948540563
-0.000304014421246
-0.000296491500775
-0.000283431178565
-0.000261957629497
-0.000227814996007
-0.000174762037269
-9.84285284989e-05
-9.58695816016e-05
-0.000159018848556
-0.00020220772376
-0.000230132191814
-0.000248366924481
-0.000260450472572
-0.000269226186136
-0.000275897493271
-0.000281083045771
-0.000285344687281
-0.000288782377549
-0.000291043187442
-0.000291326901848
-0.000288662414734
-0.000282571302294
-0.000270662203951
-0.000250400705226
-0.00021839117744
-0.000168763479848
-9.71063221096e-05
-9.39826363398e-05
-0.000151543189343
-0.000190455325323
-0.000215438994004
-0.000231652547927
-0.000242176599962
-0.000249154796383
-0.00025411694777
-0.000258355656525
-0.000261978419906
-0.000264914402465
-0.000266967495534
-0.000267703178374
-0.000266107665756
-0.000260721400261
-0.000249956001687
-0.000231777417708
-0.000203174581778
-0.000158920357464
-9.46698561391e-05
-9.04180702228e-05
-0.000138529596259
-0.000170692908039
-0.000191087055001
-0.000204158900291
-0.000212528378127
-0.000217927619358
-0.000221631059355
-0.000224558029401
-0.000227182447531
-0.000229603824991
-0.000231539898778
-0.00023231046774
-0.000231057658191
-0.000226674940726
-0.000217885071307
-0.000203035383826
-0.000179635501182
-0.000143397510581
-9.07008714853e-05
-8.4462292468e-05
-0.000116941253851
-0.000138674311562
-0.000152109218326
-0.00016033452892
-0.00016549817755
-0.000168695268297
-0.00017079596008
-0.000172440544128
-0.00017397405503
-0.00017552410786
-0.00017688510777
-0.000177532559413
-0.000176857567792
-0.000174135892526
-0.000168500937014
-0.000158847495706
-0.000143395080049
-0.000119271117664
-8.4473239779e-05
-7.66678971474e-05
-8.43668526778e-05
-9.01281385458e-05
-9.36932205968e-05
-9.59196268425e-05
-9.69638408878e-05
-9.74055974378e-05
-9.75886838428e-05
-9.77490193529e-05
-9.79262155912e-05
-9.82423003403e-05
-9.86576324842e-05
-9.88718750624e-05
-9.8873206365e-05
-9.84094178533e-05
-9.72129859439e-05
-9.48301914133e-05
-9.08384202756e-05
-8.45896920949e-05
-7.66111251807e-05
-8.41798791797e-05
-0.000114773509933
-0.000134704293397
-0.000146704558443
-0.000153959519311
-0.000158323316986
-0.000160976928563
-0.000162892851221
-0.000164172537017
-0.00016549473908
-0.000167021545799
-0.000168544467416
-0.000169571771471
-0.000169336807433
-0.000167410403783
-0.000162819758071
-0.00015436120944
-0.000140248638165
-0.000117522668932
-8.43879716982e-05
-0.000114738592848
-0.000225310905893
-0.000278407348093
-0.000310843299138
-0.000331274064224
-0.000344128254623
-0.00035233134511
-0.000358017371843
-0.000362597969975
-0.000366933383814
-0.000371213612034
-0.000374918499385
-0.000377052497402
-0.000376252558542
-0.000370815756984
-0.000358494073758
-0.000336227491521
-0.000299382505651
-0.000239052904483
-0.000117434221619
-0.000134630044079
-0.000278307001861
-0.000349236595523
-0.000394278619683
-0.000423513094129
-0.000442163472455
-0.000453966558586
-0.000461815197266
-0.000467837553426
-0.000473247719775
-0.000478438357962
-0.000482758407365
-0.000484884725583
-0.00048307325005
-0.000475041721291
-0.00045789007615
-0.000427723071377
-0.000378737902881
-0.000299774358216
-0.000140191465433
-0.000146484299885
-0.000310407293349
-0.000393982674747
-0.000448285156128
-0.000484091646298
-0.000507108727156
-0.000521587284019
-0.000530877406284
-0.000538353527992
-0.000544612512371
-0.000550444481547
-0.000555227667112
-0.000556873045115
-0.000554054773147
-0.000543890376705
-0.000523120529416
-0.000487318207831
-0.000429912044359
-0.000338286039482
-0.000154741158807
-0.000153447095217
-0.00033027140404
-0.000422823184885
-0.000483890709214
-0.000524569056757
-0.000550842468228
-0.000567640057998
-0.000578519605962
-0.000586637280872
-0.000593738921979
-0.000600329031706
-0.000605467908311
-0.000607384283808
-0.000603791563198
-0.00059170933595
-0.000568030703586
-0.000527960463019
-0.000464402333444
-0.000363759539539
-0.000164144158059
-0.00015735323553
-0.000342316230494
-0.000441035840892
-0.000506910047326
-0.000551074030607
-0.000580027661176
-0.000598300330507
-0.000610344213287
-0.00061956403576
-0.000627830324025
-0.000635473364455
-0.000641309698174
-0.000643402239832
-0.0006392482759
-0.000625909161251
-0.000599707857657
-0.000556189196384
-0.000487989389517
-0.000380828318268
-0.000170179562919
-0.000159384869327
-0.000349473329731
-0.000452328186954
-0.000521578394264
-0.000568463465753
-0.00059899701028
-0.000618450187242
-0.000631651054498
-0.000642167899688
-0.000651799203898
-0.000660680328136
-0.000667370059127
-0.000669723142232
-0.000665130508436
-0.000650628409939
-0.000622613705558
-0.000576116689059
-0.000504263847343
-0.000392317129001
-0.000173929491717
-0.000160351423223
-0.000353857554577
-0.000459512767051
-0.000531124288232
-0.000579805642111
-0.000611497254091
-0.000631972019098
-0.000646301886386
-0.00065813037316
-0.000669108503941
-0.000679179417517
-0.00068666881907
-0.000689269590227
-0.000684303677753
-0.000668787418423
-0.000639151784562
-0.000590630955982
-0.000515628442641
-0.000400079462521
-0.000176163174452
-0.00016095457054
-0.000356919028105
-0.000464520644121
-0.000537898971517
-0.000587763056993
-0.000620371756772
-0.000641723002886
-0.000657040430265
-0.000669912153471
-0.000681967772913
-0.00069293000279
-0.000700998775191
-0.000703737548171
-0.000698438730948
-0.000682104481059
-0.000651189951101
-0.000600866059919
-0.000523645494147
-0.00040535845813
-0.000177433375232
-0.000161293184562
-0.000359526797028
-0.00046854057815
-0.000543285422262
-0.00059398275846
-0.000627373425552
-0.000649432082228
-0.000665440366144
-0.000678994131577
-0.000691665962955
-0.000703045440949
-0.000711306574681
-0.000714007956889
-0.000708399658114
-0.000691456598002
-0.000659614361007
-0.000608028889066
-0.000529176308625
-0.000408897071445
-0.00017819425089
-0.000161865401987
-0.000362101738902
-0.000472229136918
-0.000547918591517
-0.000599195397728
-0.000633162672198
-0.000655703595928
-0.000672071033233
-0.000685835699886
-0.000698557061287
-0.00070984395118
-0.000717930693019
-0.000720394219984
-0.000714490685742
-0.000697140299722
-0.000664719071889
-0.000612349305504
-0.000532631266554
-0.000411011253766
-0.000178691266984
-0.000162645162822
-0.000364285775042
-0.000475071055403
-0.000551033224589
-0.000602744872667
-0.000637058042405
-0.000659846485416
-0.000676249434938
-0.000689797110066
-0.000702064070188
-0.000712816466112
-0.00072042128109
-0.000722493710209
-0.000716309024456
-0.000698747474766
-0.000666101632073
-0.000613432140339
-0.000533260371937
-0.000411474468826
-0.000178890388347
-0.000163099123732
-0.000365132383022
-0.000475655506726
-0.000551095646067
-0.00060294063498
-0.000637383405865
-0.000660190575933
-0.000676339229335
-0.000689351840965
-0.000700835424519
-0.000710727394602
-0.000717616573308
-0.000719181512393
-0.00071275157001
-0.000695171075133
-0.000662657980571
-0.000610276308738
-0.000530652881254
-0.00040959823734
-0.000178403675177
-0.000162764308694
-0.000363342724876
-0.000472308243798
-0.000546408926125
-0.000597459701728
-0.000631568430199
-0.000654104432371
-0.00066978480618
-0.00068203003185
-0.000692535771964
-0.000701410596418
-0.00070750234243
-0.000708536634108
-0.000701957536743
-0.000684593112812
-0.000652681243563
-0.000601260682835
-0.000523270984969
-0.000404257112329
-0.000176700071301
-0.000160946086445
-0.000357229232466
-0.000462760223409
-0.000534162129503
-0.000583165494426
-0.00061630010665
-0.000638186594108
-0.000653200670559
-0.000664591762934
-0.000674095066692
-0.000681961568129
-0.000687242658961
-0.000687840698798
-0.00068128402505
-0.000664452059655
-0.000633630999095
-0.000584244485104
-0.000509051737655
-0.000393895430157
-0.000173121394393
-0.000156801108254
-0.000344650536162
-0.000444164792962
-0.000511037910193
-0.000556801170746
-0.000587642701153
-0.000608394414012
-0.000622524334882
-0.000633025553127
-0.000641590142735
-0.000648560966404
-0.000653145121869
-0.000653473504637
-0.000647222421763
-0.000631313036373
-0.000602561364082
-0.000556246496686
-0.000485328127778
-0.000376468677686
-0.000166861436134
-0.000149187197109
-0.000322821029563
-0.000412994418048
-0.000472996351378
-0.000513865480126
-0.000541386011248
-0.000559849702253
-0.000572684486734
-0.000582307346166
-0.000589991289617
-0.00059619156414
-0.000600236190592
-0.000600440363169
-0.000594838699808
-0.000580752672706
-0.000554898706909
-0.000512905254633
-0.000448391121697
-0.00034913692603
-0.000156886440464
-0.000136376635511
-0.000287566340046
-0.000364207419861
-0.000414414907081
-0.0004483269727
-0.000471131640255
-0.000486496839821
-0.000497260524649
-0.000505390003081
-0.000512057292462
-0.000517510257939
-0.000521159702613
-0.000521629869142
-0.000517164677814
-0.00050542959084
-0.000483563933412
-0.00044782752854
-0.000392725158651
-0.000307545354736
-0.000141520312063
-0.000115413302878
-0.000230586162099
-0.00028784375466
-0.000324325647695
-0.000348518052905
-0.000364714379118
-0.000375727161718
-0.000383596716213
-0.000389723132688
-0.000394874849748
-0.000399180302345
-0.000402177485388
-0.000402802257442
-0.000399720512775
-0.000391210099395
-0.000375145188408
-0.000348681590813
-0.000307501365629
-0.000243126054848
-0.00011791072373
-8.40983801738e-05
-0.000115360404554
-0.000136378800854
-0.000149624285698
-0.000158139055773
-0.000163663780999
-0.000167301952132
-0.000169752747942
-0.000171583473146
-0.0001731820896
-0.000174686343446
-0.000175914481348
-0.000176336377624
-0.000175383225375
-0.000172358646847
-0.000166516066175
-0.000156782882679
-0.00014151485984
-0.000117904131967
-8.43717619719e-05
-8.8830725631e-05
-0.000130138856328
-0.000158182176415
-0.000176215287224
-0.000187800022382
-0.000195071505027
-0.000199577087698
-0.000202548642595
-0.000204900735322
-0.000207197599101
-0.000209639589836
-0.000211949382776
-0.000213464027949
-0.000213331060498
-0.000210540409708
-0.000203819012233
-0.00019148989746
-0.000171069287465
-0.000138358109624
-9.00865404147e-05
-0.000130072758796
-0.000268744251165
-0.000341938316856
-0.000389799779297
-0.000420846223317
-0.000439868487109
-0.000450778613549
-0.000456968646463
-0.000461050539461
-0.000464622269994
-0.000468271775829
-0.000471480915239
-0.00047307871091
-0.000471227890577
-0.000463621467424
-0.000447297775658
-0.000418290288287
-0.000370736616546
-0.000293575768933
-0.000138253554371
-0.000158032705246
-0.000341923587871
-0.000440489548058
-0.000505877361983
-0.000548455472289
-0.000574149134334
-0.000588104381176
-0.000595085015269
-0.000598665302141
-0.000601261492317
-0.000603923439011
-0.000606008836383
-0.000606067472229
-0.000601828410583
-0.000590446373996
-0.000568259247534
-0.000530388129294
-0.000469579567663
-0.000371656664145
-0.000171262885075
-0.000175873929157
-0.000389879804999
-0.000506414972856
-0.000584129414388
-0.000634697569893
-0.000664791659217
-0.000680441746942
-0.000688270013042
-0.000691639297803
-0.000693633100388
-0.000695520599308
-0.000696670359124
-0.000695373544019
-0.000688721418103
-0.000674149343208
-0.000647493644483
-0.0006034257313
-0.000533779465388
-0.000422118272343
-0.00019283515299
-0.000187158115398
-0.000421368441686
-0.000550560864445
-0.000636972411666
-0.000692986326009
-0.000726002612224
-0.000744101997056
-0.000752662208005
-0.000756417154252
-0.000758494624437
-0.000760516943367
-0.000761550321699
-0.000759497279086
-0.000751121921818
-0.000733494818501
-0.000702925186064
-0.000653950474181
-0.00057774217237
-0.000456259270673
-0.000207288977867
-0.000194025746981
-0.000441283603964
-0.000579006078821
-0.000671291915511
-0.000730844483312
-0.000767106825829
-0.000786899109979
-0.000797496277763
-0.000802685218358
-0.000805805793426
-0.000808986083012
-0.000810880985084
-0.000809316310941
-0.000799743172424
-0.000778187449687
-0.000743442173743
-0.000690116623297
-0.000608653333734
-0.000479875016373
-0.000217071261293
-0.000198021948906
-0.00045346139627
-0.000596677775564
-0.000692835300962
-0.000755752330221
-0.000792230583414
-0.00081294886095
-0.000825268100951
-0.000832293198618
-0.000837157909682
-0.000842307088148
-0.000845858136253
-0.000845673652931
-0.000836818273871
-0.000813422474767
-0.000774114014641
-0.000717029846398
-0.00063103171351
-0.000496578244643
-0.000223691511672
-0.000200355425536
-0.000461014572283
-0.000607658813904
-0.000706337423346
-0.000770738016879
-0.000806774757424
-0.000827867333746
-0.000841350763622
-0.000850053505716
-0.000856928405809
-0.000864271550495
-0.000869741077044
-0.000871053261248
-0.000863101315068
-0.000839600167136
-0.000797766993547
-0.000737363250016
-0.000647724601404
-0.000508691450319
-0.000228164549888
-0.000201927872958
-0.000466264969276
-0.000615125985848
-0.000715861505176
-0.000780694813709
-0.000816790609979
-0.000838214841383
-0.00085253249033
-0.00086256068817
-0.000871138054303
-0.000880282544928
-0.000887337955763
-0.000889786239989
-0.00088237235806
-0.00085868255924
-0.000815584673698
-0.000752875646475
-0.000660473101076
-0.000517612587143
-0.000231169177206
-0.000203345262889
-0.000470657003719
-0.000620941187757
-0.000722889151631
-0.000788457909196
-0.000825215696117
-0.000847324249289
-0.000862404259044
-0.000873343154898
-0.000882945884925
-0.000893097623382
-0.000901019930461
-0.000904016793925
-0.000896710498375
-0.000872611192148
-0.000828551961113
-0.000764280657964
-0.000669756939947
-0.000524103530554
-0.000233197489534
-0.000204904336355
-0.000474694278209
-0.000625903804622
-0.000728543809353
-0.000794747281229
-0.000832211619335
-0.000855026919868
-0.000870702054605
-0.000882076965108
-0.000891945949819
-0.00090221242889
-0.000910162182764
-0.000913111299589
-0.000905675073508
-0.000881323124402
-0.000836795358639
-0.000771676815733
-0.000675743175489
-0.000528367071459
-0.000234500875472
-0.000206399556878
-0.000477788286626
-0.00062929172444
-0.000732061338517
-0.000798729865966
-0.000836913153136
-0.000860450307371
-0.000876576651735
-0.000887966188742
-0.00089742504946
-0.000907005769993
-0.000914219573267
-0.000916564740441
-0.000908759195823
-0.000884283257784
-0.000839756881798
-0.000774526756584
-0.000678259757687
-0.00053008921451
-0.000234984939754
-0.000207233456738
-0.000478582070835
-0.000629274943532
-0.000731280208943
-0.000798106629306
-0.000836480294439
-0.000859984134125
-0.000875945161429
-0.000886916424829
-0.000895515371686
-0.000903873207992
-0.000909849893489
-0.000911244447842
-0.000903151087623
-0.0008792039414
-0.000835781425771
-0.000771515470886
-0.000675719543408
-0.000528249083594
-0.000234162584462
-0.000206502060321
-0.000474994149626
-0.00062315583375
-0.000723360744399
-0.000789743693289
-0.000828318732302
-0.000850666020993
-0.000865538428142
-0.000875603728709
-0.000883140785343
-0.000890055901467
-0.00089464911122
-0.0008949754761
-0.000886743875174
-0.00086403726821
-0.000823164949437
-0.000760814458406
-0.000666734131719
-0.000521436288252
-0.000231284096495
-0.000203168538951
-0.000464546519076
-0.000607685749979
-0.000704434438387
-0.000769015709071
-0.000808658799262
-0.000830494164549
-0.00084368353944
-0.000852538952667
-0.000859090782768
-0.000864684882789
-0.000868110970905
-0.000867437299293
-0.000859062193938
-0.000837810744401
-0.000799780853599
-0.000739763452169
-0.000648795466693
-0.000507631632994
-0.000225441029112
-0.000196022873454
-0.000444319287149
-0.000579083563704
-0.000670126868424
-0.000731199562294
-0.000769948273241
-0.000792735102805
-0.000805628270222
-0.000813686582603
-0.000819593970521
-0.000824360823659
-0.000827114931135
-0.000825774399314
-0.000817091448901
-0.000796981515304
-0.00076147391787
-0.000704927928494
-0.000618539333416
-0.000484133242636
-0.00021549713023
-0.000183603248126
-0.000410856117072
-0.000532960606302
-0.000615389067092
-0.000670896933845
-0.000706452805703
-0.000727887310941
-0.000740822517161
-0.000748776072978
-0.000754576019192
-0.000759182177034
-0.000761937967739
-0.000760807731843
-0.000752923230067
-0.000735099318424
-0.00070296700021
-0.000651101112682
-0.000571310368188
-0.000447229362561
-0.00019989900487
-0.000163853753098
-0.000359500800291
-0.000463589332546
-0.000533703545008
-0.000581053558117
-0.000611715892114
-0.000630703822819
-0.000642408880532
-0.000650217654808
-0.000656223889712
-0.000661151770035
-0.000664422779233
-0.000664252343224
-0.00065825890663
-0.000643314811292
-0.00061562938757
-0.00057026731602
-0.000500140276731
-0.000391363310819
-0.00017631307028
-0.000133257890977
-0.000281280006847
-0.000359726014528
-0.000412097714158
-0.000447435798137
-0.000470634234833
-0.000485519237113
-0.000495303192228
-0.000502414669399
-0.000508276489102
-0.000513300904998
-0.000516958894716
-0.000517802854713
-0.000513876607567
-0.000502770889615
-0.000481478427429
-0.000446124202808
-0.000391119055006
-0.000305810906743
-0.000140731501793
-8.90828035658e-05
-0.000133207306585
-0.000164001474612
-0.0001845356645
-0.000198397365217
-0.000207700760355
-0.0002139492037
-0.000218325068839
-0.000221696514325
-0.000224586959279
-0.000227146903724
-0.000229120293067
-0.000229795168126
-0.000228288593244
-0.000223607626574
-0.000214534283192
-0.00019950302848
-0.000176208150795
-0.000140697233055
-9.03125390688e-05
-8.90677247315e-05
-0.000135305249201
-0.0001724442895
-0.000198446118254
-0.000215307542127
-0.000225008294038
-0.000229684053965
-0.000231480836253
-0.00023221039355
-0.000233034453551
-0.000234435359361
-0.000236177042115
-0.000237485907831
-0.000237226629723
-0.00023404075707
-0.000226286205668
-0.000211847965453
-0.000187720874781
-0.000149175593112
-9.29757547889e-05
-0.000135225403379
-0.000305231464497
-0.000406005086029
-0.000473447575541
-0.000515208318728
-0.000537087724687
-0.00054501452569
-0.000544735330871
-0.000540898279121
-0.000536631042429
-0.000533469433962
-0.000531250707927
-0.00052877371714
-0.00052396844887
-0.000514003230448
-0.000495243120318
-0.000462811427384
-0.000409571219187
-0.000322662099588
-0.00014912928463
-0.000172401838982
-0.000406659672536
-0.000540237065972
-0.000628119812399
-0.000681436108919
-0.000708097110252
-0.000716096965766
-0.000713174409903
-0.000705081249193
-0.00069628529293
-0.000688846760234
-0.000682529850436
-0.00067567761077
-0.00066612944103
-0.000650642430129
-0.000625108854167
-0.000583835364098
-0.000518101089566
-0.000410889996869
-0.000188370770289
-0.000198626402015
-0.000476233004349
-0.000631485607048
-0.00073206993587
-0.000791965115478
-0.000820700945213
-0.000829090049684
-0.000827101434145
-0.000818020684487
-0.000806746994847
-0.000796584562386
-0.000787321050223
-0.000777055181701
-0.000762440025327
-0.00073992030743
-0.000708128030364
-0.00066075983906
-0.000587254069761
-0.000467562564127
-0.000214435615787
-0.000216036348817
-0.000522162492965
-0.000691683461574
-0.000800214747277
-0.000863689573941
-0.00089557104027
-0.000907581622451
-0.000908122169613
-0.000900141247387
-0.00088833847912
-0.000877794773372
-0.000867719930528
-0.000857023233446
-0.000839880016837
-0.000810038288711
-0.00076824437386
-0.000713514966682
-0.000634072980654
-0.000505569007277
-0.000232117930516
-0.000226690480811
-0.000550460196972
-0.000728900665597
-0.000842165894244
-0.000907044240135
-0.000940279128834
-0.000954773575151
-0.000959248093487
-0.000954171474807
-0.000943828537847
-0.000935064832429
-0.000926541110019
-0.000918045389671
-0.000901979524254
-0.000868488749547
-0.000817914657357
-0.000753036364374
-0.000667388666168
-0.000532025449868
-0.000244349165825
-0.000232674259071
-0.000566747132431
-0.000750325354973
-0.000864861258554
-0.000929700938792
-0.000961735016341
-0.000976701957967
-0.000984037829543
-0.000982133661581
-0.000974548613748
-0.000969239323568
-0.000963845671137
-0.000958966369648
-0.000946813416867
-0.000913681221307
-0.000858500936311
-0.000785517097918
-0.000692769084326
-0.000551542789063
-0.000253024086325
-0.000235942263495
-0.000575932378323
-0.000762606214836
-0.000877629353184
-0.000940138200357
-0.000969310513098
-0.0009834926539
-0.000992143127507
-0.000992815517646
-0.000988485384182
-0.000987131793909
-0.000985529734383
-0.000984218969429
-0.000975483163909
-0.000944845692576
-0.00088852637947
-0.000811595288958
-0.000713505398677
-0.000566906547011
-0.000259365332002
-0.000238096823843
-0.000581758145448
-0.000770155806548
-0.000885632683592
-0.000947055264425
-0.000975070162413
-0.000988943546682
-0.000998367184751
-0.0010008112494
-0.00099914879926
-0.00100105169066
-0.00100276524341
-0.00100420979259
-0.000997435216528
-0.000967958122334
-0.000911325342264
-0.00083231707747
-0.000730469457245
-0.000579522328404
-0.000264150953626
-0.000240156697459
-0.000586509892759
-0.000775920208684
-0.000892252511685
-0.000954313457286
-0.000983078165303
-0.00099783674019
-0.00100819531995
-0.0010117772315
-0.00101164924837
-0.00101541808702
-0.00101910284047
-0.00102213156376
-0.00101618767684
-0.00098675554377
-0.00092934008496
-0.000848712328908
-0.000744342107831
-0.000589857952955
-0.000267817990176
-0.00024249622923
-0.000590861494927
-0.00078087566607
-0.000897854724989
-0.000960831929393
-0.000990733416136
-0.00100663056845
-0.0010179061606
-0.00102217994808
-0.00102256193347
-0.00102672216654
-0.00103075933991
-0.00103409385109
-0.00102838795948
-0.000999101934697
-0.000941601242417
-0.000860435490633
-0.000754694526086
-0.000597701244893
-0.000270530134608
-0.000244733522225
-0.000594063161291
-0.000784129426744
-0.00090145304991
-0.00096553077392
-0.000996890535448
-0.0010141422327
-0.00102636821563
-0.00103101707129
-0.0010310173919
-0.00103422509865
-0.00103708632403
-0.00103946687532
-0.00103336639299
-0.00100425387073
-0.000947273698605
-0.000866583047001
-0.000760679689442
-0.000602369145055
-0.0002720930001
-0.000245940165376
-0.000594184865506
-0.000783246820366
-0.00090029061457
-0.000964397526496
-0.000995754196007
-0.00101276836027
-0.00102475805185
-0.0010292190462
-0.0010284058627
-0.00102986844864
-0.00103062577916
-0.00103125233264
-0.00102467654592
-0.000996866926245
-0.000942653957323
-0.000864933484512
-0.000760888216354
-0.000602647592666
-0.00027184301128
-0.000244718281494
-0.000588201761276
-0.000774420507682
-0.000890963487808
-0.000954835380491
-0.00098532139597
-0.00099985547589
-0.00100959994204
-0.00101258966762
-0.00101069488887
-0.0010101318296
-0.00100869046469
-0.00100730338734
-0.00100011842058
-0.000974471444836
-0.000925618345208
-0.000853369196236
-0.000753273851821
-0.000596863359598
-0.000268905649856
-0.00023946566004
-0.000572466406493
-0.000753089656865
-0.000868826821641
-0.000934166402903
-0.000964859289326
-0.000977530093601
-0.000983682537115
-0.000984496147787
-0.000981305809652
-0.000978868882765
-0.000975675757027
-0.00097231408796
-0.000963938856418
-0.000940296104311
-0.000897060159768
-0.000831326907381
-0.000735457632814
-0.000582695997949
-0.000262090696611
-0.000228513416882
-0.000542939129157
-0.000714034342482
-0.000825522576804
-0.000892891075781
-0.000926012609383
-0.000938566574021
-0.000942537452535
-0.000941428435135
-0.000937570930022
-0.000934048846059
-0.000930082302086
-0.000925225475322
-0.000915426861417
-0.000893561536759
-0.000855108838149
-0.000795295106708
-0.000703700563007
-0.000556908430218
-0.000249933039715
-0.000210111243359
-0.00049517444729
-0.000651502368461
-0.000754655223812
-0.000819756093035
-0.000855370514184
-0.00087018406273
-0.000873990446712
-0.000872526539636
-0.000869220728331
-0.000866074428766
-0.000862694640703
-0.000857775801998
-0.000848130220253
-0.000828220751185
-0.000793574402657
-0.000738442722768
-0.000652525006942
-0.000514942167845
-0.00023045679611
-0.000182245819845
-0.000423986759824
-0.000558661731901
-0.000648893570115