/*--------------------------------*- C++ -*----------------------------------*\
| =========                 |                                                 |
| \\      /  F ield         | OpenFOAM: The Open Source CFD Toolbox           |
|  \\    /   O peration     | Version:  3.0.1                                 |
|   \\  /    A nd           | Web:      www.OpenFOAM.org                      |
|    \\/     M anipulation  |                                                 |
\*---------------------------------------------------------------------------*/
FoamFile
{
    version     2.0;
    format      ascii;
    class       volScalarField;
    location    "7.1";
    object      p;
}
// * * * * * * * * * * * * * * * * * * * * * * * * * * * * * * * * * * * * * //

dimensions      [1 -1 -2 0 0 0 0];

internalField   nonuniform List<scalar> 
7968
(
4702.43915756
4702.44424993
4702.44525381
4702.44580239
4702.44472245
4702.44275123
4702.44068483
4702.43851389
4702.43613729
4702.43329753
4702.42991955
4702.42607946
4702.42209338
4702.41833975
4702.41512844
4702.41257071
4702.41019015
4702.40738308
4702.40526378
4702.40138544
4702.44330089
4702.45280727
4702.45566836
4702.45804741
4702.45765356
4702.45574462
4702.45330837
4702.45078587
4702.44810977
4702.44503021
4702.44148203
4702.43756042
4702.43356569
4702.42989071
4702.42671256
4702.42382966
4702.42068022
4702.41605614
4702.41190742
4702.40408919
4702.44431691
4702.45590134
4702.46035318
4702.46370164
4702.46289737
4702.4599022
4702.45602602
4702.45202589
4702.4481065
4702.4441768
4702.44022513
4702.43635234
4702.4327872
4702.42978478
4702.42732367
4702.42491544
4702.42167314
4702.41602755
4702.41054537
4702.40094113
4702.44521101
4702.4590158
4702.46442181
4702.46795239
4702.46627838
4702.4617177
4702.45604495
4702.45032355
4702.44490811
4702.43987195
4702.43526207
4702.4312156
4702.4278507
4702.42535807
4702.42362264
4702.42191214
4702.41898817
4702.41293611
4702.40653995
4702.39546939
4702.44503568
4702.45954288
4702.46483953
4702.46753411
4702.46453671
4702.45826393
4702.45073249
4702.44319855
4702.43620731
4702.42991128
4702.42444881
4702.41995985
4702.41658578
4702.41443179
4702.41325966
4702.41223261
4702.40993008
4702.40432626
4702.39813652
4702.38673014
4702.44433321
4702.45903324
4702.46341685
4702.46462569
4702.45993031
4702.45168591
4702.44209114
4702.432623
4702.42393586
4702.4162677
4702.40982139
4702.40476512
4702.40124706
4702.39932233
4702.39869023
4702.39840903
4702.39693091
4702.39231104
4702.38693386
4702.37572189
4702.44373025
4702.45819071
4702.46125774
4702.46074244
4702.45420726
4702.44389611
4702.43221999
4702.42087918
4702.4105345
4702.40146741
4702.39395435
4702.38819491
4702.38435045
4702.38246265
4702.38225307
4702.38265421
4702.38201667
4702.37851363
4702.3742188
4702.36358815
4702.44318026
4702.45736006
4702.45902923
4702.45683361
4702.44849111
4702.43622154
4702.4226582
4702.40961544
4702.39775382
4702.38740818
4702.3787156
4702.37202828
4702.36766812
4702.36561605
4702.36558684
4702.36647972
4702.36655708
4702.36404369
4702.36082671
4702.3507971
4702.44253355
4702.45650954
4702.45692339
4702.45324431
4702.44329464
4702.42928713
4702.41403473
4702.39946381
4702.38636514
4702.37477802
4702.36485044
4702.35707453
4702.35196119
4702.34963285
4702.34961037
4702.35076575
4702.35132068
4702.3495562
4702.34717263
4702.33764507
4702.44160243
4702.45534525
4702.45485235
4702.44995276
4702.43879692
4702.42336641
4702.40667327
4702.39080054
4702.37647773
4702.36358865
4702.35250144
4702.34375117
4702.3378516
4702.33507495
4702.33483882
4702.33597278
4702.33669421
4702.3353266
4702.33340833
4702.32427611
4702.44021226
4702.45375921
4702.45281822
4702.4473324
4702.43516245
4702.41867451
4702.40084154
4702.38375628
4702.36819729
4702.3541412
4702.34201972
4702.33240964
4702.32581332
4702.32245389
4702.32174099
4702.32252909
4702.32305649
4702.32164568
4702.3198126
4702.31097383
4702.43843397
4702.4518206
4702.45085764
4702.44511
4702.43248611
4702.41540092
4702.39678718
4702.37867228
4702.36196559
4702.3469315
4702.33394133
4702.32358827
4702.3163322
4702.31222018
4702.31075122
4702.31085638
4702.3108198
4702.30895069
4702.30676801
4702.29813643
4702.43654333
4702.44977993
4702.44919272
4702.44357782
4702.43095388
4702.41370279
4702.39469302
4702.37593502
4702.35831347
4702.34242669
4702.32873156
4702.31772571
4702.30971962
4702.30465808
4702.30219493
4702.30131887
4702.30038806
4702.29764804
4702.29480057
4702.2862529
4702.43483686
4702.44798128
4702.44802536
4702.44293468
4702.43063073
4702.41361952
4702.3946186
4702.37561016
4702.35757717
4702.34111945
4702.32680697
4702.31502689
4702.30606286
4702.29991731
4702.29625897
4702.29412939
4702.29201549
4702.28815158
4702.2843685
4702.27579444
4702.43347333
4702.44651645
4702.44724424
4702.44288572
4702.43116765
4702.41474725
4702.39620219
4702.37735724
4702.35926372
4702.34251668
4702.32765266
4702.3150787
4702.30507907
4702.29771806
4702.29268185
4702.28910727
4702.28564302
4702.28054553
4702.27574678
4702.2670759
4702.43252149
4702.44508666
4702.44623795
4702.4425756
4702.43158009
4702.41595116
4702.39815009
4702.37982718
4702.36199213
4702.34519378
4702.32994282
4702.31665365
4702.30561913
4702.29698765
4702.29052903
4702.28546372
4702.2806593
4702.27436951
4702.2687251
4702.26013326
4702.43141799
4702.44301975
4702.4439756
4702.44058108
4702.43021558
4702.41545075
4702.39851788
4702.38094536
4702.36360476
4702.34697621
4702.33152343
4702.31766672
4702.30571231
4702.29589478
4702.28811603
4702.28175641
4702.27582053
4702.26873468
4702.26266999
4702.25446338
4702.42953669
4702.43903472
4702.43876173
4702.43483803
4702.4248823
4702.41110263
4702.39529371
4702.37871284
4702.36210776
4702.34586113
4702.33037448
4702.3160617
4702.30333403
4702.29248682
4702.28353469
4702.27606698
4702.26939296
4702.26223147
4702.25655308
4702.249419
4702.42799972
4702.43516416
4702.43330171
4702.42829038
4702.41847585
4702.40542851
4702.39066734
4702.37513335
4702.35934613
4702.34355055
4702.32811798
4702.3134624
4702.30008137
4702.28838507
4702.27853233
4702.27035432
4702.26337486
4702.2566802
4702.25172434
4702.24579315
4702.42414923
4702.42692558
4702.42301125
4702.41623838
4702.40573999
4702.39270958
4702.3783654
4702.36321129
4702.34779455
4702.332324
4702.3171623
4702.30271045
4702.28947203
4702.27791246
4702.26817917
4702.26034242
4702.25406714
4702.24867404
4702.24501345
4702.24138451
4207.02422579
4207.0270872
4207.02634439
4207.02617615
4207.02596327
4207.02577497
4207.02552681
4207.02515952
4207.02407548
4207.02187105
4207.01847223
4207.01401206
4207.00887445
4207.00371778
4206.99912394
4206.9953584
4206.99263096
4206.99091027
4206.99074641
4206.98931643
4207.02575208
4207.03290579
4207.0324948
4207.03417137
4207.0366065
4207.03941259
4207.04185973
4207.04361541
4207.04394333
4207.04228624
4207.03857171
4207.03303551
4207.02619029
4207.01880528
4207.01167742
4207.0052563
4207.00010986
4206.99647664
4206.99562002
4206.99035995
4207.02468299
4207.0323844
4207.03031582
4207.03228796
4207.03595936
4207.04019264
4207.04385187
4207.04637441
4207.04700641
4207.04518247
4207.04086823
4207.03437138
4207.02630667
4207.01754221
4207.00889474
4207.00097959
4206.99462383
4206.99058675
4206.99116496
4206.98560295
4207.02456181
4207.03430385
4207.03255115
4207.03580614
4207.04111489
4207.04665048
4207.05104011
4207.05370342
4207.05414614
4207.05160472
4207.04631673
4207.03864207
4207.02917529
4207.01915374
4207.00898883
4206.99938779
4206.99133268
4206.9860237
4206.98633962
4206.97933025
4207.02484273
4207.03728036
4207.03671689
4207.0415575
4207.04855381
4207.05526451
4207.06030713
4207.06280816
4207.06236091
4207.05873489
4207.05223413
4207.04336148
4207.03275143
4207.02119129
4207.00928313
4206.99787548
4206.98793928
4206.98101055
4206.98020459
4206.97108814
4207.02557872
4207.04094974
4207.04170997
4207.04779898
4207.05599524
4207.06349381
4207.06835008
4207.07021254
4207.06866697
4207.06372108
4207.05589522
4207.04579901
4207.03401377
4207.02119271
4207.008041
4206.99498363
4206.98348957
4206.97513048
4206.97295179
4206.96142679
4207.02656911
4207.04458503
4207.04644966
4207.05321877
4207.06202854
4207.0693621
4207.07353393
4207.07433135
4207.07141
4207.06495529
4207.0557762
4207.0445803
4207.03183545
4207.01808108
4207.00398803
4206.99001355
4206.97728111
4206.96788099
4206.96443042
4206.95067458
4207.02765386
4207.04780491
4207.05033826
4207.05713049
4207.06588509
4207.07259082
4207.07569412
4207.07510239
4207.07043657
4207.06212399
4207.05160189
4207.03958504
4207.02619605
4207.01184136
4206.99718088
4206.98260722
4206.96930843
4206.9591792
4206.95474507
4206.93916788
4207.02841839
4207.04987741
4207.05267628
4207.05923839
4207.06720261
4207.07284833
4207.07457541
4207.07221899
4207.06530306
4207.05516571
4207.04324959
4207.03046233
4207.01694013
4207.00235516
4206.98750862
4206.97276784
4206.95932678
4206.94877032
4206.94375065
4206.92697872
4207.02821322
4207.05022135
4207.05289608
4207.05900889
4207.06576101
4207.07012788
4207.07035744
4207.06614564
4207.0574094
4207.04566215
4207.03239947
4207.0187116
4207.00487281
4206.99017678
4206.97529674
4206.96059415
4206.94716643
4206.93643928
4206.93126349
4206.91406058
4207.02693304
4207.04865643
4207.05077856
4207.0558814
4207.06164526
4207.06475458
4207.06361556
4207.05799655
4207.04785874
4207.0347841
4207.02037408
4207.00579011
4206.99132093
4206.97628183
4206.96125871
4206.94658725
4206.93325216
4206.92252703
4206.91752159
4206.90063868
4207.02468129
4207.04532573
4207.04654544
4207.05047625
4207.05520029
4207.05710448
4207.05480158
4207.04827732
4207.0372671
4207.0232674
4207.00797967
4206.99251367
4206.97710154
4206.96145985
4206.94613102
4206.93140941
4206.91822253
4206.90784805
4206.90304679
4206.88712576
4207.0217736
4207.04063135
4207.0406792
4207.04342652
4207.04684194
4207.04752133
4207.04414788
4207.03684782
4207.02556311
4207.011077
4206.99511758
4206.97870131
4206.96227011
4206.94607785
4206.93048615
4206.91579025
4206.90281488
4206.89287723
4206.88855234
4206.87418354
4207.01879289
4207.03523606
4207.03387613
4207.0352924
4207.03714329
4207.03651173
4207.03209883
4207.02401255
4207.01229848
4206.99759515
4206.98120601
4206.96408657
4206.94711338
4206.9305946
4206.91493868
4206.90045789
4206.88774465
4206.87846067
4206.87485551
4206.86250044
4207.01623118
4207.0298912
4207.0269071
4207.02667308
4207.02666473
4207.02463222
4207.01917934
4207.0103714
4206.99826073
4206.98336649
4206.96673192
4206.94936149
4206.93210869
4206.91552871
4206.90007076
4206.88602312
4206.87407263
4206.86546956
4206.86271936
4206.85263438
4207.01425142
4207.02496097
4207.0203235
4207.01819578
4207.01609875
4207.01223857
4207.00566201
4206.99612651
4206.98373873
4206.96882665
4206.95223135
4206.93489064
4206.91769241
4206.90135036
4206.88626178
4206.87303823
4206.86208974
4206.85436922
4206.85248629
4206.84467956
4207.01300995
4207.02100961
4207.01496919
4207.01088835
4207.00657325
4207.00083138
4206.99283781
4206.98255488
4206.97005153
4206.95523473
4206.93884919
4206.92174148
4206.90469165
4206.88881016
4206.87453872
4206.86224491
4206.85239438
4206.84566374
4206.84444302
4206.8385767
4207.01244807
4207.01831581
4207.01170994
4207.00612325
4206.99988749
4206.99243641
4206.98321545
4206.97221145
4206.95931393
4206.94454378
4206.9284208
4206.91168525
4206.89520672
4206.87982831
4206.8662029
4206.85473814
4206.84582809
4206.83981746
4206.83861485
4206.83404559
4207.01309155
4207.01811457
4207.0128512
4207.00682672
4206.99922169
4206.99016346
4206.97950722
4206.96747335
4206.95400064
4206.93909451
4206.92319131
4206.90692381
4206.89105813
4206.87637366
4206.86351553
4206.85279462
4206.84445033
4206.83848118
4206.8359501
4206.83154083
4207.0120114
4207.01277095
4207.00700802
4206.99923349
4206.9890953
4206.97720958
4206.9640096
4206.94999683
4206.93528768
4206.92003314
4206.90459938
4206.8895043
4206.87529701
4206.86259631
4206.85194749
4206.84341659
4206.83698832
4206.8324381
4206.83018718
4206.82807426
3711.61643902
3711.61915073
3711.61784158
3711.61733277
3711.61737521
3711.61792214
3711.61880093
3711.6195981
3711.61954524
3711.6180191
3711.61485104
3711.61019615
3711.60453422
3711.59862771
3711.5932813
3711.58902212
3711.58621548
3711.58498372
3711.58555044
3711.5846167
3711.61738779
3711.62873922
3711.63036681
3711.63301652
3711.63746704
3711.64264376
3711.64735617
3711.65082611
3711.65234592
3711.65138765
3711.64783841
3711.6419283
3711.63419081
3711.62541199
3711.61647819
3711.60820179
3711.60146121
3711.59691127
3711.59430332
3711.58566547
3711.61548854
3711.63027691
3711.63039118
3711.63200381
3711.63697472
3711.64363178
3711.65015441
3711.65517828
3711.65756842
3711.65670411
3711.65253119
3711.64537059
3711.63592286
3711.62513647
3711.61419533
3711.60423623
3711.59660849
3711.59250228
3711.5911429
3711.58001473
3711.61486086
3711.63319946
3711.63244383
3711.63338067
3711.63895145
3711.64672589
3711.65413761
3711.65958993
3711.66182208
3711.66038482
3711.65526034
3711.64688466
3711.63608561
3711.62348607
3711.61078352
3711.59928798
3711.59083422
3711.58704324
3711.5864749
3711.57284504
3711.61540549
3711.63817247
3711.63800503
3711.63944572
3711.6461176
3711.65494477
3711.56929346
3711.55645783
3711.60645271
3711.61013308
3711.60987752
3711.60620517
3711.66627197
3711.68825903
3711.61038354
3711.5969029
3711.58688313
3711.58229493
3711.58110022
3711.56406691
3711.61694773
3711.64421993
3711.64541208
3711.64780974
3711.65538565
3711.3906363
3711.05657722
3711.17526967
3711.38433326
3711.40668987
3711.42507322
3711.44012174
3711.68377773
3711.95442405
3711.7997057
3711.59534007
3711.58344102
3711.57744174
3711.57485221
3711.55415138
3711.61913922
3711.6501679
3711.65293622
3711.65603745
3711.56364191
3710.83266052
3710.50941817
3710.9344548
3711.30878045
3711.33015733
3711.34766909
3711.36207786
3711.7732988
3712.36128421
3712.26340785
3711.66223812
3711.57891773
3711.57151032
3711.56723066
3711.54342045
3711.62151108
3711.65518877
3711.65927171
3711.66271571
3711.42973082
3710.48584881
3710.33187355
3710.94156225
3711.40204301
3711.40604974
3711.40639646
3711.40400332
3711.89466037
3712.64421195
3712.65789531
3711.79433154
3711.57222484
3711.56380633
3711.55796799
3711.5320189
3711.62326462
3711.65851858
3711.66333359
3711.66646329
3711.38100445
3710.41617801
3710.32184627
3710.9953022
3711.48172544
3711.47318074
3711.46125219
3711.44695762
3711.95872342
3712.75346843
3712.78599168
3711.85431808
3711.56279361
3711.55383526
3711.54689146
3711.51977367
3711.623807
3711.65961564
3711.66448592
3711.66694801
3711.37443887
3710.3886984
3710.29195019
3710.97847853
3711.47378925
3711.46354893
3711.45023541
3711.4349623
3711.9570933
3712.76827805
3712.80050206
3711.848211
3711.55056471
3711.54146348
3711.53390835
3711.50648458
3711.62288342
3711.65829235
3711.66253423
3711.66401973
3711.36421785
3710.35751811
3710.25838922
3710.95817978
3711.46256876
3711.45092292
3711.43643234
3711.42027469
3711.95285157
3712.7804356
3712.81231131
3711.83944161
3711.53582906
3711.52688457
3711.51927621
3711.49234335
3711.62060685
3711.65468431
3711.65768458
3711.65797892
3711.35068448
3710.32305736
3710.22166919
3710.93502015
3711.44878252
3711.43612209
3711.42073832
3711.40381137
3711.94688042
3712.7907731
3712.82217999
3711.8286377
3711.5191588
3711.51033213
3711.50346874
3711.47776673
3711.61738287
3711.64921614
3711.65045885
3711.64928944
3711.42170816
3710.45630104
3710.35559347
3711.05217206
3711.54636622
3711.52201612
3711.49506925
3711.46667913
3711.98114103
3712.77142587
3712.73929364
3711.75250933
3711.50160147
3711.49319429
3711.4874107
3711.46364157
3711.61385447
3711.64255013
3711.64171894
3711.63887861
3711.5707651
3710.91542833
3710.75591373
3711.32130908
3711.72314608
3711.68241165
3711.63909602
3711.59424901
3711.99516819
3712.56883939
3712.33816585
3711.58610674
3711.48428666
3711.47653307
3711.47199424
3711.45084773
3711.61073634
3711.63548163
3711.63253897
3711.62797898
3711.62634772
3711.4222866
3711.26219082
3711.54459892
3711.77792426
3711.73725948
3711.69402908
3711.64926526
3711.85856885
3712.05458349
3711.75740631
3711.48019946
3711.46800886
3711.46127083
3711.4580371
3711.44012853
3711.60844843
3711.62875912
3711.62403669
3711.61788352
3711.61440958
3711.61129443
3711.53125135
3711.56579489
3711.63204426
3711.61123396
3711.58795052
3711.56317147
3711.60573435
3711.5932026
3711.48035372
3711.46528549
3711.45429012
3711.44836541
3711.44611806
3711.43173152
3711.60730455
3711.62329004
3711.61763154
3711.61055067
3711.60541024
3711.60051017
3711.59401494
3711.58498976
3711.57287767
3711.55789919
3711.54066661
3711.52209759
3711.50328873
3711.48505166
3711.46844973
3711.45452461
3711.44433088
3711.43870376
3711.43679457
3711.42561541
3711.60743757
3711.61982834
3711.61463745
3711.60784962
3711.6017344
3711.59528898
3711.5873531
3711.57727198
3711.56461589
3711.54943283
3711.5323008
3711.51402295
3711.49569106
3711.47817391
3711.4623996
3711.44914658
3711.4391547
3711.43298271
3711.43032608
3711.42146531
3711.60899321
3711.61789752
3711.61390108
3711.60790197
3711.60105412
3711.5929586
3711.58309621
3711.57129039
3711.55755053
3711.54199817
3711.52510497
3711.50755778
3711.49015413
3711.47380282
3711.45918573
3711.44682879
3711.43714446
3711.43036407
3711.42649434
3711.41945303
3711.60859113
3711.60913364
3711.60225892
3711.59333559
3711.58240369
3711.57000064
3711.55656362
3711.54238108
3711.52741407
3711.51166954
3711.49551024
3711.47950122
3711.46427643
3711.45063595
3711.43921284
3711.43025316
3711.42376356
3711.41956125
3711.41777819
3711.41580073
3216.20542498
3216.20666983
3216.20523846
3216.20504025
3216.20653044
3216.20933573
3216.21283159
3216.21610224
3216.21806321
3216.21785643
3216.21514838
3216.21011941
3216.20333291
3216.19579136
3216.18864502
3216.18282737
3216.17903459
3216.17766309
3216.17855923
3216.17897213
3216.20437998
3216.21702056
3216.22028705
3216.22416918
3216.23098922
3216.23924002
3216.24745043
3216.25423134
3216.25833643
3216.25896476
3216.25595706
3216.24954709
3216.24035681
3216.22944929
3216.21807993
3216.20744686
3216.19869669
3216.19281929
3216.18840569
3216.17898235
3216.20208478
3216.22017255
3216.22364776
3216.22651725
3216.23355077
3216.24271463
3216.25189738
3216.25939145
3216.26384165
3216.2643861
3216.26085686
3216.25356202
3216.24319575
3216.23090403
3216.2180585
3216.20612385
3216.19660301
3216.19077437
3216.18598082
3216.1725039
3216.20172096
3216.22430686
3216.22711606
3216.22850106
3216.23495637
3216.07636033
3215.82368555
3215.87786578
3215.99853055
3216.02334498
3216.04391531
3216.06063342
3216.2223598
3216.43150009
3216.32630487
3216.19981257
3216.19029718
3216.18553575
3216.18142779
3216.16463309
3216.20376831
3216.23169302
3216.23482968
3216.23558095
3215.84388258
3214.98636935
3214.68597554
3215.12635241
3215.49649267
3215.55702104
3215.61339893
3215.6661126
3216.09402532
3216.80525789
3216.96170979
3216.47139384
3216.18592645
3216.18126915
3216.17687601
3216.15576939
3216.20765709
3216.24085738
3216.24476072
3216.06545124
3214.70617295
3213.77786211
3214.06370158
3214.8320137
3215.30955308
3215.3594906
3215.40555044
3215.44829721
3215.99738306
3217.06810527
3217.81545305
3217.3666214
3216.30811624
3216.17705702
3216.17180039
3216.14629511
3216.21258562
3216.25029391
3216.2548576
3215.58399719
3213.65292644
3213.37963619
3213.91736487
3214.71945241
3215.21595677
3215.24556902
3215.27176194
3215.29509846
3215.88743757
3217.10231946
3218.21224883
3218.38960456
3216.72198358
3216.17169775
3216.1654995
3216.1363286
3216.21754045
3216.25859084
3216.26351935
3215.18329377
3213.29800402
3213.39286441
3213.93933815
3214.76233652
3215.26322249
3215.26840628
3215.27091627
3215.27126086
3215.87931232
3217.16895697
3218.37701664
3218.92328822
3217.16613781
3216.1641791
3216.15727897
3216.12559674
3216.22143834
3216.26455165
3216.26952661
3215.06510787
3213.24393922
3213.41823942
3213.9767248
3214.81593507
3215.32071227
3215.31207401
3215.30145796
3215.28925407
3215.90488676
3217.22802277
3218.47191567
3219.09122227
3217.32432149
3216.15393425
3216.14653074
3216.11357714
3216.22345685
3216.26730878
3216.27197061
3215.04191817
3213.18507715
3213.36583419
3213.93732008
3214.79332876
3215.30752117
3215.29713848
3215.2852814
3215.27226647
3215.9001358
3217.25042399
3218.51825869
3219.14594113
3217.33672775
3216.14054797
3216.13298317
3216.09986301
3216.22320694
3216.26661129
3216.27054078
3215.01472874
3213.12225088
3213.30965833
3213.89439045
3214.76797002
3215.29199074
3215.28020082
3215.26718196
3215.25328342
3215.89333988
3217.27058811
3218.56219948
3219.19806258
3217.34635821
3216.12442165
3216.11698498
3216.08463492
3216.22080832
3216.26259216
3216.26542507
3214.98380641
3213.0558101
3213.25015272
3213.84842949
3214.74042437
3215.27477929
3215.26201261
3215.24801577
3215.23322008
3215.88542668
3217.28936735
3218.60452762
3219.24833753
3217.35394227
3216.10623442
3216.09918019
3216.06805315
3216.21678068
3216.25579425
3216.25730079
3215.14681849
3213.19329967
3213.35662479
3213.973391
3214.88223108
3215.41709948
3215.39107553
3215.3637542
3215.33572495
3215.98273264
3217.38036945
3218.6712414
3219.21073396
3217.20816871
3216.08708301
3216.0806637
3216.05185027
3216.21196442
3216.24714645
3216.24726257
3215.66275441
3213.81362857
3213.70239018
3214.34223109
3215.2564281
3215.77431459
3215.72432045
3215.67264175
3215.61995173
3216.22880434
3217.54392351
3218.70574695
3218.7534373
3216.72068414
3216.06818568
3216.06263286
3216.03694306
3216.20731994
3216.23780377
3216.23654655
3216.10634314
3214.95073927
3214.34447372
3214.82165743
3215.71466534
3216.19530834
3216.12489475
3216.05251855
3215.97902173
3216.51811041
3217.66517429
3218.35856753
3217.58754801
3216.21577313
3216.05095261
3216.04621529
3216.02438145
3216.20366107
3216.22892623
3216.22644305
3216.21825747
3215.91794056
3215.38788805
3215.49056384
3216.16034838
3216.52823059
3216.44871669
3216.36696856
3216.28389194
3216.65525244
3217.31326974
3217.22143193
3216.43251746
3216.04186347
3216.03640404
3216.03223761
3216.01461264
3216.2016453
3216.22169456
3216.21852943
3216.21055048
3216.20450454
3216.0642045
3215.95203016
3216.1992308
3216.35375383
3216.31259643
3216.26898387
3216.22382627
3216.33666809
3216.46556794
3216.22841709
3216.04224135
3216.03152303
3216.02554184
3216.02145996
3216.00792889
3216.20177147
3216.2172127
3216.2142506
3216.20741927
3216.20161406
3216.19556694
3216.18793274
3216.17780449
3216.16474287
3216.14874108
3216.13020278
3216.10976904
3216.08972037
3216.07022315
3216.05253131
3216.03764767
3216.02635204
3216.01910858
3216.01433712
3216.00395444
3216.20382247
3216.21372955
3216.21031047
3216.20425028
3216.19807228
3216.19100353
3216.18227836
3216.17127533
3216.15761824
3216.14133342
3216.12300011
3216.1034889
3216.08348887
3216.06474188
3216.0478023
3216.03349988
3216.02233825
3216.01466792
3216.00977434
3216.00240472
3216.20510557
3216.20422109
3216.19634981
3216.18646588
3216.17522817
3216.16299739
3216.14993928
3216.135968
3216.12084315
3216.10445731
3216.08714519
3216.06953572
3216.05239374
3216.03684345
3216.02370778
3216.01348455
3216.0062946
3216.00203515
3216.00055391
3215.99938126
2720.79482179
2720.7942774
2720.79409493
2720.79504545
2720.79899548
2720.80491349
2720.81190517
2720.81851749
2720.82321619
2720.8248264
2720.82281651
2720.81744064
2720.8093278
2720.79975421
2720.79025581
2720.78217595
2720.77649871
2720.77409807
2720.77391569
2720.77614779
2720.79124343
2720.7996875
2720.80290608
2720.80702344
2720.81609402
2720.82770057
2720.83991331
2720.85064335
2720.85804858
2720.86086396
2720.85875789
2720.85207047
2720.8415434
2720.82859904
2720.81493993
2720.80219466
2720.79181794
2720.7853283
2720.78024138
2720.77411809
2720.79017062
2720.80246842
2720.80661101
2720.81013
2720.81932966
2720.66667251
2720.42073689
2720.47511463
2720.59620678
2720.62373576
2720.64620542
2720.66398424
2720.82298183
2721.02820209
2720.92587538
2720.80145194
2720.79029908
2720.78337489
2720.77694679
2720.76767147
2720.79118036
2720.80673838
2720.81077827
2720.8024711
2720.11937748
2719.33954832
2719.17046637
2719.56611003
2719.91244996
2719.98462199
2720.05216357
2720.11548519
2720.51957175
2721.19255852
2721.53974229
2721.27281722
2720.79064163
2720.77762086
2720.77168631
2720.7594127
2720.79595054
2720.81627857
2720.82053458
2720.08454154
2718.5288489
2718.10469104
2718.45607675
2719.05759774
2719.46484181
2719.52848997
2719.58804282
2719.64381205
2720.15116242
2721.17740858
2722.15060716
2722.34997364
2721.29939641
2720.77388249
2720.76776759
2720.75079118
2720.80326598
2720.82867313
2720.65020878
2718.6775077
2717.57114303
2717.67185601
2717.99172848
2718.59226256
2719.00659498
2719.05399678
2719.09792582
2719.13865967
2719.69476117
2720.90520475
2722.17955576
2723.1200001
2722.5363116
2720.89937264
2720.76407315
2720.74207986
2720.81195854
2720.84191944
2720.16851084
2717.68533506
2717.33685769
2717.40369209
2717.69324605
2718.27924201
2718.68352782
2718.71040838
2718.73495453
2718.75710491
2719.33134324
2720.65791764
2722.14954885
2723.35447536
2723.59847829
2721.31685791
2720.75947223
2720.73322858
2720.82045241
2720.85392298
2719.77448799
2717.43391861
2717.29914523
2717.34890694
2717.6254436
2718.19973572
2718.5893815
2718.59340713
2718.59717225
2718.60009822
2719.17680182
2720.56360207
2722.17498898
2723.51791247
2724.04046499
2721.75735859
2720.75260905
2720.723468
2720.8272323
2720.86310921
2719.66245482
2717.40339866
2717.30140199
2717.35212324
2717.6307682
2718.20647827
2718.59373035
2718.58576728
2718.57910739
2718.57240493
2719.15364982
2720.57328745
2722.23419342
2723.62245393
2724.18859094
2721.91174779
2720.74230946
2720.71176483
2720.83123153
2720.86790845
2719.64191127
2717.34117443
2717.24455924
2717.30208645
2717.58984972
2718.17650064
2718.57098869
2718.56133778
2718.55392355
2718.54687294
2719.13910686
2720.58743995
2722.28027081
2723.69048385
2724.25698323
2721.92285859
2720.72803078
2720.69733369
2720.83193486
2720.86814168
2719.61667278
2717.27450891
2717.18352276
2717.24843401
2717.5459392
2718.1459118
2718.5482885
2718.53726001
2718.52867416
2718.52078101
2719.12380648
2720.60017437
2722.32450407
2723.75632343
2724.32260584
2721.93060468
2720.71020518
2720.68023702
2720.82952371
2720.86391954
2719.58691542
2717.20365096
2717.11864395
2717.19163995
2717.49950395
2718.11521259
2718.52623468
2718.5146113
2718.50498514
2718.49579929
2719.10931097
2720.61257524
2722.36781804
2723.82089309
2724.38639055
2721.93594498
2720.6898229
2720.66118235
2720.82458067
2720.85599363
2719.75342315
2717.2967909
2717.2121647
2717.30376843
2717.62989001
2718.27089433
2718.68870672
2718.66428253
2718.64149632
2718.61972153
2719.23705784
2720.74902128
2722.48757293
2723.89720046
2724.37942429
2721.78477555
2720.66823837
2720.64169062
2720.81816013
2720.84563636
2720.27296702
2717.76497881
2717.55376769
2717.68781685
2718.05163202
2718.73399337
2719.16157132
2719.11547369
2719.06957439
2719.02334491
2719.62658241
2721.091396
2722.69627451
2723.91976067
2724.01968541
2721.29137014
2720.64709058
2720.62374057
2720.81151075
2720.83441555
2720.71289747
2718.90599118
2718.05856198
2718.25798442
2718.67839813
2719.39986742
2719.82723826
2719.75868377
2719.68942067
2719.61978613
2720.18482222
2721.52096051
2722.86842752
2723.76889901
2722.83359596
2720.78846926
2720.62788526
2720.60859621
2720.8058082
2720.82390729
2720.82122284
2720.27810497
2719.07340975
2718.93300296
2719.40649687
2720.13431479
2720.53449571
2720.44885164
2720.36176706
2720.2739556
2720.76215167
2721.8763204
2722.86509015
2722.81987512
2721.30740521
2720.61607397
2720.6115383
2720.59644999
2720.80197222
2720.81561108
2720.81241441
2720.79576652
2720.26304016
2719.97693671
2720.21044028
2720.76851499
2721.08732229
2720.9956477
2720.90178185
2720.80668908
2721.15129403
2721.78901906
2721.91149729
2721.31301062
2720.61976408
2720.60396525
2720.59932877
2720.58877113
2720.80104963
2720.81115786
2720.80776586
2720.80012581
2720.79451942
2720.6510932
2720.53486864
2720.78464279
2720.94114871
2720.89845593
2720.85293291
2720.80589817
2720.91883651
2721.04953457
2720.80743894
2720.6169402
2720.60484419
2720.5972289
2720.59205165
2720.58476779
2720.80201518
2720.80766154
2720.80312615
2720.7959782
2720.79016062
2720.78407122
2720.77649561
2720.76623075
2720.75252537
2720.73519973
2720.71490115
2720.69275463
2720.66992393
2720.64827328
2720.62879999
2720.61274161
2720.60050347
2720.59260815
2720.58781576
2720.58325931
2720.80537871
2720.80224739
2720.79439625
2720.78393384
2720.77273403
2720.76087701
2720.74832123
2720.73459377
2720.71917863
2720.70177721
2720.68275225
2720.66282527
2720.64296322
2720.62460784
2720.60894434
2720.59675751
2720.58823673
2720.58338803
2720.58154701
2720.58161649
2225.38596928
2225.38235097
2225.38432795
2225.38610425
2225.39326028
2225.40285767
2225.41403841
2225.42458717
2225.43248612
2225.43656241
2225.43551323
2225.42989895
2225.4204629
2225.40874122
2225.3966244
2225.38595329
2225.37797563
2225.37452439
2225.37237844
2225.37704334
2225.37840411
2225.37474132
2225.37532862
2225.37823749
2225.38869016
2225.40258063
2225.32951245
2225.32446451
2225.37922396
2225.39041354
2225.39568455
2225.3954571
2225.45310433
2225.47458012
2225.40191132
2225.38872979
2225.37833839
2225.37282607
2225.3687499
2225.37188702
2225.37997762
2225.37440124
2225.3769478
2225.3806973
2225.00782826
2224.42715995
2224.27695092
2224.44549799
2224.66752419
2224.73350671
2224.79423407
2224.84965535
2225.1232086
2225.55083141
2225.86118974
2225.64936173
2225.37610471
2225.36904196
2225.36295643
2225.36562279
2225.38248851
2225.37731557
2225.38156877
2224.67665785
2223.57792744
2223.08783507
2223.29805727
2223.72628219
2224.03965059
2224.10650756
2224.16814418
2224.22482874
2224.63279828
2225.46368205
2226.28047894
2226.42705126
2225.86179305
2225.36251431
2225.35595298
2225.35644104
2225.39061
2225.38788653
2224.98090808
2223.22096961
2222.48392914
2222.43334675
2222.56179255
2222.95536888
2223.26570388
2223.32092841
2223.37152431
2223.41752434
2223.87569873
2224.90903581
2226.08410412
2227.04765446