/*--------------------------------*- C++ -*----------------------------------*\
| =========                 |                                                 |
| \\      /  F ield         | OpenFOAM: The Open Source CFD Toolbox           |
|  \\    /   O peration     | Version:  3.0.1                                 |
|   \\  /    A nd           | Web:      www.OpenFOAM.org                      |
|    \\/     M anipulation  |                                                 |
\*---------------------------------------------------------------------------*/
FoamFile
{
    version     2.0;
    format      ascii;
    class       volVectorField;
    location    "7.1";
    object      U;
}
// * * * * * * * * * * * * * * * * * * * * * * * * * * * * * * * * * * * * * //

dimensions      [0 1 -1 0 0 0 0];

internalField   nonuniform List<vector> 
7968
(
(1.98634700759e-05 4.11655501473e-06 -2.01668346921e-05)
(0.000406618217886 -0.000197001972404 -0.000110776933369)
(0.00113762315063 -0.000294110339762 -0.000103127513649)
(0.00175988451259 -0.00033364780986 -1.96441953681e-05)
(0.0022054680947 -0.000303972452689 7.78306544485e-05)
(0.00235962744504 -0.000225536648963 0.000172704770843)
(0.00223780727916 -0.000145337351756 0.000238446170863)
(0.0018686154231 -6.48631745738e-05 0.000289001765998)
(0.00130554101198 -3.8976502464e-06 0.000314912208121)
(0.00063517538204 2.66604075687e-05 0.000323324738034)
(-5.96292450082e-05 2.57053882279e-05 0.000317928772936)
(-0.000702707085981 -5.05636428388e-06 0.000300873586981)
(-0.00122371346848 -6.02060684267e-05 0.000271406131167)
(-0.00156136826966 -0.000130758296835 0.000224489077673)
(-0.00168600005127 -0.00019876871807 0.000166607238418)
(-0.00158056027648 -0.000258418002562 8.66538583186e-05)
(-0.0012499698433 -0.000275710678493 2.11059340568e-06)
(-0.000789840581702 -0.000231265690095 -7.29928243905e-05)
(-0.000247772270229 -0.000140205430557 -8.42019226257e-05)
(1.77521491378e-05 2.85758894013e-05 -1.16280689944e-05)
(-0.000173238396631 0.000329448968034 -9.74238032612e-05)
(0.000282390561076 0.000181565351353 -0.000845941822402)
(0.00124175822024 0.00015583240756 -0.00109209366079)
(0.00199199233348 0.000217040584703 -0.00106546055106)
(0.0024957456725 0.000362967638715 -0.000945385544267)
(0.0026604868861 0.000554425716525 -0.000792486454018)
(0.00250229319586 0.000731356639583 -0.000651205763767)
(0.00207071637392 0.000879071362488 -0.000526575090705)
(0.00143177504365 0.000978139772393 -0.000438628980697)
(0.000679268488597 0.00102525316594 -0.000398755591271)
(-9.69371147434e-05 0.00102025198164 -0.000406583727854)
(-0.000813024221878 0.000964844025602 -0.000456486776685)
(-0.00139420794387 0.000864686644196 -0.000540016990492)
(-0.0017764492369 0.000728221957173 -0.000645722128815)
(-0.00192179886533 0.000573601477611 -0.000758251641898)
(-0.00180270173782 0.000416506231367 -0.000872080502223)
(-0.00141813136495 0.000302118694416 -0.000955976441776)
(-0.000848239375967 0.000261559556982 -0.000965238510568)
(-0.000120760457918 0.000288153945374 -0.000750120164838)
(0.000189297716456 0.000399534090946 -9.98124001357e-05)
(-0.000271190365486 0.00097240609994 -8.80629357372e-05)
(0.000264212584263 0.00104302936445 -0.00109635439454)
(0.00135912776602 0.00114523006626 -0.00136495339267)
(0.00217906651671 0.0013246030562 -0.00128015119687)
(0.00270264711288 0.00157357199499 -0.00109065064841)
(0.002854886956 0.00185046097743 -0.000878091689339)
(0.00266291268471 0.00209637817757 -0.000690090451287)
(0.00218802122349 0.0022952037931 -0.000537881200692)
(0.00150318147941 0.00242869548948 -0.000436431252199)
(0.000704330123932 0.00248996541055 -0.000392237491157)
(-0.000116112410868 0.00248091644146 -0.000404846847774)
(-0.000873823004493 0.00240521134223 -0.000467528989519)
(-0.00149259583561 0.00226887737442 -0.000570870523867)
(-0.00190769106751 0.00208267967809 -0.000706163911349)
(-0.00207608797831 0.00186346902948 -0.000859689457345)
(-0.00196181711947 0.00162818707325 -0.00102114712727)
(-0.0015561625366 0.00142127123375 -0.00115734216172)
(-0.000928375622859 0.00127147640462 -0.00120780012501)
(-9.37984736761e-05 0.00117628535085 -0.000969179087896)
(0.000272962896729 0.00108511308842 -9.62795547898e-05)
(-0.000313592124575 0.00151782401807 -8.85870619915e-06)
(0.000325594271119 0.00171745236437 -0.00108842501421)
(0.00154286724647 0.00188713930287 -0.00130175289391)
(0.00242662469851 0.00212745488944 -0.00112579306315)
(0.00296362963183 0.00242774105727 -0.000852053628863)
(0.00309129542957 0.00274763873755 -0.000575286626481)
(0.00285292277171 0.00302925369319 -0.000343863675039)
(0.00232254473536 0.00325515933076 -0.000167888223845)
(0.00158300423914 0.00340604551331 -6.05795217914e-05)
(0.000733526126007 0.00347573277297 -1.74820879552e-05)
(-0.000134095765334 0.00346727868208 -3.59580176188e-05)
(-0.000938073335871 0.00338529355796 -0.000108406889196)
(-0.00160271231997 0.00323560350227 -0.000225609316072)
(-0.00206192244908 0.00302972452888 -0.000391730404636)
(-0.00226578915413 0.00278355942553 -0.000588166134843)
(-0.00216875440168 0.00251330462711 -0.000806612702544)
(-0.00175044825963 0.00226121860181 -0.00101336847618)
(-0.00107100899342 0.00205412962397 -0.00113823160114)
(-0.00013919410734 0.00189178661787 -0.000946293582648)
(0.000308905300227 0.00167980503615 -2.26291429979e-05)
(-0.000286950544486 0.00191217609402 8.03588602069e-05)
(0.000468890642438 0.00217252956316 -0.00099340721891)
(0.00179060556377 0.00236358901767 -0.00113990620191)
(0.00272894388164 0.0026161930946 -0.000879624226579)
(0.00327057370753 0.00291942693426 -0.00052842042389)
(0.00336500501896 0.00323753418439 -0.000190980775827)
(0.00307263724805 0.00351598336963 7.7226075419e-05)
(0.00247721095595 0.00373928219106 0.000275049913437)
(0.0016746583951 0.00388909715363 0.000392565129269)
(0.000768370547888 0.0039603877393 0.000434763261039)
(-0.000152100129513 0.00395568851263 0.000410409635288)
(-0.0010072794185 0.00388039066917 0.000327553121029)
(-0.00172495454337 0.00374122622652 0.000189976891222)
(-0.00223659316102 0.00354726274228 -5.2598290362e-07)
(-0.00248333391393 0.00331236109305 -0.000232700068748)
(-0.00241258422013 0.00305061136769 -0.000503521424721)
(-0.00199153488124 0.00279954873929 -0.000775319693487)
(-0.00127129045663 0.00258090829081 -0.000970187389525)
(-0.00025621732137 0.00239530544104 -0.000835891417363)
(0.000287129094477 0.00211989898172 6.61808678639e-05)
(-0.000214738796543 0.00204806267819 0.00016550837094)
(0.000654935198583 0.00232138274723 -0.000864054772508)
(0.00206558333821 0.00250232420654 -0.000953515322779)
(0.00304967947782 0.00273012892948 -0.00062851176826)
(0.00359154990649 0.00299950692971 -0.00021632097008)
(0.00364739306046 0.00327837562275 0.00016395688283)
(0.00329967863224 0.00352262315649 0.000460271707965)
(0.00263938224005 0.00372124203241 0.000671358058876)
(0.00177259834678 0.00385595246307 0.000791074517885)
(0.000807822123628 0.00392196857164 0.000829356149652)
(-0.000166221299546 0.00392237274331 0.000799794200617)
(-0.0010732840097 0.00386295738862 0.000711515423335)
(-0.00184375039373 0.00375019693271 0.000565215482391)
(-0.0024074829851 0.00359204469151 0.000360922043165)
(-0.00270023830935 0.00340052565024 0.000103955599572)
(-0.002661717179 0.00318328607428 -0.00020282945995)
(-0.00224495152477 0.00296973766232 -0.000523664714591)
(-0.00149356098277 0.00277575873973 -0.000771712898717)
(-0.000412882092789 0.00259975112871 -0.000689074350099)
(0.00022174247535 0.00230354597093 0.000156503652155)
(-0.00013846012644 0.00192906721261 0.000224621948154)
(0.000828473290321 0.00217418031399 -0.000739895703318)
(0.00231213753337 0.00232373290137 -0.000784582968569)
(0.00333434158309 0.00250559530891 -0.000415053940889)
(0.00387507181924 0.00272086303979 3.54376867789e-05)
(0.0038968647073 0.00294358958715 0.000444418036607)
(0.00350318982636 0.00314179986218 0.000756150785409)
(0.00278630971788 0.00330528391003 0.000973855462116)
(0.00186311369173 0.00341695274597 0.00109149363378)
(0.000847251811706 0.0034736067313 0.00112380994515)
(-0.000172612388182 0.00347988166443 0.00108865318389)
(-0.00112260017698 0.00344123561026 0.000996868368206)
(-0.00193647581103 0.00336252181048 0.000847465147787)
(-0.00254382037993 0.00324973258774 0.000637759192658)
(-0.00287431141068 0.00311193317016 0.000371061587869)
(-0.00286624832911 0.00295438316267 4.35497042393e-05)
(-0.00245805869535 0.0027964777783 -0.000304633260443)
(-0.00168608805128 0.00264694720247 -0.00058714312875)
(-0.000559229486783 0.00249972085389 -0.00054697662344)
(0.000152026100871 0.00222605979765 0.000222570285307)
(-6.02344678496e-05 0.00158369840496 0.000272989103383)
(0.0009752769799 0.0017739912749 -0.000626857590931)
(0.00251303174018 0.00188217922115 -0.000644502782806)
(0.00356441691938 0.00200896802541 -0.000248086060056)
(0.00410379154517 0.00215909909352 0.000224922506379)
(0.00410088610883 0.00231679626846 0.000648264961151)
(0.00367165260717 0.00245859328768 0.000967502479741)
(0.00290893660817 0.00257694602985 0.00118794768429)
(0.00193953963384 0.00265878118596 0.0012983002587)
(0.000882524764646 0.00270572589209 0.00131468023718)
(-0.000172519901947 0.00271609156163 0.00127599087608)
(-0.00115170252375 0.00269814323159 0.00119109464669)
(-0.00199767510466 0.00266043582821 0.00104336538719)
(-0.00263801737091 0.0026015513627 0.000834389358859)
(-0.00299729933635 0.00252657678608 0.000567037866206)
(-0.00301343821617 0.00243757300348 0.000232886771703)
(-0.00261613228128 0.0023452085512 -0.000129871128355)
(-0.0018339121801 0.00225026433177 -0.000429815626779)
(-0.000678996903669 0.00214380591763 -0.00041775318119)
(8.27895640967e-05 0.0019220706972 0.000272421537224)
(-4.09252102528e-07 0.00105507629603 0.000297674262306)
(0.00107602086473 0.00117554297006 -0.000543141116572)
(0.00265089548132 0.00123990894323 -0.000546857960379)
(0.0037219654447 0.00131304063792 -0.000142472692625)
(0.00426062197299 0.00139858038173 0.000343438656803)
(0.00424201606593 0.00149117402524 0.00077159572627)
(0.00378894829715 0.00157609556237 0.0010912700742)
(0.00299517331053 0.00164871111482 0.00130681685018)
(0.00199583409722 0.00170325587641 0.00139410714616)
(0.000910831729803 0.00173542265009 0.00140607273612)
(-0.00016407184408 0.00175198991516 0.00135965801004)
(-0.00116056279753 0.00175897069054 0.00127277020259)
(-0.002017246532 0.00175850482447 0.00114546531456)
(-0.00267768331992 0.00175224742865 0.000944375364718)
(-0.00305580541295 0.00173765043467 0.000684207382069)
(-0.00309014550488 0.00171513270775 0.000353967881525)
(-0.00270488626007 0.00168557152065 -1.15098649786e-05)
(-0.00192329386739 0.00164482761654 -0.00031401531301)
(-0.000757840570637 0.00158271798063 -0.000318331166054)
(2.82992343992e-05 0.00142793804063 0.00030220931766)
(3.22016087579e-05 0.000415693290728 0.000306457558858)
(0.00112727124893 0.000459772649821 -0.000499776286902)
(0.00271895554969 0.000479734940449 -0.00049821271083)
(0.00379865548445 0.000502435157089 -9.45754196318e-05)
(0.00433725830193 0.000529264156304 0.000395346915588)
(0.00431242049967 0.000560951182396 0.000822743184219)
(0.00384864394097 0.000592587523139 0.00113919164416)
(0.00304361734249 0.00062272694382 0.00134187848701)
(0.00202895116579 0.000648394015103 0.00142615405876)
(0.000935663907093 0.000672314351515 0.00143159325805)
(-0.000142506243721 0.000697760320755 0.00137923500415)
(-0.00114002346859 0.000728474603889 0.00128934148735)
(-0.00199782828464 0.00076563480547 0.00116872517206)
(-0.00266146032907 0.000806167071241 0.000980450946732)
(-0.00304772724289 0.000845667058608 0.000729600307843)
(-0.00309298556889 0.000882761487866 0.000408275233508)
(-0.0027200046119 0.00090961779548 4.88852464848e-05)
(-0.0019487099716 0.000918694773983 -0.000249019538309)
(-0.000791555663041 0.000901737801811 -0.00026240279563)
(-1.97118824754e-06 0.000823376823457 0.000314457869004)
(3.5343012797e-05 -0.000256937043303 0.000302152115956)
(0.00112768498973 -0.000290513503728 -0.000499467782943)
(0.00271574887623 -0.000313466267612 -0.000499580786969)
(0.00379454604073 -0.000339963754176 -9.88448456736e-05)
(0.00433438345482 -0.000368105553804 0.000387412418485)
(0.00431196057705 -0.00039427507742 0.000811795255391)
(0.00385176906606 -0.000412941115668 0.00112504991186)
(0.00305102303426 -0.000423496742237 0.00132470367805)
(0.00204249984624 -0.000420882868809 0.00140467355904)
(0.000958157439436 -0.000401610883352 0.00140590825138)
(-0.000108396250624 -0.000365029044968 0.00135085136905)
(-0.00109291609522 -0.000310900531925 0.00126089921598)
(-0.00193884893024 -0.000239179967782 0.00114260800922)
(-0.00259369831892 -0.000155729526153 0.000959402427526)
(-0.00297679632178 -6.64855412993e-05 0.00071544611459)
(-0.0030252212454 2.50271403424e-05 0.000403103559361)
(-0.00266406707252 0.000104052270239 5.2732934962e-05)
(-0.001911810445 0.000159705999233 -0.000238248654774)
(-0.00078027166902 0.00018671416945 -0.000252377192089)
(-5.80438530876e-06 0.000186284617077 0.00031047397564)
(9.27650093542e-06 -0.000886023450933 0.000285869094192)
(0.00107754528722 -0.000992471585587 -0.000540377230735)
(0.00264233930354 -0.00105740101005 -0.000548819779187)
(0.00371107647973 -0.00113219994728 -0.000153486297976)
(0.00425349371656 -0.00121711663853 0.000322162073922)
(0.0042425571337 -0.00130176052464 0.000741816044876)
(0.00380026071732 -0.00137036160485 0.00105264307225)
(0.0030201207469 -0.00141835379592 0.00125918721499)
(0.0020388253458 -0.00143941045666 0.00133629389377)
(0.000979934549535 -0.00142400320378 0.00133705135597)
(-6.15423212412e-05 -0.00137550627544 0.00128359751722)
(-0.00102067392978 -0.0012968642177 0.00119634074274)
(-0.00184342218108 -0.00119084262573 0.00107421781425)
(-0.00247781350293 -0.00106562376825 0.000889194285922)
(-0.00284689970191 -0.000927607667929 0.000649200601624)
(-0.00289059134156 -0.0007831657864 0.000345260639838)
(-0.00253995746458 -0.000653158214172 6.15123582053e-06)
(-0.00181399016592 -0.000551976309864 -0.000275720784652)
(-0.000723157883337 -0.000483207907956 -0.000282273420088)
(1.65459842973e-05 -0.000412993265747 0.000292929802739)
(-4.35380910429e-05 -0.00140101503472 0.000254487067042)
(0.000979432568116 -0.0015701243989 -0.000617596397963)
(0.00250263572269 -0.00167463393582 -0.000642073792738)
(0.00355126496525 -0.00179903733122 -0.000260769833093)
(0.00409736952662 -0.00194410611869 0.000197132706218)
(0.00410808333297 -0.00208931912785 0.000607766496689)
(0.00369702160402 -0.0022092614017 0.000914285872908)
(0.00295765281692 -0.00229640899073 0.00112139763535)
(0.00201835181997 -0.00233567920695 0.00121812072065)
(0.00100210291426 -0.00232769805867 0.00122244923083)
(-9.26859558114e-07 -0.00226905466367 0.00117468420772)
(-0.000923902506576 -0.00216734250822 0.00108604940354)
(-0.00171578356755 -0.00203018671012 0.000950545984475)
(-0.00231638530729 -0.00186102860854 0.000766313857499)
(-0.00266175521913 -0.00167252314382 0.00053055774526)
(-0.00269344006139 -0.00147415344515 0.000237527275831)
(-0.00235197144231 -0.00129255057753 -8.46682856835e-05)
(-0.0016592006627 -0.00114510651709 -0.000351730761452)
(-0.000624009144517 -0.00103746091486 -0.00034325004015)
(6.09705765477e-05 -0.000909602575924 0.000264106628719)
(-0.000114522732243 -0.00173697717867 0.000204084884806)
(0.000838949018567 -0.00195309058814 -0.000720377242516)
(0.00230436679395 -0.00209353851098 -0.000771716094865)
(0.00332482610753 -0.00226757857373 -0.000420939889152)
(0.00387586212689 -0.00247192605073 1.07004198641e-05)
(0.00391751425847 -0.00267657892528 0.000404385196579)
(0.00354957788082 -0.00284701799825 0.000701750449075)
(0.00286512062071 -0.00297293444361 0.000905143229982)
(0.00198303060227 -0.00303639535983 0.00100759291253)
(0.00102028205343 -0.00303382333121 0.00102593214186)
(6.61883567535e-05 -0.0029694865754 0.000982315369797)
(-0.000811165875389 -0.00284881784611 0.000892788033695)
(-0.00155671513071 -0.00267871236198 0.00076010005679)
(-0.00211436046497 -0.00246796577385 0.000581766809281)
(-0.00242732799475 -0.00223075890014 0.000356038027965)
(-0.00244147004227 -0.00198083469068 8.16715109683e-05)
(-0.00210746688191 -0.00174884331214 -0.000212821153334)
(-0.00145391253625 -0.00155776765449 -0.00045544807454)
(-0.000488292200044 -0.00141590388496 -0.000423805129765)
(0.000121960409028 -0.00124495869104 0.00022434101239)
(-0.000184124346862 -0.00185440243076 0.000144777817446)
(0.000674970587832 -0.00209450501533 -0.000832034072498)
(0.00206554753662 -0.00226177626314 -0.000924833417691)
(0.00304971383959 -0.00247635590928 -0.00061963484845)
(0.00360535692415 -0.00272927928648 -0.000228035698965)
(0.00368692263264 -0.00298532869698 0.000136001457583)
(0.00337198366869 -0.00319750635624 0.000418185206215)
(0.00275247583052 -0.00335455773337 0.00061600103569)
(0.00193602047757 -0.00343815884407 0.000722485006311)
(0.00103439481673 -0.00344430433313 0.000749031106962)
(0.000137131902001 -0.00337704501309 0.000713326656071)
(-0.000686128600766 -0.00324270596275 0.00062990099259)
(-0.00137823067996 -0.00305010455525 0.00050398781035)
(-0.00188542856512 -0.00280860976208 0.000336605988331)
(-0.00215863518689 -0.00253374680706 0.000128881964759)
(-0.00214987361776 -0.00224234698206 -0.000116109782031)
(-0.00182350529355 -0.00197022278585 -0.000374405980794)
(-0.00121565511879 -0.00174566275571 -0.00057675878232)
(-0.000332917987225 -0.00157883641593 -0.000510921684993)
(0.000184260524145 -0.00138374803563 0.000176294790233)
(-0.000247871108273 -0.00173477412431 6.28248253048e-05)
(0.000502911166174 -0.00196247430495 -0.00094722419457)
(0.00180461575416 -0.00213677947481 -0.0010909701824)
(0.00274525966819 -0.0023715278797 -0.000848252201479)
(0.00330367289299 -0.00265322745037 -0.000515906032564)
(0.00342808621573 -0.00294386236644 -0.000193924769935)
(0.00317401031774 -0.00318734985385 6.18450964602e-05)
(0.00262636670648 -0.00336770485492 0.00024848259397)
(0.00188198160105 -0.00346742963653 0.000355827175323)
(0.00104682653978 -0.00348266775393 0.000390165873907)
(0.000211212347494 -0.00341773544608 0.000364266179051)
(-0.000553343901291 -0.00327868795974 0.000290967054049)
(-0.00118798631933 -0.00307557478814 0.000178934053742)
(-0.00164123453547 -0.00281770016084 3.12650120942e-05)
(-0.00187044178104 -0.00252129866988 -0.000145692983747)
(-0.00183756767358 -0.00220772033473 -0.000350465613602)
(-0.00152080749587 -0.00191658060756 -0.000557120037531)
(-0.00096305753117 -0.00167872413163 -0.000705752533305)
(-0.000173198414809 -0.00150510178025 -0.000598481747621)
(0.000240079198657 -0.00131663345716 0.000111361927618)
(-0.000268695088367 -0.00137519111083 -2.35894135942e-05)
(0.000373010706968 -0.00154935210745 -0.00103289218972)
(0.00157183924781 -0.00170284707904 -0.00123481948783)
(0.00246039678738 -0.0019244517635 -0.00107049804596)
(0.00301635137848 -0.00220151616854 -0.00081122757275)
(0.00317757172687 -0.00249309940759 -0.000545963881113)
(0.00298141545576 -0.00274084006811 -0.000323232187593)
(0.00250364420351 -0.00292682288998 -0.000154459855199)
(0.00182762310414 -0.00303375400413 -5.26386068702e-05)
(0.00105444809434 -0.00305717469626 -1.27872646564e-05)
(0.000276800929345 -0.00300196568029 -2.83701244806e-05)
(-0.000432704112178 -0.00287383240218 -8.81355666312e-05)
(-0.00101236460802 -0.00268053424188 -0.000177677738886)
(-0.0014127943495 -0.00243296993715 -0.000298202668397)
(-0.00160106365343 -0.00214698837224 -0.000438157772824)
(-0.0015479885051 -0.0018456177403 -0.000590328637596)
(-0.00124338513235 -0.00156862484854 -0.00073364471733)
(-0.000739149169966 -0.00134894284522 -0.000816791996369)
(-4.92876320759e-05 -0.00119412052771 -0.000663180707501)
(0.00026190699774 -0.00104246887205 4.55202982682e-05)
(-0.000225592177978 -0.000876575601388 -0.000100479871639)
(0.000320858322932 -0.000937391428577 -0.00104035365079)
(0.00140168611334 -0.00102900730012 -0.00129011500819)
(0.00222836631062 -0.00119385025566 -0.00120924176707)
(0.00277170563682 -0.00142287470792 -0.00102802469598)
(0.00295882845865 -0.0016748764517 -0.00082221671914)
(0.00281047493888 -0.00189270334921 -0.000638511070394)
(0.0023908571083 -0.00205972015717 -0.000489778083278)
(0.00177257134264 -0.00216045608389 -0.000390405277853)
(0.00105273530387 -0.00218974114466 -0.00034601640232)
(0.000324185640952 -0.0021514260371 -0.000353019457516)
(-0.000337605276791 -0.00205024663886 -0.000400918226407)
(-0.000871037688086 -0.00189171578567 -0.000475385619928)
(-0.00122838110766 -0.00168643216382 -0.000567171869662)
(-0.00138316464182 -0.00144910422733 -0.000666384878645)
(-0.00131639872414 -0.00120091138175 -0.000764750544655)
(-0.00102872765718 -0.000980206518334 -0.000842932734639)
(-0.000579999504378 -0.000818649429293 -0.000859448980466)
(9.37289321923e-06 -0.000718938659036 -0.000666477082019)
(0.00023801822412 -0.000647697190312 -6.24163632783e-06)
(-0.000132967959354 -0.000290069308067 -0.00011164787496)
(0.000341978021217 -0.000154049786033 -0.000811052881653)
(0.00129442673235 -0.000129524989221 -0.00103916380971)
(0.00205232633281 -0.000186358773661 -0.00101162342301)
(0.00257480928854 -0.000320327917626 -0.0008943092873)
(0.00277410043371 -0.000494965518289 -0.000744117028845)
(0.00265815268899 -0.000654185789532 -0.000604017749255)
(0.00228205150828 -0.000782865697039 -0.000481340401589)
(0.00170999207515 -0.000864782114356 -0.000394442720237)
(0.00103614142578 -0.000898120490634 -0.00035450037904)
(0.00035056698184 -0.000884125567811 -0.000358690867455)
(-0.000271650494281 -0.000825030154091 -0.000397460287585)
(-0.000769687456324 -0.000725283606675 -0.000457706368117)
(-0.00109651727802 -0.000592539321908 -0.000527253393078)
(-0.00123031535315 -0.000441233470148 -0.00059529546314)
(-0.00115844244873 -0.000288769513456 -0.000655778098165)
(-0.00088974547911 -0.000170796073279 -0.000691857094374)
(-0.000493167784786 -0.000114522738266 -0.000673284661093)
(2.64110583447e-06 -0.000114701298491 -0.000493351340031)
(0.000178922686515 -0.000186806419413 -1.8699885179e-07)
(4.55818448506e-05 5.90334002551e-06 -3.88284531276e-05)
(0.00045892657348 0.000189478851717 -0.000127950763706)
(0.00119830754936 0.000276996419731 -0.00012149004371)
(0.00183334720115 0.000312230758077 -4.20520178451e-05)
(0.00229582307818 0.000285682148078 5.26548940488e-05)
(0.0024800923168 0.000213963705491 0.000147029139063)
(0.00239413412922 0.000141112859922 0.000213928741723)
(0.00207514275811 6.94696161705e-05 0.000264700781346)
(0.00157318509152 1.52916616009e-05 0.000290575263717)
(0.000974274471631 -1.18826155913e-05 0.000297465825628)
(0.000360590170916 -1.25007178e-05 0.000288486459193)
(-0.000200274758444 1.12605012584e-05 0.000268227954416)
(-0.000651301023094 5.51495652835e-05 0.000238965078732)
(-0.000945130067831 0.000112617513499 0.000201739865014)
(-0.00106424583109 0.000170685780189 0.000158187626014)
(-0.00100354583305 0.000221318418995 0.000104038149756)
(-0.000774328068264 0.000238748827391 4.93561301617e-05)
(-0.00045393516879 0.000210033568969 4.57110703029e-06)
(-9.01875325058e-05 0.000149917789274 1.01962646656e-05)
(5.58505786757e-05 3.24604603348e-05 8.04657209217e-05)
(0.0003017846394 0.000291964501725 -0.000739819498845)
(0.00092038949872 0.000423584544931 -0.0010510700247)
(0.00163152118697 0.000538630796826 -0.00111380750074)
(0.00215533389037 0.000637792069507 -0.000975123602975)
(0.00246668752299 0.00071886486874 -0.000757934838994)
(0.00251484165842 0.000782200678466 -0.000524545691569)
(0.00231153862534 0.000823800600891 -0.000317021655074)
(0.00188631775546 0.000848649832555 -0.000148406458967)
(0.0012989795788 0.000859122403358 -3.76398792909e-05)
(0.000623145377772 0.00086179602038 7.7742020207e-06)
(-7.01526988837e-05 0.000859692800568 -8.4794532613e-06)
(-0.000715576808507 0.000851997298956 -7.83622619323e-05)
(-0.00125518527067 0.000835872711974 -0.000193607432977)
(-0.00163713654234 0.000806649268225 -0.000342713338345)
(-0.00182657118767 0.000763329947904 -0.00051266236447)
(-0.00181099904656 0.000703161673311 -0.000694823442849)
(-0.00159521733651 0.000629657717663 -0.000861360519645)
(-0.00122460340221 0.000540000115074 -0.000966866783006)
(-0.000710617778265 0.00042569795497 -0.000909846513521)
(-0.000244229985811 0.00027631634685 -0.000646390349579)
(0.000468295634305 0.000841542323856 -0.0010298616445)
(0.00110420862764 0.000974955732837 -0.00192137346658)
(0.00174134278327 0.00109960659973 -0.00212031130202)
(0.00218154208221 0.00123577695591 -0.00197458725774)
(0.00242029665793 0.00137345274416 -0.00169480641946)
(0.0024315526499 0.00150228367872 -0.00138031009404)
(0.00222038679071 0.00160995486449 -0.00108883849581)
(0.00181499169968 0.00169220956593 -0.000852402079473)
(0.00126513305016 0.00174535166568 -0.000694683096027)
(0.000632799287132 0.00177181437395 -0.000627324154722)
(-1.82776018833e-05 0.00177323472105 -0.00064900246437)
(-0.00062782188338 0.00174954619436 -0.00075008973932)
(-0.00114233583486 0.00170023018511 -0.00091660626776)
(-0.00151681636333 0.001624137975 -0.00113006342193)
(-0.00172061602112 0.00152512566294 -0.00136959878463)
(-0.00174039133942 0.00140771489502 -0.00161040713209)
(-0.00158108614981 0.00128174317596 -0.00181015106864)
(-0.00127154728073 0.0011528033012 -0.00189711867736)
(-0.000813290643694 0.00101867159451 -0.00170547604744)
(-0.000359554663357 0.000847416230866 -0.000939354425172)
(0.000599693080727 0.0014563737481 -0.00110243900995)
(0.00124937985411 0.00152730200244 -0.00213465616707)
(0.0018548604548 0.00162404112804 -0.00229367903378)
(0.00224521018682 0.00176259546563 -0.00205470835251)
(0.00243950863708 0.00192731112035 -0.0016785892972)
(0.00242148837189 0.00209893779193 -0.00128122101298)
(0.00219761450818 0.00225594460548 -0.00092721464807)
(0.00179544750962 0.00238502337154 -0.000651028051621)
(0.0012604935291 0.00247586829682 -0.000472480379467)
(0.000648487089411 0.00252596100229 -0.000399006276282)
(1.72215406732e-05 0.00253461786064 -0.000427072990168)
(-0.000577239847254 0.00250254407642 -0.000546523595196)
(-0.00108598696161 0.00243192576555 -0.000744309143584)
(-0.00146702736843 0.00232484309489 -0.00100378594105)
(-0.00169011798093 0.00219112983311 -0.00130528741768)
(-0.00174018052402 0.0020416602567 -0.00162088942097)
(-0.00161907529063 0.0018928039285 -0.00190155187433)
(-0.00134860557247 0.00175752789185 -0.0020599735972)
(-0.000913236987092 0.00164160993624 -0.00189209201218)
(-0.000458196179068 0.00152135292149 -0.00100225326795)
(0.000706320139198 0.0019058486507 -0.000991858684939)
(0.00139390963932 0.00190244921579 -0.00202583452974)
(0.00200056427684 0.00195220172384 -0.00209335811563)
(0.00237111345091 0.00207107527691 -0.00173840539671)
(0.00253876598031 0.00223738842143 -0.00125339170378)
(0.00249611346199 0.00242620627668 -0.000766582910866)
(0.00225339685346 0.00260930067884 -0.000347561126462)
(0.00183847522745 0.00276760293505 -3.11431386737e-05)
(0.00129666884239 0.00288542056024 0.000167168641823)
(0.000681133682073 0.00295422782884 0.00024556785339)
(4.57952157473e-05 0.00297103436556 0.000211507122188)
(-0.000555941614873 0.00293699529103 7.58223784004e-05)
(-0.00107892934509 0.0028566958434 -0.000151076151465)
(-0.00148137894581 0.00273801777535 -0.000455661005088)
(-0.00173074433931 0.00259350656663 -0.000821571349014)
(-0.00181012810583 0.00243807787442 -0.00122045771426)
(-0.00171589235439 0.00229268800477 -0.00159897422396)
(-0.00146300256073 0.00217583757098 -0.0018584045793)
(-0.00102499836718 0.00209934959828 -0.00176759411582)
(-0.000540773357281 0.00203661949041 -0.00087985027585)
(0.000793191179748 0.00217015785229 -0.000810893474687)
(0.00153673777723 0.00209881778703 -0.00179250561051)
(0.00216889094412 0.00210485474046 -0.00176459964334)
(0.00254129180172 0.00219574499851 -0.00130069768194)
(0.00269682093938 0.00234800203365 -0.000711482039112)
(0.00263535192466 0.00253447554445 -0.000139358186118)
(0.00237199280141 0.00272544084364 0.000341225352857)
(0.00193590734989 0.0028966881876 0.000695805628089)
(0.00137093343215 0.00302889730539 0.000912776355918)
(0.000730865561776 0.00310922882178 0.000996129405178)
(7.02463480316e-05 0.00313322211032 0.000957260296774)
(-0.000558726579127 0.00310237546807 0.00080809566548)
(-0.00110945034698 0.00302293726719 0.00055673739537)
(-0.00154006381616 0.00290722249575 0.000212029408642)
(-0.00181880808515 0.0027690817672 -0.000212203563205)
(-0.00192479792011 0.00262668776236 -0.000688347562542)
(-0.00184846272589 0.00250150967703 -0.0011594251306)
(-0.00159689654503 0.00241354746411 -0.00151522104057)
(-0.00113647568077 0.00237718162253 -0.00150915091043)
(-0.000605169289719 0.00236785359898 -0.00067787258642)
(0.000861400231353 0.00220045079629 -0.000612666862756)
(0.00166952020869 0.00209120826618 -0.00152174386705)
(0.00234265074417 0.00206626290819 -0.00141225958222)
(0.00273192862115 0.00212981947909 -0.000858918225618)
(0.00288668910803 0.00226036849127 -0.000184030159971)
(0.00281427547852 0.00243279757549 0.000458111566734)
(0.00253129145168 0.00261665580511 0.000987602921365)
(0.00206726495086 0.00278584487285 0.00137340786137)
(0.00146916388065 0.00291939321098 0.00160617668947)
(0.000792773572799 0.0030036241668 0.00169384362283)
(9.45949724592e-05 0.00303295602352 0.00165126332718)
(-0.000572015861382 0.00300939052499 0.00149207356366)
(-0.00115907790454 0.0029406393812 0.00122271056813)
(-0.00162373338175 0.00283890188032 0.0008484559499)
(-0.00193096230849 0.0027190087663 0.000380720368201)
(-0.00205789949755 0.0025999021616 -0.000155404641754)
(-0.00199150041076 0.00250323898999 -0.000699662894403)
(-0.00173054166536 0.00244622424699 -0.00113356104019)
(-0.0012367953269 0.00244087248401 -0.00120215377922)
(-0.000652694461622 0.00246198107218 -0.000448392074637)
(0.000906794831713 0.00200310666879 -0.000433079645579)
(0.00178037542376 0.00188213112888 -0.00126514570866)
(0.00250114245392 0.00184144830724 -0.00109404580231)
(0.00291596921564 0.00188308172959 -0.000475598982186)
(0.00307934356905 0.00198917061591 0.000261514909546)