/*--------------------------------*- C++ -*----------------------------------*\
| =========                 |                                                 |
| \\      /  F ield         | OpenFOAM: The Open Source CFD Toolbox           |
|  \\    /   O peration     | Version:  3.0.1                                 |
|   \\  /    A nd           | Web:      www.OpenFOAM.org                      |
|    \\/     M anipulation  |                                                 |
\*---------------------------------------------------------------------------*/
FoamFile
{
    version     2.0;
    format      ascii;
    class       volVectorField;
    location    "0.1";
    object      ddt0(U);
}
// * * * * * * * * * * * * * * * * * * * * * * * * * * * * * * * * * * * * * //

dimensions      [0 1 -2 0 0 0 0];

internalField   nonuniform List<vector> 
7968
(
(0.00365426590993 0.00376924750004 -0.00755392696407)
(0.0109398526904 0.00416062030255 -0.00748833263712)
(0.0171330566671 0.00489058452896 -0.00755306295977)
(0.0216875166638 0.00587305309118 -0.00760092743167)
(0.0241056148655 0.00711593350187 -0.0076123448409)
(0.0238926591617 0.00852310775682 -0.00759318402287)
(0.0207919894551 0.00994312096884 -0.00754368286847)
(0.0149049516685 0.0112094581439 -0.00747980598628)
(0.00671954179472 0.0121391069761 -0.00742843398362)
(-0.0028937191188 0.0125843931385 -0.00741497232389)
(-0.0128009920516 0.0124670774658 -0.00745617462995)
(-0.0217920284384 0.0118003647964 -0.0075460564892)
(-0.0287946200731 0.0106789450008 -0.00765867424273)
(-0.0330581213114 0.00926417350221 -0.00775661895334)
(-0.0342518510602 0.00774629781775 -0.00780538038625)
(-0.032437266932 0.00627265184387 -0.00778533153544)
(-0.0279938966982 0.00499734816265 -0.00771144318864)
(-0.021498153614 0.00401219772462 -0.00761186091247)
(-0.0135227627592 0.0033278540477 -0.00748477744684)
(-0.00459163344013 0.00298526253874 -0.007499866266)
(0.00404197520592 0.0113077379784 -0.00749666278722)
(0.0119245669673 0.0123103992061 -0.0072559988549)
(0.0187622778299 0.0143699728366 -0.00727600935396)
(0.0238435606017 0.0172854118125 -0.00723079031059)
(0.0266721209938 0.0209633706863 -0.00711969802673)
(0.0266345516729 0.0251695201754 -0.00697053785236)
(0.0234017408017 0.0294176550373 -0.00677897387937)
(0.0170422067459 0.0332100480737 -0.00657284036746)
(0.00806196277759 0.0359998980859 -0.00641024583086)
(-0.00256660434083 0.037337678172 -0.00633980277114)
(-0.0135527773952 0.0369864994993 -0.00639749337997)
(-0.0235174377274 0.0349821985853 -0.0065777996051)
(-0.031243892913 0.0316198446426 -0.00682918106322)
(-0.0358886317482 0.0273938984117 -0.00708276536968)
(-0.0371360868579 0.0228852294889 -0.00728313098416)
(-0.0350835013664 0.0184624752753 -0.00737705134517)
(-0.0301615323321 0.0146599360802 -0.00739526882219)
(-0.0230772234176 0.0117613513396 -0.0073829933716)
(-0.0144827415264 0.00978787680923 -0.00731690827877)
(-0.0049534068105 0.00880822107598 -0.00747650080085)
(0.00476686487255 0.0177764051797 -0.00756269296351)
(0.0139746340341 0.0194347428365 -0.00728122076993)
(0.0220297163972 0.0227027203025 -0.0071979877556)
(0.0281919660485 0.0274950092951 -0.00693810708843)
(0.031892262615 0.0336301104289 -0.00651559804831)
(0.032248707286 0.0405082787417 -0.00606758510741)
(0.0287430860631 0.0475093399376 -0.00555760071249)
(0.0214175987755 0.0537993007635 -0.00497150202051)
(0.0108071996585 0.0584675281001 -0.00453561778835)
(-0.00191077835547 0.0607341103387 -0.00433386814434)
(-0.0151219127056 0.060167768175 -0.00442769212839)
(-0.0270888814339 0.0568242895274 -0.00480667086582)
(-0.0362853276106 0.0512315255909 -0.00538464190307)
(-0.0416781723421 0.0442358428361 -0.00602197155761)
(-0.0430633833785 0.0367629876209 -0.00658543007855)
(-0.0405480973605 0.0296382612918 -0.00691837675782)
(-0.0345929590094 0.0234571858448 -0.00712940773188)
(-0.0262844506268 0.0185992147642 -0.00736067722744)
(-0.0164446268009 0.0154179215247 -0.00743874797417)
(-0.0056313641082 0.0138061488586 -0.00764441040409)
(0.00574176347745 0.0226078244705 -0.00760056787983)
(0.0168718013819 0.0248060416929 -0.00722896554169)
(0.0268099229088 0.0291581303059 -0.00692153275267)
(0.0347607699493 0.0357210988557 -0.00636322650789)
(0.0396765460656 0.0439779114821 -0.0057153220277)
(0.0405034718566 0.0533198523695 -0.00467241696849)
(0.0366821609733 0.0629536100244 -0.00351068228575)
(0.0279911658314 0.0716927724178 -0.00229314765119)
(0.0149903539566 0.0782436080267 -0.00132833492886)
(-0.000868960435864 0.0814721232513 -0.000846320604084)
(-0.0174610700308 0.080728775371 -0.000993884591043)
(-0.0324484961739 0.0760899049693 -0.00175020915269)
(-0.0438245818558 0.0683306566735 -0.0029317406163)
(-0.050348377834 0.0586658776186 -0.00426844740583)
(-0.0517255319039 0.0483946097962 -0.00547454650803)
(-0.0483831838756 0.0387961571348 -0.0063967640317)
(-0.0411947191816 0.0305173502498 -0.00687698444229)
(-0.031107915885 0.0239900132652 -0.00723726596769)
(-0.0192768581405 0.0196692561835 -0.00754896388011)
(-0.00658141270075 0.0175063975926 -0.00782557925697)
(0.00697963050331 0.0252796309986 -0.00758942522802)
(0.0205447883988 0.0279073490997 -0.00710257087299)
(0.0329369435303 0.0331805444767 -0.00649045216124)
(0.0430101455626 0.0409249971107 -0.00570743817133)
(0.0494930719923 0.0507411676086 -0.00431907548329)
(0.0512260826416 0.0621396185453 -0.0024933251234)
(0.0471171881346 0.074037727542 -0.000323901946765)
(0.0367083982551 0.0849576565421 0.00188187664495)
(0.0205870496912 0.0932263383376 0.00366727558352)
(0.0005746231358 0.0973555818774 0.0045856733913)
(-0.0205041432626 0.096488574954 0.00436222546935)
(-0.0394873451959 0.0907180251455 0.0030310916518)
(-0.0537101132579 0.0810556504334 0.000926662533683)
(-0.0616155093183 0.0690881511288 -0.0014614729324)
(-0.0629350272024 0.0565188179991 -0.0036676021404)
(-0.0584277805501 0.0447918603868 -0.00539335308187)
(-0.0493988410868 0.0348611699373 -0.00656054006754)
(-0.0371269978383 0.0272487471174 -0.00717485372716)
(-0.0229310261783 0.0220347851021 -0.00766145860932)
(-0.00779424873423 0.0194493585707 -0.00801067305186)
(0.00838924973018 0.0252610469812 -0.00753327927185)
(0.0247907619297 0.0280694369707 -0.00693003538788)
(0.0398172956245 0.0337166305292 -0.00607555922841)
(0.0523173534788 0.0419851615399 -0.00464135232312)
(0.060890980147 0.0527263745104 -0.00246309426242)
(0.0638001058799 0.0653126803397 0.000495437932231)
(0.059500370417 0.078611473763 0.00403442661963)
(0.0471800588128 0.0909750451907 0.00766257615146)
(0.0273887988511 0.100448431373 0.0106438312215)
(0.00239353946233 0.105247866643 0.0122151816593)
(-0.0240988585894 0.104332389145 0.011897666008)
(-0.0478819150798 0.0978018920703 0.00974369229347)
(-0.0654546910859 0.0868687995081 0.00632078501704)
(-0.0748853454179 0.0734237116585 0.00245110264529)
(-0.0760218739935 0.0594457684061 -0.00112238658571)
(-0.070040648033 0.0465277606494 -0.00395014251453)
(-0.0587345552256 0.0357007375252 -0.00590121310198)
(-0.0439260333632 0.0274749064486 -0.00711753447755)
(-0.0270762670886 0.0219511521869 -0.00775046699712)
(-0.00916602939575 0.0191900938929 -0.00817836295703)
(0.00980576322167 0.0222643786979 -0.00743023123104)
(0.0290152804095 0.0249400103755 -0.00668102236156)
(0.0468434870381 0.0302855029105 -0.0054487532234)
(0.0620162736094 0.0383066226394 -0.00340865535113)
(0.0728202783513 0.0487991113263 -0.00023856673924)
(0.0771111449557 0.0612260777859 0.00408885475892)
(0.0727799128191 0.0745249860101 0.00932661152506)
(0.0585454863721 0.0870465745668 0.0147850898705)
(0.0348599733294 0.0967567855041 0.0193458584145)
(0.00445876272734 0.101746090063 0.0218007233378)
(-0.0279503564415 0.100875244635 0.0213801149549)
(-0.0569510535664 0.0942381393753 0.0181580809914)
(-0.0780884332021 0.0831406207295 0.0130253568209)
(-0.0890386080389 0.0695937052632 0.00726567086859)
(-0.0898309229178 0.055653374328 0.00199834215829)
(-0.0821724894931 0.0429147477782 -0.00215065395915)
(-0.0684486874253 0.0323427697309 -0.00503402948866)
(-0.0508695325255 0.0243727900512 -0.00678030881892)
(-0.0312136656782 0.0191071029933 -0.00776778444018)
(-0.010551685174 0.0164818507422 -0.00830597112088)
(0.0110763607042 0.0163667090351 -0.0073091081018)
(0.032821733188 0.0185742680321 -0.00642208240446)
(0.0531762763742 0.0229976849247 -0.00482838658094)
(0.0708279627049 0.0296531338946 -0.00213616662646)
(0.0838100584922 0.0384631593807 0.00203534204593)
(0.0895256584974 0.0490194743206 0.00778803163682)
(0.0853209596769 0.0604490348136 0.0148574608438)
(0.0694120691055 0.0713433641023 0.0223473076757)
(0.0420882747802 0.079887561457 0.0286990763164)
(0.0065119536149 0.0843298234036 0.0321775016229)
(-0.0316067691416 0.0836022290648 0.0316621914585)
(-0.0656164901275 0.0777775757444 0.0272471680751)
(-0.090099145905 0.0680610404837 0.0202030834145)
(-0.10237270624 0.0562892937667 0.0123551915582)
(-0.102700689194 0.0442985386049 0.00525798358691)
(-0.0933508612227 0.0334586133153 -0.000273965442972)
(-0.0772740320456 0.024562616928 -0.00409814807517)
(-0.0571567059964 0.0179325081885 -0.00644647619935)
(-0.0349620935406 0.0135254215391 -0.00773048804597)
(-0.0117839809993 0.0113823243585 -0.00839468605603)
(0.0120160169358 0.00805056786368 -0.0072101051473)
(0.0356481521334 0.00945885784916 -0.00620925728287)
(0.057916278874 0.0122840541845 -0.00434821809379)
(0.0774794140702 0.0165676298839 -0.00111090881583)
(0.0921861391176 0.022287328518 0.00388920324559)
(0.0990970046362 0.0292174785913 0.0108437962018)
(0.0951036941446 0.0368070569083 0.0194976538682)
(0.0779840100008 0.0441247253343 0.0287828968529)
(0.0478463724466 0.0499198284051 0.0367482400643)
(0.00817339683696 0.0529530484172 0.0411678458321)
(-0.0345025299392 0.0524531455984 0.0405847002221)
(-0.0724921443729 0.0484583985509 0.0351067946935)
(-0.0995766958735 0.041828464927 0.0263572853994)
(-0.112801313163 0.0338644705204 0.016663160986)
(-0.112661617261 0.0258352920456 0.00797430459739)
(-0.101907896062 0.0186566752537 0.00126722990463)
(-0.0839729644653 0.0128301440496 -0.00334076944477)
(-0.061904199843 0.00851711176756 -0.00617576079433)
(-0.0377541915707 0.00567583067353 -0.0076669253121)
(-0.0126831264353 0.0043066901581 -0.00845877884248)
(0.0124769393014 -0.00179080413014 -0.00717422914918)
(0.0370464413668 -0.00140697341076 -0.00611028536282)
(0.0602806100229 -0.000655664171102 -0.00409761177805)
(0.0808295936111 0.000505304059804 -0.000589381362839)
(0.0964592401336 0.00210052766922 0.00485504590071)
(0.104045363826 0.00409008338481 0.0124728742657)
(0.100228270481 0.00632910868555 0.0220221577904)
(0.0825248788513 0.00853861254743 0.032344516937)
(0.0509165816944 0.0103123465951 0.0412617995213)
(0.00904526116884 0.0112258798664 0.0462493938627)
(-0.0361013764562 0.011007505719 0.0456385903159)
(-0.0762411266605 0.0096553510161 0.0395422308334)
(-0.104693102257 0.00747135930058 0.0297925641966)
(-0.118365967908 0.00490068123039 0.0190215291768)
(-0.117908485723 0.00237838978653 0.00942006198852)
(-0.106355261544 0.000188071064818 0.0020550701011)
(-0.087412518173 -0.00153899181238 -0.00297837122197)
(-0.0643107257009 -0.00278475186944 -0.00606638048976)
(-0.0391560270897 -0.00358328743567 -0.00767345231303)
(-0.0131341675094 -0.00398619344726 -0.00852590747386)
(0.0123807738564 -0.0119746208511 -0.00722674374547)
(0.036762413486 -0.0126830638379 -0.00617783299933)
(0.0598257689945 -0.0141616076697 -0.00419670628251)
(0.0802347330678 -0.0163627636146 -0.000735114301911)
(0.0957705638218 -0.0192329330259 0.00464468200783)
(0.103325427306 -0.0226257053677 0.0121845454001)
(0.0995522876238 -0.0262598192333 0.0216519846698)
(0.0819672574224 -0.0297043117316 0.0319040405943)
(0.0505336296573 -0.0324201554775 0.0407776315817)
(0.00886855147491 -0.0338990370125 0.045753168127)
(-0.0360730445511 -0.0338273678598 0.0451523990529)
(-0.0760282748358 -0.0322498932083 0.0390837315396)
(-0.104331376385 -0.0294975216964 0.0293743385697)
(-0.117894377088 -0.0260935193537 0.018664101918)
(-0.117374001383 -0.0225589479993 0.00912921298425)
(-0.105824842118 -0.0193035352115 0.00183081318927)
(-0.0869455596867 -0.016584226602 -0.00314403180612)
(-0.0639501202632 -0.0145201981462 -0.00618773865205)
(-0.0389308651802 -0.0131364020802 -0.00776862383023)
(-0.0130576254569 -0.0125028674763 -0.00861012435507)
(0.011737952657 -0.0212339010866 -0.00735839168946)
(0.0348270143552 -0.0229277136216 -0.00639978250145)
(0.0565998145392 -0.0264122478167 -0.00462851491197)
(0.0757582224605 -0.0316330303563 -0.00152227151174)
(0.0901966016109 -0.0384944163635 0.00329501424772)
(0.0970187891642 -0.0466758721025 0.0100304186418)
(0.0931496137315 -0.0555085095231 0.0184553078489)
(0.0763644589117 -0.0639336839056 0.027544344402)
(0.046721815251 -0.0705882579658 0.0353862424539)
(0.0076380377083 -0.0741613996226 0.0397694971328)
(-0.0344522330558 -0.073826380883 0.0392103617772)
(-0.0719112538581 -0.069674808798 0.0338133131665)
(-0.0985366555959 -0.0625710305689 0.0251843976801)
(-0.11142736348 -0.053871622412 0.0156505377415)
(-0.111118797734 -0.0449511773931 0.00714834619388)
(-0.100380889563 -0.0368356092538 0.000629502447915)
(-0.0826298723367 -0.030137806172 -0.00381293629529)
(-0.0608666663243 -0.025110183218 -0.00651825366362)
(-0.0371054822776 -0.0217492738838 -0.00794451191615)
(-0.0124635339122 -0.0201786387308 -0.00870048619841)
(0.0106469985288 -0.0284574467984 -0.00753052422135)
(0.031542276719 -0.0308916093136 -0.00671208573648)
(0.0511213806638 -0.0358496380986 -0.00524336816726)
(0.0681533782024 -0.043256371201 -0.00274889298981)
(0.0807283525467 -0.0529722707374 0.00115274634335)
(0.0863114212525 -0.0645126289795 0.00658459662015)
(0.0822944109076 -0.076918108063 0.0133211934268)
(0.066887413403 -0.0886920375955 0.0205244172969)
(0.0403058900259 -0.097941061208 0.0266895523958)
(0.0056304278572 -0.102855829198 0.0301034796616)
(-0.031586483103 -0.102331948802 0.0296038156882)
(-0.0647729327102 -0.0964406251385 0.025301870689)
(-0.0885281051317 -0.0864009214614 0.0184367436965)
(-0.100274450071 -0.0740971336627 0.010830902579)
(-0.100338106717 -0.0614430279851 0.00401624562369)
(-0.0910122615304 -0.0498986830868 -0.00123419022486)
(-0.0752218305036 -0.0403418966273 -0.00481302433424)
(-0.0555677225425 -0.0331494674439 -0.00698227716482)
(-0.0339592962885 -0.0283682621131 -0.00815315053115)
(-0.0114424201566 -0.0260793151881 -0.00876927915527)
(0.00925809376228 -0.0328742950628 -0.0076911520886)
(0.0273874094215 -0.0357082469912 -0.0070237325406)
(0.0442384852046 -0.0414256830026 -0.00593218241627)
(0.0586372593243 -0.0499692383898 -0.0041339472376)
(0.068940743205 -0.0610826958211 -0.00128016965943)
(0.073073004737 -0.0741725387127 0.00267960878953)
(0.0689700610146 -0.0881262157195 0.00753982735104)
(0.0553414810671 -0.101251650353 0.0126710535632)
(0.0325580686202 -0.111472665929 0.0170082703236)
(0.00324718402005 -0.116839181544 0.019365846225)
(-0.0280370969695 -0.116202773486 0.0189516531331)
(-0.0559803156742 -0.109599956747 0.0158438841523)
(-0.0761931596214 -0.0983644378993 0.0109171847213)
(-0.0864692584232 -0.0845346504804 0.00544525735314)
(-0.0869204249715 -0.0702161342591 0.000512311589095)
(-0.0792803029038 -0.0570609153204 -0.00330705348972)
(-0.0658833460986 -0.0460950496315 -0.00590681088583)
(-0.048902007983 -0.0377857895179 -0.00741752298423)
(-0.0299919794312 -0.0322673454615 -0.00828989144926)
(-0.0101260363514 -0.0295665468683 -0.00878011685963)
(0.00776517569468 -0.0341514305734 -0.00779593361629)
(0.0229423190947 -0.0370428674736 -0.00727458724648)
(0.0368666097414 -0.0428870846144 -0.00653712510112)
(0.0484988966672 -0.0514665815088 -0.0053892109831)
(0.0565253620817 -0.0625478798981 -0.00352976223884)
(0.0592680133769 -0.0754895100654 -0.000930177275609)
(0.0552152198717 -0.0891391890863 0.00224354794615)
(0.0435409641093 -0.101841969083 0.00555180777017)
(0.0247184007937 -0.111633188745 0.00830395530522)
(0.0009003808435 -0.116710000146 0.0097576993548)
(-0.0243472844396 -0.116019147136 0.00942940863908)
(-0.046934630864 -0.109617440481 0.00737302789498)
(-0.0634628072526 -0.0987257704936 0.00415013084332)
(-0.0721260338799 -0.0852437258874 0.000567612421533)
(-0.0728645120313 -0.0711701643002 -0.00267155919667)
(-0.0668916059548 -0.0581131957215 -0.00517045144015)
(-0.0559503607243 -0.0471337534953 -0.00682156918467)
(-0.0417522763167 -0.0388069336909 -0.00769436231025)
(-0.0256970609269 -0.0331451559189 -0.00832274768223)
(-0.00869336994811 -0.0303732463267 -0.00871360505901)
(0.00631951069358 -0.0323688722432 -0.00782043092476)
(0.0186055892905 -0.0350264210811 -0.00741500614691)
(0.0298237281107 -0.0404268904041 -0.00695710828766)
(0.0389797943477 -0.0481797905054 -0.00634526590041)
(0.044918077897 -0.0581385232762 -0.00529081835609)
(0.0464817146513 -0.0696460113672 -0.00378722572778)
(0.0426174897259 -0.0816648667507 -0.00192982950425)
(0.0328473442159 -0.0927207363583 -4.40540739798e-06)
(0.0176899409345 -0.101150945491 0.00157109944314)
(-0.00113899885898 -0.10546495232 0.00236832252015)
(-0.0209443225985 -0.10479736221 0.0021175272375)
(-0.0386868033625 -0.099216048509 0.000857663727002)
(-0.0518192569563 -0.0897299057202 -0.00107996406493)
(-0.0589135370167 -0.077912398334 -0.00322097257568)
(-0.0597899334043 -0.0654791602819 -0.00513391107947)
(-0.0552442574323 -0.0538201913018 -0.00657051262287)
(-0.0465816485626 -0.043947682039 -0.00743901546656)
(-0.0349285780999 -0.0362726995314 -0.00789196674785)
(-0.0215183698733 -0.0311158585853 -0.00827703161191)
(-0.00730772600721 -0.0285792263321 -0.00857759490208)
(0.00506415219465 -0.0279275788709 -0.00777473469459)
(0.0148430625909 -0.0301117597924 -0.00745480792355)
(0.0237246062617 -0.0345171329359 -0.00717225082201)
(0.0307912001852 -0.0410359112024 -0.0068949784463)
(0.0350593190588 -0.0491951944596 -0.00647979465638)
(0.0357415954713 -0.0584613565793 -0.00575426028241)
(0.0321403163539 -0.0680980246184 -0.00482532183473)
(0.0240545879458 -0.07684774088 -0.00384960389935)
(0.0119736128899 -0.0834607058167 -0.00306323286087)
(-0.00274636204743 -0.0868036766876 -0.00269309813173)
(-0.018098126839 -0.0862272451438 -0.00287911358534)
(-0.031866582145 -0.0817930276238 -0.00359429134083)
(-0.0421588239243 -0.0742780309218 -0.00465420179895)
(-0.047875069949 -0.06484377239 -0.00580869233506)
(-0.0487721947821 -0.0548839657588 -0.00676472890712)
(-0.0453603298358 -0.0454561272443 -0.00740522657088)
(-0.0384080507196 -0.0372696505982 -0.00776868562426)
(-0.028937822346 -0.0308405003452 -0.00808624790733)
(-0.0179684892007 -0.0266336075841 -0.008189171741)
(-0.0061141450745 -0.0245447244858 -0.0084005061877)
(0.0040947897025 -0.0214261711279 -0.00768765525677)
(0.0119796215447 -0.0230202640584 -0.00744890190625)
(0.0189108917215 -0.0262154047401 -0.00740427908232)
(0.0243043956077 -0.0310197259712 -0.00725817434259)
(0.0274914566114 -0.0370097076283 -0.00712239549363)
(0.0275779164581 -0.0437801643162 -0.00695614256009)
(0.0242305134316 -0.0506901271204 -0.0065978618437)
(0.0174844183407 -0.0569259440755 -0.00621913313369)
(0.00773406718222 -0.0616108993155 -0.00593030315708)
(-0.00390518904751 -0.0639502964513 -0.00581814640367)
(-0.015933044328 -0.0635112877501 -0.00595661164101)
(-0.0267365357897 -0.060334102541 -0.00632012172355)
(-0.0348683999565 -0.0549606084439 -0.00683125118406)
(-0.0395172084646 -0.0482213623551 -0.00732253881562)
(-0.0403992508429 -0.04100711013 -0.00758289897373)
(-0.0376263436188 -0.0341295522631 -0.00785030726254)
(-0.0319672142486 -0.0281104046659 -0.00807110270886)
(-0.0243072042991 -0.0234688103381 -0.00814991538425)
(-0.0151905959329 -0.0203319709269 -0.00806636163176)
(-0.0051792888887 -0.0187841389344 -0.00820992847232)
(0.00342024461778 -0.01345624619 -0.00755935199016)
(0.0100246619317 -0.0144269271071 -0.0073736537858)
(0.0157420681133 -0.0163918845407 -0.0074631164852)
(0.0200096418944 -0.0192310559197 -0.00753383872276)
(0.0223104021686 -0.0228731140215 -0.00759350594966)
(0.0220743834104 -0.0270194002446 -0.00762327012362)
(0.0190083560952 -0.0311544083318 -0.00759109973106)
(0.0131470385952 -0.0348841354371 -0.00753077169232)
(0.00496031863746 -0.0376512983732 -0.00746892613536)
(-0.00463941192907 -0.0390187318789 -0.00747856051841)
(-0.0144788635777 -0.0387469437286 -0.00758960476855)
(-0.0233164341391 -0.0368666679734 -0.00779842011686)
(-0.030048735522 -0.0336568681525 -0.0080195826562)
(-0.033925022672 -0.0296354765347 -0.00818345918833)
(-0.0346832729478 -0.0252500927357 -0.0082412393215)
(-0.0324646845289 -0.021049693339 -0.00822517490611)
(-0.0277500513317 -0.0174701751029 -0.00815702303816)
(-0.0211720924652 -0.0146714290521 -0.00804979227946)
(-0.0132526532611 -0.0127215107564 -0.00790513904095)
(-0.00450974548292 -0.0117586211702 -0.00801313081922)
(0.00308322820276 -0.00455968042231 -0.00756552889743)
(0.00906927708465 -0.00492364093587 -0.00751982684438)
(0.0141686614378 -0.0056037015002 -0.00765669517313)
(0.0178988905699 -0.00655786265804 -0.00780090073653)
(0.0197871299226 -0.00777326796224 -0.00794350581004)
(0.0193824455428 -0.00914904428086 -0.00806821977166)
(0.0164442582428 -0.0105343489183 -0.00815850812739)
(0.0110486546896 -0.0117746487883 -0.00822195116115)
(0.00363362278296 -0.0126793336276 -0.00827744307628)
(-0.00500098544875 -0.01312439672 -0.00834897887532)
(-0.0138180145838 -0.0130331182455 -0.00844928047538)
(-0.0217173775989 -0.0124225264041 -0.00856504621361)
(-0.027734466324 -0.0113630850117 -0.00865973158345)
(-0.0312237875056 -0.0100155919632 -0.00869639708156)
(-0.0319317570346 -0.00855568828104 -0.00865058560608)
(-0.0299591214867 -0.0071533070869 -0.00853144333731)
(-0.0256898513343 -0.00594464990927 -0.00836590585787)
(-0.0196482687628 -0.00499851410802 -0.00818573611404)
(-0.0123057572673 -0.00432203010392 -0.00800063901739)
(-0.00414418925009 -0.00395207481361 -0.00801272891119)
(0.00363056376265 0.0037408322453 -0.0231597736361)
(0.0108011629778 0.00416843859473 -0.0230768464296)
(0.0169886533866 0.0049244389034 -0.0233934080265)
(0.021547190318 0.0059848967728 -0.023630786571)
(0.0240105579436 0.00733095580815 -0.02379022989)
(0.023857245615 0.00884658028609 -0.0238584012654)
(0.0208111960248 0.0103873423462 -0.0238284117661)
(0.0149467434445 0.0117758704154 -0.0237426195973)
(0.00674224590047 0.0128010866972 -0.0236660177875)
(-0.00292510155558 0.0132948710749 -0.0236626828082)
(-0.0128948570934 0.0131613776305 -0.0237750298619)
(-0.0219195319498 0.0124135637839 -0.0239902338564)
(-0.0289004225547 0.0111701897966 -0.0242396668648)
(-0.0330819054373 0.00962177314865 -0.0244262727312)
(-0.0341516166963 0.00797584627026 -0.024453637363)
(-0.0322191776572 0.00641169686655 -0.0242733353409)
(-0.0277144059443 0.00506563910567 -0.0239352004744)
(-0.0212328790633 0.00400986198086 -0.0235215982329)
(-0.0133419780248 0.0032816991625 -0.0230638958385)
(-0.00454059465336 0.0029231461726 -0.023080147804)
(0.00403380477385 0.0111812676337 -0.0230856158753)
(0.0117416128409 0.0122515396228 -0.0226039518264)
(0.0184977302415 0.0144038984923 -0.0227820617018)
(0.0235927571476 0.0175613625358 -0.0227879466479)
(0.0264697992817 0.0215866220035 -0.0226031288656)
(0.0265079596177 0.0261248091627 -0.0222498205561)
(0.0233769470737 0.0307308000976 -0.0217423264731)
(0.0170851239326 0.0349558849576 -0.0212032118288)
(0.00811292044947 0.0380607142063 -0.0207718135818)
(-0.00255911189868 0.0395490284581 -0.0205849487296)
(-0.0136068436443 0.0391492001777 -0.0207402599457)
(-0.0235916919563 0.0369018974198 -0.0212210951964)
(-0.0312585262816 0.03315276791 -0.0218957358817)
(-0.0357726550243 0.0284833184277 -0.0225924129507)
(-0.0368378285765 0.0235691491601 -0.0231261265686)
(-0.0346321295074 0.018896735801 -0.0233383697216)
(-0.0296810076843 0.0148973373589 -0.0232968891233)
(-0.0226618072847 0.0117345575286 -0.0230801753274)
(-0.0141946876988 0.0096128055204 -0.0227527288643)
(-0.00486587991945 0.00858761186509 -0.0231223808592)
(0.00477684158725 0.0176822422492 -0.0233942053438)
(0.0138415176911 0.0194201451009 -0.0227829424622)
(0.0219270343275 0.0229458487475 -0.0226843145892)
(0.0282695645728 0.0281472807534 -0.0221558532648)
(0.0320723220911 0.0346789260289 -0.0212196652829)
(0.032494515333 0.0422856853525 -0.019994858569)
(0.0291860882018 0.0500783498653 -0.018423162302)
(0.0219322595265 0.0572131165214 -0.0168966788019)
(0.0111524575979 0.0625537131893 -0.015659447936)
(-0.00182277472125 0.0651632997328 -0.0150271121788)
(-0.0153191203431 0.0645153733183 -0.0152762443364)
(-0.0275032969876 0.0606807080389 -0.0163758145088)
(-0.0367632094461 0.0543036098745 -0.0180087680485)
(-0.0420230002875 0.0464078336469 -0.0198401549275)
(-0.0430725917376 0.0381211540019 -0.021534034564)
(-0.0402633147111 0.0303391580183 -0.0225081745407)
(-0.034327547441 0.0238454071485 -0.0230519160991)
(-0.0260816844966 0.0187208918654 -0.0232929213329)
(-0.0162365988429 0.015219612554 -0.0232477733037)
(-0.00556304223279 0.0134895064216 -0.0237313159439)
(0.00582759484079 0.0225557278938 -0.0235945262353)
(0.0169864709005 0.0249081184838 -0.0227636600105)
(0.027114117396 0.0297118414518 -0.0221293623874)
(0.0352060071874 0.0366624901471 -0.020816005804)
(0.0404828742286 0.0456969834943 -0.0187744737322)
(0.0417793249392 0.0561808982774 -0.0159376251334)
(0.0381876367061 0.0672202149104 -0.0125343588579)
(0.0294719276743 0.0773299576955 -0.00911391703134)
(0.0160172429786 0.0850344355733 -0.00632396664054)
(-0.000590376657227 0.0888746210809 -0.00490832612534)
(-0.0180259483787 0.0880094521427 -0.00533382460528)
(-0.0336891929435 0.0825402724631 -0.00754608824145)
(-0.0453801462212 0.073467825323 -0.0109760357564)
(-0.051784233294 0.062323861902 -0.0148129661388)
(-0.0527347042421 0.0506832852115 -0.0183067232542)
(-0.0487497896231 0.0399406124824 -0.0208925262715)
(-0.0411576603462 0.0309032084151 -0.0226172681251)
(-0.0311472090781 0.0241329013849 -0.0233358231091)
(-0.0193082253575 0.0194558216709 -0.0237238529215)
(-0.00657093785293 0.01712669618 -0.0243759733782)
(0.00716346116615 0.0253088127476 -0.0236792483851)
(0.0210010384766 0.0281250707476 -0.0225206917275)
(0.0336349329699 0.0338595545763 -0.0211495021135)
(0.0442318639981 0.0423153688406 -0.0187130846919)
(0.0515800908899 0.0534220310107 -0.014867763111)
(0.054008508055 0.066433423677 -0.00959949556145)
(0.0503266733553 0.0803760279101 -0.00325506386336)
(0.0397406698723 0.0933821167198 0.0032664349314)
(0.0226952936761 0.103409281181 0.00861772311205)
(0.00115567309554 0.108484995281 0.0113952882707)
(-0.0216442655596 0.107454376134 0.0107234992634)
(-0.0420309579067 0.100444422631 0.00670404756786)
(-0.0569630548005 0.0888165701312 0.000392879216711)
(-0.0647901025167 0.0746601180326 -0.00667371708124)
(-0.0654393645403 0.0600772503488 -0.0131105899269)
(-0.0600275596924 0.0467696966564 -0.018079257939)
(-0.0501068319857 0.0356190425054 -0.0213549513665)
(-0.0374546953882 0.0273163818773 -0.0232209786606)
(-0.0231306443264 0.0218408066728 -0.0241293439235)
(-0.00783706166234 0.0190761337564 -0.0250353961339)
(0.00867045420444 0.0253849052919 -0.0236243530595)
(0.025520228814 0.0284226324613 -0.0220634166966)
(0.0412559985612 0.0345947509945 -0.0198720336516)
(0.0547506000886 0.0439402347185 -0.0157667706216)
(0.0645984667517 0.0561852283951 -0.00947782135777)
(0.0687339575753 0.0709242780704 -0.000778197795516)
(0.0651372758436 0.0869006078321 0.00983596770498)
(0.0525060881221 0.102131696919 0.0209134038549)
(0.0311210505368 0.114071700524 0.0301426563916)
(0.00345555143492 0.12023299067 0.0350443055333)
(-0.0260657070697 0.119123644841 0.0340647869021)
(-0.0523263622198 0.110886841146 0.0273648315584)
(-0.0711639277673 0.0972495172135 0.0167836393977)
(-0.0805233471148 0.0808380673541 0.00499512276261)
(-0.0806249168851 0.0642108149812 -0.00567700479329)
(-0.0732046843555 0.0492367759863 -0.013932195656)
(-0.0605890942702 0.0369885147932 -0.019500835349)
(-0.0448477066734 0.0278134720271 -0.0227339094093)
(-0.027410928979 0.0218583619589 -0.0243932211598)
(-0.00926587745146 0.0188774196011 -0.0256352742248)
(0.0102140812249 0.0224607206828 -0.0234206065185)
(0.0301774580884 0.025403854567 -0.021376789975)
(0.0491012842467 0.0314036231061 -0.0180636218651)
(0.0658038743589 0.0404943418066 -0.0121815622856)
(0.0785607314873 0.0526993128467 -0.00293076522614)
(0.0847236823088 0.0675616137982 0.0100414338543)
(0.0815344765049 0.0839813645706 0.0261268085789)
(0.0669117135201 0.0999569926215 0.0432224609194)
(0.0407964619189 0.112710028994 0.0577238735277)
(0.00620785513741 0.119416450099 0.065592630069)
(-0.0309900134629 0.118347010787 0.0642688775195)
(-0.0639043514416 0.109641761296 0.0539846295044)
(-0.0870113227467 0.0952608124007 0.0377082062939)
(-0.0978286435256 0.07816097885 0.019728763868)
(-0.0970402521364 0.0611268296102 0.00363656614977)
(-0.0872460213353 0.046061277106 -0.00869833312055)
(-0.0715078608189 0.0339110527137 -0.0169952484091)
(-0.0525059751356 0.0250070622619 -0.0218926079593)
(-0.0319191845101 0.0191555073065 -0.0244824667744)
(-0.0107402415143 0.0162537933603 -0.0261168585416)
(0.0116048077668 0.0165703565147 -0.0231426151141)
(0.0344070541717 0.0190386574437 -0.0206355758946)
(0.0562941029508 0.0240328890555 -0.0162896925935)
(0.0760285092309 0.0317199172461 -0.00849751994839)
(0.0916623111872 0.0421157105948 0.00385266094692)
(0.100015405461 0.0549824302381 0.0213843120477)
(0.0975326348062 0.0694629280449 0.0434893747017)
(0.0812346748282 0.0838192298804 0.0674205466334)
(0.0505801998506 0.095477290085 0.0880889571114)
(0.00909257771807 0.101710445886 0.0995192047673)
(-0.0358397465607 0.100816365105 0.0978759968651)
(-0.0754116216897 0.0929062394116 0.0834599169487)
(-0.102644049997 0.0798674510569 0.0606232484027)
(-0.114657117267 0.0645389910537 0.0356399646376)
(-0.112724037882 0.0495093421353 0.013559939046)
(-0.10041671854 0.0364452791853 -0.00316682956933)
(-0.081622268894 0.0260827843614 -0.0143563210357)
(-0.059527368816 0.018538885447 -0.021010236518)
(-0.0360094671303 0.0136811887815 -0.0244466835203)