/*--------------------------------*- C++ -*----------------------------------*\
| =========                 |                                                 |
| \\      /  F ield         | OpenFOAM: The Open Source CFD Toolbox           |
|  \\    /   O peration     | Version:  3.0.1                                 |
|   \\  /    A nd           | Web:      www.OpenFOAM.org                      |
|    \\/     M anipulation  |                                                 |
\*---------------------------------------------------------------------------*/
FoamFile
{
    version     2.0;
    format      ascii;
    class       volScalarField;
    location    "0.1";
    object      nut;
}
// * * * * * * * * * * * * * * * * * * * * * * * * * * * * * * * * * * * * * //

dimensions      [0 2 -1 0 0 0 0];

internalField   nonuniform List<scalar> 
7968
(
0.00134594559709
0.00134672142349
0.00134689913439
0.00134691679905
0.00134691771741
0.00134691694383
0.00134691552236
0.00134691372796
0.00134691193693
0.00134691076559
0.00134691076038
0.00134691193025
0.00134691373759
0.00134691558632
0.00134691708371
0.00134691796052
0.00134691706874
0.00134689919514
0.00134672117868
0.00134594629233
0.00134672185734
0.00136128109311
0.00136492304112
0.00136533361907
0.00136536526009
0.00136536722763
0.00136536705374
0.00136536652697
0.00136536589232
0.00136536542784
0.00136536534269
0.00136536566886
0.00136536621923
0.00136536673182
0.00136536694731
0.0013653650586
0.00136533352166
0.00136492282956
0.001361281436
0.00134672174334
0.00134689970455
0.00136492306087
0.00137035111783
0.00137104449808
0.00137110426064
0.00137110962128
0.00137111113384
0.00137111212541
0.00137111287245
0.00137111318315
0.00137111323971
0.00137111307093
0.0013711124726
0.00137111159306
0.00137111017937
0.00137110502381
0.00137104509405
0.00137035091641
0.00136492295519
0.00134689930457
0.00134691752714
0.00136533372135
0.00137104458725
0.00137179061866
0.00137185688087
0.0013718636176
0.00137186633859
0.00137186852834
0.00137187018521
0.00137187102035
0.00137187108708
0.0013718703997
0.00137186890172
0.00137186690012
0.00137186436532
0.00137185769213
0.00137179136322
0.00137104490584
0.00136533348896
0.0013469169867
0.00134691848549
0.00136536539745
0.00137110464993
0.00137185704664
0.00137192494308
0.00137193315851
0.00137193734479
0.00137194076005
0.00137194328858
0.00137194461467
0.00137194467053
0.00137194351328
0.00137194115059
0.00137193792686
0.00137193393839
0.00137192586155
0.00137185795042
0.0013711050726
0.00136536509621
0.00134691792547
0.00134691767221
0.00136536738288
0.00137111009722
0.00137186394323
0.00137193330037
0.00137194307508
0.00137194868917
0.00137195360086
0.00137195743363
0.00137195939969
0.0013719594555
0.00137195765636
0.00137195399763
0.00137194930467
0.00137194389735
0.00137193425824
0.00137186493193
0.00137111053851
0.00136536706986
0.00134691713753
0.00134691614745
0.0013653672007
0.00137111176352
0.00137186677244
0.00137193755234
0.00137194873231
0.001371956159
0.00137196280262
0.0013719680795
0.00137197070495
0.00137197076857
0.00137196831048
0.00137196321576
0.00137195681445
0.00137194961517
0.00137193855624
0.0013718677877
0.00137111217847
0.00136536693068
0.0013469157413
0.00134691418594
0.00136536663833
0.0013711128945
0.0013718689945
0.00137194097035
0.00137195360521
0.00137196273867
0.00137197100166
0.00137197773706
0.00137198091418
0.00137198098933
0.00137197800085
0.00137197144889
0.00137196344436
0.00137195454866
0.00137194204156
0.00137187002036
0.00137111325381
0.00136536649084
0.00134691402926
0.00134691221232
0.00136536596677
0.0013711136213
0.00137187063537
0.00137194344576
0.0013719573317
0.00137196786513
0.00137197756269
0.00137198570125
0.00137198918326
0.00137198929259
0.00137198604996
0.00137197809325
0.00137196865827
0.00137195836595
0.00137194459252
0.0013718717181
0.00137111406471
0.00136536606162
0.00134691247386
0.00134691090119
0.00136536549497
0.00137111399066
0.00137187145521
0.00137194471464
0.00137195919992
0.00137197035762
0.00137198057281
0.00137198899868
0.00137199209338
0.00137199226125
0.00137198948005
0.00137198123408
0.00137197127017
0.00137196033572
0.00137194593213
0.0013718725868
0.0013711144847
0.00136536594488
0.00134691175323
0.00134691088039
0.00136536541667
0.00137111403015
0.00137187149462
0.00137194474432
0.00137195920516
0.00137197033107
0.0013719805295
0.00137198896626
0.00137199210892
0.00137199235301
0.00137198961206
0.00137198138339
0.00137197139543
0.0013719604224
0.00137194597724
0.00137187259021
0.00137111444257
0.00136536603856
0.00134691229728
0.00134691216841
0.00136536574943
0.00137111376519
0.00137187079221
0.00137194359025
0.00137195742074
0.00137196788338
0.00137197752319
0.00137198566444
0.00137198923052
0.00137198949755
0.00137198634746
0.00137197843882
0.00137196896634
0.00137195858739
0.00137194471401
0.00137187175263
0.00137111408265
0.00136536646361
0.00134691394193
0.00134691415043
0.00136536633394
0.00137111315905
0.00137186928404
0.00137194124446
0.00137195380485
0.00137196283602
0.00137197100052
0.00137197769035
0.00137198090988
0.00137198115086
0.00137197829407
0.00137197184044
0.00137196380584
0.0013719547997
0.00137194216909
0.00137187003331
0.00137111327805
0.00136536706845
0.00134691604997
0.00134691615945
0.00136536688214
0.00137111214471
0.00137186723914
0.00137193800595
0.00137194913385
0.00137195646643
0.00137196301669
0.00137196823944
0.0013719708911
0.00137197107132
0.00137196872447
0.0013719636938
0.00137195722343
0.00137194987573
0.00137193863826
0.00137186774149
0.0013711121132
0.00136536762366
0.00134691802821
0.00134691776805
0.00136536711019
0.00137111063715
0.00137186459735
0.00137193396138
0.00137194371326
0.0013719492662
0.00137195411122
0.00137195790693
0.00137195988798
0.00137196001978
0.00137195825828
0.00137195458569
0.00137194976931
0.00137194415366
0.00137193433971
0.001371864882
0.00137111037719
0.00136536777931
0.00134691950344
0.00134691869636
0.00136536521749
0.00137110538148
0.00137185782429
0.00137192581579
0.00137193402467
0.00137193818438
0.00137194157557
0.00137194408779
0.00137194542058
0.00137194550548
0.00137194430414
0.00137194185316
0.00137193843697
0.00137193423721
0.00137192601556
0.00137185781442
0.00137110489179
0.00136536575331
0.00134692023639
0.00134691778315
0.00136533365448
0.00137104532788
0.00137179138315
0.00137185779839
0.00137186463136
0.00137186733452
0.00137186950669
0.00137187116718
0.00137187201739
0.00137187205437
0.00137187125827
0.00137186961431
0.00137186742192
0.00137186469818
0.00137185772201
0.00137179132545
0.0013710447039
0.00136533401409
0.00134691911907
0.0013468998024
0.00136492291549
0.0013703509904
0.00137104477287
0.00137110481972
0.0013711101272
0.00137111168019
0.00137111268568
0.00137111340245
0.00137111373845
0.00137111375383
0.0013711134823
0.00137111277907
0.00137111173464
0.00137111017423
0.00137110470906
0.00137104462355
0.00137035085882
0.00136492304722
0.00134690086826
0.00134672167255
0.00136128152037
0.00136492302836
0.00136533347868
0.00136536504228
0.00136536698453
0.00136536683263
0.0013653663797
0.00136536591365
0.00136536568087
0.00136536581705
0.00136536629492
0.0013653669511
0.00136536751329
0.00136536769408
0.00136536569773
0.00136533399343
0.00136492307943
0.00136128154663
0.00134672242615
0.00134594633603
0.001346721397
0.00134689883089
0.00134691637506
0.0013469172715
0.00134691650674
0.00134691519023
0.00134691361469
0.00134691219541
0.00134691155983
0.00134691208749
0.00134691363658
0.0013469156121
0.0013469174734
0.00134691888618
0.00134691960454
0.00134691853506
0.00134690041199
0.00134672205403
0.00134594669666
0.00134675105755
0.00136132475473
0.00136496803912
0.00136537993151
0.00136541279178
0.00136541604972
0.00136541712796
0.00136541770679
0.00136541792645
0.00136541788599
0.00136541775945
0.00136541758528
0.00136541722298
0.00136541657702
0.00136541551015
0.00136541230797
0.00136537953944
0.00136496737466
0.00136132482647
0.0013467521056
0.00136132478692
0.00390027755494
0.00455688891987
0.00463632359309
0.00464275157493
0.00464320646316
0.0046432944466
0.00464336218405
0.0046434102718
0.00464343750606
0.00464344122865
0.00464342102482
0.0046433787411
0.00464331706292
0.00464323449132
0.0046427839041
0.00463635916901
0.00455691569356
0.00390032519643
0.00136132500166
0.00136496815336
0.00455689243213
0.00560699251234
0.00575612323232
0.00576980065574
0.00577079550417
0.00577089380798
0.00577093913672
0.00577096686284
0.00577097952594
0.00577098077627
0.00577097078509
0.00577094597516
0.00577090226426
0.00577080563169
0.00576982091187
0.00575615457094
0.00560702147843
0.00455693398445
0.00136496717702
0.00136538023701
0.00463633324398
0.00575613062268
0.00591969276792
0.00593500104386
0.00593613668849
0.00593624728177
0.00593629401518
0.00593632678984
0.00593634356017
0.00593634471845
0.00593633040269
0.00593629997953
0.00593625728533
0.00593614785843
0.0059350141645
0.0059197099577
0.00575614417609
0.00463636397884
0.00136537901918
0.00136541325014
0.00464276724139
0.0057698088747
0.00593500280436
0.00595051598273
0.00595167318714
0.00595180743119
0.00595187642825
0.00595192486763
0.00595194936739
0.00595195043359
0.00595192824799
0.00595188197239
0.00595181541415
0.00595168382719
0.00595052885318
0.00593501565035
0.00576981527398
0.00464279062396
0.00136541183534
0.00136541662531
0.00464322814163
0.0057708017359
0.00593613999382
0.00595167433455
0.00595286282694
0.0059530458356
0.00595316277608
0.00595324262182
0.00595328071822
0.0059532816738
0.00595324575823
0.00595316807558
0.00595305356443
0.00595287308649
0.00595168691477
0.00593615270818
0.00577080603954
0.00464324777179
0.0013654150895
0.00136541776934
0.00464331991142
0.00577090152186
0.00593625245861
0.00595180909846
0.00595304626274
0.00595330016178
0.0059534797901
0.00595360166977
0.00595365895936
0.00595365983805
0.00595360465725
0.00595348490199
0.00595330779115
0.00595305613355
0.00595182098871
0.00593626532231
0.00577090627362
0.00464334115808
0.00136541619545
0.00136541838128
0.00464338961535
0.00577094442292
0.00593629779039
0.0059518784077
0.00595316315895
0.00595347938534
0.00595371611162
0.00595388435729
0.00595396486022
0.00595396555798
0.00595388696373
0.00595372045108
0.00595348619916
0.00595317216165
0.0059518892113
0.00593630996947
0.00577095447488
0.0046434072839
0.00136541688965
0.00136541858813
0.00464344247322
0.00577097206227
0.00593633070937
0.00595192677921
0.0059532422617
0.00595359988245
0.00595388261035
0.00595409889358
0.00595420480568
0.00595420535282
0.00595410096865
0.00595388561838
0.00595360515868
0.00595324978601
0.00595193608228
0.00593634112646
0.00577098128635
0.0046434447621
0.0013654172999
0.00136541858539
0.00464347000475
0.00577098877993
0.00593634774081
0.00595195102179
0.00595327954182
0.00595365570345
0.00595396109116
0.00595420252312
0.00595432198433
0.00595432220992
0.00595420368617
0.00595396237074
0.00595365894593
0.00595328495988
0.00595195820146
0.00593635602116
0.00577099384538
0.0046434633886
0.00136541751922
0.00136541848597
0.00464347296452
0.00577098998203
0.00593634879055
0.00595195189289
0.0059532800041
0.00595365563537
0.00595396040363
0.00595420130623
0.00595432022989
0.00595432013478
0.0059542014489
0.00595396028239
0.00595365699076
0.00595328304976
0.00595195622631
0.00593635394371
0.00577099133042
0.00464345932553
0.0013654175991
0.00136541833212
0.00464345170855
0.00577097552632
0.00593633402696
0.00595192965437
0.00595324404372
0.0059536001412
0.00595388107206
0.00595409563991
0.00595419989649
0.00595419934598
0.005954094319
0.00595387925495
0.00595359907969
0.00595324385132
0.00595193001885
0.00593633497727
0.00577097520296
0.00464343336997
0.00136541768508
0.0013654180058
0.00464340678329
0.00577095081404
0.00593630350441
0.00595188342582
0.00595316671607
0.00595348077731
0.00595371479115
0.00595388011135
0.00595395783385
0.00595395679962
0.00595387730729
0.00595371118415
0.00595347716449
0.00595316309511
0.00595187980586
0.00593630005526
0.00577093980987
0.00464338476358
0.0013654174407
0.00136541737925
0.00464334271959
0.00577091132879
0.00593626190847
0.00595181672858
0.00595305260148
0.00595330442649
0.0059534813563
0.00595360015965
0.00595365445728
0.00595365317517
0.00595359645212
0.00595347612086
0.0059532982624
0.00595304560964
0.00595180939888
0.00593625147506
0.00577088764301
0.00464330931076
0.00136541681469
0.00136541629039
0.00464325660669
0.00577081350279
0.00593615109182
0.00595168482225
0.00595287243432
0.00595305377873
0.00595316852192
0.00595324574344
0.00595328107024
0.00595327957814
0.00595324127895
0.00595316171912
0.0059530451323
0.00595286234967
0.00595167270145
0.00593613110885
0.00577078218472
0.00464321257433
0.00136541565521
0.00136541303986
0.00464280167046
0.00576982944713
0.00593501785823
0.00595052960425
0.00595168604407
0.00595181928036
0.00595188663203
0.00595193297247
0.00595195500861
0.00595195332259
0.00595192783235
0.00595187852493
0.0059518088173
0.00595167240873
0.00595051319456
0.00593499086099
0.00576977803437
0.00464275075713
0.00136541223512
0.00136538017445
0.00463637172295
0.00575616278221
0.00591971337023
0.00593501646922
0.00593615098339
0.00593626417336
0.0059363075549
0.0059363386669
0.00593635324551
0.00593635136764
0.00593633289674
0.00593629832023
0.00593624996559
0.00593612978841
0.00593498960817
0.00591967142063
0.00575609162446
0.00463631600877
0.00136537911666
0.00136496787844
0.00455692301026
0.00560702544035
0.00575614363453
0.00576981340352
0.00577080323322
0.00577090216279
0.00577095002653
0.00577097768116
0.00577098880459
0.00577098651952
0.00577097134957
0.00577093409449
0.00577088396071
0.00577077727666
0.00576977175342
0.00575608691907
0.00560693578064
0.00455686507005
0.00136496636458
0.00136132520849
0.00390032749068
0.00455693314216
0.00463635791498
0.00464278005927
0.00464323255355
0.00464332047644
0.0046433905573
0.00464343033119
0.00464344880984
0.00464344452317
0.0046434211535
0.00464336639265
0.00464329122128
0.00464319892699
0.00464274048485
0.0046363095897
0.00455686234057
0.00390028484862
0.00136132297584
0.00134675225094
0.00136132518044
0.00136496726685
0.00136537891239
0.00136541152567
0.00136541462051
0.00136541559787
0.00136541615237
0.00136541647761
0.00136541663363
0.00136541674175
0.00136541680035
0.00136541659517
0.00136541609427
0.00136541506411
0.00136541179258
0.00136537880496
0.00136496621425
0.00136132286001
0.00134675274402
0.00134695576789
0.00136498583279
0.00137041510305
0.00137111028012
0.00137117121549
0.00137117729312
0.00137117935278
0.00137118074162
0.00137118160289
0.00137118189552
0.00137118176725
0.00137118121128
0.00137118016129
0.00137117870358
0.00137117667927
0.00137117068117
0.00137110988295
0.00137041441013
0.00136498529615
0.00134695573984
0.00136498579457
0.0045572837598
0.00560735759598
0.00575649788801
0.00577016936551
0.00577116250302
0.00577126821898
0.00577131797886
0.00577135338436
0.00577137187838
0.00577137259595
0.00577135572044
0.00577132182489
0.00577127425496
0.00577117124926
0.0057701808038
0.00575651232875
0.00560736949937
0.00455728938799
0.00136498443399
0.0013704151921
0.00560735944093
0.00756156503198
0.00790987590731
0.00794764479273
0.00795071697844
0.00795095984303
0.00795100973299
0.00795103458802
0.00795104484486
0.00795104516131
0.00795103566495
0.00795101200215
0.00795096550214
0.00795072671348
0.00794766382341
0.00790990243668
0.00756158483895
0.00560736336018
0.00137041300272
0.00137111058103
0.00575650176463
0.00790987859552
0.00831166510245
0.00835658640682
0.00836032782437
0.00836063123545
0.00836069246755
0.00836071964099
0.00836072955565
0.00836072996465
0.00836072097761
0.00836069475744
0.00836063503105
0.0083603339341
0.00835659939433
0.00831168673784
0.00790989914021
0.00575650248582
0.00137110828828
0.00137117168315
0.00577017498805
0.00794764919801
0.00835658726081
0.00840252222612
0.008406401532
0.00840675216865
0.00840682499615
0.00840685840379
0.00840687447568
0.00840687449089
0.00840685858086
0.00840682594839
0.00840675516538
0.00840640700246
0.00840253145337
0.00835660300242
0.00794766482784
0.00577017272394
0.0013711691946
0.00137117788044
0.0057711698481
0.00795072199898
0.00836032911601
0.00840640182145
0.00841031880694
0.00841061862578
0.0084106326485
0.00841065919777
0.00841068280274
0.008410681081
0.00841065418794
0.00841062638109
0.00841061499862
0.00841032211397
0.0084064103493
0.00836034066499
0.00795073001285
0.005771165245
0.00137117525125
0.00137117998768
0.00577127609235
0.00795096447291
0.0083606327172
0.00840675252108
0.00841061890492
0.00841078615231
0.00841072558038
0.00841074760544
0.00841078009425
0.00841077696455
0.00841073832083
0.00841071202942
0.0084107757632
0.00841061557777
0.00840676018914
0.00836064393124
0.00795096975081
0.00577127018347
0.00137117730022
0.00137118137009
0.00577132601372
0.00795101233171
0.00836069358319
0.00840682550082
0.00841063343808
0.00841072686877
0.00841064020395
0.00841066704793
0.00841070702696
0.00841070253389
0.00841065356104
0.00841062019694
0.00841070909325
0.00841062613717
0.00840683124396
0.00836070440198
0.00795101721993
0.00577131904488
0.00137117872642
0.00137118221182
0.00577136170393
0.00795103627848
0.00836072061988
0.00840685882732
0.00841066052912
0.00841075055522
0.0084106693668
0.00841070578982
0.00841075324912
0.00841074840969
0.00841069147369
0.00841064747243
0.00841073107704
0.00841065129733
0.00840686328978
0.00836073095872
0.00795104122199
0.00577135317772
0.00137117973754
0.00137118254304
0.00577138106434
0.00795104789077
0.00836073052077
0.00840687476945
0.0084106851779
0.00841078472948
0.00841071180548
0.00841075597168
0.00841080863011
0.0084108034526
0.00841074163512
0.0084106901426
0.00841076509536
0.00841067476212
0.00840687844089
0.00836074001398
0.00795105185459
0.00577137104304
0.00137118035851
0.00137118245925
0.00577138174176
0.00795104821399
0.00836073082272
0.00840687472471
0.00841068402249
0.00841078352798
0.0084107100565
0.00841075396162
0.00841080641973
0.00841080119147
0.00841073953673
0.0084106882493
0.00841076358484
0.00841067362613
0.00840687733633
0.00836073911129
0.00795105047781
0.00577136910437
0.00137118037764
0.00137118195272
0.00577136408482
0.00795103727568
0.00836072162698
0.00840685890166
0.00841065778001
0.00841074718353
0.0084106643593
0.00841070012357
0.00841074727511
0.00841074225763
0.00841068525054
0.00841064162995
0.00841072643756
0.00841064786442
0.00840685984161
0.00836072817568
0.0079510384062
0.00577134913276
0.00137118004451
0.00137118099448
0.00577133028008
0.00795101466315
0.00836069549583
0.00840682613959
0.00841063026598
0.00841072205039
0.00841063287666
0.0084106584906
0.00841069800023
0.00841069320343
0.00841064403827
0.00841061140054
0.00841070210184
0.00841062138057
0.00840682621557
0.00836069990373
0.007951010421
0.00577131185536
0.00137117917232
0.00137117959585
0.00577128268619
0.00795096948782
0.00836063619171
0.00840675478994
0.0084106170552
0.00841078253769
0.00841071901914
0.00841073996174
0.00841077188425
0.00841076837861
0.00841072948596
0.0084107035383
0.00841076909201
0.00841060968061
0.00840675460702
0.00836063764969
0.00795096019518
0.00577126034603
0.00137117778339
0.00137117756998
0.0057711793919
0.00795073114922
0.0083603354747
0.00840640680368
0.00841032174335
0.00841061722919
0.0084106295283
0.00841065466671
0.00841067733906
0.00841067548734
0.00841064917889
0.00841062201258
0.00841060979664
0.00841031685861
0.00840640457504
0.00836033035517
0.0079507159504
0.00577115347189
0.00137117563794
0.00137117153544
0.00577018814505
0.00794766824529
0.00835660114891
0.00840253222746
0.00840640978957
0.00840675912492
0.00840683031513
0.00840686242846
0.0084068775166
0.00840687642721
0.00840685916147
0.00840682578962
0.00840675446926
0.0084064044721
0.00840252429901
0.00835658923759
0.00794764422911
0.00577015831307
0.0013711694144
0.00137111063407
0.00575651840401
0.00790990610602
0.0083116881005
0.0083566036508
0.00836034084617
0.00836064313379
0.00836070345234
0.00836072994069
0.00836073895205
0.00836073809276
0.00836072734327
0.00836069928872
0.0083606374001
0.00836033021011
0.00835658899248
0.00831166736488
0.00790987394386
0.00575648418614
0.00137110809766
0.00137041500733
0.00560737410649
0.00756158638473
0.00790989845623
0.00794766350629
0.00795072893981
0.00795096844923
0.00795101585187
0.00795103953714
0.00795104934629
0.00795104839451
0.00795103660948
0.00795100858839
0.00795095828985
0.00795071424956
0.00794764219799
0.0079098723365
0.0075615501317
0.00560733714446
0.00137041195743
0.00136498574932
0.00455729163077
0.00560736330896
0.00575650058072
0.0057701693726
0.00577116042864
0.0057712640873
0.00577131270471
0.00577134613332
0.0057713630559
0.00577136184708
0.00577134289635
0.00577130613239
0.00577125496496
0.00577114887348
0.00577015461421
0.00575648123041
0.00560733537503
0.00455726080693
0.00136498210556
0.00134695597985
0.00136498478465
0.00137041321937
0.00137110827755
0.00137116893366
0.00137117477159
0.00137117661316
0.00137117786809
0.00137117873916
0.00137117924244
0.00137117933547
0.00137117903559
0.00137117825358
0.00137117697675
0.00137117497698
0.00137116890272
0.00137110774792
0.00137041179357
0.00136498200294
0.0013469550799
0.00134700301603
0.00136541264228
0.00137112318688
0.00137187049213
0.00137193742211
0.00137194456426
0.00137194746019
0.00137194970444
0.00137195127185
0.00137195203268
0.00137195185674
0.00137195075632
0.00137194891054
0.00137194656961
0.0013719436648
0.00137193653007
0.00137186961967
0.00137112195871
0.00136541150333
0.00134700237319
0.00136541257756
0.00463681130206
0.00575661067588
0.00592018186663
0.00593548452497
0.00593661258115
0.00593673269668
0.00593678906074
0.00593683017744
0.00593685243666
0.00593685213998
0.00593682953426
0.00593678813374
0.00593673264889
0.00593661359862
0.00593548671013
0.00592018531415
0.00575661234311
0.00463680525787
0.00136541046007
0.00137112326163
0.00575661193009
0.00791005707456
0.00831184384931
0.0083567537388
0.00836049090975
0.00836079977032
0.00836086757447
0.00836089951494
0.00836091157097
0.0083609114807
0.00836089936037
0.00836086750587
0.00836080056184
0.00836049382256
0.0083567610095
0.00831185541444
0.00791006307108
0.00575660070739
0.00137112019933
0.00137187078083
0.00592018403502
0.00831184484121
0.00878135088241
0.00883563087479
0.00884029688421
0.00884070590966
0.00884079220639
0.00884082679643
0.00884083695533
0.00884083660142
0.00884082585952
0.00884079121804
0.00884070590843
0.00884029903169
0.00883563729263
0.00878136240333
0.00831185275567
0.00592017067632
0.00137186758689
0.00137193786812
0.0059354871965
0.00835675524465
0.00883563110237
0.00889132042104
0.00889619750407
0.00889667880041
0.0088968036985
0.00889685723161
0.00889687347522
0.00889687233915
0.00889685405758
0.00889679968132
0.00889667609693
0.0088961980341
0.00889132582976
0.00883564143022
0.00835676189482
0.00593547316808
0.001371934526
0.00137194511112
0.00593661570957
0.00836049255797
0.00884029700257
0.00889619738272
0.00890115719721
0.00890167714963
0.00890181850585
0.00890188748398
0.00890191294968
0.00890191007614
0.00890187931294
0.00890180765109
0.00890166939905
0.00890115461651
0.00889620147452
0.00884030663425
0.00836049732648
0.00593660188229
0.00137194162504
0.00137194802467
0.00593673612079
0.00836080098054
0.00884070571569
0.00889667856584
0.00890167734738
0.00890218866116
0.00890231574615
0.00890238667444
0.00890241751431
0.00890241110892
0.00890236853168
0.00890229120238
0.00890216697512
0.00890167050989
0.00889668100946
0.00884071540966
0.00836080481408
0.00593672115362
0.00137194432178
0.00137195021711
0.0059367923712
0.00836086836531
0.00884079164596
0.00889680353366
0.00890181963199
0.00890231720113
0.00890242792326
0.00890246890888
0.00890249675018
0.00890248832115
0.00890244546174
0.00890239507611
0.00890228695923
0.00890180614474
0.00889680475219
0.00884080162193
0.00836087200192
0.00593677717441
0.00137194638439
0.00137195175807
0.00593683416125
0.00836089983516
0.00884082611112
0.00889685723697
0.00890188948606
0.0089023899058
0.00890247113522
0.00890241435534
0.00890242132379
0.00890241234756
0.00890238854115
0.00890243534745
0.00890235608472
0.00890187409118
0.00889685806722
0.0088408361956
0.00836090373241
0.00593681740335
0.00137194795246
0.0013719524552
0.00593685494242
0.00836091173667
0.00884083631358
0.00889687379324
0.00890191543204
0.00890242288863
0.00890250178213
0.00890242414749
0.00890242555558
0.00890241685498
0.00890239844237
0.00890246530201
0.00890238865073
0.00890190068262
0.00889687462553
0.00884084630195
0.00836091569083
0.00593683805507
0.00137194886957
0.00137195234798
0.005936855091
0.00836091158412
0.0088408360583
0.00889687307947
0.0089019139736
0.00890241890542
0.00890249645035
0.0089024184179
0.00890241974981
0.00890241124373
0.00890239315466
0.00890246048324
0.00890238490681
0.00890189854668
0.00889687390545
0.00884084585931
0.008360915264
0.00593683772805
0.00137194892276
0.00137195145397
0.00593683460108
0.00836089953476
0.00884082545982
0.00889685528039
0.00890188499243
0.00890237853323
0.00890245581743
0.00890239744899
0.00890240417386
0.00890239595254
0.00890237309229
0.00890242138373
0.00890234512418
0.00890186779105
0.0088968560566
0.00884083490798
0.00836090256507
0.00593681467837
0.00137194826173
0.00137194973193
0.00593679308985
0.00836086831483
0.00884079094074
0.00889680103969
0.00890181324799
0.00890230161422
0.00890240711444
0.00890244577866
0.0089024731791
0.00890246536594
0.008902423325
0.00890237502561
0.00890227152128
0.00890179717385
0.00889680213371
0.0088407998323
0.00836086991268
0.00593677351461
0.00137194686274
0.00137194751221
0.00593673794935
0.00836080187767
0.00884070552708
0.00889667673403
0.00890167273014
0.00890217533329
0.00890229721672
0.00890236555334
0.00890239597469
0.00890238994614
0.00890234811044
0.0089022727835
0.00890215304648
0.0089016640689
0.00889667880184
0.00884071355089
0.00836080180277
0.00593671769659
0.00137194487094
0.00137194465247
0.00593661925672
0.00836049574448
0.00884029878537
0.00889619771638
0.00890115559046
0.00890167369835
0.00890181097868
0.00890187862629
0.00890190412741
0.00890190091163
0.0089018693346
0.0089017981624
0.00890166431511
0.008901153077
0.00889620056072
0.0088403051115
0.00836049410456
0.00593659787262
0.00137194209159
0.00137193749579
0.00593549248943
0.00835676321778
0.00883563744074
0.00889132539524
0.00889620108056
0.00889668115614
0.00889680541131
0.00889685870994
0.00889687498435
0.00889687401067
0.00889685600569
0.00889680202234
0.0088966786506
0.00889620044717
0.00889132748299
0.00883564137592
0.00835675882816
0.00593546938348
0.00137193482534
0.00137187048937
0.00592019097093
0.00831185736257
0.00878136270347
0.00883564123928
0.00884030599845
0.0088407145056
0.00884080073419
0.0088408352471
0.00884084532764
0.00884084490817
0.00884083406075
0.0088407991722
0.00884071309246
0.00884030481943
0.0088356412239
0.00878136264902
0.00831184824893
0.00592016518486
0.0013718675215
0.00137112265862
0.0057566171853
0.00791006462377
0.00831185256016
0.00835676127839
0.00836049613468
0.00836080327512
0.00836087019771
0.00836090141728
0.00836091314934
0.00836091284358
0.00836090033512
0.00836086797977
0.00836080020975
0.0083604928125
0.00835675767413
0.00831184723737
0.0079100507633
0.00575658891034
0.00137111932488
0.00136541204529
0.00463680803552
0.00575660142951
0.00592017001634
0.00593547133057
0.00593659872226
0.00593671699813
0.00593677172977
0.0059368118879
0.00593683310588
0.00593683240178
0.00593680931615
0.00593676865494
0.00593671331183
0.00593659413293
0.00593546613158
0.00592016222062
0.00575658685866
0.00463678357658
0.00136540811323
0.0013470027092
0.00136541089604
0.00137112046946
0.00137186759532
0.0013719342354
0.00137194105137
0.00137194350067
0.00137194535628
0.00137194684813
0.00137194769641
0.00137194778495
0.00137194709508
0.00137194572727
0.0013719438473
0.00137194124629
0.00137193416866
0.00137186705869
0.00137111907301
0.00136540796335
0.00134700087184
0.00134703181115
0.0013654571437
0.00137119416031
0.00137194802259
0.00137201698004
0.00137202577525
0.00137203029642
0.00137203396441
0.0013720366507
0.00137203796349
0.00137203778401
0.00137203615288
0.00137203322181
0.00137202938578
0.00137202477394
0.00137201602704
0.00137194712423
0.00137119288153
0.00136545578956
0.00134703046622
0.0013654570786
0.00464319437953
0.00577025316142
0.00593546562885
0.0059509770039
0.00595215020278
0.00595231063534
0.0059524054687
0.00595246807924
0.00595249730853
0.00595249679743
0.00595246752866
0.0059524049357
0.00595231076859
0.00595215056738
0.00595097946556
0.00593546974998
0.00577025493359
0.00464318754614
0.00136545462769
0.00137119424196
0.00577025427997
0.00794782524703
0.00835677686471
0.00840271458035
0.00840659964888
0.00840695481862
0.00840704381429
0.00840708984552
0.0084071086267
0.00840710798215
0.00840708803215
0.00840704133917
0.00840695323734
0.00840660060928
0.00840271935993
0.00835678474092
0.00794782843721
0.00577024194534
0.00137119095705
0.0013719483337
0.00593546750088
0.00835677752797
0.00883566738434
0.00889136211162
0.00889625216302
0.00889676129481
0.00889690927375
0.00889696784964
0.00889698271138
0.00889698174798
0.00889696519684
0.00889690602652
0.00889675922324
0.00889625287076
0.00889136717503
0.00883567666465
0.00835678159142
0.00593545412788
0.00137194493797
0.00137201747048
0.00595097927619
0.00840271540598
0.00889136197043
0.00894859661098
0.00895377497268
0.00895440380628
0.00895460787623
0.00895468405208
0.00895470173464
0.00895470000962
0.00895467936591
0.00895460224283
0.00895439997626
0.00895377495646
0.00894860211648
0.0088913722089
0.00840271989643
0.00595096583259
0.00137201390446
0.00137202635495
0.00595215277189
0.00840660006722
0.00889625118771
0.00895377439966
0.00895908404112
0.00895978066466
0.00896000959773
0.00896008110347
0.00896009719197
0.00896009426548
0.00896007303062
0.0089599988446
0.008959771766
0.0089590808986
0.00895377957428
0.00889626409199
0.00840660581148
0.00595213895798
0.00137202259372
0.00137203085064
0.00595231292487
0.00840695369269
0.00889675919907
0.00895440263892