/*--------------------------------*- C++ -*----------------------------------*\
| =========                 |                                                 |
| \\      /  F ield         | OpenFOAM: The Open Source CFD Toolbox           |
|  \\    /   O peration     | Version:  3.0.1                                 |
|   \\  /    A nd           | Web:      www.OpenFOAM.org                      |
|    \\/     M anipulation  |                                                 |
\*---------------------------------------------------------------------------*/
FoamFile
{
    version     2.0;
    format      ascii;
    class       volVectorField;
    location    "0.1";
    object      U_0;
}
// * * * * * * * * * * * * * * * * * * * * * * * * * * * * * * * * * * * * * //

dimensions      [0 1 -1 0 0 0 0];

internalField   nonuniform List<vector> 
7968
(
(-0.000118975885927 -0.000121639913189 0.00016758034358)
(-0.000213201364889 -0.00012231544144 6.78844623038e-05)
(-0.000212056713676 -0.000131161783947 5.056634266e-05)
(-0.00020516066938 -0.000132474459701 5.18581129117e-05)
(-0.000197037721326 -0.000135471491712 5.08605583239e-05)
(-0.00018049469178 -0.000138712650665 4.91240007775e-05)
(-0.000154918890549 -0.000141814072835 4.71345942043e-05)
(-0.000121440063129 -0.000144576896719 4.53170772595e-05)
(-8.09793095686e-05 -0.00014667567525 4.38407868723e-05)
(-3.5754895865e-05 -0.000147885907534 4.28856066836e-05)
(1.14426943633e-05 -0.000147981304002 4.25866269621e-05)
(5.79508312772e-05 -0.000147023987644 4.27748854023e-05)
(0.000101011236524 -0.000145040860115 4.35820236101e-05)
(0.000138048701068 -0.0001423305683 4.48316578819e-05)
(0.000167530425537 -0.000139273047971 4.63922673287e-05)
(0.000188606854363 -0.000135970573295 4.79925749933e-05)
(0.000200801250934 -0.000132483938856 4.93708842514e-05)
(0.00020884402923 -0.000128538094398 5.06461036685e-05)
(0.000201291532319 -0.000128494250182 5.97486881324e-05)
(0.000139237647156 -0.000137129413704 0.000148490048552)
(-0.000121133406736 -0.000221110869856 6.78917238144e-05)
(-0.000200967669785 -0.000204933966785 -2.02271291059e-05)
(-0.000207986477142 -0.000211616877141 -3.09859139013e-05)
(-0.000203866511787 -0.000218466945009 -3.06274460093e-05)
(-0.00019787640193 -0.000226064950369 -3.17658148588e-05)
(-0.000182792820988 -0.000232958852524 -3.3530126602e-05)
(-0.000158656006257 -0.000239394350401 -3.5442180701e-05)
(-0.000126119725752 -0.000244889978596 -3.71475609938e-05)
(-8.60435537625e-05 -0.00024907068723 -3.8559505848e-05)
(-4.0699497904e-05 -0.000251299409381 -3.93515382454e-05)
(6.83940910019e-06 -0.000251234676538 -3.95543016449e-05)
(5.36707389472e-05 -0.000249034497125 -3.93518748319e-05)
(9.67765266438e-05 -0.00024471701523 -3.85893668211e-05)
(0.000133255491634 -0.000238906806374 -3.74431947115e-05)
(0.000161789423232 -0.000232128367322 -3.59648597852e-05)
(0.000181816465642 -0.000224764297451 -3.44670993248e-05)
(0.000193593668495 -0.000216991885098 -3.34694266346e-05)
(0.000201317630957 -0.000208199285003 -3.26722527109e-05)
(0.000200693466728 -0.000203147197919 -2.70099250491e-05)
(0.000142087360253 -0.000207571320264 5.13876995446e-05)
(-0.000130209799575 -0.000221888532321 5.03976125346e-05)
(-0.000207925232757 -0.000211835884215 -3.12421140076e-05)
(-0.000212649832027 -0.00021648329562 -3.91326606273e-05)
(-0.000208170751063 -0.000226262101289 -3.84483856182e-05)
(-0.00020295662177 -0.000237029005752 -3.97704947224e-05)
(-0.000187956632015 -0.00024775347076 -4.25716175309e-05)
(-0.000163615417266 -0.000258231562386 -4.5694207874e-05)
(-0.00013039343949 -0.000267620706854 -4.93220824945e-05)
(-8.90498330776e-05 -0.000275000420108 -5.21729583399e-05)
(-4.18426391255e-05 -0.000278962294613 -5.37110934666e-05)
(7.58068250088e-06 -0.000278900986031 -5.41012564285e-05)
(5.61433853078e-05 -0.000274912388778 -5.34033322462e-05)
(0.000100570332538 -0.000267438743413 -5.13556277929e-05)
(0.000137767690526 -0.000257818758396 -4.81927090125e-05)
(0.00016650725678 -0.000246903778125 -4.53652603024e-05)
(0.000186392351781 -0.000235446920951 -4.27054863318e-05)
(0.000198121237924 -0.000224140780828 -4.1070209252e-05)
(0.000205708116288 -0.000213683943512 -4.05849773036e-05)
(0.000204931317966 -0.000207790266921 -3.63000753716e-05)
(0.000143245323177 -0.000210666333982 3.91173644581e-05)
(-0.000132033413856 -0.000217298624867 5.12776014975e-05)
(-0.000215263542608 -0.000208663578356 -3.13898203955e-05)
(-0.000222588827335 -0.000213090846013 -3.9031497193e-05)
(-0.00021971247936 -0.000224655498791 -3.88895243809e-05)
(-0.00021513405522 -0.000237815396597 -4.15870344681e-05)
(-0.000200484109847 -0.000252010301287 -4.63092012526e-05)
(-0.000175794612345 -0.00026667583265 -5.13794415716e-05)
(-0.000140978420939 -0.000280051145857 -5.7202730542e-05)
(-9.63254830511e-05 -0.000290445231801 -6.20132334207e-05)
(-4.44192946318e-05 -0.000296158851148 -6.45095039866e-05)
(1.0164255282e-05 -0.00029622642721 -6.49629430884e-05)
(6.34873143241e-05 -0.000290474570459 -6.33992127723e-05)
(0.000111299335287 -0.000279954953712 -5.94382057618e-05)
(0.000150309983518 -0.000266283365012 -5.4450470033e-05)
(0.00017983081006 -0.000251011697379 -4.97225786858e-05)
(0.00019953683679 -0.000235820875087 -4.47699494689e-05)
(0.000209949061014 -0.000221704428495 -4.17720262958e-05)
(0.000215751822688 -0.00020973550784 -3.99288932223e-05)
(0.000212631640766 -0.000203459853662 -3.58000572332e-05)
(0.000145434458521 -0.00020430897549 3.96979378916e-05)
(-0.00013557383894 -0.000209719122587 4.97911433188e-05)
(-0.000223374420578 -0.000202625597598 -3.30681257125e-05)
(-0.000233559097141 -0.000207781204374 -4.09574505055e-05)
(-0.000232902838139 -0.000220104064193 -4.21103538801e-05)
(-0.00023022435761 -0.000235215902874 -4.7060821488e-05)
(-0.000216738858122 -0.000252332500436 -5.42717009565e-05)
(-0.000191587436067 -0.000269716139971 -6.2370362858e-05)
(-0.000154105907653 -0.000285910535892 -6.95811833646e-05)
(-0.000105118176074 -0.000298799130941 -7.53431465178e-05)
(-4.76126199928e-05 -0.000305918266292 -7.85938418314e-05)
(1.324320992e-05 -0.000305917466394 -7.9043003278e-05)
(7.23650876698e-05 -0.00029877384419 -7.68751230697e-05)
(0.00012469365665 -0.00028567725518 -7.19786619852e-05)
(0.000166629780805 -0.000269002410172 -6.55117499662e-05)
(0.000196876893366 -0.000250830211679 -5.79144312072e-05)
(0.000215597440556 -0.000232701540293 -5.08868201347e-05)
(0.000224178342326 -0.000216510030497 -4.5336176556e-05)
(0.000227272973187 -0.000203066735832 -4.20346690587e-05)
(0.00022067730615 -0.000196311825277 -3.70456206992e-05)
(0.000148981665153 -0.000195615018493 3.81853539148e-05)
(-0.000139319456042 -0.000192756241609 4.7542443322e-05)
(-0.000230675352189 -0.000187371673141 -3.53369280393e-05)
(-0.000244512450726 -0.000192556339907 -4.44780237954e-05)
(-0.000247243032698 -0.000205231811391 -4.76510271395e-05)
(-0.000247363299073 -0.00022152849293 -5.49540088475e-05)
(-0.000234978185802 -0.000239735327872 -6.45948328757e-05)
(-0.00020935774842 -0.000258720752031 -7.42895341895e-05)
(-0.000170037937719 -0.00027704069759 -8.31487637629e-05)
(-0.00011630580722 -0.000292200452965 -9.04909494541e-05)
(-5.15241159366e-05 -0.000300534347082 -9.46644357256e-05)
(1.72929944302e-05 -0.000300340741675 -9.52121163603e-05)
(8.36976832314e-05 -0.000291874333569 -9.22105697512e-05)
(0.000141045039436 -0.000276279537452 -8.57901788168e-05)
(0.000185140007375 -0.000257233081278 -7.76591363135e-05)
(0.000216123160634 -0.000237196988712 -6.84730021731e-05)
(0.000233856537141 -0.000217729445295 -5.89496470821e-05)
(0.000239659338354 -0.000200172556791 -5.12417928581e-05)
(0.000239019943123 -0.000186328020638 -4.54722199807e-05)
(0.000228503286498 -0.000179545746258 -3.89785212607e-05)
(0.000152780267549 -0.000176791098925 3.60791652898e-05)
(-0.000142868549622 -0.000165884471346 4.52000155477e-05)
(-0.000237477443439 -0.000162896966249 -3.76094145763e-05)
(-0.000255119516832 -0.000167878600455 -4.81710224778e-05)
(-0.000261963076923 -0.000180081789115 -5.35029061846e-05)
(-0.000264735842013 -0.000195854185377 -6.35225944093e-05)
(-0.000253931124717 -0.000213513662371 -7.47286160289e-05)
(-0.000228881481803 -0.000232997401873 -8.61450346886e-05)
(-0.000187560735801 -0.000251909667568 -9.70869406452e-05)
(-0.000128589566196 -0.000267861829253 -0.000106811915272)
(-5.57437234785e-05 -0.000276532882641 -0.000112324115166)
(2.18961331481e-05 -0.000276200972923 -0.000112974424215)
(9.64022454792e-05 -0.000267052737063 -0.000108741506068)
(0.000159307733456 -0.000250291750644 -9.99976573741e-05)
(0.000205699122823 -0.000230285212333 -8.97871480457e-05)
(0.000236376876455 -0.000209439743997 -7.87795042241e-05)
(0.000252626600095 -0.000190275182983 -6.75990935882e-05)
(0.00025564624722 -0.00017291566169 -5.69840565628e-05)
(0.000250425200151 -0.000159528688591 -4.92032344308e-05)
(0.000235922815984 -0.000152679697276 -4.07787470562e-05)
(0.00015648817951 -0.000147878157283 3.39274664663e-05)
(-0.000146003595588 -0.000130154538225 4.31016263299e-05)
(-0.000243302878236 -0.000129565242 -3.95810286586e-05)
(-0.000264583286474 -0.000133762064133 -5.24466497847e-05)
(-0.000275296925407 -0.000144339201876 -5.95246813202e-05)
(-0.000280812026623 -0.000157381027 -7.10322556205e-05)
(-0.000272131063743 -0.000173141997827 -8.38872989201e-05)
(-0.00024774883295 -0.000190538574083 -9.73599503803e-05)
(-0.000204891786837 -0.00020781872353 -0.00011100824064)
(-0.000140916632735 -0.000222966284399 -0.000123917054273)
(-5.98567108394e-05 -0.000231044180593 -0.00013112460782)
(2.67711066577e-05 -0.000230510476087 -0.000131855090647)
(0.000109597449452 -0.000221439279473 -0.000126049834414)
(0.000177803698922 -0.000204980280594 -0.000114142637004)
(0.000225987304147 -0.000186174671223 -0.000101203878258)
(0.000256139643272 -0.000167064782477 -8.80513246163e-05)
(0.000270392756731 -0.000149574643701 -7.50339991583e-05)
(0.000270457183394 -0.000134730689384 -6.2921451924e-05)
(0.000261111573593 -0.000122853351348 -5.32255284609e-05)
(0.000242493448683 -0.000116156010982 -4.2955467014e-05)
(0.000159492479675 -0.00010966614965 3.1923099757e-05)
(-0.000148418435388 -8.68243082643e-05 4.14471748478e-05)
(-0.000247678100685 -8.8196628507e-05 -4.10054397151e-05)
(-0.000271929571796 -9.12567174626e-05 -5.54900132046e-05)
(-0.000285646481114 -9.85327414659e-05 -6.45013232953e-05)
(-0.000293566490233 -0.00010727268243 -7.70074217876e-05)
(-0.000287111344035 -0.000118267745348 -9.13778923211e-05)
(-0.000263556413482 -0.000130349743048 -0.000107186528797)
(-0.000219984088519 -0.000142533888932 -0.000123991628654)
(-0.000151810732591 -0.000153369849845 -0.000140886572833)
(-6.32860106921e-05 -0.000158883538776 -0.000150118355821)
(3.15009985846e-05 -0.000158049485681 -0.000150921715085)
(0.000121930381059 -0.00015086952397 -0.000143188985011)
(0.000194571295297 -0.000138148204936 -0.000127255858818)
(0.000243614258408 -0.000123965433179 -0.000111107193786)
(0.00027299859969 -0.000109844513348 -9.55381869144e-05)
(0.000284980490549 -9.68965520851e-05 -8.08963730337e-05)
(0.000282400875312 -8.63849416992e-05 -6.76599409113e-05)
(0.000270098215777 -7.77136436374e-05 -5.60084101203e-05)
(0.000247624926869 -7.23265201604e-05 -4.51730145468e-05)
(0.00016148148203 -6.38958098637e-05 3.03291680878e-05)
(-0.00014968062955 -3.83911233638e-05 4.03161210559e-05)
(-0.000250084106292 -4.14436910601e-05 -4.21901615188e-05)
(-0.000276082555628 -4.27901050195e-05 -5.74767929965e-05)
(-0.000291354827082 -4.54064146149e-05 -6.71860296181e-05)
(-0.000300580459053 -4.85442231742e-05 -8.03936978147e-05)
(-0.00029523160989 -5.23713970023e-05 -9.56598686357e-05)
(-0.000272017647598 -5.64570165253e-05 -0.000112784359849)
(-0.000227911069849 -6.03859827592e-05 -0.000131239737897)
(-0.000157265124891 -6.36666466822e-05 -0.000150127539109)
(-6.45360867418e-05 -6.48608794552e-05 -0.000160275625027)
(3.47849313423e-05 -6.36689858222e-05 -0.000161109093605)
(0.000129498531995 -6.0053642188e-05 -0.000152475277089)
(0.000204709551774 -5.43227178419e-05 -0.000134464485745)
(0.000254295966039 -4.79751327823e-05 -0.000116580485625)
(0.000283236668023 -4.1606461741e-05 -9.96005769633e-05)
(0.000293883007252 -3.57570156226e-05 -8.39402812678e-05)
(0.000289655626909 -3.09602448429e-05 -6.98960144788e-05)
(0.000275453762001 -2.71173280949e-05 -5.73039717199e-05)
(0.000250722718084 -2.42465490097e-05 -4.60837759889e-05)
(0.000162660096727 -1.36666694282e-05 2.96065168283e-05)
(-0.000149787266696 1.22546600296e-05 3.9943478426e-05)
(-0.000250101321761 7.38058433888e-06 -4.26120594585e-05)
(-0.000276171202156 8.16728837e-06 -5.79633929137e-05)
(-0.000291415307964 1.06200530438e-05 -6.77134902677e-05)
(-0.000300549019938 1.36877887947e-05 -8.09559497179e-05)
(-0.0002950386412 1.77403907208e-05 -9.62540112038e-05)
(-0.000271573104893 2.24473718831e-05 -0.000113400281038)
(-0.000227192625872 2.75318085769e-05 -0.000131900106576)
(-0.00015628483245 3.24962428939e-05 -0.00015081401193)
(-6.32881873599e-05 3.59658581802e-05 -0.000160957300551)
(3.6308346384e-05 3.75677968763e-05 -0.000161779640934)
(0.000131276469462 3.73297223829e-05 -0.00015310033666)
(0.000206650011955 3.53809643932e-05 -0.000135026952285)
(0.00025633499442 3.31204042399e-05 -0.000116967419473)
(0.000285235275665 3.08999377401e-05 -9.9760136578e-05)
(0.000295649140727 2.88570414633e-05 -8.38869577374e-05)
(0.000291033962605 2.72602948464e-05 -6.96822928426e-05)
(0.000276238047941 2.57658440302e-05 -5.69889001537e-05)
(0.000251228744328 2.62760236636e-05 -4.5731742122e-05)
(0.000162818948403 3.86495119997e-05 2.96132764335e-05)
(-0.000148854462733 6.21538862497e-05 4.02292477393e-05)
(-0.000247851277419 5.54503719286e-05 -4.22266857012e-05)
(-0.000272227306002 5.81327388186e-05 -5.6889033981e-05)
(-0.000285819803095 6.53514109204e-05 -6.61224501017e-05)
(-0.000293445181357 7.41174534014e-05 -7.87861527832e-05)
(-0.000286466408837 8.54286154911e-05 -9.32847910318e-05)
(-0.000262226493513 9.82369841267e-05 -0.000109197492286)
(-0.000217861809487 0.000111610008478 -0.00012606244124)
(-0.000148830874715 0.000124191915139 -0.000142962708658)
(-5.94647617708e-05 0.000131999768474 -0.000152119456302)
(3.61489715719e-05 0.000133986523443 -0.000152835269005)
(0.000127311386 0.000130091861087 -0.000144902807251)
(0.000200499108746 0.000121012992166 -0.00012871056478)
(0.000249819548976 0.00011076520556 -0.000112094833899)
(0.00027896901887 0.000100526017219 -9.59444994531e-05)
(0.000290234862134 9.11060173104e-05 -8.07194778473e-05)
(0.000286533217039 8.35620793749e-05 -6.70623381512e-05)
(0.00027299149503 7.71766774434e-05 -5.53020588899e-05)
(0.0002493981484 7.55013771047e-05 -4.45973825354e-05)
(0.000161710995902 8.97876846769e-05 3.07171859728e-05)
(-0.000146855299294 0.000108192710534 4.12325377231e-05)
(-0.000243485186054 9.97614087006e-05 -4.11592149199e-05)
(-0.000264748574678 0.000103716929337 -5.46693716062e-05)
(-0.000275383766995 0.000114394769035 -6.20714448569e-05)
(-0.000280440221775 0.00012766598036 -7.37558838595e-05)
(-0.000270897165572 0.000143893044378 -8.67667490186e-05)
(-0.000245393071937 0.000162141737341 -0.000100350166613)
(-0.000201239384589 0.000180703490054 -0.000114020429168)
(-0.000135896818147 0.000197617298748 -0.00012683801775)
(-5.3494335722e-05 0.000207928809503 -0.000133850947616)
(3.44013241434e-05 0.000210040620651 -0.000134410423581)
(0.000118303877535 0.000204032262201 -0.000128284692326)
(0.00018732044278 0.000190889705134 -0.000115962439588)
(0.000235849759384 0.000175505321641 -0.000102323391362)
(0.00026555932201 0.000159671702689 -8.83205701761e-05)
(0.000278664437191 0.000145160390294 -7.44841969026e-05)
(0.000277050189285 0.000132728415962 -6.17909585683e-05)
(0.000265751163818 0.000122849365101 -5.18822443752e-05)
(0.000245238795274 0.000119689994277 -4.20797770895e-05)
(0.000159746934801 0.000135757186981 3.260383627e-05)
(-0.000143912017379 0.000147717518448 4.27121968924e-05)
(-0.000237502056307 0.000137306708951 -3.98129447606e-05)
(-0.000255170379932 0.000142021623312 -5.09931162987e-05)
(-0.000261801298714 0.000154518087369 -5.68692257621e-05)
(-0.000263920160439 0.000170716811457 -6.7003658935e-05)
(-0.000251970584758 0.000189032449572 -7.83383370869e-05)
(-0.000225422963149 0.000209472621597 -8.98364315712e-05)
(-0.000182393886887 0.000229696750565 -0.000100764934709)
(-0.000121612398813 0.000247337402421 -0.000110347016584)
(-4.70447114658e-05 0.000258083248732 -0.0001156132955)
(3.22535969163e-05 0.00026012373428 -0.000115945614807)
(0.00010816661308 0.000253723974151 -0.000111247947002)
(0.000171976240021 0.000239830169546 -0.000101869957117)
(0.000218599621815 0.000222600559269 -9.07363778188e-05)
(0.000248610166017 0.000204370414032 -7.86688103637e-05)
(0.000263281352023 0.000187414137544 -6.65267989656e-05)
(0.000264153683718 0.000171949036367 -5.51413437128e-05)
(0.00025655068413 0.000160080785443 -4.76707404374e-05)
(0.000239405041584 0.000156550060156 -3.99018004942e-05)
(0.000156580952781 0.000174173371123 3.48675756495e-05)
(-0.000140560658904 0.000178878995904 4.4585147169e-05)
(-0.000230451780271 0.000166381423677 -3.80194796158e-05)
(-0.000244235428423 0.000171399054581 -4.758299724e-05)
(-0.000246605447503 0.00018472557076 -5.14049476422e-05)
(-0.000245909642489 0.000201641088974 -5.88831124291e-05)
(-0.000232133388116 0.000220659060538 -6.86734021162e-05)
(-0.000204735969691 0.000240693127473 -7.83643121667e-05)
(-0.000163387315208 0.000260283533118 -8.71287748754e-05)
(-0.000107525450198 0.000277001944114 -9.42684299795e-05)
(-4.07169701238e-05 0.000287169517158 -9.81137465654e-05)
(3.00412598722e-05 0.000289072871808 -9.82686074197e-05)
(9.80176927736e-05 0.000282874522796 -9.46177739011e-05)
(0.000156210097832 0.000269555732472 -8.7368526471e-05)
(0.000200395150759 0.000252626444775 -7.81689722957e-05)
(0.000230370755066 0.000234397889313 -6.78664120289e-05)
(0.000246246529141 0.000216449689851 -5.71987934767e-05)
(0.000249637306251 0.000200235283304 -4.89952130016e-05)
(0.000245965969764 0.000187388270796 -4.37729792605e-05)
(0.000232387234973 0.00018359791954 -3.77379456001e-05)
(0.000152763022902 0.000203092799568 3.73548305555e-05)
(-0.00013696834849 0.000200694132969 4.66336488292e-05)
(-0.000222838885597 0.000186661352739 -3.60753041719e-05)
(-0.000232707733188 0.000191619690054 -4.42560049352e-05)
(-0.000231464979315 0.00020474728575 -4.58828233206e-05)
(-0.000227979380959 0.000220613325997 -5.12551315299e-05)
(-0.000212918487165 0.000238597194351 -5.85825696943e-05)
(-0.000185808742356 0.000256993396827 -6.67118391258e-05)
(-0.000146110424085 0.000274415359369 -7.367311287e-05)
(-9.47539925246e-05 0.000288737404968 -7.91215095641e-05)
(-3.49879206141e-05 0.000297468720522 -8.19375891204e-05)
(2.79680602747e-05 0.000299118102688 -8.19142408539e-05)
(8.8673737989e-05 0.000293711719223 -7.89305754525e-05)
(0.000141751306242 0.000282234926597 -7.30890844078e-05)
(0.000183453540602 0.000266932509823 -6.55289845585e-05)
(0.000212440440379 0.000249986223391 -5.67031602355e-05)
(0.000229131933533 0.000232930917885 -4.9392478727e-05)
(0.000235001633718 0.000217400177536 -4.37657602653e-05)
(0.000234578865538 0.000204610316714 -4.04092880685e-05)
(0.00022459841645 0.000200555004631 -3.55204196055e-05)
(0.000148687563431 0.000221617161212 3.9807498904e-05)
(-0.000133121047224 0.00021262080518 4.85303458079e-05)
(-0.000214708883398 0.000198475061818 -3.45769611885e-05)
(-0.000221342190028 0.000203440268819 -4.20242591169e-05)
(-0.000217508749877 0.000215158930975 -4.22610417101e-05)
(-0.000212059578451 0.000229067311184 -4.51290469447e-05)
(-0.000195758793266 0.000244177844377 -5.03437909407e-05)
(-0.000168931011411 0.000259713668976 -5.55856150449e-05)
(-0.000131664914325 0.000274026589128 -6.09372960672e-05)
(-8.44982240997e-05 0.000285642504508 -6.5340493098e-05)
(-3.03497655066e-05 0.000292666294587 -6.73829270055e-05)
(2.62972129005e-05 0.000293921415762 -6.72094370545e-05)
(8.11607874067e-05 0.000289353631847 -6.47038097563e-05)
(0.00012945250591 0.000279981259845 -5.96855142186e-05)
(0.000168159158791 0.000267260200333 -5.34602723333e-05)
(0.000196378433843 0.000252863815896 -4.79859161901e-05)
(0.000213677418157 0.000238403178326 -4.33046429409e-05)
(0.000221212945153 0.000224627914939 -4.01758612403e-05)
(0.000222949106348 0.000212379062511 -3.83110296932e-05)
(0.000215955926068 0.000208427576214 -3.39855689316e-05)
(0.000144336515906 0.000230160880472 4.1646073742e-05)
(-0.000128748962394 0.000218972809644 5.02144354804e-05)
(-0.000205555815919 0.00020556996915 -3.33309469986e-05)
(-0.000210838533449 0.000210190982475 -4.10364285155e-05)
(-0.000205795403702 0.00021994548748 -3.9870195011e-05)
(-0.000199023912066 0.000231014367535 -4.13217479137e-05)
(-0.000182328619288 0.000242307371349 -4.41797575326e-05)
(-0.000156008416331 0.000253311055402 -4.73604783871e-05)
(-0.000120219816709 0.00026325130241 -5.08173574554e-05)
(-7.61365814825e-05 0.000271855182064 -5.31276290567e-05)
(-2.67060861055e-05 0.000276908330882 -5.41387483988e-05)
(2.46865021116e-05 0.000277678453012 -5.38729004552e-05)
(7.47891640839e-05 0.000274084977336 -5.24105340953e-05)
(0.000119730492932 0.000267199950066 -4.92222160606e-05)
(0.000156423525719 0.000258399961335 -4.57363249076e-05)
(0.000183689120679 0.000247994091863 -4.24468096577e-05)
(0.000201029045749 0.000236836633133 -3.95815276291e-05)
(0.000208991881551 0.000225339814189 -3.79537768513e-05)
(0.000211752702559 0.000214280617382 -3.68951132905e-05)
(0.000206695945717 0.000210356361036 -3.25906202921e-05)
(0.000139132022201 0.000232483916987 4.32431761853e-05)
(-0.000128302044219 0.000209914921657 5.96996224287e-05)
(-0.000200253420197 0.000205128437569 -2.72495632588e-05)
(-0.000204993882857 0.00020925685984 -3.62760430312e-05)
(-0.000199718202683 0.000216402354237 -3.52701093127e-05)
(-0.000192521543418 0.000223791105045 -3.60332370267e-05)
(-0.000175817429102 0.000231002346444 -3.75857126489e-05)
(-0.000149759850862 0.000237845992394 -3.91975880199e-05)
(-0.000114215666408 0.000243919910542 -4.04882010827e-05)
(-7.1170802567e-05 0.000248649574202 -4.24408969722e-05)
(-2.40139528896e-05 0.000251494779368 -4.32850104401e-05)
(2.49026586952e-05 0.000251881017994 -4.30273748557e-05)
(7.30979037384e-05 0.000250137020488 -4.13993677348e-05)
(0.000117227618842 0.000246163342299 -3.96420442664e-05)
(0.000153487346877 0.00024064727512 -3.82420114358e-05)
(0.000180403956762 0.000233987641584 -3.64449619804e-05)
(0.000197549540545 0.000226555148014 -3.46057217367e-05)
(0.000205683397861 0.000218234799932 -3.3446654648e-05)
(0.000208328391259 0.000209348822901 -3.23565124128e-05)
(0.000202231811016 0.000204795188883 -2.66607226385e-05)
(0.000134697182028 0.0002214843961 5.36453952406e-05)
(-0.000135097762766 0.000141925331029 0.00014892779133)
(-0.000200430905531 0.000143153694299 5.16131672842e-05)
(-0.000201709863519 0.000143998289729 3.96731019301e-05)
(-0.000193311252737 0.000145595053619 4.07442066579e-05)
(-0.00018421377123 0.00014849488059 3.96331348938e-05)
(-0.000165794622932 0.000151727942961 3.7965445877e-05)
(-0.000138296676341 0.000154904422158 3.61418319992e-05)
(-0.000102330249586 0.000157797001934 3.44979150984e-05)
(-5.9228869237e-05 0.000159525628152 3.30942337181e-05)
(-1.19476608e-05 0.000160582973728 3.23299688757e-05)
(3.7063125352e-05 0.000160564580756 3.25297691049e-05)
(8.50947668803e-05 0.000159875597728 3.34553992646e-05)
(0.000128658730697 0.000157880221784 3.4943213491e-05)
(0.000165166596182 0.000154842397345 3.67503662528e-05)
(0.000193070832426 0.000151418393109 3.88159686808e-05)
(0.000211342991497 0.00014779952555 4.08476757659e-05)
(0.00022054023133 0.000143897797544 4.22504756648e-05)
(0.000224778874441 0.000139183331312 4.35225812396e-05)
(0.000215003632169 0.00013501703209 5.36130111011e-05)
(0.000138436327785 0.000140099429708 0.000157067088484)
(-0.000115602119565 -0.000116781616537 0.000546260685972)
(-0.000192447989648 -0.000116199536254 0.000324557217505)
(-0.000203150638724 -0.000120949893426 0.000290799468757)
(-0.000200822507817 -0.000123643867648 0.000287712388655)
(-0.00019614101918 -0.000127275029555 0.000283425631896)
(-0.000181881591751 -0.000131122743918 0.000278657806004)
(-0.000158139109332 -0.000134830883516 0.00027344980909)
(-0.00012584060357 -0.000138142887896 0.000268657403878)
(-8.60409192243e-05 -0.000140718123221 0.000264818865485)
(-4.10076898244e-05 -0.000142076716248 0.000262339953156)
(6.0713375705e-06 -0.00014212405285 0.000261412100667)
(5.24561836132e-05 -0.00014093752515 0.000261860722765)
(9.52941359703e-05 -0.000138557293142 0.000264021178737)
(0.000131717076105 -0.000135386319624 0.00026751580841)
(0.000160170417585 -0.000131811833536 0.000271907616227)
(0.000179730764571 -0.000128057827812 0.000276472804596)
(0.000190465060761 -0.000124517832891 0.000280720782753)
(0.000197342887034 -0.000120666086863 0.000285548606793)
(0.000191925318506 -0.000121298252994 0.000318637630637)
(0.000134140455778 -0.000129039949697 0.000551123879665)
(-0.000116477605407 -0.000196461656082 0.00032451157343)
(-0.00018170223371 -0.000182323675151 0.00011910231412)
(-0.00019329923608 -0.000186169740902 8.35866085136e-05)
(-0.000196314982378 -0.000193943427924 7.65092936859e-05)
(-0.00019364124086 -0.000202504555387 7.11884178691e-05)
(-0.000181397142934 -0.000211527393434 6.52736808531e-05)
(-0.000159567160943 -0.000220185344183 5.9013936315e-05)
(-0.000128570377903 -0.000228424248111 5.34596737422e-05)
(-8.93356075361e-05 -0.000234750032673 4.91693726244e-05)
(-4.43847530113e-05 -0.000238117475293 4.65857873277e-05)
(2.69419972617e-06 -0.00023831151948 4.56364838045e-05)
(4.89610989377e-05 -0.000235370033922 4.62428082905e-05)
(9.13435421258e-05 -0.00022936437826 4.88006764805e-05)
(0.000126644824821 -0.000221028264653 5.28692247193e-05)
(0.000153457295106 -0.000212209066131 5.80606367349e-05)
(0.000171138122578 -0.000202988493832 6.35454953075e-05)
(0.000180225526044 -0.000194159694833 6.85196961447e-05)
(0.000182512774741 -0.000185905920686 7.56872940532e-05)
(0.000179658530988 -0.000183088724927 0.000110431885349)
(0.000124004483245 -0.000189966525852 0.000322251773854)
(-0.000121550215299 -0.00020685236651 0.0002904866034)
(-0.000186073857494 -0.000192390107734 8.31851367346e-05)
(-0.000197185663274 -0.000195890973208 4.46661625288e-05)
(-0.000202384815263 -0.000206603630053 3.4775414391e-05)
(-0.000201405889273 -0.000219995902813 2.79017241448e-05)
(-0.000189839290656 -0.000234570215236 2.0960509125e-05)
(-0.000168182553558 -0.000248962463323 1.31826308456e-05)
(-0.000136437794139 -0.000262279252183 6.55157494378e-06)
(-9.47879967765e-05 -0.000272708779289 1.33379889898e-06)
(-4.66686916778e-05 -0.000278463884298 -1.75403209311e-06)
(3.71576344662e-06 -0.00027887443707 -2.80005976071e-06)
(5.32541969875e-05 -0.00027389491895 -1.84220324967e-06)
(9.84494088626e-05 -0.00026404122918 1.61154512654e-06)
(0.000134764385788 -0.000251179698674 6.49377825795e-06)
(0.000161294269982 -0.000236875830524 1.28567049227e-05)
(0.000178332631803 -0.000221855919195 1.97461747494e-05)
(0.000185716021494 -0.000208434974876 2.59404505114e-05)
(0.000184888624804 -0.000197592324268 3.59858501496e-05)
(0.000180476337016 -0.000193848741109 7.54354240504e-05)
(0.000121253237202 -0.000202005707759 0.000290610511051)
(-0.000124725592053 -0.000205376216308 0.000287052494703)
(-0.000194252266217 -0.000195084099924 7.55790753902e-05)
(-0.00020807341555 -0.00020077063216 3.41241487403e-05)
(-0.000216287134974 -0.00021457273681 2.20384064773e-05)
(-0.000217068675343 -0.000232154944791 1.37407802728e-05)
(-0.000206301376783 -0.000251215477295 4.70944580901e-06)
(-0.000183925028289 -0.000270669601748 -4.93485797426e-06)
(-0.00014978975924 -0.000287810102206 -1.33753281188e-05)
(-0.000104001588713 -0.000301248073939 -2.02465404764e-05)
(-5.0175637192e-05 -0.000308793009329 -2.45333906007e-05)
(6.4651114379e-06 -0.000309210424909 -2.5784148975e-05)
(6.18300997707e-05 -0.000302469337814 -2.39748609562e-05)
(0.000111029248846 -0.000289591061612 -1.9023120983e-05)
(0.00014986446647 -0.000273066268442 -1.20557802445e-05)
(0.000178029717947 -0.000253893878899 -3.728751131e-06)
(0.000194277274483 -0.000234692043189 4.58102649369e-06)
(0.000199342156214 -0.000216900799915 1.33061564273e-05)
(0.000195380551898 -0.000203001509325 2.5629743374e-05)
(0.00018792144489 -0.000196071736866 6.83890262976e-05)
(0.000123700142853 -0.000199092181215 0.000287535924005)
(-0.000128867226552 -0.00020059446524 0.000282441074877)
(-0.00020325415583 -0.000191914127702 6.9687943674e-05)
(-0.000221614340133 -0.000199353629003 2.65297145615e-05)
(-0.000233853376493 -0.000215070085657 1.30179091376e-05)
(-0.000237208025415 -0.00023509197233 2.46628425484e-06)
(-0.000227437362847 -0.000257049292119 -9.31701415087e-06)
(-0.000203939034571 -0.00027929612661 -2.16715986771e-05)
(-0.000166330679648 -0.000299419041626 -3.38441553687e-05)
(-0.00011532198158 -0.000315562422019 -4.44764786449e-05)
(-5.44750389013e-05 -0.000324617690691 -5.08968552764e-05)
(9.88744253755e-06 -0.000325042731448 -5.23222215178e-05)
(7.24272676076e-05 -0.000316876919148 -4.88383045162e-05)
(0.000127161187935 -0.000301297421833 -4.04334276247e-05)
(0.000169601894165 -0.000281387832553 -2.99053767787e-05)
(0.000198713738428 -0.000259222413816 -1.86435869886e-05)
(0.000214425790025 -0.000237405872894 -7.29762427191e-06)
(0.000217260193169 -0.000217105943523 3.48326629084e-06)
(0.00020907445458 -0.000200749251642 1.83869930595e-05)
(0.000196825516287 -0.000191842387611 6.26529673273e-05)
(0.000127187921436 -0.000193495788497 0.000282994455752)
(-0.000133156894927 -0.00018614506203 0.000277284014725)
(-0.000212732181452 -0.000179575896468 6.31975580557e-05)
(-0.000236577928331 -0.000187690661233 1.8833157272e-05)
(-0.000252966419823 -0.00020435942795 3.52832520232e-06)
(-0.000259055983284 -0.000225226203176 -9.82867722735e-06)
(-0.000250382108206 -0.000248103516861 -2.50089424723e-05)
(-0.000226160717367 -0.000271659699589 -4.20492881237e-05)