/*--------------------------------*- C++ -*----------------------------------*\
| =========                 |                                                 |
| \\      /  F ield         | OpenFOAM: The Open Source CFD Toolbox           |
|  \\    /   O peration     | Version:  3.0.1                                 |
|   \\  /    A nd           | Web:      www.OpenFOAM.org                      |
|    \\/     M anipulation  |                                                 |
\*---------------------------------------------------------------------------*/
FoamFile
{
    version     2.0;
    format      ascii;
    class       surfaceScalarField;
    location    "0.3";
    object      alphaPhi;
}
// * * * * * * * * * * * * * * * * * * * * * * * * * * * * * * * * * * * * * //

dimensions      [0 3 -1 0 0 0 0];

internalField   nonuniform List<scalar> 
3782
(
-1.08173e-15
3.32351e-15
-1.72775e-15
4.73148e-15
-3.17958e-15
8.89513e-15
-5.59531e-15
1.42466e-14
-8.99578e-15
2.09129e-14
-1.42079e-14
2.95048e-14
-2.39243e-14
4.33844e-14
-3.67012e-14
6.22312e-14
-4.65249e-14
7.45633e-14
-5.41664e-14
7.95799e-14
-6.42004e-14
8.43715e-14
-8.7538e-14
1.00475e-13
-2.30016e-13
1.80742e-13
-7.6853e-13
4.79404e-13
-9.91124e-13
1.01211e-12
-8.67423e-13
1.50065e-12
-1.21623e-12
2.00988e-12
-4.19636e-12
4.18257e-12
-1.52301e-11
1.4535e-11
-5.03001e-11
4.59502e-11
-1.5019e-10
1.40341e-10
-4.12074e-10
4.14542e-10
-8.31529e-10
1.37681e-09
-2.56807e-09
3.05063e-09
-5.5645e-09
5.31753e-09
-1.07766e-08
7.46685e-09
-1.62663e-08
1.41571e-08
-2.47986e-08
2.2968e-08
-3.70185e-08
2.71178e-08
-4.93655e-08
1.11329e-08
-6.19465e-08
3.06932e-09
-6.94197e-08
7.263e-09
-3.53315e-08
-4.94917e-08
-6.76026e-09
-4.04125e-08
-5.33652e-10
-8.2097e-09
-2.49374e-11
-6.57437e-10
-9.04132e-13
-3.07945e-11
-2.43314e-14
-1.10384e-12
-5.82904e-16
-2.94098e-14
-1.44215e-17
-7.82867e-16
-4.00876e-19
-1.22035e-16
-1.42038e-21
-3.82667e-18
-1.46935e-20
5.69365e-15
-1.54501e-15
1.13007e-14
-2.58548e-15
1.95755e-14
-3.93637e-15
-5.21337e-15
3.02562e-14
1.01653e-14
-3.0447e-15
1.82239e-14
-5.00722e-15
2.82868e-14
-6.84097e-15
-7.98889e-15
3.99393e-14
1.7e-14
-5.53497e-15
2.7119e-14
-7.92785e-15
3.76676e-14
-9.59526e-15
-1.1598e-14
4.95454e-14
2.44471e-14
-8.63078e-15
3.42781e-14
-1.09602e-14
4.47635e-14
-1.33413e-14
-2.00548e-14
6.93609e-14
3.20881e-14
-1.28177e-14
4.1939e-14
-1.66565e-14
5.89613e-14
-2.20009e-14
-2.77154e-14
1.10768e-13
4.39197e-14
-2.1089e-14
5.90252e-14
-2.81407e-14
7.9126e-14
-2.94099e-14
-3.66153e-14
1.40355e-13
6.3288e-14
-3.43623e-14
7.38307e-14
-3.47339e-14
9.41192e-14
-3.61429e-14
-2.39775e-13
3.08822e-13
7.56123e-14
-4.35626e-14
8.59129e-14
-4.13932e-14
1.02982e-13
-4.38469e-14
-2.01473e-12
1.86655e-12
8.21443e-14
-4.97466e-14
9.61913e-14
-5.00624e-14
1.20561e-13
-6.24899e-14
-1.45395e-11
1.24532e-11
8.59859e-14
-5.57528e-14
9.6664e-14
-5.99366e-14
1.40283e-13
-1.12307e-13
-7.19848e-11
5.75295e-11
9.13306e-14
-6.46416e-14
1.04733e-13
-7.56419e-14
2.3016e-13
-2.42192e-13
-7.17066e-10
8.43659e-10
1.16739e-13
-8.62255e-14
1.94432e-13
-1.55344e-13
1.80418e-12
-1.85639e-12
-9.11623e-10
1.25093e-09
2.2267e-13
-1.42556e-13
5.0046e-13
-4.24381e-13
7.59339e-12
-8.90998e-12
-1.64537e-10
1.3185e-09
5.41828e-13
-2.96174e-13
1.5142e-12
-1.35657e-12
2.50053e-11
-3.2269e-11
-1.07213e-10
3.88246e-10
1.1214e-12
-8.3232e-13
4.3968e-12
-3.93786e-12
6.31306e-11
-9.0306e-11
-1.09632e-10
1.90079e-10
3.20011e-12
-2.44301e-12
1.37135e-11
-1.39444e-11
2.37307e-10
-2.82812e-10
-3.20167e-10
5.503e-10
9.65578e-12
-9.08956e-12
4.34262e-11
-5.64876e-11
8.64873e-10
-9.88648e-10
-1.05093e-09
1.95496e-09
3.21791e-11
-3.59311e-11
2.06924e-10
-2.53823e-10
4.46714e-09
-5.65426e-09
-6.00488e-09
9.92602e-09
1.45021e-10
-1.63769e-10
1.16216e-09
-1.27631e-09
3.07331e-08
-1.27577e-08
-4.5673e-08
7.10425e-08
5.06346e-10
-6.15199e-10
4.02306e-09
-4.8295e-09
7.70001e-08
-3.73171e-08
-5.52931e-08
1.46171e-07
1.56797e-09
-2.00425e-09
1.1047e-08
-1.35461e-08
5.50301e-08
-3.99345e-08
3.54806e-08
-1.81538e-07
3.8053e-09
-5.16056e-09
2.36251e-08
-1.85429e-08
2.77999e-09
-1.6737e-08
3.71363e-08
-1.06926e-07
1.80856e-08
-3.01286e-08
2.20498e-08
-4.41784e-08
4.07126e-09
2.21791e-09
1.28229e-08
-1.58216e-08
2.99554e-08
-5.10959e-08
2.15496e-08
-3.51797e-08
8.61205e-09
1.56311e-08
2.497e-08
-2.10785e-09
3.1474e-08
-3.4873e-08
2.12081e-08
-2.62673e-08
7.54448e-09
1.89502e-08
3.28796e-08
7.66195e-10
2.77461e-08
-2.10487e-08
1.60903e-08
-1.54942e-08
2.9496e-11
2.48507e-08
3.35062e-08
1.19557e-09
3.06264e-08
-2.42875e-08
2.22524e-08
-1.29257e-08
6.71991e-09
4.80837e-08
4.39496e-08
7.20177e-09
5.43269e-08
-4.84309e-08
3.41229e-08
-1.17554e-08
3.70727e-08
8.12755e-08
7.52836e-08
2.1948e-08
6.65532e-08
-5.99582e-08
6.77455e-08
-2.21659e-08
3.14414e-07
2.78142e-07
5.52178e-06
4.9931e-07
5.69289e-08
-9.87996e-08
1.8063e-07
-1.34948e-07
3.876e-06
2.81301e-06
3.70415e-05
6.69088e-06
1.39827e-08
-1.90781e-07
1.72885e-07
-4.16899e-07
-2.76898e-06
5.33241e-06
4.00884e-05
-3.82331e-06
2.0117e-08
-2.15294e-07
1.70096e-07
-5.48086e-07
-4.41504e-06
1.63089e-06
1.24039e-05
-9.64508e-06
-1.75879e-07
-1.14908e-07
-4.29612e-07
-2.47538e-07
-1.78043e-06
-3.70764e-07
-6.95149e-07
-6.51196e-06
-1.40774e-07
-2.413e-08
-4.02273e-07
-5.34316e-08
-1.26794e-06
-1.49601e-07
-1.77015e-08
-2.45811e-06
-3.08899e-08
-1.86934e-09
-8.17436e-08
-4.95608e-09
-3.07641e-07
-1.06092e-08
-1.64413e-08
-4.40881e-07
-2.42534e-09
-9.06239e-11
-7.14426e-09
-2.74709e-10
-1.93414e-08
-5.80205e-10
-8.45075e-10
-5.33362e-08
-1.1573e-10
-3.53515e-12
-3.77362e-10
-1.2162e-11
-9.94686e-10
-2.69067e-11
-2.30554e-11
-3.26549e-09
-4.44105e-12
-1.11655e-13
-1.61063e-11
-4.42616e-13
-4.80015e-11
-1.04205e-12
-5.93818e-15
-1.5731e-10
-1.36733e-13
-2.03771e-15
-5.64125e-13
-1.20264e-14
-2.06475e-12
-3.35961e-14
-4.22118e-14
-5.70282e-12
-3.05782e-15
-7.2715e-17
-1.44281e-14
-2.69665e-16
-6.20577e-14
-6.33722e-16
-1.39798e-15
-2.19712e-13
-5.35106e-16
-1.87983e-18
-8.43409e-16
-5.93979e-18
-3.14279e-15
-4.57731e-18
2.08587e-16
-1.38953e-14
-2.51717e-17
-1.64426e-20
-1.42639e-16
-9.46976e-20
-7.01609e-16
1.07637e-17
1.66253e-16
-1.19731e-15
-2.556e-19
-3.58028e-18
-3.21032e-17
-1.89024e-16
4.21975e-14
-6.77907e-15
5.03231e-14
-6.8963e-15
5.40426e-14
-6.37923e-15
6.79474e-14
-3.93765e-15
3.81649e-13
-7.3346e-16
1.01239e-12
3.84332e-14
1.33017e-12
1.11631e-13
1.10132e-12
1.53565e-13
1.33819e-12
1.61558e-13
6.29428e-12
-2.0284e-13
1.51508e-11
1.00179e-12
2.89548e-11
2.53026e-12
2.99168e-09
2.76469e-10
2.43236e-07
2.84551e-08
2.78519e-07
3.72936e-08
1.72754e-07
7.21852e-08
4.62949e-08
5.11421e-08
1.23271e-08
5.80536e-08
8.17617e-09
1.52428e-08
5.93235e-09
7.50329e-09
5.68536e-09
3.46631e-09
7.51477e-09
2.12377e-09
1.46012e-07
2.17686e-08
9.00899e-05
1.11051e-05
0.000124402
6.9462e-05
0.000122482
7.25238e-05
0.000107613
6.78809e-05
1.55915e-05
4.23707e-05
1.44261e-06
5.97154e-06
3.9105e-07
2.06016e-06
9.19394e-08
7.48323e-07
1.63916e-08
2.41088e-07
2.27701e-09
5.44816e-08
2.57026e-10
9.36819e-09
2.49647e-11
1.32339e-09
1.96442e-12
1.57234e-10
1.23412e-13
1.50451e-11
9.89145e-15
1.06366e-12
3.87863e-15
5.64585e-14
3.88638e-15
5.4676e-14
-9.8896e-15
7.39277e-14
-1.09137e-14
9.93748e-14
-1.18723e-14
1.11132e-13
-1.06347e-14
1.30489e-13
-4.98381e-15
4.80409e-13
2.45844e-15
1.20821e-12
5.80424e-14
1.4524e-12
1.64655e-13
1.50239e-12
2.44673e-13
8.83103e-13
4.91323e-14
1.75636e-12
1.52363e-13
3.45842e-12
2.9855e-13
2.611e-10
2.44193e-11
2.76466e-08
2.37378e-09
2.75884e-07
2.67092e-08
3.32886e-07
5.60695e-08
3.08038e-07
1.00074e-07
1.21011e-07
9.86655e-08
2.20043e-08
6.06645e-08
1.15387e-08
1.5821e-08
7.94802e-09
7.77039e-09
7.87101e-09
4.12893e-09
2.48545e-08
6.03876e-09
7.23355e-05
1.16846e-05
0.000116871
6.94063e-05
0.00011837
7.19336e-05
0.000114161
6.90452e-05
2.04681e-05
4.1957e-05
1.3091e-06
6.32782e-06
3.37073e-07
2.26278e-06
7.00549e-08
8.30423e-07
1.10521e-08
2.61241e-07
1.39792e-09
5.71432e-08
1.45549e-10
9.55954e-09
9.00917e-12
1.32704e-09
1.92242e-13
1.52789e-10
-1.29486e-14
1.42691e-11
1.33075e-15
9.98723e-13
3.01705e-15
5.3385e-14
3.88591e-15
7.00678e-14
-1.83128e-14
1.02312e-13
-2.49919e-14
1.39915e-13
-2.59121e-14
1.67371e-13
-1.70204e-14
1.83514e-13
-7.09372e-15
2.05868e-13
-1.36635e-15
3.12076e-13
1.19583e-14
5.56338e-13
4.10485e-14
5.98987e-13
1.12913e-13
3.53253e-13
1.09776e-13
3.30963e-13
8.78055e-14
5.76274e-13
8.47403e-14
2.52243e-11
2.77347e-12
2.25286e-09
2.37915e-10
1.25114e-07
9.93271e-09
3.28041e-07
4.14663e-08
3.42156e-07
9.98218e-08
3.3454e-07
1.39502e-07
5.12385e-08
1.84259e-07
2.13519e-08
3.67765e-08
1.34437e-08
1.51163e-08
1.16269e-08
7.431e-09
1.24514e-08
5.80182e-09
7.34675e-05
1.49714e-05
0.000110364
7.16639e-05
0.000116647
7.17625e-05
0.000108524
6.83256e-05
1.85689e-05
4.01009e-05
1.20949e-06
6.45337e-06
2.81253e-07
2.38962e-06
4.07101e-08
8.80245e-07
1.93596e-09
2.61596e-07
-4.28193e-10
5.29089e-08
-1.31404e-10
8.29932e-09
-1.9948e-11
1.10017e-09
-2.23511e-12
1.24562e-10
-1.74149e-13
1.14964e-11
-7.06095e-15
8.05105e-13
1.89075e-15
4.17447e-14
3.39522e-15
1.43619e-13
-4.61432e-14
1.86711e-13
-5.26706e-14
2.00932e-13
-3.8037e-14
2.12935e-13
-2.18559e-14
3.14752e-13
-1.17277e-13
3.03148e-13
8.2106e-14
3.34095e-13
4.641e-14
3.1267e-13
1.28681e-13
2.49455e-13
1.65479e-13
1.96858e-13
1.26269e-13
1.65312e-13
8.18901e-14
1.47824e-13
4.37918e-14
2.36732e-12
4.45239e-13
2.28539e-10
2.00934e-11
1.39029e-08
1.42039e-09
3.35851e-07
4.51799e-08
3.56962e-07
1.10109e-07
3.70574e-07
1.59969e-07
1.67578e-07
1.63851e-07
2.96732e-08
9.23749e-08
1.94999e-08
2.4777e-08
1.53662e-08
1.2409e-08
1.92429e-08
8.18601e-09
7.8485e-05
2.31139e-05
0.000107361
7.30753e-05
0.000114616
7.14055e-05
0.000106675
6.74804e-05
1.83612e-05
3.69878e-05
9.16832e-07
6.15158e-06
1.32898e-07
2.37766e-06
-1.10764e-08
8.48541e-07
-7.64269e-09
2.2503e-07
-1.64446e-09
4.11934e-08
-2.52908e-10
6.10238e-09
-3.15597e-11
7.89572e-10
-3.1369e-12
8.78945e-11
-2.28195e-13
8.04083e-12
-9.87723e-15
5.68264e-13
1.08671e-15
3.03824e-14
2.65904e-15
2.51431e-13
-5.17368e-14
2.95207e-13
-6.98115e-14
3.19868e-13
-7.73405e-14
7.9239e-13
-8.80013e-13
6.92238e-12
-3.43203e-12
7.59922e-12
-5.63832e-13
7.3903e-12
1.24576e-13
7.52008e-11
2.16191e-12
6.20295e-10
6.51292e-11
6.22641e-10
3.41044e-10
1.44115e-10
4.49939e-10
6.50731e-11
7.956e-11
4.27325e-11
3.38186e-11
6.01461e-11
1.82463e-11
1.19671e-08
1.48164e-09
3.33885e-07
7.27965e-08
3.45463e-07
1.29964e-07
3.53249e-07
1.76337e-07
3.17967e-07
2.10807e-07
4.93023e-08
1.51449e-07
3.20973e-08
3.72821e-08
2.55017e-08
1.76009e-08
4.51977e-07
5.45758e-08
9.09972e-05
4.25025e-05
0.000105654
6.98337e-05
0.000113437
7.03334e-05
9.83456e-05
6.23901e-05
1.30195e-05
2.67482e-05
3.78861e-07
5.38764e-06
-5.69356e-08
2.0893e-06
-4.68994e-08
6.9774e-07
-1.11022e-08
1.62896e-07
-1.82213e-09
2.79048e-08
-2.50388e-10
4.00055e-09
-2.9374e-11
5.0743e-10
-2.78863e-12
5.56581e-11
-1.92671e-13
5.05578e-12
-4.59324e-15
3.62612e-13
5.82987e-16
2.1837e-14
1.90131e-15
3.22732e-13
-1.149e-13
6.0469e-13
-2.94322e-13
1.10663e-12
-5.82759e-13
1.33676e-11
-1.52751e-11
1.00037e-10
-9.30481e-11
1.16926e-10
-1.78866e-11
9.28446e-11
5.85549e-12
1.10238e-10
1.84429e-11
4.19084e-10
4.09466e-11
2.68664e-09
5.21188e-10
1.88439e-09
6.29202e-10
4.86509e-10
8.22637e-10
3.17495e-10
2.48097e-10
3.16819e-10
5.57126e-11
5.88173e-08
9.29945e-09
3.38759e-07
1.25002e-07
3.38289e-07
1.56713e-07
3.31078e-07
2.01569e-07
3.15889e-07
2.44365e-07
5.69874e-08
1.27322e-07
3.88274e-08
4.79146e-08
3.25798e-08
1.86029e-08
1.81709e-05
3.33464e-06
0.000101877
6.63082e-05
0.000105346
6.96967e-05
0.00011331
7.05089e-05
7.12565e-05
4.72233e-05
8.81241e-07
1.12758e-05
-4.52319e-07
3.72545e-06
-1.94574e-07
1.3124e-06
-4.01055e-08
4.50973e-07
-6.58924e-09
1.07646e-07
-1.04657e-09
1.81078e-08
-1.43023e-10
2.51317e-09
-1.64996e-11
3.10902e-10
-1.53169e-12
3.35096e-11
-9.32784e-14
3.02145e-12
-1.26627e-15
2.30784e-13
3.04988e-16
1.531e-14
1.26231e-15
1.5217e-12
-1.17257e-12
3.27562e-12
-2.01571e-12
6.88749e-12
-4.18072e-12
1.83841e-10
-2.04463e-10
1.54435e-09
-1.44981e-09
2.0329e-09
-5.21796e-10
1.72603e-09
1.48926e-10
9.66769e-10
7.20692e-10
7.68324e-10
2.63159e-10
8.34335e-10
3.27562e-10
8.02308e-09
3.70249e-09
2.72257e-09
6.86301e-09
1.16628e-09
1.81533e-09
9.4438e-10
2.67504e-10
8.56046e-08
1.42664e-08
3.15058e-07
1.19938e-07
3.1556e-07
1.81238e-07
3.03274e-07
2.36874e-07
1.96687e-07
2.25872e-07
6.27952e-08
8.41535e-08
4.00808e-08
5.05921e-08
4.99675e-07
1.23757e-07
5.13993e-05
2.76777e-05
9.5125e-05
6.93198e-05
0.000100291
6.4729e-05
8.91705e-05
5.6679e-05
2.38124e-05
1.93325e-05
-1.12879e-06
3.55679e-06
-4.18577e-07
1.75054e-06
-8.31107e-08
7.05233e-07
-1.46118e-08
2.88443e-07
-2.8156e-09
6.95362e-08
-4.72033e-10
1.07818e-08
-6.37679e-11
1.45264e-09
-7.26797e-12
1.78588e-10
-6.55983e-13
1.92652e-11
-3.41383e-14
1.77765e-12
-2.77571e-17
1.50188e-13
1.53647e-16
9.38065e-15
7.88134e-16
9.6943e-12
-9.10998e-12
1.92804e-11
-1.14338e-11
3.93922e-11
-2.35731e-11
1.98886e-09
-2.34968e-09
1.84475e-08
-1.75408e-08
2.5517e-08
-7.67068e-09
2.15374e-08
2.10299e-09
6.51185e-09
1.52443e-08
3.53121e-09
2.75382e-09
2.1846e-09
1.53908e-09
9.27963e-09
3.01744e-09
2.46334e-08
4.02801e-08
1.09453e-08
3.77948e-08
7.13583e-09
4.39886e-09
2.0085e-08
4.92397e-09
2.77081e-07
9.24812e-08
2.66663e-07
1.95126e-07
2.44782e-07
2.83352e-07
6.21902e-08
1.31322e-07
4.56131e-08
9.82371e-08
9.12422e-08
6.85214e-08
2.15725e-05
1.14443e-05
9.32728e-05
6.77375e-05
9.47026e-05
6.53512e-05
9.72547e-05
6.61151e-05
4.79252e-05
3.06868e-05
3.90884e-07
3.50691e-06
-2.80017e-07
1.7972e-06
-1.16574e-07
8.06849e-07
-2.27669e-08
4.03089e-07
-4.16444e-09
1.60663e-07
-9.71866e-10
3.52511e-08
-1.70833e-10
5.53403e-09
-2.38407e-11
7.55524e-10
-2.76862e-12
9.33802e-11
-2.45541e-13
1.01724e-11
-1.00513e-14
9.82579e-13
1.53513e-16
8.85337e-14
6.97265e-17
5.25082e-15
4.6606e-16
5.31576e-11
-4.96464e-11
8.69042e-11
-4.78619e-11
1.41785e-10
-7.89481e-11
1.08172e-08
-1.3098e-08
1.57887e-07
-8.92239e-08
4.86652e-07
-2.02156e-07
3.97155e-07
-6.10422e-08
7.64925e-08
9.15554e-08
3.86354e-08
3.20076e-08
2.00884e-08
1.99686e-08
2.06727e-08
9.75432e-09
9.1311e-08
7.62334e-08
6.06269e-08
6.37678e-08
2.31054e-08
3.90117e-08
3.69374e-08
1.74901e-08
2.06762e-07
3.06254e-08
2.03462e-07
1.05309e-07
8.23643e-08
1.04352e-07
4.35781e-08
9.84621e-08
1.77624e-07
1.90477e-07
9.99796e-06
5.95648e-06
6.97374e-05
5.88053e-05
8.32757e-05
6.22702e-05
8.51154e-05
6.15424e-05
5.95267e-05
4.067e-05
4.04446e-06
5.62981e-06
5.37162e-08
1.94324e-06
-7.20614e-08
9.0084e-07
-2.58078e-08
3.78911e-07
-3.64894e-09
2.02193e-07
-6.81253e-10
7.28274e-08
-2.0076e-10
1.62299e-08
-4.32036e-11
2.60422e-09
-6.70849e-12
3.62281e-10
-8.21972e-13
4.52334e-11
-7.08168e-14
5.02831e-12
-1.76011e-15
5.20727e-13
9.04743e-17
4.71567e-14
2.80064e-17
3.2763e-15
2.63739e-16
2.73632e-10
-4.73576e-10
4.18545e-10
-2.02643e-10
6.17166e-10
-2.88553e-10
1.35352e-07
-1.47915e-07
8.09469e-07
-2.05067e-07
8.74519e-07
-1.85681e-07
8.9179e-07
-5.5797e-08
9.13955e-08
5.97466e-08
5.63535e-08
5.40985e-08
2.4107e-08
4.41113e-08
4.94328e-08
4.95679e-08
8.49546e-08
7.84805e-08
7.75957e-08
8.0648e-08
2.78436e-08
6.34291e-08
2.56616e-08
4.00444e-08
3.94659e-08
4.2629e-08
5.58659e-08
5.97911e-08
6.54565e-08
9.67835e-08
1.58995e-07
2.06171e-07
5.20028e-06
3.9518e-06
5.5458e-05
4.89555e-05
6.86133e-05
5.92148e-05
7.68355e-05
6.01308e-05
6.29665e-05
4.60023e-05
1.27364e-05
1.009e-05
3.58921e-07
1.94178e-06
4.57186e-08
9.42181e-07
-2.21043e-08
4.12784e-07
-2.8125e-09
1.72243e-07
-2.26411e-09
7.67468e-08
-1.22479e-09
2.7972e-08
-9.32739e-11
6.42379e-09
-1.43821e-12
1.08948e-09
-8.02097e-13
1.58165e-10
-1.34367e-13
2.02453e-11
-1.16949e-14
2.35561e-12
-2.05233e-17
2.63809e-13
2.48321e-17
2.30527e-14
6.72261e-18
1.96015e-15
1.43036e-16
1.66057e-09
-1.89192e-09
1.52473e-09
-7.15594e-10
1.70527e-09
-5.087e-10
5.82239e-07
-1.24842e-07
5.80148e-07
-1.20694e-07
5.72721e-07
-1.07937e-07
5.41077e-08
-7.42895e-08
1.43958e-08
6.94504e-09
3.01918e-08
4.18399e-08
5.0901e-08
6.95843e-08
7.31056e-08
8.03926e-08
7.40642e-08
8.52798e-08
6.79113e-08
8.97136e-08
5.02415e-08
8.9471e-08
1.9258e-08
5.98072e-08
2.14956e-08
5.47402e-08
3.12961e-08
6.57613e-08
5.11609e-08
8.68488e-08
3.58257e-06
3.98191e-06
4.64702e-05
4.32537e-05
6.18505e-05
5.63779e-05
6.85172e-05
5.57294e-05
6.43519e-05
5.02259e-05
2.0701e-05
1.51318e-05
6.64889e-07
1.52545e-06
1.53953e-07
8.51819e-07
2.33773e-08
3.95161e-07
-1.63774e-09
1.7831e-07
-9.51229e-09
8.44044e-08
-6.55359e-09
2.92741e-08
-1.38427e-09
7.84184e-09
-1.76166e-10
2.2052e-09
-1.71162e-11
3.99196e-10
-1.38024e-12
5.96703e-11
-8.8191e-14
8.14905e-12
-3.62506e-15
1.04905e-12
-7.05022e-17
1.26059e-13
-2.0188e-18
1.04979e-14
-8.49835e-20
1.4141e-15
7.48741e-17
2.55034e-09
-1.73876e-09
2.91049e-09
-1.20081e-09
2.81098e-09
-5.03956e-10
6.29018e-07
-5.63956e-08
5.2061e-07
-1.16964e-08
4.99809e-07
-1.61662e-08
3.29434e-08
-3.8514e-08
1.63703e-08
5.44238e-09
3.88644e-08
2.14227e-08
5.30831e-08
6.83386e-08
5.63398e-08
8.36347e-08
5.35707e-08
9.32581e-08
4.4569e-08
1.02931e-07
1.2861e-08
6.18818e-08
9.53161e-09
6.21041e-08
2.10673e-08
5.33804e-08
3.25392e-08
6.3841e-08
4.62436e-06
7.08765e-06
4.50992e-05
4.51989e-05
5.48299e-05
5.37423e-05
6.1478e-05
5.36113e-05
5.65613e-05
4.68614e-05
2.2234e-05
1.61045e-05
9.37669e-07
1.05305e-06
2.75913e-07
5.86315e-07
6.13808e-08
3.19404e-07
4.97609e-09
1.70529e-07
-1.55119e-08
9.32401e-08
-1.13831e-08
4.09972e-08
-3.83777e-09
1.36319e-08
-7.55004e-10
3.53363e-09
-1.11821e-10
6.87821e-10
-1.31987e-11
1.39422e-10
-1.33374e-12
2.21364e-11
-1.11042e-13
3.20396e-12
-6.03397e-15
4.62498e-13
-1.95364e-16
5.71229e-14
-1.01041e-17
4.71899e-15
-1.95761e-19
7.81407e-16
3.86629e-17
2.30092e-09
-1.24418e-09
3.31694e-09
-1.16875e-09
3.31397e-09
-5.49021e-10
5.7081e-07
2.42456e-09
5.32531e-07
7.88243e-08
4.43321e-07
7.06279e-08
2.10729e-08
-5.5873e-09
8.58282e-10
8.18424e-09
3.19566e-08
2.60882e-08
3.80303e-08
6.86359e-08
3.64764e-08
9.04654e-08
2.36159e-08
8.66779e-08
9.59268e-09
7.01992e-08
9.49485e-09
6.64943e-08
1.66779e-08
6.16115e-08
2.70725e-08
5.00625e-08
8.07451e-06
1.29515e-05
4.74167e-05
4.85715e-05
4.85821e-05
5.23685e-05
5.48448e-05
5.2972e-05
4.82136e-05
4.22115e-05
1.82481e-05
1.36905e-05
1.1129e-06
6.88325e-07
3.54754e-07
3.98668e-07
8.62782e-08
2.29358e-07
8.66795e-09
1.31324e-07
-2.34131e-08
9.08854e-08
-1.63929e-08
4.56205e-08
-6.30515e-09
1.78379e-08
-1.81353e-09
5.74852e-09
-3.85964e-10
1.41973e-09
-5.43635e-11
2.75678e-10
-6.91616e-12
4.60737e-11
-7.49921e-13
7.87271e-12
-6.37438e-14
1.2861e-12
-3.38512e-15
2.09873e-13
-1.66147e-16
2.54264e-14
-7.86338e-18
2.75778e-15
-1.6792e-19
4.22463e-16
1.9655e-17
1.71505e-09
-3.49516e-10
1.58923e-09
-3.04475e-10
3.60364e-09
-1.95482e-09
8.36251e-08
7.68306e-09
6.23814e-07
9.76965e-08
2.86782e-07
7.15977e-08
2.45216e-08
8.45855e-09
1.76075e-08
1.2723e-08
1.8712e-08
2.68417e-08
2.11698e-08
6.29646e-08
8.95721e-09
5.63272e-08
5.12163e-09
6.56741e-08
5.71851e-09
6.37897e-08
1.51477e-08
5.91696e-08
8.80494e-08
4.07424e-07
1.45023e-05
2.17794e-05
4.30253e-05
4.46992e-05
4.3394e-05
5.04144e-05
4.86722e-05
5.09735e-05
3.73675e-05
3.36504e-05
1.18788e-05
8.65905e-06
1.11327e-06
3.17399e-07
3.76651e-07
2.66031e-07
8.72002e-08
1.8681e-07
6.91549e-09
1.03036e-07
-2.98972e-08
7.52182e-08
-2.06389e-08
4.2952e-08
-8.72253e-09
1.98175e-08
-2.87351e-09
7.3062e-09
-7.43228e-10
2.21559e-09
-1.48517e-10
5.54032e-10
-2.45758e-11
1.06463e-10
-3.06271e-12
1.6649e-11
-3.42225e-13
2.90782e-12
-2.83393e-14
5.56317e-13
-1.57423e-15
9.56857e-14
-8.91014e-17
1.1106e-14
-4.35798e-18
1.74024e-15
-1.1322e-19
2.23605e-16
9.82098e-18
3.01252e-10
-3.21218e-10
9.86257e-10
-7.59181e-10
4.65753e-08
1.77052e-09
3.19079e-07
2.40739e-07
1.83168e-07
1.8138e-07
2.6219e-08
1.13809e-08
2.08789e-08
9.0687e-09
1.91771e-08
1.64317e-08
1.03386e-08
3.04297e-08
5.83931e-09
4.44087e-08
2.32474e-09
5.71766e-08
5.22941e-09
6.00699e-08
1.46409e-08
5.14702e-08
1.20375e-06
2.48853e-06
2.29976e-05
3.06162e-05
3.44202e-05
3.9891e-05
3.87092e-05
3.53698e-05
4.12785e-05
4.51e-05
2.54756e-05
2.23285e-05
4.94615e-06
2.10843e-06
1.03891e-06
6.80917e-08
3.30521e-07
1.66483e-07
7.011e-08
1.42821e-07
1.12865e-09
9.20608e-08
-3.2839e-08
6.04693e-08
-2.2311e-08
3.50832e-08
-1.04006e-08
1.7958e-08
-3.85664e-09
7.83606e-09
-1.19543e-09
2.78923e-09
-2.99059e-10
8.28162e-10
-5.92048e-11
2.04122e-10
-9.48808e-12
4.07047e-11
-1.26293e-12
6.48139e-12
-1.3855e-13
1.16904e-12
-1.12869e-14
2.54056e-13
-7.01186e-16
4.24147e-14
-6.84883e-17
4.84316e-15
-2.4636e-18
1.16217e-15
-6.7502e-20
1.15937e-16
4.81675e-18
1.44859e-09
-9.89342e-10
1.25687e-08
-1.16836e-08
4.46203e-07
2.05224e-07
4.10734e-07
3.64348e-07
4.88717e-08
1.83708e-07
3.00426e-08
2.13154e-08
2.23362e-08
1.73246e-08
1.54491e-08
2.61927e-08
8.7252e-09
3.95025e-08
4.85019e-09
5.03786e-08
7.06448e-09
5.62367e-08
1.49454e-08
5.05366e-08
2.81971e-06
5.7244e-06
2.49796e-05
3.41498e-05
2.48115e-05
3.75083e-05
2.99025e-05
3.77837e-05
2.29227e-05
1.88419e-05
1.11874e-05
6.45054e-06
2.10094e-06
-1.00575e-08
8.89166e-07
9.44985e-08
2.48777e-07
1.29709e-07
4.08495e-08
1.06458e-07
-1.97638e-08
7.81944e-08
-3.29002e-08
4.83776e-08
-2.11502e-08
2.71411e-08
-1.05881e-08
1.4236e-08
-4.36257e-09
6.8421e-09
-1.53188e-09
2.91067e-09
-4.63093e-10
1.0196e-09
-1.14754e-10
3.02122e-10
-2.26909e-11
7.32069e-11
-3.59171e-12
1.46806e-11
-4.85017e-13
2.51898e-12
-5.24863e-14
5.12029e-13
-4.41731e-15
1.16704e-13
-3.31079e-16
1.7981e-14
-3.65118e-17
2.185e-15
-1.45375e-18
6.02983e-16
-3.71879e-20
5.89012e-17
2.31622e-18
6.73761e-09
-5.60191e-09
2.26546e-07
2.63494e-08
4.29716e-07
3.6719e-07
5.49722e-07
3.7772e-07
5.2414e-08
8.07044e-08
4.02936e-08
3.68049e-08
2.74922e-08
3.28873e-08
1.66419e-08
3.89682e-08
1.09818e-08
4.6122e-08
1.01413e-08
5.04933e-08
1.58667e-08
5.03e-08
3.76367e-06
8.00399e-06
2.12104e-05
3.23807e-05
2.21188e-05
3.27865e-05
2.15824e-05
2.9604e-05
1.22059e-05
1.01598e-05
2.36884e-06
5.25965e-07
1.36642e-06
9.67339e-08
5.4289e-07
8.68244e-08
1.33422e-07
1.13159e-07
1.17303e-08
8.49686e-08
-3.29291e-08
5.97879e-08
-3.04756e-08
3.69612e-08
-1.84575e-08
2.05127e-08
-9.44075e-09
1.05791e-08
-4.2327e-09
5.25579e-09
-1.65772e-09
2.45514e-09
-5.71201e-10
1.03625e-09
-1.70823e-10
3.61367e-10
-4.24613e-11
1.06394e-10
-8.33942e-12
2.56901e-11
-1.31933e-12
5.22039e-12
-1.76193e-13
9.32299e-13
-1.9019e-14
2.38446e-13
-1.77392e-15
5.11743e-14
-1.49371e-16
7.33495e-15
-1.44694e-17
1.5708e-15
-8.07917e-19
3.06224e-16
-1.93208e-20
2.93224e-17
1.09098e-18
5.81011e-08
-5.37189e-08
2.31963e-07
4.15945e-07
3.82646e-07
3.90237e-07
2.57864e-07
7.79485e-08
6.22412e-10
3.82462e-09
5.86421e-08
1.96982e-09
3.32241e-08
5.81738e-08
1.98923e-08
5.41775e-08
1.47115e-08
4.94559e-08
1.63451e-08
4.88107e-08
4.43353e-06
1.02414e-05
1.69149e-05
2.93243e-05
1.72484e-05
3.14908e-05
1.83639e-05
3.01576e-05
5.62693e-06
7.35844e-06
9.55402e-07
5.74444e-07
5.47721e-07
1.60559e-07
1.97003e-07
9.11605e-08
4.26522e-08
6.74017e-08
-1.90746e-08
5.94534e-08
-3.49814e-08
4.2138e-08
-2.58043e-08
2.61631e-08
-1.50711e-08
1.46476e-08
-7.70249e-09
7.59804e-09
-3.60032e-09
3.76685e-09
-1.54507e-09
1.83161e-09
-5.95674e-10
8.48728e-10
-2.04338e-10
3.57488e-10
-6.08092e-11
1.24989e-10
-1.50821e-11
3.66432e-11
-2.94679e-12
8.87715e-12
-4.63869e-13
1.84895e-12
-6.04689e-14
3.85863e-13
-7.025e-15
1.10049e-13
-7.00025e-16
2.1031e-14
-1.02262e-16
2.88198e-15
-6.82223e-18
9.94709e-16
-4.2805e-19
1.52036e-16
-9.57414e-21
1.43026e-17
5.0294e-19
1.8903e-07
2.73617e-07
9.2014e-08
5.52588e-07
1.1046e-07
3.68841e-08
2.14905e-08
-1.90431e-08
4.02408e-08
-6.81854e-10
5.35223e-08
8.40275e-09
1.38754e-07
8.95389e-07
2.79792e-08
1.6579e-07
1.78681e-08
5.54531e-08
4.81087e-06
1.38372e-05
1.35826e-05
3.14496e-05
1.53189e-05
3.08896e-05
1.56814e-05
2.95572e-05
6.14185e-06
1.06726e-05
3.1917e-07
8.59188e-07
1.73657e-07
1.88605e-07
5.48857e-08
7.51372e-08
1.15703e-09
4.7686e-08
-2.96582e-08
3.54973e-08
-2.92146e-08
2.6356e-08
-1.99693e-08
1.71027e-08
-1.14258e-08
9.80098e-09
-5.8624e-09
5.18612e-09
-2.79639e-09
2.6042e-09
-1.26418e-09
1.27393e-09
-5.36173e-10
6.17094e-10
-2.06527e-10
2.86088e-10
-7.08255e-11
1.20721e-10
-2.09823e-11
4.23489e-11
-5.17192e-12
1.23706e-11
-9.9549e-13
3.034e-12
-1.55155e-13
6.59243e-13
-2.07872e-14
1.82936e-13
-2.68254e-15
4.66283e-14
-2.66442e-16
8.12783e-15
-3.83646e-17
2.0244e-15
-3.52588e-18
4.97903e-16
-2.1781e-19
7.37959e-17
-4.55646e-21
6.83467e-18
2.26771e-19
-5.1243e-08
5.42352e-07
-3.48848e-10
5.41688e-07
-3.09198e-09
-1.05533e-08
2.25152e-08
-2.63095e-08
3.93982e-08
-4.36509e-09
4.30575e-08
1.23827e-08
1.92534e-06
3.20654e-06
2.86319e-06
1.69704e-05
1.02151e-05
2.92274e-05
1.30136e-05
3.33816e-05
1.35944e-05
3.23122e-05
1.485e-05
3.13326e-05
8.32661e-06
1.76598e-05
6.68302e-08
8.84897e-07
1.63699e-08
3.2475e-07
1.09171e-08
7.63441e-08
-1.69973e-08
4.03598e-08
-2.43816e-08
2.27898e-08
-2.04253e-08
1.50015e-08
-1.39084e-08
1.01333e-08
-8.04095e-09
6.13603e-09
-4.17866e-09
3.3499e-09
-2.03302e-09
1.72215e-09
-9.46353e-10
8.55184e-10
-4.24785e-10
4.18455e-10
-1.80371e-10
2.03441e-10
-6.97195e-11
9.46434e-11
-2.38969e-11
4.01313e-11
-7.02009e-12
1.41043e-11
-1.69938e-12
4.06427e-12
-3.19169e-13
1.04261e-12
-4.98562e-14
2.66102e-13
-7.48261e-15
8.39736e-14
-9.59703e-16
1.82446e-14
-1.87045e-16
3.16371e-15
-1.63404e-17
1.30332e-15
-1.75578e-18
2.43196e-16
-1.06958e-19
3.5018e-17
-2.09229e-21
3.19917e-18
9.99493e-20
-2.67142e-07
6.60093e-07
-2.06557e-08
1.32398e-07
-4.94749e-09
-1.57191e-08
3.8092e-09
-2.12628e-08
2.54377e-08
-7.96804e-09
3.63724e-08
1.19433e-08
5.74559e-06
2.77543e-06
1.19417e-05
2.67201e-05
1.13866e-05
3.32519e-05
1.26253e-05
3.41906e-05
1.36761e-05
3.28847e-05
1.14635e-05
2.54895e-05
3.10883e-07
2.10508e-06
-2.84555e-08
3.57411e-07
7.68125e-10
1.13097e-07
-2.17321e-08
4.49661e-08
-1.79049e-08
1.86922e-08
-1.2976e-08
9.47661e-09
-8.72994e-09
5.68086e-09
-5.23382e-09
3.55469e-09
-2.8033e-09
2.04833e-09
-1.39598e-09
1.08698e-09
-6.66274e-10
5.52063e-10
-3.08953e-10
2.74092e-10
-1.39068e-10
1.34908e-10
-5.92891e-11
6.60337e-11
-2.29739e-11
3.08347e-11
-7.83707e-12
1.31376e-11
-2.26454e-12
4.60506e-12
-5.22906e-13
1.37946e-12
-9.94454e-14
3.64989e-13
-1.66577e-14
1.23728e-13
-2.72439e-15
3.31404e-14
-4.86597e-16
6.74564e-15
-8.29531e-17
1.69552e-15
-8.07383e-18
6.39076e-16
-8.45231e-19
1.15916e-16
-5.08549e-20
1.62449e-17
-9.30087e-22
1.46661e-18
4.30403e-20
-1.61997e-07
2.55572e-08
-4.60815e-08
-8.26034e-09
-2.5837e-08
-1.25242e-08
-1.426e-08
-2.3276e-08
3.47429e-10
-2.02986e-08
3.84336e-08
2.49737e-09
2.97219e-06
1.22791e-06
6.82634e-06
1.36018e-05
1.02783e-05
3.09554e-05
1.19015e-05
3.4434e-05
9.88054e-06
2.60201e-05
9.13248e-07
3.47813e-06
-3.09537e-08
4.02375e-07
-2.2285e-08
1.92505e-07
-2.77339e-08
6.67543e-08
-1.47481e-08
2.0437e-08
-8.57958e-09
7.44441e-09
-5.26693e-09
3.49356e-09
-3.17394e-09
1.96859e-09
-1.77292e-09
1.16928e-09
-9.12753e-10
6.53283e-10
-4.46516e-10
3.41861e-10
-2.12257e-10
1.73168e-10
-9.87394e-11
8.64337e-11
-4.4633e-11
4.29195e-11
-1.907e-11
2.11747e-11
-7.36216e-12
9.90952e-12
-2.47737e-12
4.22192e-12
-6.91129e-13
1.50544e-12
-1.57297e-13
4.80142e-13
-3.14606e-14
1.59597e-13
-5.85419e-15
5.34065e-14
-9.60648e-16
1.21705e-14
-2.31437e-16
2.59924e-15
-2.74111e-17
1.30636e-15
-3.86038e-18
3.05102e-16
-3.94291e-19
5.39178e-17
-2.34668e-20
7.36729e-18
-4.01246e-22
6.58414e-19
1.80999e-20
-2.58242e-08
7.81676e-10
-3.56222e-08
2.52958e-09
-3.35044e-08
-2.36465e-09
-4.32526e-08
-2.30051e-08
-1.78916e-08
-4.6462e-08
4.06344e-08
-4.99479e-08
1.33792e-08
1.36675e-07
3.08697e-06
3.30778e-07
6.91523e-06
8.26478e-06
4.22606e-06
9.64366e-06
4.6511e-07
1.92364e-06
8.88005e-09
6.77938e-07
-9.27979e-08
3.03052e-07
-4.33954e-08
1.01689e-07
-1.6124e-08
2.76565e-08
-6.69361e-09
7.52224e-09
-3.36267e-09
2.58843e-09
-1.87763e-09
1.1676e-09
-1.06001e-09
6.35823e-10
-5.6852e-10
3.66708e-10
-2.86976e-10
2.01695e-10
-1.3951e-10
1.05101e-10
-6.63855e-11
5.34464e-11
-3.09954e-11
2.69044e-11
-1.40251e-11
1.35211e-11
-5.96686e-12
6.70112e-12
-2.26645e-12
3.12958e-12
-7.43388e-13
1.3476e-12
-1.9939e-13
5.19309e-13
-4.93715e-14
1.84331e-13
-1.06934e-14
7.33901e-14
-2.05119e-15
1.92445e-14
-3.27714e-16
4.34436e-15
-7.64018e-17
1.78551e-15
-1.2999e-17
6.20095e-16
-1.78923e-18
1.41875e-16
-1.78538e-19
2.44774e-17
-1.05277e-20
3.26631e-18
-1.68292e-22
2.89443e-19
7.43024e-21
-1.26064e-08
2.40836e-08
-2.57634e-08
2.73073e-08
-2.8423e-08
1.12872e-08
-6.58345e-08
-6.44787e-09
-1.07616e-07
-2.423e-08
-1.27364e-07
-5.1666e-08
-2.10382e-07
-5.79162e-08
-1.21522e-06
-1.06566e-07
-8.56084e-07
-3.14999e-07
-6.29842e-07
5.89269e-07
-3.93812e-07
6.69218e-07
-2.12346e-07
3.29802e-07
-7.65339e-08
1.1779e-07
-2.22385e-08
3.51522e-08
-6.67687e-09
8.80126e-09
-2.49518e-09
2.33552e-09
-1.16574e-09
7.98904e-10
-6.17343e-10
3.58579e-10
-3.35825e-10
1.93642e-10
-1.76194e-10
1.10517e-10
-8.81215e-11
6.05918e-11
-4.27619e-11
3.16624e-11
-2.03722e-11
1.62695e-11
-9.50301e-12
8.25209e-12
-4.27757e-12
4.22576e-12
-1.78786e-12
2.07853e-12
-6.62814e-13
1.03195e-12
-2.11659e-13
4.64794e-13
-6.10899e-14
1.88008e-13
-1.63788e-14
7.96902e-14
-3.63854e-15
2.68808e-14
-6.91464e-16
6.64731e-15
-2.12005e-16
1.82406e-15
-3.21693e-17
1.06571e-15
-5.97493e-18
2.8729e-16
-8.04885e-19
6.42836e-17
-7.85661e-20
1.08464e-17
-4.59777e-21
1.41571e-18
-6.8675e-23
1.24594e-19
2.97632e-21
9.01299e-10
4.16671e-08
-7.05847e-09
4.63365e-08
-2.10752e-08
3.07797e-08
-6.26376e-08
1.42919e-08
-7.7839e-08
-2.87334e-08
-9.26499e-08
-2.57327e-08
-3.63689e-07
-2.88153e-08
-6.96053e-07
-1.47064e-08
-1.05986e-06
-9.04528e-08
-7.46943e-07
9.61371e-08
-3.25473e-07
1.36148e-07
-1.07496e-07
7.85031e-08
-3.0435e-08
2.9952e-08
-7.82591e-09
9.08498e-09
-2.22325e-09
2.3123e-09
-8.06673e-10
6.30309e-10
-3.67762e-10
2.22634e-10
-1.90632e-10
1.02489e-10
-1.01977e-10
5.6097e-11
-5.2975e-11
3.21483e-11
-2.64017e-11
1.77785e-11
-1.27822e-11
9.34765e-12
-6.07847e-12
4.88579e-12
-2.80181e-12
2.4668e-12
-1.24862e-12
1.33351e-12
-5.08198e-13
7.09994e-13
-1.90906e-13
3.59154e-13
-6.37912e-14
1.70845e-13
-2.0337e-14
7.82996e-14
-5.52169e-15
3.1415e-14
-1.20778e-15
9.07731e-15
-2.78447e-16
2.79203e-15
-7.56944e-17