/*--------------------------------*- C++ -*----------------------------------*\
| =========                 |                                                 |
| \\      /  F ield         | OpenFOAM: The Open Source CFD Toolbox           |
|  \\    /   O peration     | Version:  3.0.1                                 |
|   \\  /    A nd           | Web:      www.OpenFOAM.org                      |
|    \\/     M anipulation  |                                                 |
\*---------------------------------------------------------------------------*/
FoamFile
{
    version     2.0;
    format      ascii;
    class       volScalarField;
    location    "9.1";
    object      k_0;
}
// * * * * * * * * * * * * * * * * * * * * * * * * * * * * * * * * * * * * * //

dimensions      [0 2 -2 0 0 0 0];

internalField   nonuniform List<scalar> 
7968
(
0.000200742753027
0.00024418184164
0.000277778950021
0.000298240067814
0.000308658296939
0.000311717232229
0.000310368973842
0.00030602740111
0.000300816523271
0.000296492025256
0.000295338253759
0.00029877385865
0.000303680745065
0.000308000192426
0.000309546964404
0.000306708332645
0.000296748753176
0.000276748774489
0.000243538801514
0.000200391999406
0.000244320122039
0.000382912525535
0.00046930622184
0.0005148491939
0.000532518914077
0.000532133710112
0.000522680794134
0.000509178127767
0.00049669959952
0.000488808282252
0.000487510764142
0.000493573797983
0.000504914973216
0.00051795070333
0.000527430837144
0.000527961851268
0.000510991352499
0.000466380109137
0.000381053989773
0.000243367545354
0.000278001751561
0.000469112543044
0.00058401894092
0.000643455941782
0.000665914791075
0.000664884532493
0.000651899623495
0.000634772471808
0.000619651414776
0.000610379925376
0.000608876502869
0.000615910049624
0.000629575819063
0.000646051801325
0.000658935397429
0.000660202020177
0.000638501488799
0.000580209698467
0.000466654244734
0.000276570929753
0.000298433699313
0.000514469177479
0.000643226534918
0.000708867965272
0.000732486509066
0.000730024051398
0.000714905358244
0.000696697343885
0.000683743827568
0.000675855958284
0.000674491676386
0.000680334203351
0.000691639494537
0.000708405890819
0.000723291691577
0.000726017523103
0.000703213630705
0.000638814055137
0.000511526828433
0.000296602925861
0.000308794057193
0.000532027934786
0.000665571299669
0.000732353878604
0.000754477095357
0.000756056928954
0.000752325681145
0.000742220097223
0.000731239642236
0.000723658071659
0.000722187716186
0.000727662783556
0.000737394394112
0.000747134468501
0.000750742777652
0.000747622875591
0.00072618649386
0.000660654545602
0.000528605211531
0.000306599042813
0.000311862872682
0.000531740979201
0.000664593098853
0.000729856884764
0.000755836794211
0.000770757352156
0.00077207623624
0.000763999967767
0.000753102869726
0.000744999911835
0.000743299254602
0.000749048028046
0.000758787814
0.000766798054116
0.000765892311363
0.000750989875178
0.000723496368067
0.000659344973745
0.000527966357955
0.000309413638922
0.000310497840237
0.000522419160496
0.000651761603522
0.000714811385755
0.000752061104452
0.000772010365567
0.000774607251648
0.000765748812416
0.000753169985423
0.00074358827105
0.000741543355265
0.000748370763368
0.000759708564793
0.000768675717808
0.000766884730138
0.000747448265907
0.000708529230674
0.000646313725506
0.000518392647204
0.00030791551916
0.000306200143852
0.000509275393359
0.000635100302118
0.000696933435347
0.000742274298313
0.000764308042178
0.000766197548472
0.000754861157952
0.00073907870737
0.000727146851809
0.000724662836333
0.000733302311082
0.000747687885572
0.000759277686969
0.000758522770762
0.000737466546305
0.000691872391079
0.000629397004396
0.000505039140402
0.000303587564814
0.000301139940633
0.000497472738493
0.000620875123407
0.000684326578585
0.000732026150998
0.000754370598787
0.00075477150871
0.000740370887646
0.000721080429696
0.000705936296496
0.000702849558383
0.000714180115917
0.000732012820021
0.000746780682204
0.000747815188205
0.000726943018184
0.000679891061261
0.000614831498901
0.000493024250566
0.000298526774134
0.000297176060762
0.000490507582525
0.00061281560168
0.000677464773762
0.000725632454961
0.000747699329116
0.000746915117792
0.000730450400912
0.000708254573198
0.000690087470363
0.000686392291743
0.00070039958878
0.000721246170407
0.000738156737588
0.000740563074523
0.000720182835369
0.000672877264947
0.000606468691382
0.000485871422864
0.000294508582527
0.000297031333747
0.000490373802864
0.000612712022946
0.000677372977429
0.000725566930643
0.000747662953477
0.000746905996283
0.000730463419236
0.00070828168841
0.000690119301362
0.000686427337687
0.000700436823498
0.000721273764066
0.000738163550226
0.000740540289129
0.000720122794995
0.000672774918262
0.00060632671047
0.000485680566146
0.000294309028023
0.00030083680837
0.000497114936068
0.000620575588262
0.000684070223546
0.000731837026656
0.000754256018288
0.000754726885577
0.000740383175043
0.000721133513072
0.000706010772691
0.00070293307764
0.000714260681257
0.000732061766909
0.000746778598809
0.000747740665267
0.000726777409264
0.000679622667242
0.00061446947411
0.000492557772241
0.000298123768574
0.000305802485795
0.000508719890511
0.000634585383195
0.000696546212848
0.000741935885807
0.000764067490238
0.000766053910225
0.000754797608491
0.00073907676571
0.000727186843197
0.000724716305618
0.000733339278278
0.000747674070674
0.000759195668325
0.000758344874785
0.000737169668866
0.000691444442209
0.000628841727492
0.000504374891174
0.000303079899086
0.000310064746601
0.00052171672463
0.000651048775363
0.000714206741926
0.000751547024334
0.000771616011221
0.0007743250192
0.000765563039503
0.000753059892554
0.000743526133803
0.00074149375347
0.000748293942302
0.000759574621643
0.000768462238394
0.000766565071766
0.000747000324154
0.000707993121886
0.000645589900597
0.00051760184893
0.000307377289147
0.000311450420295
0.000530956747618
0.000663732631621
0.000729062301105
0.000755158422195
0.000770219955838
0.00077165711876
0.000763681964932
0.000752871027845
0.000744822212692
0.000743132050298
0.000748842945646
0.000758512210525
0.000766437377433
0.000765420787827
0.000750374549842
0.000722769973482
0.000658476726601
0.000527106293647
0.000308909036641
0.000308429714585
0.000531210674168
0.000664635825134
0.000731443634747
0.000753630429663
0.000755392680805
0.000751779728445
0.000741772824457
0.000730894841628
0.000723367360892
0.000721901952679
0.000727331335423
0.00073697301828
0.000746618287477
0.000750117345057
0.000746849548478
0.000725299087315
0.000659681143244
0.000527700121927
0.000306154797426
0.000298161544666
0.000513736836363
0.000642333543369
0.000707961156339
0.000731613139883
0.000729203898714
0.00071416061968
0.000696085578076
0.000683281851994
0.000675442333811
0.000674072323584
0.000679862950613
0.000691049003953
0.00070765205949
0.000722470787889
0.000725128486505
0.000702261491198
0.000637842849667
0.000510692891075
0.000296273204249
0.000277823642654
0.000468530602671
0.000583274184503
0.000642663826842
0.000665117587319
0.000664108327344
0.000651163139102
0.000634080821086
0.000618984936065
0.000609711264868
0.000608182347475
0.000615180334044
0.000628799203271
0.000645236493027
0.000658085254085
0.000659321086485
0.000637617864105
0.000579364277663
0.000465973612466
0.000276360605379
0.000244240337596
0.000382560732229
0.000468826620222
0.000514296564082
0.000531896946705
0.000531470471849
0.000522009160469
0.000508507862224
0.000496007805556
0.000488078427493
0.000486738155647
0.000492780253683
0.00050410972083
0.000517149925877
0.000526653426268
0.000527226492498
0.000510333351467
0.000465801854096
0.000380625705003
0.000243269701707
0.000200722023714
0.000244099528515
0.000277625149221
0.00029801165087
0.000308344687582
0.000311325488352
0.000309921998913
0.000305535698598
0.000300277307682
0.000295905044995
0.000294702317514
0.000298131118899
0.000303052819551
0.000307409951197
0.000309021290328
0.000306273465999
0.000296421533549
0.000276513948142
0.000243391077928
0.000200341651254
0.000240274190388
0.000345123799477
0.000423270900964
0.000472531181203
0.000499456159047
0.000510454145459
0.000511388184987
0.000506763295612
0.000500810082078
0.000496534394949
0.000495576766337
0.000498473067919
0.000503632407824
0.000508003345429
0.000507221635486
0.000496591653112
0.000470297882797
0.000421746098964
0.000344174039949
0.000239582148437
0.000345621651817
0.000667797859805
0.000848342926065
0.000949833970308
0.00099767489794
0.0010109275747
0.00100483333238
0.000989957603439
0.000974694465512
0.000964761643752
0.000963156559144
0.000970634106601
0.000984308571246
0.000998422411178
0.00100433149132
0.000991142693884
0.000943927727565
0.000843515378392
0.000664487511516
0.000343573824526
0.000423920863722
0.00084814396615
0.00108595391266
0.0012222944771
0.00129004927529
0.00131266374095
0.0013092519929
0.00129376385728
0.00127624378135
0.00126430235044
0.00126223149383
0.00127096623632
0.00128655235764
0.00130122715591
0.00130441611148
0.0012820449458
0.00121502756996
0.00107991453294
0.000843880844743
0.000421017862588
0.000473143626043
0.00094953102983
0.00122213882335
0.00138143879117
0.00146470458694
0.00149790977218
0.00150287507783
0.00149418730629
0.0014784425375
0.00146671478617
0.00146430020569
0.00147229322282
0.00148604892261
0.0014946166288
0.00148881184467
0.00145600185474
0.00137349945216
0.00121538266912
0.000944552730608
0.000469637997458
0.000500012851279
0.000997424308597
0.00128983467147
0.00146454351215
0.00156086271121
0.00160642725151
0.00161235692793
0.00159988765216
0.00158237701003
0.00156954334895
0.00156662643019
0.00157485761664
0.00158974235066
0.00160155047195
0.00159616253316
0.00155224689013
0.00145633424921
0.00128262397455
0.000991842618263
0.00049601844836
0.000511026501818
0.00101090295043
0.00131249044671
0.00149759281504
0.00160632303855
0.00165050733044
0.00165464321459
0.00163841255418
0.00161738220511
0.00160225131778
0.00159866105172
0.00160808146337
0.00162581575923
0.00164140884923
0.00163853884227
0.00159631467384
0.00148937182792
0.00130503547965
0.00100487281658
0.000506669558679
0.000512022193367
0.00100508772867
0.00130926549973
0.00150246819403
0.00161252584195
0.00165510561946
0.00165548897401
0.00163369742783
0.00160720263164
0.00158850406046
0.00158413814749
0.00159586297132
0.00161828614174
0.00163937609809
0.0016409345299
0.0016013895518
0.00149524513494
0.00130165841809
0.000998707398686
0.000507432674671
0.00050760886699
0.000990779233289
0.00129446026892
0.00149475198206
0.00160134540334
0.00164055920569
0.0016356667329
0.00160668440516
0.0015731427528
0.00155090246618
0.00154590534397
0.00155974750742
0.00158830496362
0.00161639325899
0.00162369096219
0.0015882143279
0.00148535269041
0.00128622612874
0.000984009286197
0.000502883551848
0.000502096272082
0.000976522780333
0.00127833980096
0.00148108932969
0.00158627271408
0.00162252528649
0.00161268952188
0.00157693992293
0.00153940974868
0.00151318604988
0.00150739478502
0.00152448362934
0.00155616948913
0.00159057401441
0.00160305951062
0.001570957378
0.00146969369607
0.00126919862565
0.000969264875329
0.000497259780352
0.00049847765172
0.000967904589343
0.00126822915151
0.00147173359995
0.00157641642558
0.0016110885424
0.00159837840662
0.00155934729556
0.00151840306953
0.00148875668089
0.00148235250165
0.00150223823024
0.00153760353329
0.00157456230724
0.00159002962406
0.00155976119771
0.00145927103633
0.00125848159483
0.000960243795579
0.000493515416593
0.000498346920491
0.000967749064813
0.001268095852
0.00147165665335
0.00157641522519
0.00161117103152
0.00159854133163
0.00155957975864
0.00151868690231
0.00148906471251
0.001482668471
0.00150254892176
0.00153788518845
0.00157479034752
0.0015901825479
0.00155982182283
0.00145923213526
0.00125835933953
0.000960065379299
0.000493328776132
0.000501732852056
0.000976056606959
0.00127792886343
0.0014808320042
0.00158622964945
0.00162271621162
0.00161310685115
0.00157755874673
0.00154017546946
0.00151403759471
0.00150827438221
0.00152533772572
0.00155691886813
0.00159116953895
0.00160344935488
0.00157109826241
0.0014695700239
0.00126885625697
0.000968783738236
0.000496787687913
0.000507054950524
0.000989987454741
0.00129372632241
0.00149420518708
0.00160114512827
0.00164070200482
0.00163614591458
0.00160746116083
0.00157415800828
0.00155208834024
0.00154714256998
0.00156091910438
0.00158928844432
0.00161714263398
0.00162413783055
0.0015883088232
0.00148507551388
0.00128565073858
0.000983259208534
0.00050221775573
0.000511357840635
0.00100400176065
0.00130821093631
0.00150165274852
0.0016120806468
0.00165503641288
0.00165580933188
0.00163438375244
0.00160818293081
0.00158967289007
0.00158536394084
0.00159700096618
0.0016192208164
0.00164002414756
0.00164123245228
0.00160129471933
0.00149470136248
0.00130082838098
0.000997723270159
0.000506668490806
0.000510335691412
0.00100959727758
0.00131116540736
0.00149652371375
0.00160560701463
0.00165015504466
0.00165467718179
0.00163882162016
0.00161810193065
0.00160317282263
0.00159963901459
0.00160895627673
0.00162647058814
0.00164176927345
0.0016385544095
0.00159595765958
0.00148862115012
0.00130395102959
0.00100368614558
0.000505887038408
0.000499362360237
0.000995980954976
0.00128832899835
0.00146326257819
0.00155992273903
0.00160584528143
0.00161214779902
0.00160001448939
0.00158276375615
0.00157010264873
0.00156723184715
0.00157536986829
0.00159006207367
0.00160161088447
0.0015958901934
0.00155161471852
0.00145532540202
0.00128130361214
0.000990479307878
0.000495276218255
0.000472602564712
0.000948106539723
0.00122060416891
0.0013800743441
0.00146364221382
0.00149720469401
0.00150259007899
0.00149415509776
0.00147858083627
0.00146696959983
0.00146458139932
0.00147249998377
0.00148611064503
0.00149450355423
0.00148833255655
0.00145515848262
0.00137230077674
0.00121393780012
0.000943143404703
0.000469008115933
0.000423527254549
0.000846889960834
0.00108455961011
0.00122099857285
0.00128897228458
0.00131185465592
0.00130871573058
0.00129345663428
0.00127608295031
0.00126422014264
0.00126215931819
0.00127083541636
0.00128629723523
0.00130078695483
0.00130372331161
0.00128106641342
0.00121378520128
0.00107852104807
0.000842584555796
0.000420546529691
0.000345405382703
0.00066690236362
0.00084729301534
0.000948792919759
0.00099672582144
0.00101010928041
0.00100414851909
0.000989384538401
0.000974179215124
0.000964258749425
0.00096263814718
0.000970085962616
0.000983696116503
0.000997719914522
0.00100351447134
0.000990189686112
0.000942858499508
0.000842406618641
0.000663508335854
0.000343293399515
0.000240236580256
0.000344812240178
0.000422784128
0.000471933875612
0.000498775187054
0.000509711604366
0.000510601650205
0.000505935335459
0.000499923578953
0.000495587023081
0.000494584348834
0.000497473865909
0.000502648735375
0.000507055184493
0.000506327789064
0.000495772772146
0.000469577726436
0.000421150412682
0.00034376647282
0.000239500312869
0.000276977219656
0.000425200029434
0.000533988831111
0.000602726130443
0.000641546921936
0.000659586973713
0.000664873915591
0.000663820153659
0.000661309622409
0.000659600581983
0.000658868219278
0.000659259388874
0.000660717428984
0.000661157039243
0.000655763158807
0.00063801558553
0.000599842651689
0.000531966906877
0.000423945874091
0.000275999673595
0.000426124276358
0.000841536185775
0.00107455601678
0.00120866605941
0.00127648079971
0.00130112363742
0.00130091014788
0.0012894171486
0.00127666864118
0.00126832070339
0.00126644666623
0.00127164358067
0.00128216744633
0.00129248062525
0.0012923605195
0.0012678518649
0.00120070472202
0.00106785343751
0.000836702486131
0.000422768429472
0.000535206126736
0.00107444757155
0.00137460707744
0.00155089367135
0.00164534647978
0.0016854069167
0.00169257279427
0.00168266673639
0.00166844183038
0.00165805086397
0.00165558761984
0.00166169345889
0.00167314691502
0.0016818307426
0.00167465403253
0.00163491960762
0.00154123842966
0.00136622531851
0.00106808488924
0.000530466146656
0.000604021801083
0.00120866122382
0.00155098633195
0.00175614103705
0.00187295387126
0.00193105791267
0.00195166528887
0.00194751963922
0.0019345731217
0.0019236444036
0.00192051439839
0.00192617351759
0.00193576233407
0.00193885023325
0.00191940986274
0.0018613931839
0.00174536930005
0.00154129461818
0.00120094354644
0.000598286053209
0.000642978724049
0.00127687448244
0.00164568509719
0.00187304419709
0.00201187512378
0.00208189182323
0.00210526365294
0.00210112232847
0.00208653207991
0.00207398960745
0.00207011122259
0.00207596597302
0.0020858462671
0.00208841801551
0.00206658856457
0.00199909194752
0.00186137830731
0.00163482570852
0.00126778538211
0.000636362922139
0.00066127670986
0.00130210832836
0.00168609226096
0.0019312094897
0.002082209097
0.00215671078882
0.00217907769273
0.00217056839631
0.00215127028399
0.00213570351312
0.00213103901909
0.00213828845401
0.0021507113828
0.00215599239075
0.00213593869972
0.00206608532775
0.00191920488941
0.00167416836223
0.00129172264209
0.000653901252166
0.000666914413601
0.00130260255815
0.00169390228616
0.00195280393744
0.00210699402791
0.00218154777729
0.00219915245785
0.00218292045135
0.00215655641025
0.00213679950428
0.00213151922637
0.00214149788558
0.00215853180896
0.00216879246404
0.0021533147941
0.00208614121892
0.00193732782909
0.00168049500998
0.0012910142265
0.00065897312914
0.000666336699005
0.00129213710686
0.00168521368629
0.00195052574461
0.0021060431281
0.00217820864438
0.00218905666565
0.00216369683582
0.00212903228577
0.00210433274095
0.00209854974375
0.00211224138387
0.00213556033317
0.00215250455523
0.0021428517193
0.00208009492765
0.00193199068428
0.00167037057222
0.00127948958113
0.000658084344231
0.000664408761453
0.00128087621746
0.00167295801752
0.00194044692489
0.00209574929131
0.00216480371353
0.00216950962075
0.00213612873666
0.00209392535347
0.0020643082787
0.00205792812603
0.00207526917964
0.00210494076315
0.00212862317598
0.00212457462026
0.00206579212442
0.00191929235475
0.00165689655393
0.00126727983961
0.000656032658129
0.000663315042364
0.00127428787908
0.00166496556368
0.00193283426805
0.00208758826798
0.00215464918155
0.00215580241202
0.00211786889499
0.00207098692895
0.00203809887565
0.00203126807704
0.00205104588777
0.0020847326628
0.00211262499402
0.00211202038348
0.00205557380814
0.00191022143884
0.00164851577567
0.00126002383222
0.000654845422608
0.000663214796605
0.00127417476844
0.00166488801062
0.00193283261714
0.00208768629053
0.00215484708741
0.00215607958679
0.00211820807736
0.00207136918193
0.0020385032333
0.00203167811953
0.00205144885012
0.00208512297621
0.00211299602228
0.00211234349742
0.00205579794194
0.00191031729482
0.0016484848667
0.00125990570821
0.000654672085933
0.000664077919821
0.00128046972553
0.00167267746227
0.00194040433463
0.00209600979971
0.00216538280214
0.0021703678716
0.0021372113838
0.00209517271692
0.00206565103871
0.00205930017628
0.00207660334412
0.002106193224
0.00212976245755
0.00212551697117
0.0020664174317
0.00191954590398
0.00165679618476
0.00126692867521
0.000655556547792
0.000665777494646
0.00129135841631
0.00168464373115
0.00195034704581
0.00210637806153
0.00217914257792
0.00219057463481
0.00216568233389
0.00213133242861
0.00210682140992
0.00210109904411
0.00211470948416
0.00213784025262
0.0021544757501
0.00214434291839
0.00208098636557
0.00193228458011
0.00167015513709
0.00127888981496
0.000657379637626
0.000666206629946
0.00130146574435
0.00169299575249
0.00195239938113
0.00210722522834
0.00218260171507
0.00220111498532
0.00218565341696
0.00215981473999
0.00214035655995
0.00213516438754
0.00214501724061
0.00216170285402
0.00217135543986
0.00215504946599
0.00208702758676
0.00193748396976
0.00168005779051
0.00129015505305
0.000658138350479
0.000660530019512
0.00130071593138
0.00168488505176
0.00193052699886
0.00208216320574
0.00215745903776
0.00218079380698
0.0021732004736
0.00215455566665
0.00213935994836
0.00213480099909
0.00214188546701
0.00215384821849
0.00215834760603
0.00213736795399
0.0020666726477
0.00191904799779
0.00167342866839
0.00129060850916
0.000653026640001
0.00064228140659
0.0012753351378
0.0016442526323
0.00187207135268
0.00201153961044
0.00208220131821
0.0021062926876
0.00210289350285
0.00208889297898
0.00207670488383
0.00207293103159
0.00207862443145
0.0020880769742
0.00209000379333
0.00206746771549
0.00199926595328
0.0018608841625
0.0016337537126
0.00126643325124
0.000635522687611
0.000603445460641
0.00120710292429
0.00154945300086
0.00175495455026
0.00187229530725
0.00193103996243
0.00195218964241
0.00194859415789
0.001936097345
0.00192545447475
0.0019224046612
0.00192792055353
0.00193717100417
0.00193977956476
0.00191979385295
0.00186113336268
0.00174449719258
0.00153994585258
0.00119944083854
0.00059755371903
0.000534798395516
0.00107301525965
0.00137312797455
0.00154962087719
0.00164444613034
0.0016849603089
0.00169256520314
0.0016830854632
0.0016691975549
0.00165903289258
0.00165662378735
0.00166258189061
0.00167376308431
0.00168207222285
0.00167446368857
0.00163423128247
0.00154008699966
0.0013647651082
0.00106659456502
0.000529905519213
0.000425921509584
0.000840431777071
0.00107332108824
0.00120749152198
0.00127547911656
0.00130035237441
0.00130036885744
0.00128909140432
0.0012764929159
0.00126821692882
0.00126634468931
0.00127148175611
0.00128185762262
0.0012919842489
0.00129164629848
0.00126688292172
0.00119950848876
0.00106653491437
0.000835472003817
0.000422431433442
0.000277012109915
0.000424730930757
0.000533274538025
0.000601872275977
0.000640593328896
0.000658559784791
0.00066378937202
0.000662683469172
0.000660100267084
0.000658320361127
0.000657534396811
0.000657909358166
0.000659375205627
0.000659856992581
0.000654530656994
0.000636868280236
0.00059880967184
0.00053109291473
0.000423343068689
0.000275972853841
0.000311789678588
0.000504451858579
0.000640978640941
0.000726437363868
0.000776623954551
0.000803320963911
0.000816146450317
0.000822250514025
0.000825922587171
0.000827991564453
0.000827529141973
0.000824499103155
0.000819800283986
0.000812778511968
0.000799468084773
0.000772810838781
0.000723151002067
0.000638686710441
0.000503265015807
0.000310638134305
0.000506016147529
0.00101686988137
0.00129662786125
0.00146005268686
0.00154788412586
0.00158658382548
0.00159716868226
0.00159525220683
0.00159073843877
0.00158737032629
0.00158539573749
0.00158521081195
0.00158700924335
0.00158724751029
0.00157606179945
0.00153747534667
0.00145035381641
0.00128828985856
0.00101068363469
0.000501167674346
0.000642925428912
0.00129680714611
0.00164625879154
0.00185173352644
0.00196585020499
0.00202015299218
0.0020376037519
0.002037014929
0.00203112644363
0.00202507091762
0.00202208180889
0.00202303271766
0.00202521609689
0.00202352721917
0.00200599956864
0.00195240702279
0.00183925758814
0.00163516406339
0.0012880040699
0.000636141068032
0.000728666140786
0.00146090591889
0.00185239533711
0.00208506563008
0.00222159739063
0.00229704418184
0.00232591358533
0.00232754932987
0.00231834293457
0.00230899696286
0.00230478979015
0.00230660636145
0.00230988010168
0.00230532232802
0.00227789433446
0.00220491052985
0.0020698721255
0.00183849033531
0.00144928317314
0.000720305218068
0.000779353533954
0.00154989084866
0.00196746175899
0.00222230942293
0.00238178597073
0.00246684011056
0.00249851117113
0.00249767355259
0.00248421504378
0.00247166920524
0.00246644649057
0.00246913238132
0.00247339800585
0.00246811487599
0.00243743343385
0.00235868528405
0.00220383374856
0.00195042233804
0.00153509824176
0.000769457815762
0.000806715921911
0.00158998847227
0.00202282734462
0.00229884090121
0.00246929757583
0.00255782880229
0.00258553170351
0.00257744982903
0.00255739725519
0.0025411362818
0.00253526736998
0.00253975687227
0.00254677384409
0.00254351107927
0.00251352949726
0.00243411472001
0.00227484792739
0.00200235085764
0.00157193317173
0.000795456321935
0.000820224764964
0.00160199426309
0.00204154022678
0.00233071733062
0.00250766416701
0.00259393667405
0.00261319479672
0.00259474633369
0.00256682540572
0.00254651442895
0.00254053551198
0.00254813895804
0.0025597907376
0.00256092474347
0.00253437217783
0.00245717433718
0.00229807113507
0.00201766154944
0.00158100617433
0.000808011392005
0.000826914241929
0.00160162015325
0.00204252507039
0.00233754357305
0.00251591838506
0.0025970057901
0.00260652265965
0.00257712495442
0.00254093750185
0.00251637021203
0.00251056685911
0.00252222795575
0.00253997338533
0.00254707739365
0.00252565684624
0.00245255902029
0.00229632171247
0.00201677862937
0.00157840618168
0.00081436588316
0.000830988912685
0.00159893427338
0.00203920316039
0.00233366766348
0.00251053305045
0.00258655153744
0.00258800676956
0.00254972197521
0.00250631274195
0.0024776873606
0.00247175612219
0.00248697434146
0.0025109003234
0.00252422863173
0.00250813609157
0.00243944794823
0.00228670830407
0.00201065641933
0.00157401030658
0.000818536899611
0.000833379727603
0.00159758711381
0.00203629032145
0.00232917271614
0.00250444827077
0.00257747255336
0.00257448904149
0.00253124488389
0.00248356904995
0.00245240884836
0.00244631445519
0.00246367439878
0.00249130323879
0.0025085925876
0.00249592528145
0.00243002865702
0.00227951880065
0.00200556789283
0.00157150558513
0.000820995081183
0.000833321881843
0.0015975672968
0.00203631985892
0.00232931988647
0.00250471370625
0.00257782979036
0.00257488709498
0.00253165642722
0.00248398907207
0.00245283694167
0.00244675076382
0.00246412871224
0.00249180587448
0.00250917267662
0.0024965424484
0.0024305811848
0.00227990995765
0.00200575524975
0.00157150840808
0.000820841729521
0.000830753473474
0.0015987384576
0.00203923143619
0.0023340719104
0.00251134351328
0.00258772807719
0.00258942982753
0.00255130463659
0.00250801076756
0.00247946853813
0.00247358369132
0.00248882162581
0.00251281133672
0.00252622926654
0.00251008610232
0.00244108618719
0.00228781406601
0.00201114619827
0.00157396613116
0.000818096901267
0.000826476454779
0.00160110343007
0.00204243817305
0.00233813897793
0.00251732836359
0.00259925441716
0.00260946513766
0.00258056600831
0.00254471269728
0.00252036590816
0.00251466849872
0.00252631907918
0.0025440428036
0.00255097864259
0.00252909847322
0.00245520641795
0.0022979612262
0.00201739137046
0.00157823965761
0.000813708476233
0.000819664176296
0.00160115973401
0.0020412053451
0.0023313203111
0.00250950283535
0.00259721333106
0.00261782647691
0.00260046597426
0.00257330113903
0.00255344479576
0.00254764308942
0.00255516968717
0.00256645295959
0.00256683563896
0.00253910718411
0.00246042896549
0.00229984682461
0.00201819097166
0.00158063559536
0.000807236358052
0.000806162353007
0.0015889677785
0.00202222483548
0.00229913741988
0.00247095636271
0.00256130039323
0.00259089053406
0.00258441366711
0.00256549776175
0.00254988932405
0.00254424422346
0.0025485376437
0.00255484854698
0.00255026243748
0.00251847227021
0.00243710959727
0.00227619608193
0.00200252344829
0.00157129705476
0.000794657378208
0.000778898087243
0.00154879528968
0.00196663005814
0.00222216962246
0.00238272617844
0.00246936405101
0.00250294687091
0.00250382481118
0.00249156077173
0.0024797072205
0.00247473144413
0.00247718248794
0.00248062391687
0.00247380294136
0.00244118860989
0.00236065840649
0.00220447803151
0.00195008282936
0.00153416663472
0.0007687119992
0.000728361018229
0.00145979991395
0.00185139565077
0.00208453878674
0.00222181447512
0.00229825087105
0.00232837132602
0.00233130434478
0.00232306677785
0.00231429869675
0.00231029129349
0.0023118967784
0.00231446351147
0.00230870225068
0.00227993437314
0.00220578416313
0.00206975807819
0.00183762929098
0.00144810425465
0.000719686352607
0.000642804660222
0.0012957580702
0.00164518686825
0.00185090339198
0.0019654988145
0.00202043173945
0.00203858937268
0.00203882567846
0.00203358316663
0.00202789691927
0.00202501627742
0.00202581137242
0.00202748852906
0.00202502192123
0.00200671181609
0.00195231763299
0.00183847929971
0.00163395027647
0.00128672757077
0.000635730026371
0.000506094900983
0.00101599655778
0.00129562270896
0.00145906668075
0.00154705404778
0.00158601722199
0.00159692304724
0.00159537226732
0.00159114104816
0.00158792974892
0.00158596969541
0.00158567822438
0.00158719679525
0.00158708289251
0.00157553704346
0.0015365868531
0.00144919599712
0.00128703113151
0.00100955618314
0.000501024222889
0.000312020988122
0.000503987558973
0.000640247042005
0.000725524252251
0.000775562002156
0.000802151360563
0.000814906312631
0.000820965915507
0.00082456992394
0.000826562994269
0.000826030228291
0.000822959592025
0.000818230249451
0.00081121979272
0.000797970505858
0.000771418290763
0.00072192184471
0.000637680796274
0.00050259970223
0.000310764745597
0.000348806026149
0.000590539650298
0.000754390119665
0.00085762672264
0.000922296641076
0.000962037183764
0.000986424913466
0.00100235109523
0.00101316157851
0.00101903725552
0.00101882656576
0.00101254585823
0.00100107993238
0.000984163548138
0.000958967361434
0.000919143874159
0.000854512014907
0.000752157472633
0.000589757667589
0.000347677645505
0.000592835171551
0.00121019657352
0.00153630624432
0.00173094541442
0.00184303845653
0.00190186767849
0.00193017605736
0.00194392280512
0.00195089226067
0.00195352526177
0.00195140151608
0.00194503446943
0.00193536545835
0.00191994244811
0.00189092128612
0.00183216555386
0.00172071397187
0.00152728981318
0.00120320255968
0.000586632942677
0.000757114028355
0.00153705949845
0.00193090690259
0.0021621851244
0.00229420727536
0.00236222707421
0.00239294175147
0.00240484250649
0.00240502205344
0.00240170867673
0.00239774838915
0.00239398382107
0.00238843171703
0.00237436459162
0.00234430921045
0.00227830518453
0.00214762060127
0.00191777556584
0.0015260743737
0.000748501338887
0.00086093265798
0.00173309419187
0.00216367969356
0.00241378745663
0.00256354352278
0.00264787919639
0.00268296188631
0.00268888860529
0.00268211315805
0.00267349639787
0.00266771216149
0.00266562772367
0.00266280252784
0.00265034601026
0.00261574846439
0.00253875471748
0.00239382453734
0.00214559827177
0.00171765321169
0.000850172659898
0.00092664773466
0.0018471342204