/*--------------------------------*- C++ -*----------------------------------*\
| =========                 |                                                 |
| \\      /  F ield         | OpenFOAM: The Open Source CFD Toolbox           |
|  \\    /   O peration     | Version:  3.0.1                                 |
|   \\  /    A nd           | Web:      www.OpenFOAM.org                      |
|    \\/     M anipulation  |                                                 |
\*---------------------------------------------------------------------------*/
FoamFile
{
    version     2.0;
    format      ascii;
    class       volScalarField;
    location    "9.1";
    object      nut;
}
// * * * * * * * * * * * * * * * * * * * * * * * * * * * * * * * * * * * * * //

dimensions      [0 2 -1 0 0 0 0];

internalField   nonuniform List<scalar> 
7968
(
7.89475378044e-05
8.71053900952e-05
9.29212355666e-05
9.62882631322e-05
9.79529221551e-05
9.84282807887e-05
9.82035942566e-05
9.74995484203e-05
9.6650065189e-05
9.59395251612e-05
9.57455777572e-05
9.63088241757e-05
9.71110585664e-05
9.78146870272e-05
9.8073286198e-05
9.76324601066e-05
9.60393481932e-05
9.27431702631e-05
8.69866978632e-05
7.88755894062e-05
8.71308519487e-05
0.000109085011971
0.000120757796038
0.000126469564658
0.000128603476215
0.000128534115813
0.000127363016594
0.000125680685539
0.000124105360528
0.000123096645019
0.000122926760072
0.000123699594872
0.00012513460676
0.000126765834036
0.000127946611816
0.000128034799619
0.000125981005813
0.000120370234976
0.000108812453411
8.69550685748e-05
9.29592585013e-05
0.000120731745398
0.000134688579582
0.000141356802176
0.000143778593095
0.000143639688129
0.00014220175487
0.000140291448197
0.000138582488384
0.000137521694505
0.000137345772288
0.00013814815871
0.000139695835929
0.000141540977946
0.000142975062958
0.000143141765158
0.000140796176559
0.00013423692585
0.000120406614262
9.27123128351e-05
9.63197093614e-05
0.000126420437132
0.000141330083453
0.000148344156526
0.000150771285478
0.000150492971397
0.000148903101957
0.000146977041416
0.000145592826863
0.000144737095262
0.000144585853024
0.000145217847469
0.000146430618977
0.000148202367429
0.000149775364972
0.000150084213281
0.000147735207179
0.000140832207376
0.00012604942256
9.60153964513e-05
9.79738606693e-05
0.000128540614269
0.000143738725303
0.000150756298734
0.000152997900059
0.000153155977181
0.000152764443818
0.000151718169953
0.000150577133328
0.0001497819268
0.000149624713087
0.000150196816694
0.00015120938504
0.000152219518686
0.000152599884333
0.000152281435978
0.0001501030142
0.000143193718703
0.000128116565036
9.76156757347e-05
9.84505081855e-05
0.000128483130851
0.000143604980903
0.00015047372795
0.000153132555484
0.000154634038132
0.000154758542527
0.000153934524717
0.000152818450071
0.000151981768941
0.000151802849316
0.000152394034793
0.000153392596112
0.000154212286131
0.000154130085844
0.000152625975082
0.000149798284117
0.000143022713412
0.00012801528838
9.80530516447e-05
9.8222853766e-05
0.000127327610724
0.000142183571844
0.000148891356994
0.000152736086522
0.000154751515139
0.000155007923373
0.000154109084518
0.000152824228899
0.000151836154872
0.000151621058073
0.00015232237988
0.00015348226296
0.000154395513066
0.000154221182724
0.000152252639506
0.000148216436534
0.000141572560186
0.000126823670914
9.78028254872e-05
9.7526114088e-05
0.000125690337328
0.000140326007468
0.000146993562279
0.000151722777492
0.000153966198492
0.00015415544922
0.000153001756425
0.000151379117901
0.000150137497645
0.000149873320214
0.000150769279582
0.000152252129662
0.000153437220685
0.00015336472555
0.000151217402581
0.000146458258466
0.000139677218373
0.000125152607575
9.70979589437e-05
9.67021624956e-05
0.000124202647263
0.000138721277831
0.000145655129302
0.000150659852925
0.000152950535169
0.000152991171099
0.000151515127764
0.000149511766128
0.00014791614591
0.000147582808124
0.000148773862929
0.000150632706113
0.000152155368404
0.000152264306083
0.000150119967482
0.000145169637137
0.000138024707075
0.00012363042945
9.62700014902e-05
9.60528735936e-05
0.000123315947514
0.000137803157974
0.000144913914159
0.000149992061555
0.000152264885592
0.000152185124473
0.000150487759538
0.000148165801052
0.000146233265226
0.000145829355165
0.000147317836994
0.000149509308159
0.000151263992221
0.000151514289768
0.000149410034645
0.000144407413992
0.000137066271125
0.00012271476562
9.56085125048e-05
9.60295135022e-05
0.000123299263502
0.00013779175113
0.000144904284083
0.000149985531607
0.000152261506125
0.000152184624277
0.000150489665131
0.000148169393935
0.000146237610763
0.000145834126235
0.000147322649846
0.000149512887264
0.000151265278298
0.000151512434381
0.0001494041847
0.000144396726314
0.000137050515881
0.000122690765722
9.55760459976e-05
9.66534402314e-05
0.000124158296211
0.000138688386477
0.000145628323585
0.00015064099277
0.000152939716053
0.000152987684907
0.000151517725984
0.000149518975845
0.000147926033607
0.000147593798824
0.000148784250663
0.00015063941824
0.000152156572913
0.000152257900681
0.000150103835275
0.000145141765983
0.00013798488681
0.000123572292964
9.62047944973e-05
9.7462602158e-05
0.00012562214126
0.000140269834372
0.000146953148631
0.000151689076213
0.00015394306098
0.000154142404872
0.000152997114546
0.000151381138934
0.00015014423034
0.000149881603048
0.00015077563308
0.000152252978015
0.000153430862062
0.00015334837016
0.000151188314285
0.000146414078776
0.000139616797114
0.000125070844965
9.70164478044e-05
9.81540943481e-05
0.000127242256844
0.000142106467259
0.000148829464167
0.00015268482844
0.000154713184575
0.000154981247038
0.000154092387739
0.000152815515149
0.00015183264016
0.000151618959644
0.000152317369306
0.000153471231338
0.00015437622917
0.000154190872043
0.000152208643594
0.000148162315145
0.000141494618758
0.000126727542841
9.77169998606e-05
9.83850964778e-05
0.000128388463351
0.000143512478652
0.000150392798381
0.000153064777786
0.0001545813264
0.000154718140403
0.000153904548076
0.00015279744989
0.000151966519458
0.000151788783308
0.000152376034202
0.000153367309011
0.000154178220279
0.000154084498875
0.000152565136322
0.000149725000907
0.00014292974992
0.000127911524004
9.79727549324e-05
9.79156869415e-05
0.000128441740234
0.000143637871644
0.0001506632649
0.00015291329317
0.000153089905435
0.00015271065867
0.000151674684735
0.00015054418105
0.000149754676831
0.000149598056488
0.000150165459049
0.000151168884254
0.000152169168997
0.000152538222592
0.000152204856433
0.000150012829717
0.000143089062073
0.00012800711647
9.754458653e-05
9.62754160248e-05
0.000126330104715
0.000141231806536
0.000148249532875
0.000150682234404
0.00015040991515
0.000148827619171
0.000146915809458
0.000145546220228
0.000144695501105
0.000144543680462
0.000145170337454
0.000146371247558
0.00014812619741
0.000149692619748
0.000149993959992
0.000147636171291
0.000140725531871
0.000125946638737
9.59617021903e-05
9.29291216831e-05
0.000120656294346
0.000134602193555
0.000141269618927
0.000143692841836
0.000143556712053
0.00014212285339
0.000140216996996
0.000138510395421
0.000137449103644
0.000137270276899
0.000138068944218
0.000139611983752
0.000141453581028
0.000142884305081
0.000143047187666
0.000140699124502
0.000134139054121
0.000120318506605
9.26767811489e-05
8.71163586116e-05
0.000109034227079
0.000120695351976
0.00012640111225
0.000128528104465
0.000128454108274
0.000127281655182
0.000125598816661
0.000124020107055
0.000123006093607
0.000122830685152
0.000123601336104
0.000125035746288
0.00012666850051
0.000127852720508
0.000127945701201
0.000125899643064
0.000120295142351
0.000108750792984
8.69373452415e-05
7.89433341623e-05
8.70903578945e-05
9.28949374251e-05
9.62506893068e-05
9.79024212512e-05
9.83657307863e-05
9.81322513859e-05
9.74206942604e-05
9.65629798114e-05
9.58441139523e-05
9.56419561967e-05
9.62045490424e-05
9.70098496547e-05
9.77200563384e-05
9.79890895442e-05
9.75623305426e-05
9.5985561301e-05
9.27031081202e-05
8.69597758125e-05
7.88654018119e-05
8.64277773656e-05
0.000103567519177
0.000114689531464
0.000121174148705
0.000124569202292
0.000125920433591
0.000126021014626
0.000125434529748
0.000124681689942
0.000124138497855
0.000124014355154
0.000124379996994
0.000125032916973
0.000125589250537
0.000125508230925
0.000124200320921
0.000120878834147
0.000114476669365
0.000103420399684
8.62981900481e-05
0.000103644554405
0.000307251099459
0.000403027129701
0.000445207286519
0.000458632877117
0.000457007204577
0.000448801727677
0.000438814455411
0.000430271020012
0.000425147451894
0.000424409735431
0.000428361395607
0.000436108201161
0.000445666497872
0.000453697591957
0.000455269001277
0.000442192199944
0.000400858694425
0.000306489989187
0.000103327429466
0.000114780180049
0.000402243802734
0.000556846344076
0.000632284069025
0.000662727919282
0.000668013817611
0.000661038071358
0.000649829941234
0.000639108721684
0.00063228413183
0.000631100683435
0.000636023869507
0.000645575324851
0.000656274506587
0.00066309877081
0.000658078637091
0.000628434448021
0.000554471284659
0.000401855517891
0.00011437470424
0.000121254696762
0.000443973105878
0.000631633008639
0.000728537582621
0.000771993741691
0.000784698396675
0.000782587757895
0.000774876898247
0.000763546780102
0.00075591042903
0.000754289920506
0.000759327932025
0.000769327580565
0.000777336129578
0.000778918248568
0.000766799704774
0.000724426037536
0.000629285506366
0.000443778915141
0.000120791591655
0.000124640094327
0.000457273137998
0.000661760641716
0.000771594722172
0.000823690945763
0.000840174976251
0.000830486154781
0.000814322292298
0.000799664186155
0.000790610708337
0.000788567253577
0.000794244129987
0.000806869760985
0.000822398072071
0.000832507855811
0.00081835661368
0.000767345038184
0.00065938101935
0.000457059230041
0.000124127014106
0.000125992430753
0.000455752713814
0.0006669951242
0.00078413159696
0.000840123578264
0.000845510906472
0.000828745649107
0.000806803287434
0.000788535258472
0.00077763714059
0.000775095761216
0.000781743769706
0.000797385582488
0.000818593173429
0.000836114009891
0.000832574906505
0.000779689097952
0.000664517018169
0.000455407958031
0.00012543874931
0.000126100751542
0.000447741015428
0.000660181690138
0.0007820277109
0.000830785861495
0.000829250690366
0.000806765982004
0.000779799289054
0.000757704323634
0.000744588454585
0.000741502987554
0.000749411445252
0.000768242020508
0.000794380521915
0.000818045886185
0.000822054731192
0.000778078448314
0.000657537318282
0.000447179004293
0.000125517691118
0.000125541847448
0.000438122477238
0.000649502351897
0.000775246245314
0.000815800206057
0.000808777266468
0.00078148014712
0.000749794302002
0.000723727160124
0.000708841375326
0.000705326858305
0.000713975634769
0.0007360126279
0.000766637176229
0.00079539305874
0.000805266569297
0.000768757657354
0.000646261769301
0.000437232075133
0.000124938278875
0.000124846816532
0.000430165790897
0.000639769395005
0.00076573085445
0.000803189881306
0.000792941054744
0.00076221068615
0.000726777765896
0.000699016564986
0.000682348738663
0.000678372891757
0.000688217836025
0.000711247050189
0.00074517550593
0.000777438677219
0.000790706775356
0.000757229811665
0.000635752412756
0.000428882874807
0.000124224908532
0.000124389913486
0.000425748468322
0.000634135983335
0.000759922505951
0.00079645505704
0.000784887231061
0.000752455989313
0.000715502103845
0.000686305965038
0.000668286868574
0.000664022357215
0.000674757388088
0.000699203893788
0.000734145604206
0.000768116150632
0.000782832905957
0.000750464351726
0.0006296520291
0.000424189495001
0.00012374897473
0.000124373728323
0.000425726055341
0.000634125681179
0.000759959592572
0.000796551269152
0.000785049123014
0.000752683451619
0.000715791801283
0.000686650478817
0.000668665618859
0.00066441404101
0.000675142269178
0.000699560293388
0.000734452259349
0.000768357269783
0.000782997623029
0.000750550656245
0.000629678266363
0.000424188902325
0.000123725613219
0.000124801847254
0.000430080677287
0.000639708688343
0.000765790890211
0.000803417462207
0.00079335265067
0.000762806363158
0.000727550541759
0.000699943777832
0.000683380307965
0.000679443471798
0.000689265550502
0.000712201451799
0.000745989234857
0.000778071574541
0.000791131925245
0.000757444141945
0.000635806556032
0.000428869698411
0.000124166031538
0.000125473511247
0.000437934109965
0.000649325237209
0.000775184139425
0.00081601498206
0.000809255007757
0.00078222536572
0.000750803330847
0.000724978567061
0.000710276224019
0.000706825818252
0.000715419838597
0.000737294721148
0.000767707140726
0.0007962034644
0.000805789606581
0.000768987229215
0.000646280502848
0.000437171085236
0.000124855701178
0.000126019048844
0.000447420395804
0.000659847544493
0.000781839077085
0.000830866883011
0.000829594874501
0.000807402678729
0.000780743506797
0.000758928581932
0.000746010268996
0.000742996540978
0.000750834926405
0.000769488782395
0.000795388118675
0.000818780095656
0.000822491812358
0.000778155864138
0.000657447589847
0.000447029781835
0.00012542332388
0.000125907339005
0.000455294952746
0.000666498944439
0.000783805294096
0.000840027112672
0.00084563547359
0.000829134997239
0.000807484389303
0.000789484526832
0.000778779100059
0.000776306138695
0.00078287880765
0.000798347793428
0.000819339279139
0.000836625014336
0.000832837471476
0.000779661796831
0.000664279079569
0.000455135432389
0.000125342007157
0.000124559047969
0.000456687717279
0.000661138352042
0.000771151188965
0.000823487740172
0.000840169892018
0.000830720416501
0.000814796451943
0.000800338833977
0.000791438805529
0.000789451443877
0.0007950689796
0.000807564224904
0.000822928198649
0.000832828325288
0.00081844756754
0.000767171208266
0.000658984460363
0.00045663701857
0.000124034208807
0.000121185353564
0.000443333409179
0.00063097913193
0.000728072226612
0.000771780595518
0.000784750813911
0.000782942164933
0.000775389232121
0.000764172064939
0.000756638168052
0.000755057383209
0.000760053584804
0.000769968913527
0.000777897575044
0.000779220410461
0.000766829603832
0.000724169126622
0.000628798597674
0.000443259086422
0.000120710566826
0.00011472684918
0.000401656629998
0.000556296429113
0.00063192676745
0.000662605196138
0.000668128767788
0.0006613771585
0.000650355388134
0.000639764282784
0.000633026843396
0.0006318759666
0.000636767105684
0.000646231643493
0.00065679057155
0.000663409812978
0.000658139822974
0.000628227233905
0.000554033373173
0.000401342076183
0.000114310589158
0.000103612119019
0.000306876890216
0.000402733091904
0.000445066476202
0.000458654136306
0.000457180542421
0.000449105065739
0.000439223762508
0.00043075546773
0.000425678109874
0.000424960148618
0.000428902200585
0.000436605058673
0.000446087648579
0.00045400534287
0.000455418873636
0.000442155044072
0.000400634184888
0.000306147531767
0.000103285119563
8.6421106867e-05
0.000103520411612
0.000114622990018
0.000121096912499
0.000124483708853
0.000125828429409
0.000125923863482
0.000125331997624
0.000124571377107
0.00012402013052
0.000123890176003
0.000124255227503
0.000124910562491
0.000125471639343
0.000125397094037
0.000124097243079
0.000120785532544
0.000114395096049
0.000103358587915
8.62833079729e-05
9.28580463148e-05
0.000115013848833
0.00012887095184
0.000136898344638
0.0001412221262
0.000143177858173
0.000143736780092
0.000143613446085
0.000143337110426
0.00014315005311
0.00014306814664
0.000143107869839
0.000143266829947
0.00014332178956
0.000142749404345
0.000140821239053
0.000136560825178
0.000128619638293
0.000114839064423
9.26875163779e-05
0.000115142788442
0.000386401423752
0.000521172889106
0.000581062213908
0.000600992235054
0.000600313630757
0.000590659228715
0.000578890623758
0.000569160900189
0.000563423116709
0.000562330866267
0.000566236452173
0.000574671947623
0.000585734894987
0.000595137410057
0.000595838098776
0.000576402752783
0.000517782511269
0.000385180069602
0.000114674602158
0.000129022280144
0.000519899187369
0.000756181563015
0.000878290678546
0.000931940067462
0.00094640677901
0.000940921037079
0.000927588202698
0.000914508768069
0.000906045190817
0.000904148484265
0.000909299777024
0.000920200250966
0.00093256345887
0.000938142931598
0.000924339280811
0.000872177113143
0.000752550036524
0.000519341352266
0.000128432633245
0.000137049825657
0.000579142642878
0.000877195769906
0.00104481881646
0.00112846267699
0.00116124216339
0.00116534311786
0.00115419612327
0.00114010961088
0.00113009992953
0.00112738394129
0.00113276671555
0.00114387321179
0.00115406946064
0.00115117280518
0.00111946520388
0.00103804680644
0.00087350832641
0.000578747278239
0.000136378284408
0.000141384411962
0.000599031080204
0.000930363896974
0.00112776818404
0.00123433314082
0.00127571043842
0.00127895212116
0.00126471723202
0.00124732797106
0.00123505613871
0.00123150843249
0.00123762978426
0.00125074459064
0.00126353355469
0.00126181764739
0.00122365301891
0.00112028033133
0.000926271458903
0.000598274776992
0.000140633455694
0.000143366885742
0.000598651793005
0.000944861796331
0.00116034301868
0.00127570350469
0.00131689180737
0.00131524911829
0.00129439638821
0.00127143914184
0.00125592534374
0.00125152765077
0.00125924890302
0.00127606240442
0.00129414274012
0.00129793770431
0.00126167110415
0.0011521172801
0.000940034650967
0.000597256692285
0.000142540810407
0.000143964421638
0.000589479296571
0.000939927898788
0.00116533965142
0.00128022882593
0.00131742339303
0.001308415062
0.0012790851444
0.00124936935578
0.0012300251414
0.00122487660513
0.0012348503147
0.00125631005189
0.00128068075141
0.00129173463597
0.00126178094769
0.00115386834267
0.000933777247021
0.000587271378805
0.000143077854306
0.00014389486446
0.000578436767612
0.000927728944597
0.00115602850337
0.00126899408493
0.00130121566845
0.00128455922468
0.00124694671387
0.00121048575874
0.00118725961675
0.00118144046658
0.00119380070279
0.00122011929944
0.00125085269986
0.00126890212388
0.00124571609319
0.00114152417253
0.000920133985293
0.000575356072624
0.000142972150608
0.000143684865125
0.00056971665167
0.000916389478292
0.00114467967961
0.00125563793944
0.00128370122733
0.00126122660442
0.00121727320967
0.00117547498064
0.00114893691302
0.00114249694557
0.00115681343996
0.00118711070597
0.00122304906165
0.00124659682789
0.00122841605101
0.0011275214231
0.00090749940767
0.000565811314966
0.000142745946522
0.000143567756142
0.000565130997265
0.000909939571802
0.00113772460053
0.00124749926091
0.0012733663324
0.00124787149685
0.00120063050579
0.00115583945792
0.00112736457617
0.00112052773387
0.00113596408585
0.0011684958252
0.00120729865807
0.00123381732435
0.00121821028455
0.00111910181056
0.000900482180902
0.000560701217329
0.000142616917559
0.000143557196772
0.000565143898945
0.000909983706348
0.0011378287509
0.00124769202049
0.00127366064086
0.0012482634993
0.00120111870079
0.00115641694134
0.00112800317704
0.00112118717614
0.00113660916602
0.00116910212157
0.00120784560524
0.00123427971911
0.00121855874178
0.00111933270897
0.000900617411232
0.000560768980069
0.000142598245053
0.000143649727588
0.000569709204283
0.00091646889809
0.00114493576815
0.00125615379062
0.00128452381243
0.00126235692299
0.00121870775172
0.00117719485698
0.00115085212444
0.00114447957945
0.0011587458999
0.00118890226032
0.00122463178077
0.00124790027748
0.00122937433464
0.00112814274565
0.000907853481004
0.000565978776435
0.000142694630355
0.000143835228523
0.000578323356206
0.000927729339051
0.00115630012437
0.00126968296689
0.00130243209145
0.00128633899422
0.00124927346287
0.00121329805591
0.00119040421296
0.00118469952072
0.0011969590675
0.00122300207777
0.00125332468446
0.00127083979565
0.00124706558134
0.00114235411201
0.000920587583318
0.000575541822166
0.000142896288134
0.000143888806121
0.000589196233985
0.000939742703966
0.00116549091359
0.00128087307894
0.00131875134291
0.00131055068519
0.00128198983824
0.00125290560724
0.00123397510874
0.00122897135506
0.00123880639196
0.00125987186414
0.00128362335247
0.00129389885436
0.00126319017254
0.00115467004754
0.000934155995937
0.000587375511005
0.000142988013224
0.000143286785605
0.000598182762462
0.000944453766985
0.00116029671932
0.00127614694147
0.00131797762953
0.001317169619
0.00129716266282
0.00127487291248
0.00125978671505
0.00125554059079
0.00126311129679
0.00127948218039
0.00129685700476
0.00129984357979
0.00126286005947
0.00115269627778
0.000940200951549
0.000597192229562
0.000142446271216
0.000141308647491
0.000598386285335
0.000929765691736
0.00112754499142
0.00123463288538
0.00127654301798
0.00128040648823
0.00126684217846
0.00125001787656
0.00123812004818
0.0012347097226
0.0012407024383
0.0012534397406
0.00126567461392
0.00126335281335
0.00122458109385
0.00112063478445
0.000926171198036
0.000597981146914
0.000140541329334
0.000136985369222
0.000578384494874
0.000876523885492
0.0010445405593
0.00112869855855
0.0011620513351
0.00116665670531
0.00115602257342
0.00114236641428
0.00113265369905
0.00113004788312
0.00113532517274
0.00114614329041
0.0011559206062
0.00115252687154
0.00112022949399
0.00103822361141
0.0008732008845
0.000578243143395
0.000136295428355
0.000128974078415
0.00051916369169
0.00075562006948
0.000878123212074
0.000932237527942
0.000947183390936
0.000942137936641
0.000929216864801
0.000916472678651
0.000908246785223
0.000906436205884
0.000911490832004
0.00092216744977
0.000934197656245
0.00093936005962
0.000925043235581
0.000872334653194
0.000752222664332
0.000518756356348
0.000128365314669
0.00011511638617
0.00038592367016
0.000520901231828
0.000581076757934
0.000601300940154
0.000600903804585
0.000591495492736
0.000579943774739
0.000570385765675
0.000564758596397
0.000563712529714
0.000567591543227
0.000575920372016
0.000586821641104
0.00059600293042
0.000596405893923
0.00057662092757
0.000517640621588
0.000384763327009
0.000114629455829
9.2864707292e-05
0.000114950395066
0.000128784489237
0.00013680100454
0.000141116864678
0.000143066239125
0.000143619641455
0.000143490812976
0.000143206519556
0.000143011635101
0.000142923778157
0.000142961676659
0.000143121430336
0.000143180741182
0.000142614869455
0.000140694017973
0.000136442532608
0.000128513342823
0.000114757039106
9.26833912457e-05
9.85860551461e-05
0.000125347898097
0.000141265587938
0.000150365099598
0.000155454002409
0.00015808995384
0.000159340137529
0.000159935799114
0.000160297492486
0.000160501834264
0.000160455532467
0.000160155214976
0.000159690091096
0.00015900088545
0.000157698594984
0.000155060836681
0.000150014364542
0.000141004555296
0.000125194664136
9.83964044138e-05
0.000125547486979
0.000461452429853
0.000624773468515
0.00069715476418
0.000723042710411
0.00072528103762
0.000717693542936
0.00070842455922
0.000701421729886
0.000697443461521
0.000696084160872
0.00069766049384
0.000702884123232
0.000711103921297
0.00071829946446
0.000716139945248
0.000690882756178
0.000620039809406
0.000459597402104
0.000124927175545
0.000141485947088
0.000623247952233
0.000915338389434
0.00106686425563
0.00113624741357
0.00115928245625
0.00115849682914
0.00114917792363
0.00113978159437
0.00113303863077
0.00113041785816
0.00113264527177
0.00113879777602
0.00114626774137
0.00114705845329
0.00112515092627
0.00105780135506
0.000909498271
0.000621679836632
0.00014071616709
0.000150602296991
0.00069522180789
0.00106588851598
0.00127692485683
0.00138680099898
0.0014364182838
0.00144776999934
0.00144043105567
0.00142815647022
0.00141846591815
0.00141456238386
0.00141728228141
0.00142414024744
0.00142874371082
0.00141863663738
0.0013721189887
0.00126561668532
0.00105873624452
0.000692862928373
0.000149711085655
0.000155735625023
0.000721560028312
0.00113521013311
0.00138641721455
0.00152757468044
0.00159110873439
0.00160592605359
0.00159590694714
0.00157926567701
0.0015663068555
0.00156130909252
0.00156502658555
0.00157358501809
0.00157828391659
0.00156418192629
0.00150683542785
0.00137220609049
0.00112594884641
0.000717544720647
0.000154715012673
0.000158433909466
0.000724661334924
0.00115887115505
0.00143667331136
0.00159296566121
0.00166091149573
0.00167142620538
0.0016538159646
0.00163041981268
0.00161360380373
0.00160785594181
0.0016136530931
0.00162594123775
0.0016340257328
0.00162123720911
0.0015615715812
0.00141736653216
0.00114681080097
0.000718599729718
0.000157291677545
0.000159750366906
0.000718084736503
0.00115928069203
0.0014508643447
0.00161385198298
0.00167879101415
0.00168018530538
0.00165213388236
0.00162103017424
0.00160008042316
0.00159396347701
0.00160277102255
0.00162027043855
0.0016339839132
0.00162581251617
0.00156878041109
0.00142368576114
0.00114414547234
0.000709960756209
0.000158520361553
0.000160403493367
0.000710005851854
0.00115170793027
0.00144843952609
0.00161196399342
0.00167074068275
0.00166212517287
0.00162378914428
0.00158511407343
0.00156010168804
0.00155372536912
0.00156571710494
0.0015888141325
0.00160898557605
0.00160698511951
0.00155504951755
0.00141320726977
0.00113412580046
0.000700052569033
0.000159143572926
0.000160805057842
0.00070444655677
0.00114491420388
0.00144115562894
0.0016025772607
0.00165582198464
0.00163946757128
0.0015933506284
0.00154855469849
0.00152008076066
0.00151328574106
0.00152768490214
0.00155540581309
0.00158125221023
0.0015850144617
0.00153826718091
0.00140043737488
0.00112442835441
0.000692954107418
0.000159556246727
0.000161041703488
0.000702031627849
0.00114114245998
0.00143603652302
0.00159570683105
0.00164588742969
0.00162548035855
0.0015752463488
0.00152710357714
0.00149666119099
0.0014895481666
0.00150522007765
0.00153546895301
0.00156457688549
0.00157174030622
0.0015281058134
0.00139276467713
0.00111874415093
0.000689575683283
0.0001598001395
0.000161036435476
0.000702117109404
0.00114129278889
0.00143627322897
0.00159604340818
0.00164631731164
0.00162597957633
0.00157581903749
0.00152776192662
0.00149738279794
0.00149029238993
0.00150596031293
0.00153620376152
0.00156532249702
0.00157247524353
0.00152876063198
0.00139327882704
0.00111910015657
0.00068976102163
0.000159785497438
0.00016078309629
0.000704614640873
0.00114529770845
0.00144181003651
0.00160355865779
0.00165714029941
0.001641071892
0.00159525584688
0.00155078661933
0.0015225466992
0.00151583621461
0.00153020776132
0.00155785729836
0.00158363298454
0.00158724349312
0.0015401664365
0.00140188041324
0.00112539834967
0.000693441653934
0.000159514080206
0.00016036210733
0.000710118837596
0.0011521714286
0.00144940214155
0.00161355072594
0.00167301895422
0.00166504871969
0.00162735724657
0.00158931408658
0.00156474193963
0.0015585284422
0.00157044254523
0.00159330895632
0.00161315487059
0.00161065953819
0.00155799975815
0.00141532993229
0.00113546619266
0.000700704330426
0.000159080379413
0.000159697028035
0.000718048769608
0.00115963496602
0.0014519213949
0.00161585537055
0.00168195778726
0.00168452906291
0.00165756842126
0.00162739795523
0.00160706499184
0.00160117772776
0.00160983948053
0.00162686744966
0.00163983271287
0.00163062579803
0.00157234680219
0.00142606285622
0.00114555617561
0.000710599485794
0.000158445477208
0.000158381006399
0.000724453316841
0.00115900547504
0.00143751814501
0.00159490442786
0.00166436409419
0.00167653390331
0.00166040741603
0.00163815405993
0.00162206017329
0.00161658466059
0.00162218481442
0.00163378668531
0.00164069287855
0.00162633915879
0.00156502417718
0.00141946504441
0.00114796898404
0.000719057897468
0.000157213778034
0.000155691776942
0.000721179581248
0.00113511008149
0.00138695749724
0.0015290696659
0.00159399437891
0.00161053790431
0.00160209378429
0.00158659234471
0.00157434249962
0.00156962394231
0.00157314862561
0.00158096266183
0.0015843130962
0.00156850995775
0.00150959780241
0.00137378016526
0.0011266631587
0.000717693067753
0.000154640967783
0.000150572549066
0.000694686331017
0.0010656198205
0.00127725945685
0.00138792527257
0.00143851989095
0.00145108143104
0.00144497251627
0.00143362828228
0.00142452381155
0.00142085607003
0.00142341462083
0.00142964893167
0.00143317487204
0.00142183425254
0.00137418987971
0.00126668717435
0.00105899337364
0.000692665467868
0.000149647530495
0.00014147451148
0.000622653479843
0.000915051032513
0.00106711596242
0.00113717069108
0.0011609557602
0.00116094416903
0.0011524272685
0.00114367574853
0.00113733815371
0.00113487751686
0.00113699110579
0.00114270816674
0.00114949264736
0.00114950258531
0.00112672245317
0.00105851235784
0.000909485719419
0.000621249126721
0.000140671488031
0.00012555917994
0.000461036181065
0.000624646236939
0.000697360722295
0.000723624743254
0.00072627180419
0.00071908942
0.000710216136858
0.000703533952768
0.000699762230722
0.000698478157807
0.000699993762863
0.000704998007837
0.000712901369394
0.000719710375266
0.000717083472879
0.000691339195621
0.000620041833133
0.000459236226428
0.00012491031457
9.86242197746e-05
0.000125290761883
0.000141185215488
0.000150270632418
0.000155347801988
0.00015797517605
0.000159219752233
0.000159811935774
0.000160167553049
0.000160364768704
0.000160311555594
0.000160006910228
0.000159538034066
0.000158848708113
0.000157550580502
0.000154920335324
0.000149885934219
0.000140892740538
0.000125111662227
9.84171286232e-05
0.000104335123058
0.000135687414801
0.000153319489392
0.000163451505564
0.000169490386348
0.00017309829936
0.000175279382421
0.000176695685179
0.000177653124431
0.000178171768066
0.000178152136595
0.000177595941505
0.000176578293598
0.000175070492657
0.00017281075739
0.000169190669934
0.000163146822736
0.000153082868206
0.000135588935015
0.000104158388448
0.000135955558885
0.000545261677132
0.000737652270248
0.000824680980484
0.000860440691071
0.000870223776088
0.000869491325102
0.000866886187185
0.000865107412305
0.000863905873248
0.00086221631504
0.000860425483228
0.00086006715526
0.000861501238479
0.000861788797697
0.000852180094111
0.000817283142795
0.000731976977367
0.000542863370072
0.000135224221226
0.000153602469695
0.000736280006661
0.00107924692924
0.00125588951262
0.00134012193805
0.00137316450337
0.00138115584035
0.00137940009165
0.00137393665858
0.00136891606977
0.00136527563824
0.00136371749047
0.00136402403516
0.00136332700712
0.00135572826102
0.00132476333159