/*--------------------------------*- C++ -*----------------------------------*\
| =========                 |                                                 |
| \\      /  F ield         | OpenFOAM: The Open Source CFD Toolbox           |
|  \\    /   O peration     | Version:  3.0.1                                 |
|   \\  /    A nd           | Web:      www.OpenFOAM.org                      |
|    \\/     M anipulation  |                                                 |
\*---------------------------------------------------------------------------*/
FoamFile
{
    version     2.0;
    format      ascii;
    class       volVectorField;
    location    "9.1";
    object      U_0;
}
// * * * * * * * * * * * * * * * * * * * * * * * * * * * * * * * * * * * * * //

dimensions      [0 1 -1 0 0 0 0];

internalField   nonuniform List<vector> 
7968
(
(0.000862882219729 0.000779951872896 -0.00130959229393)
(0.00327936774813 0.000267806927727 -0.00153539739072)
(0.00643526290918 4.43274716627e-05 -0.00145185727288)
(0.00890995975142 3.96405894307e-05 -0.00108189641026)
(0.0105311228614 0.000276488830275 -0.000656140236018)
(0.0106287271973 0.000699050844805 -0.000252716816941)
(0.00982999982953 0.00100167619915 -4.40703476522e-05)
(0.00805530167837 0.00135954386743 0.00013876981457)
(0.00552145043929 0.00164752534571 0.000235590056304)
(0.00258422045112 0.00180410170472 0.000266361612562)
(-0.000492172619742 0.00181693754783 0.000273753182469)
(-0.00349200471319 0.0016841261702 0.000258747291075)
(-0.00615883372981 0.00141403862691 0.000181479090391)
(-0.00812747668708 0.00106278725071 1.74704389819e-05)
(-0.0091343302458 0.000728787587478 -0.000202039043474)
(-0.00927562396377 0.000359944546895 -0.000548212321343)
(-0.00796279588587 9.55584266137e-05 -0.000989018056422)
(-0.00577227037876 0.000101711336441 -0.00135594765215)
(-0.00290290152147 0.000321930478261 -0.00144522885993)
(-0.000737689451078 0.000820528691849 -0.00122587165111)
(0.000357807940442 0.00303077592081 -0.00152771613988)
(0.00310115518821 0.00284181474785 -0.00388361333912)
(0.00678565286686 0.00304029417423 -0.00455035631073)
(0.00953655682799 0.00360673466387 -0.00437173423633)
(0.0111168475893 0.00448636962811 -0.00391303939751)
(0.0112268108112 0.00544920211867 -0.00341159150514)
(0.0102442904453 0.00620125028884 -0.00302663475169)
(0.00830312953302 0.0068621269925 -0.00271162705066)
(0.00565582955429 0.00735945500721 -0.00251503815259)
(0.00264528293321 0.0076328292018 -0.00243290213838)
(-0.000491263954284 0.00765309984028 -0.00241765646269)
(-0.00356748985085 0.00741548556413 -0.00246809716385)
(-0.00634894358221 0.00694285742351 -0.00263332531362)
(-0.00848480186848 0.00629302625003 -0.00292594439192)
(-0.00968183007921 0.00554137190561 -0.00330207424825)
(-0.00982957173885 0.00461838900143 -0.00377382246837)
(-0.00854602589591 0.003744459153 -0.00423476914315)
(-0.00610033469208 0.00318315943037 -0.00442055583724)
(-0.00271280468523 0.00297833628427 -0.00377453311024)
(-0.000226579888708 0.00314347942034 -0.0014474516318)
(0.000138840739644 0.00601452818793 -0.00145234516175)
(0.00330681866512 0.00634736821577 -0.00454930224082)
(0.00743496965703 0.00698906558217 -0.00517834742107)
(0.0104228677982 0.0080418300929 -0.00473446554451)
(0.0120145215792 0.0094019917915 -0.00399700491987)
(0.0120498158676 0.0107904502753 -0.00329194475297)
(0.0108691048095 0.0119302148517 -0.00277656156069)
(0.00871734649702 0.0128790194895 -0.0024245173061)
(0.00589334350915 0.0135811732894 -0.0022288560371)
(0.00273746429188 0.0139606711114 -0.0021515540074)
(-0.000537068117302 0.0139947974692 -0.00213534139924)
(-0.00376733601519 0.0136759051891 -0.00218054024547)
(-0.00673768141783 0.0130137440402 -0.00234650722671)
(-0.00908989957722 0.012080479548 -0.00267659674591)
(-0.0104894423391 0.0109488909844 -0.00317391211158)
(-0.0107112479503 0.00959754953135 -0.00384948932654)
(-0.00941487626807 0.0082426941411 -0.00457586651124)
(-0.00673588919051 0.00719372507778 -0.00502452476987)
(-0.00291020636051 0.00654601098712 -0.00442261184817)
(-5.4040029052e-06 0.00618635783892 -0.00136471281342)
(0.000135131842626 0.00833149064841 -0.00108856585034)
(0.00387392662478 0.00892902383127 -0.00437840948701)
(0.00849120025882 0.00980699581145 -0.00474360500636)
(0.0117410194273 0.0111210621884 -0.00393266486587)
(0.0133467104517 0.012721156527 -0.00282099417623)
(0.0132315177132 0.0143190285088 -0.0018547379735)
(0.0117894034886 0.0156670033952 -0.00118123691048)
(0.00934483930471 0.0167886469536 -0.00076513294848)
(0.00625560920627 0.0176176281848 -0.000564495917725)
(0.00287152102473 0.0180736705168 -0.00050137388863)
(-0.000616571584916 0.0181196785711 -0.000482918723)
(-0.0040866501981 0.0177446811529 -0.00050956364823)
(-0.00733885970358 0.0169678513893 -0.000678282831297)
(-0.00999598494888 0.015862284774 -0.00107239758072)
(-0.0116619754992 0.0145177817891 -0.00172379616108)
(-0.0120300458978 0.0129503998616 -0.00265669646742)
(-0.0107189321589 0.011356951092 -0.00375319527638)
(-0.0077789363569 0.0100461538515 -0.00456603316532)
(-0.0034685397121 0.00916486798799 -0.00423095608689)
(3.18134858728e-06 0.00853977077773 -0.0009896831818)
(0.000384751365814 0.00980056288904 -0.000663276377918)
(0.00475350072427 0.0103593973026 -0.00392746662497)
(0.00985270912563 0.0112497205173 -0.00402110423777)
(0.013341134773 0.0125774147533 -0.00283875675126)
(0.0149746550803 0.014203633368 -0.00137150395168)
(0.0146861967561 0.01581783941 -0.00010191687123)
(0.0129704674318 0.0171810626285 0.000834750070149)
(0.0101992853149 0.0183248059452 0.00145351346037)
(0.00678268342425 0.0191865186685 0.00177543514758)
(0.0030748102974 0.0196742211079 0.001895209768)
(-0.000741958071388 0.0197337367283 0.00192182479308)
(-0.00455783141837 0.0193479445356 0.00185148682551)
(-0.00816692463781 0.01854526924 0.00156514264019)
(-0.0111704186058 0.0174105210676 0.000964743472063)
(-0.0131163537082 0.0160384640901 4.37326643588e-05)
(-0.013653001889 0.0144465090417 -0.00119162933764)
(-0.0123124603775 0.012820487387 -0.00263450301537)
(-0.0091332898504 0.0114933100363 -0.00381960285349)
(-0.00434439295025 0.0106007991986 -0.00375593391044)
(-0.000244610246843 0.0100161251462 -0.000546419796465)
(0.000789546627737 0.00978695924812 -0.000287853494749)
(0.00570143288662 0.0103515823739 -0.00344666511681)
(0.0112275091014 0.0111658950475 -0.00333619578893)
(0.014924059149 0.0123419428353 -0.00189111820544)
(0.016577998732 0.0137928815888 -0.000119871044234)
(0.0160724729302 0.015189392394 0.00141527233522)
(0.0140937853463 0.0164011032719 0.00252616112159)
(0.0110143190709 0.0174438301602 0.00326388778049)
(0.00728357599701 0.0182501603698 0.00365124234203)
(0.00327140574461 0.0187242702254 0.0037983327542)
(-0.000853227451821 0.0187936245727 0.00383793715762)
(-0.00500119433098 0.0184366863462 0.00376021004003)
(-0.00896427640307 0.0176975787816 0.00340946130048)
(-0.012304341135 0.0166603668186 0.00267418456804)
(-0.0145187886245 0.0154251541557 0.00156235147134)
(-0.0152551846995 0.014031023882 6.62833174922e-05)
(-0.0138969146972 0.0125711768201 -0.0016800000539)
(-0.0105025580889 0.0113886544175 -0.00312268513839)
(-0.00528769084183 0.0105662537138 -0.00326331093171)
(-0.000641436787763 0.00997786000228 -0.000165642840584)
(0.00110483216167 0.00890190648746 -7.91160579521e-05)
(0.00645356780999 0.00928067460298 -0.00307079115581)
(0.0123625720232 0.00989039611623 -0.00283156037436)
(0.0162634691713 0.0107959256609 -0.00122774761531)
(0.0179359234957 0.011962024298 0.000809512644459)
(0.0172806505808 0.0130841890419 0.00252504768794)
(0.0150988632268 0.0140797465544 0.00377120725762)
(0.0117583292898 0.0149642358057 0.00461904708728)
(0.00775277313415 0.0156799720423 0.0050790433725)
(0.00346536161046 0.0160981143499 0.00527893353428)
(-0.000946271429466 0.0161693302298 0.00533353196705)
(-0.00539976831006 0.0158785639484 0.00522130138324)
(-0.00968142965076 0.0152360049141 0.00479793549152)
(-0.0133204247783 0.0143562804528 0.00394113130066)
(-0.0157540734369 0.0133303672795 0.00268020778236)
(-0.0166306671685 0.0121961859132 0.000999117651911)
(-0.0152515183714 0.0110083774083 -0.00101538853641)
(-0.0116425366905 0.0100859521 -0.00261473839817)
(-0.00604281503049 0.0094619419046 -0.00288173886962)
(-0.00096093674319 0.00906337198517 4.7338913261e-05)
(0.00145675088071 0.00705415419099 9.29124088727e-05)
(0.00710587312452 0.0072663863012 -0.00277059051709)
(0.0132963145166 0.00765851973517 -0.00249275526068)
(0.017362930958 0.0082599743741 -0.000828184417957)
(0.0190584394156 0.0090821024689 0.00141086897471)
(0.0183023147358 0.00987603517228 0.00324980486645)
(0.0159750482488 0.0105886734121 0.00460497390878)
(0.0124335818367 0.0112478287345 0.00557622681001)
(0.00815111565252 0.0117255218726 0.00619649521094)
(0.00362378588348 0.0120947478098 0.00621742626204)
(-0.00101579891058 0.0121740036481 0.00623269062639)
(-0.00571606170143 0.0118982723221 0.0063698110333)
(-0.0103194752898 0.011494272913 0.00580437380108)
(-0.0142038335349 0.0108464290451 0.00481039054512)
(-0.0168054073855 0.0101054320736 0.00342847596325)
(-0.0177820561134 0.00929407896642 0.00161765906967)
(-0.0163783981089 0.00844095964665 -0.000603495632677)
(-0.0125941042702 0.00781676475692 -0.00227374409427)
(-0.00670528824916 0.00740526337142 -0.00257944327053)
(-0.00131948272354 0.00717715782916 0.000216967394842)
(0.00173172284935 0.00448349357378 0.0001796142456)
(0.00758499185102 0.00458316051469 -0.00259246012812)
(0.0139663294604 0.00479208468696 -0.00231532672467)
(0.0181499372612 0.00511906211501 -0.000653166359767)
(0.0198723882792 0.00559788707542 0.00170013319937)
(0.0190569966844 0.00605641082486 0.00359963925856)
(0.0166479501127 0.00647135404426 0.00501882936289)
(0.0128933870977 0.0068348306647 0.00614522128856)
(0.00849352944036 0.00717887758379 0.00620955618591)
(0.00373417872389 0.0073996001559 0.00618911075265)
(-0.00108469921901 0.00744646962184 0.0062275708479)
(-0.00602446508884 0.00729635843316 0.0063059959849)
(-0.0107500597631 0.00700455879234 0.00637058331245)
(-0.0148742594265 0.00665735426403 0.00527081768142)
(-0.0175840739994 0.00622179278759 0.00381286103278)
(-0.018624004762 0.00574952266488 0.00193493059049)
(-0.0171941664668 0.00524386034332 -0.000411283633517)
(-0.0132890986891 0.00489780780716 -0.00209369656753)
(-0.00719772586652 0.00467394292392 -0.00240174717264)
(-0.00160367287553 0.00456383909433 0.000300227109388)
(0.00187342423321 0.00155062157919 0.000201938741976)
(0.00783507241113 0.00157862825474 -0.00252730150023)
(0.0143063425481 0.00164024120183 -0.00225660418252)
(0.0185531731349 0.00173664295374 -0.000614889248002)
(0.0202955440701 0.00188738419088 0.00178367596485)
(0.0194570839377 0.00203048425351 0.00369793891487)
(0.0170016517889 0.00216019343954 0.00515414955948)
(0.0131693536146 0.00226628263133 0.00620336391119)
(0.00867786859459 0.00236969383209 0.00614491210391)
(0.00380501105734 0.00244139121933 0.00619283148958)
(-0.0011435929654 0.00245616490593 0.00624261302021)
(-0.00620400384719 0.00240213285456 0.00625857176927)
(-0.0110801784871 0.00233176235319 0.00624593102595)
(-0.0152153100351 0.00222533727205 0.00543670985663)
(-0.0179999781094 0.00208762603362 0.00393422963005)
(-0.0190630212974 0.00194059078271 0.00203750995059)
(-0.0176141421566 0.00178202254483 -0.000362733469996)
(-0.0136433905267 0.00168053641648 -0.00203261453644)
(-0.00745584476661 0.00161530757435 -0.00233651439805)
(-0.00175090394708 0.00158439855887 0.000321636286979)
(0.00187261725761 -0.00148846443835 0.000201711379491)
(0.00783233731 -0.00151687667664 -0.00252709315463)
(0.0143025100846 -0.00158842918281 -0.00225775654561)
(0.0185486658178 -0.00169918510548 -0.000617236936274)
(0.0202903404776 -0.0018667375475 0.00178023718745)
(0.0194512115076 -0.00202575004239 0.00369304210599)
(0.0169954199656 -0.00217178036734 0.00514798375796)
(0.0131624256739 -0.00229421336113 0.00619737030534)
(0.00867283718241 -0.00241017551914 0.00613732918749)
(0.00380225201682 -0.00249168864013 0.00618518558184)
(-0.00114417491827 -0.00250925576221 0.00623483209843)
(-0.00620187243633 -0.00245112725374 0.00625018214506)
(-0.0110749573546 -0.00237124356724 0.00623770533876)
(-0.0152087925288 -0.00225105536701 0.00542837542151)
(-0.0179924367372 -0.00209501611804 0.00392768022303)
(-0.0190550941035 -0.0019273605242 0.00203308718955)
(-0.017606197773 -0.00174371184797 -0.000364547039757)
(-0.0136364143787 -0.0016202709733 -0.00203216113113)
(-0.007451088641 -0.00153858742465 -0.00233419186455)
(-0.00174954837242 -0.00150520006674 0.000322325216395)
(0.00172950948353 -0.00441845749892 0.000180083212462)
(0.00757701408771 -0.00451790331449 -0.00259050518627)
(0.0139554212207 -0.00473454516966 -0.00231718148258)
(0.0181369776591 -0.00507307888203 -0.000658659872147)
(0.0198575897393 -0.00556512783474 0.00169150122999)
(0.0190403092999 -0.00603562971478 0.00358691712246)
(0.0166301459809 -0.00646288690058 0.00500273204576)
(0.0128754780432 -0.00683945963084 0.00612541736487)
(0.00847897845901 -0.00719381640115 0.00618800803897)
(0.00372610967399 -0.00742290770669 0.00616594709815)
(-0.00108596222012 -0.00747202671833 0.0062038895998)
(-0.00601775834829 -0.00731816656551 0.00628137295629)
(-0.0107340756615 -0.00701689884116 0.00634948458502)
(-0.0148557375345 -0.00665900611336 0.00524914176685)
(-0.0175629797031 -0.00620977869472 0.00379550787813)
(-0.0186020135131 -0.00572192914411 0.00192311354674)
(-0.0171722198687 -0.00519694987016 -0.000416336056959)
(-0.0132702885702 -0.00483332174791 -0.00209240331081)
(-0.00718437393527 -0.00459648242821 -0.00239529415908)
(-0.00160001981848 -0.00448421220123 0.000302935703235)
(0.00145387063666 -0.00698864307932 9.54730427449e-05)
(0.0070942023422 -0.00719847019505 -0.00276614927347)
(0.0132813440965 -0.0075940086317 -0.00249332805745)
(0.0173443913772 -0.00820179283686 -0.000833883297309)
(0.0190377329557 -0.00903052713143 0.00140140034766)
(0.0182788776252 -0.00982939983168 0.00323582665271)
(0.0159497143411 -0.0105472739097 0.00458733080841)
(0.012407711241 -0.0112124207259 0.00555500525465)
(0.00812874319626 -0.0116960135031 0.00616943083278)
(0.0036112453045 -0.0120694591913 0.00618346151598)
(-0.00101669334911 -0.0121492746719 0.00619725475073)
(-0.0057051079917 -0.011871598689 0.00633457376153)
(-0.0102989354403 -0.0114609563679 0.00577572687393)
(-0.0141779266844 -0.0108079349817 0.00478493424226)
(-0.0167761597887 -0.0100614863138 0.00340782406114)
(-0.0177513511258 -0.00924306571138 0.00160325102696)
(-0.0163473614531 -0.00837994709886 -0.000609882843601)
(-0.0125674290226 -0.00774578767075 -0.00227160986221)
(-0.00668595226731 -0.00732748242412 -0.00256976708576)
(-0.00131465520322 -0.00709945742573 0.000222345221293)
(0.0011020060738 -0.00883969894087 -7.45965825809e-05)
(0.00644124614687 -0.00921381942545 -0.00306395506857)
(0.0123463375307 -0.00982250698297 -0.00282987679001)
(0.0162439408151 -0.0107280559725 -0.00123110869577)
(0.0179150052318 -0.0118939240511 0.000803623702868)
(0.0172567708418 -0.0130143673254 0.00251671161563)
(0.0150724391357 -0.0140081710139 0.00376034213569)
(0.0117314377819 -0.0148918349843 0.00460477035855)
(0.00773027355957 -0.0156069311631 0.00506001255449)
(0.00345263569729 -0.0160240455066 0.00525605944972)
(-0.000945938780342 -0.0160942167183 0.00530916040554)
(-0.00538749603265 -0.0158024188853 0.00519843822071)
(-0.00966063878052 -0.0151590417372 0.00477746998408)
(-0.0132941474802 -0.0142799830634 0.00392286575009)
(-0.0157244237293 -0.013255913101 0.0026646250452)
(-0.0165986889262 -0.0121225108638 0.000987554085368)
(-0.0152179022253 -0.0109337845107 -0.00102035459759)
(-0.0116129932199 -0.0100101265022 -0.00261101297761)
(-0.00602167237616 -0.0093860986473 -0.00287001171479)
(-0.000955902795155 -0.00899065990689 5.46602106164e-05)
(0.000784714825131 -0.00972934433661 -0.000283974460108)
(0.00569165318189 -0.010288790475 -0.00343865373771)
(0.0112153843073 -0.011098502048 -0.00333179493155)
(0.0149092231191 -0.0122696136931 -0.0018904495897)
(0.0165622772615 -0.0137158738424 -0.000120034509309)
(0.0160539792252 -0.0151070337424 0.00141506076332)
(0.0140724130461 -0.0163129186017 0.00252507432661)
(0.0109916842472 -0.0173505900001 0.00326070663753)
(0.00726430648715 -0.0181527902248 0.00364420376715)
(0.00326072581421 -0.0186238901011 0.00378779357064)
(-0.000852325875092 -0.0186913420724 0.00382626655667)
(-0.00498966337834 -0.0183338462409 0.00375050031807)
(-0.00894623694265 -0.0175955564742 0.00340245044336)
(-0.012283003005 -0.0165617379177 0.00266760904548)
(-0.014494656998 -0.0153316179349 0.00155595239929)
(-0.015228422358 -0.0139425387171 6.12360893737e-05)
(-0.0138681827363 -0.0124877181222 -0.0016808497876)
(-0.0104772429186 -0.0113107740437 -0.00311640698473)
(-0.00526933999594 -0.0104938027416 -0.00325109897539)
(-0.000634335921404 -0.00991037412268 -0.000160265061802)
(0.000387183138893 -0.00975322574547 -0.000654877347175)
(0.00475233597184 -0.0103071071494 -0.0039179578805)
(0.00985020777492 -0.0111894180784 -0.00401356555286)
(0.0133353439033 -0.0125080894608 -0.00283271636987)
(0.0149670515498 -0.0141266428294 -0.00136535151427)
(0.0146753331783 -0.0157336946842 -9.4545773251e-05)
(0.0129566610583 -0.0170897546864 0.000842563013868)
(0.0101836860424 -0.0182271561441 0.00146068550356)
(0.00676921856977 -0.019083241509 0.0017803824489)
(0.00306799819424 -0.0195665498426 0.00189770700861)
(-0.00073961924919 -0.0196235569772 0.00192368691425)
(-0.00454725030144 -0.0192374366349 0.00185495515905)
(-0.00815214205408 -0.0184361646997 0.00157054107164)
(-0.011154373802 -0.0173046283465 0.000969491628767)
(-0.0130990381821 -0.0159380365561 4.74089527821e-05)
(-0.0136347596001 -0.0143532555952 -0.00118793433327)
(-0.0122940723412 -0.0127363730756 -0.00262846602091)
(-0.00911934346572 -0.0114202686682 -0.00380940948165)
(-0.00433664020454 -0.0105379137825 -0.00374219091323)
(-0.000246956975881 -0.00995928047719 -0.000536707111705)
(0.000136534541138 -0.00829994942311 -0.00108163645862)
(0.00387867367119 -0.00888991238879 -0.00437136289852)
(0.00849659635037 -0.00975836700131 -0.00473484673412)
(0.0117433186874 -0.0110615776984 -0.00392290596457)
(0.0133460528011 -0.0126523523021 -0.00280902618983)
(0.0132264893584 -0.0142427748459 -0.0018423673498)
(0.011781357059 -0.0155844541643 -0.00116889642902)
(0.0093352353623 -0.0167010520472 -0.000753452124849)
(0.00624803944714 -0.0175249591979 -0.000553789227629)
(0.00286964841181 -0.0179767002902 -0.000491529136806)
(-0.000611126013467 -0.018019916936 -0.000472875919397)
(-0.00407493877009 -0.0176439799867 -0.000498063506567)
(-0.00732467931215 -0.0168676478066 -0.000665020293567)
(-0.00998258650316 -0.0157637231132 -0.00105893796944)
(-0.0116495441523 -0.0144236258418 -0.00171065406856)
(-0.0120197727699 -0.012863975079 -0.0026431435497)
(-0.010710754113 -0.011281520123 -0.00374057850364)
(-0.00777553535478 -0.00998452407571 -0.00455350157073)
(-0.00346926111576 -0.00911549700148 -0.00421973066553)
(8.56443625564e-07 -0.0085002594538 -0.000984198345693)
(0.000141661283162 -0.00599646566154 -0.00144552955214)
(0.00331612135045 -0.00632293602777 -0.00454416881939)
(0.007447247439 -0.00695585674203 -0.00516978952012)
(0.0104329663396 -0.00799802750047 -0.00472233035585)
(0.0120208913921 -0.00934836312279 -0.00398100287041)
(0.0120505316418 -0.0107282705751 -0.00327431102772)
(0.0108664959303 -0.0118612869241 -0.0027593414685)
(0.00871341199892 -0.0128048685173 -0.00240877963532)
(0.00589128426521 -0.013502525131 -0.00221405751277)
(0.00273995572165 -0.0138783358612 -0.00213700594518)
(-0.000529211311496 -0.0139099522248 -0.00212009354997)
(-0.00375507977944 -0.0135900602934 -0.00216381394234)
(-0.00672428382637 -0.0129284478439 -0.00232762303082)
(-0.00907880302241 -0.0119972874315 -0.00265615593169)
(-0.0104815829003 -0.0108708454905 -0.0031528435793)
(-0.0107086837401 -0.00952884087272 -0.00382921208762)
(-0.00941688205051 -0.00818540152139 -0.00455958395484)
(-0.00674201492952 -0.00714933086042 -0.00501183872858)
(-0.00291798676753 -0.00651265176634 -0.00441444015541)
(-1.04545241353e-05 -0.00616026484347 -0.00136176658579)
(0.000360773437736 -0.00302500202129 -0.00152506931872)
(0.00311111124194 -0.00283256468297 -0.00388119456478)
(0.00679997773138 -0.00302490687651 -0.00454536256915)
(0.00955093728722 -0.00358389243453 -0.00436265670546)
(0.0111286900148 -0.00445652000402 -0.00389717356348)
(0.0112317449186 -0.00541303056701 -0.00339242055655)
(0.0102452819772 -0.00616005591382 -0.00300772803532)
(0.00830283634656 -0.00681679109868 -0.00269418265579)
(0.00565778826891 -0.00731054627052 -0.00249786868483)
(0.00265145745242 -0.00758136389244 -0.00241530182785)
(-0.00048056929836 -0.00759987843268 -0.0023987901563)
(-0.00355350130202 -0.00736137607912 -0.0024476402146)
(-0.00633503515801 -0.00688912289335 -0.00261073403317)
(-0.00847503948757 -0.00624121422976 -0.00290201315814)
(-0.00967779366522 -0.0054933395944 -0.00327851132888)
(-0.00983319922169 -0.00457780169668 -0.00375310460376)
(-0.00855397858044 -0.00371174026749 -0.00422146271637)
(-0.00611040275467 -0.00315869288468 -0.00441190502754)
(-0.00272250754689 -0.00295988036261 -0.00377091415843)
(-0.000231594123655 -0.00312742442318 -0.00144792140575)
(0.000860137095303 -0.000778431844054 -0.00130699393149)
(0.00328052678505 -0.000266025875408 -0.00153632257628)
(0.00644162118513 -4.07038226872e-05 -0.00145125916292)
(0.0089167766441 -3.35579318767e-05 -0.00107926542684)
(0.0105367315549 -0.000268044105284 -0.000650346988877)
(0.0106295057285 -0.000687679162166 -0.000245352797962)
(0.00982900265716 -0.000988582877106 -3.72003221879e-05)
(0.00805501785474 -0.0013446443193 0.00014472409283)
(0.0055244340958 -0.00163149655159 0.000241170250199)
(0.00259183179463 -0.00178738242736 0.000271703204754)
(-0.000479546254175 -0.00179961213828 0.000279753292866)
(-0.00347550585738 -0.00166617743376 0.000266313647951)
(-0.00614147180403 -0.00139590621215 0.000191260315676)
(-0.00811281394656 -0.00104526560534 2.90173271807e-05)
(-0.00912425906721 -0.000711705035162 -0.000191003342982)
(-0.00927164591759 -0.000347890202315 -0.000537239407301)
(-0.00796298672387 -8.5180310093e-05 -0.000983112560664)
(-0.00577260732378 -9.35603908278e-05 -0.00135200803766)
(-0.00290087262205 -0.000314088785417 -0.00144102218021)
(-0.000734753930288 -0.000811305685208 -0.00121638576199)
(0.00175076496096 0.00167034362419 -0.00653229020121)
(0.00512680074035 0.00243259319311 -0.00739787948087)
(0.00812105633294 0.00305351145245 -0.00730243186663)
(0.0102136200406 0.00370014812717 -0.00665843208998)
(0.0112839689885 0.00436212726324 -0.00580351278565)
(0.011108902355 0.00491076741234 -0.00501142242291)
(0.0100354613985 0.00529410969138 -0.00439025203969)
(0.00809494227261 0.00560122304082 -0.00388766475808)
(0.00550948804666 0.00581863838257 -0.00360037305625)
(0.00259044380328 0.00593390849502 -0.0034989668728)
(-0.00044483725735 0.0059419698189 -0.00347194874586)
(-0.00342890089154 0.00583973418704 -0.00351481541524)
(-0.00614773183002 0.00563077595148 -0.00373702660722)
(-0.00828287059219 0.00532565999728 -0.00418556269509)
(-0.00957744625903 0.00493691843132 -0.00477854576871)
(-0.00999097407635 0.00442198850457 -0.005521087598)
(-0.00922464108309 0.00376483238247 -0.00636286326841)
(-0.00743157002783 0.0031254739166 -0.00700873565667)
(-0.0047404673313 0.00249965243502 -0.0071160176159)
(-0.00163487437992 0.00171233795582 -0.00627427390074)
(0.00254281298489 0.00487430238195 -0.00739568737797)
(0.00594479075137 0.00563719338506 -0.00938639889902)
(0.00855113743517 0.00648793566988 -0.00940457078687)
(0.0102638166849 0.00752398970689 -0.00859992944282)
(0.0110066954353 0.00864432620803 -0.00752185893783)
(0.0107439726129 0.0096763557449 -0.00647012461913)
(0.00959605669475 0.0105047979999 -0.00561578645653)
(0.00769944570049 0.0111670980383 -0.00497818644182)
(0.00526228539681 0.0116441738954 -0.0045852606101)
(0.00251900120644 0.0119033538053 -0.00441026261869)
(-0.000343799765239 0.0119296889457 -0.00437906856546)
(-0.00315922345508 0.0117160048696 -0.00449041739051)
(-0.00573251959647 0.0112679639138 -0.00482162053843)
(-0.00781621645369 0.0106145407656 -0.00540884357459)
(-0.00918090718235 0.00978932528448 -0.00622026137773)
(-0.00968439559111 0.00877933174201 -0.00722463225818)
(-0.00920989284879 0.007675033222 -0.00827496554444)
(-0.0077833648036 0.00664952337515 -0.00907149177942)
(-0.00547018225559 0.00579747989826 -0.00906058947883)
(-0.0023768836955 0.00499464596738 -0.00710237297129)
(0.0031765524457 0.00767703467789 -0.00732058791263)
(0.00681402475682 0.00805945060059 -0.00942271330577)
(0.00945125685859 0.00894339054856 -0.00906044656847)
(0.0110299052368 0.0101288386119 -0.00772103153471)
(0.0115802926093 0.0114342371888 -0.00609245005758)
(0.0111374870763 0.0126690501203 -0.0045634072513)
(0.00981928643945 0.0137063185681 -0.0033613869807)
(0.0078080002643 0.0145314864323 -0.00252100700376)
(0.00531660922482 0.0151277757575 -0.00202175542494)
(0.00254553608584 0.0154626644467 -0.00179371770359)
(-0.000343254862543 0.0155064865926 -0.00175461717334)
(-0.00319765645031 0.0152483050882 -0.00190798119177)
(-0.00583799162085 0.0147015831886 -0.00234279666027)
(-0.00804020745014 0.013894470322 -0.00313354374615)
(-0.00957261477203 0.0128640007355 -0.00428874552423)
(-0.0102488721396 0.0116414067203 -0.00576685480218)
(-0.00995031946064 0.0103473348834 -0.00735646973427)
(-0.0086468441078 0.00917245608362 -0.00867856797826)
(-0.00629954919864 0.00829054460821 -0.00904811380206)
(-0.002983774278 0.00788075767786 -0.00698445802036)
(0.00382964590556 0.00959162551133 -0.00670253531111)
(0.00785562438252 0.0096056938751 -0.00864720567068)
(0.0106425690639 0.0103636640602 -0.0077506712293)
(0.0121383091463 0.0114720817056 -0.00578515004351)
(0.0124789474839 0.0126988820826 -0.00358649098088)
(0.0117768876282 0.0138562748755 -0.00160022166127)
(0.0102302927058 0.0148491846442 -8.38997076162e-05)
(0.00805408517849 0.0156492325278 0.000935403299146)
(0.00545643445405 0.016240073798 0.00152045429218)
(0.00260481337424 0.0165822932826 0.00178643595955)
(-0.000364068314602 0.0166414371277 0.00183543294653)
(-0.00331515911542 0.0164023244811 0.00165962256028)
(-0.00608357720211 0.0158760153658 0.00114386509181)
(-0.00846229918694 0.015097212658 0.000171991923412)
(-0.010223077079 0.0141034507751 -0.00129920890163)
(-0.0111484236083 0.0129444598409 -0.00323347845857)
(-0.0110472999687 0.0117219661622 -0.00538449839585)
(-0.00981638258788 0.0106230422112 -0.00732379420861)
(-0.00732055305705 0.00987211531381 -0.00822096418763)
(-0.00361745734946 0.00984296755221 -0.00631136116981)
(0.00449598561665 0.010502152357 -0.00588158628544)
(0.00897550442445 0.0102076125351 -0.00760582219484)
(0.0119487026389 0.0107818601138 -0.00615789389533)
(0.013363122755 0.0116860991442 -0.00361901190767)
(0.0134803219806 0.0126924939138 -0.000893742069129)
(0.0125538218189 0.0136959712227 0.00148464879484)
(0.0108193044395 0.0145968759047 0.00324497197156)
(0.00847606511769 0.0153468724983 0.00440071015538)
(0.00572274030803 0.0159157427607 0.00505819571106)
(0.00271804962974 0.0162575914751 0.00536057338853)
(-0.000412614274107 0.0163318303881 0.00542350506429)
(-0.00353990469375 0.016119539612 0.00523177331855)
(-0.00649933458507 0.0156302348264 0.00464357426834)
(-0.0090744544152 0.0149011644849 0.00351874335157)
(-0.011030105709 0.013985183086 0.00179147963761)
(-0.0121653345553 0.0129622965525 -0.00052947630633)
(-0.0122699730436 0.0119446057125 -0.00319795642445)
(-0.0111117482416 0.0110462077585 -0.00569656057291)
(-0.00842894017346 0.0104788954287 -0.00713288112359)
(-0.0042724293309 0.0107654165346 -0.00543371994304)
(0.00503422041973 0.0102159710858 -0.00513572738675)
(0.0100019281123 0.0098332689903 -0.00659320924747)
(0.0131783312988 0.010228653158 -0.00466121225674)
(0.014513267714 0.0108732017575 -0.00165711073365)
(0.0144736921308 0.0116523638402 0.00146654351319)
(0.0133873399975 0.0124913600834 0.00411641645522)
(0.0114870315825 0.0132706295425 0.00604873696479)
(0.00898224779565 0.0139414445705 0.00731807912674)
(0.00605997424249 0.014470769412 0.00804893189776)
(0.00286870124649 0.0148049087841 0.00839579876402)
(-0.000466613164559 0.0148924890483 0.00848144942668)
(-0.00380976578162 0.0147119525543 0.00828147657997)
(-0.00698721298023 0.0142777541246 0.00762794099773)
(-0.00976866706754 0.0136275074069 0.00636187232205)
(-0.0119064471847 0.0128193559334 0.00442447458162)
(-0.0131940035968 0.0119418873593 0.00181874378605)
(-0.0134360788024 0.0111293257619 -0.00123419855983)
(-0.0123434741164 0.010478278838 -0.00418523158617)
(-0.00945133565092 0.0100845336953 -0.00609321411803)
(-0.00480251562282 0.0104597218394 -0.00465429099492)
(0.00542213075969 0.0090536153243 -0.00454037051011)
(0.0108282047029 0.00859645378824 -0.00576716742138)
(0.0142048234175 0.00881754844815 -0.00348310582067)
(0.0154883271399 0.0092236745855 -0.000159601510035)
(0.015352804805 0.00980252641588 0.00321395508157)
(0.014151745735 0.0104594025747 0.00603750172328)
(0.0121278977864 0.0110938935761 0.00808786069294)
(0.00948987010401 0.0116602036665 0.00945697482873)
(0.00641449603125 0.0121357166986 0.0102747978228)
(0.00303847152141 0.012458150353 0.0106853287985)
(-0.000508523470691 0.0125523692148 0.0108040875469)
(-0.0040685001737 0.0123925783 0.0105971455168)
(-0.00745514833983 0.012018713961 0.00988383970127)
(-0.0104284615842 0.0114749260671 0.00849494359466)
(-0.0127228237148 0.010807066302 0.00638526597935)
(-0.0141267858152 0.0100987045576 0.00356966823463)
(-0.0144462508264 0.00947137524658 0.000261893160896)
(-0.0133875498032 0.0090404890604 -0.00300479147717)
(-0.0102856146476 0.00881280570267 -0.00525969303855)
(-0.00519131283487 0.00926142326033 -0.00404862404293)
(0.00572682858018 0.00704518028388 -0.00406907460355)
(0.0114788467403 0.00663342476598 -0.00515845704341)
(0.0150043147115 0.00673256936139 -0.00267045120214)
(0.0162510912559 0.00695944550934 0.000830376959182)