/*--------------------------------*- C++ -*----------------------------------*\
| =========                 |                                                 |
| \\      /  F ield         | OpenFOAM: The Open Source CFD Toolbox           |
|  \\    /   O peration     | Version:  3.0.1                                 |
|   \\  /    A nd           | Web:      www.OpenFOAM.org                      |
|    \\/     M anipulation  |                                                 |
\*---------------------------------------------------------------------------*/
FoamFile
{
    version     2.0;
    format      ascii;
    class       volVectorField;
    location    "8.8";
    object      ddt0(rho,U);
}
// * * * * * * * * * * * * * * * * * * * * * * * * * * * * * * * * * * * * * //

dimensions      [1 -2 -2 0 0 0 0];

internalField   nonuniform List<vector> 
7968
(
(0.0155481429154 -0.0114503932826 0.00423819585334)
(0.0745471978487 -0.0099770046505 -0.0149441048958)
(0.137043833444 -0.00877273881982 -0.0228406071659)
(0.196736704977 -0.00823347001302 -0.023052591524)
(0.254929955376 -0.00686394084955 -0.0208501588854)
(0.309802643739 -0.00457994889978 -0.0175703990832)
(0.350465210217 -0.00238345165216 -0.0140538348292)
(0.393665033503 0.00134890610953 -0.00718315188948)
(0.425309027012 0.00378137312833 -0.00526934154209)
(0.44228074105 0.00592948748199 -0.0023034251482)
(0.447416590096 0.00757574593635 0.00111527595267)
(0.443579194265 0.00885652217182 0.00474127154363)
(0.426035419164 0.0089786423309 0.00950730271784)
(0.390324583106 0.00905741771256 0.0153857731271)
(0.344325779938 0.00851873287142 0.021068804289)
(0.286121626435 0.00832408957857 0.0274795687594)
(0.223259825835 0.00713196629411 0.0317825217146)
(0.154993453593 0.00486693873357 0.0338450959702)
(0.0838316959867 -0.000732029195332 0.0379823494322)
(0.0314563912374 -0.00815904106127 0.0490056823067)
(0.0191429581237 -0.0115965076508 -0.00857031796214)
(0.0907921186873 0.000414192235289 -0.0394116795909)
(0.143067122216 0.000876654516283 -0.0292012853928)
(0.187208472915 -0.00228285617438 -0.0165157342799)
(0.227470459162 -0.00635449039153 -0.00966346964535)
(0.270465066471 -0.00961769191275 -0.00621727280465)
(0.31408842412 -0.00851691030935 -0.00566710178787)
(0.362306876523 -0.00443970830759 -0.00702501224787)
(0.407550235423 0.000925673302951 -0.00726759479562)
(0.444869479958 0.00765340976977 -0.00566167268151)
(0.470244589887 0.0141380538706 -0.00180846008839)
(0.483111716191 0.02045248589 0.00408778076089)
(0.477022825801 0.0256548963142 0.012919928051)
(0.445701595054 0.0316817960054 0.0222258393889)
(0.395530707619 0.0373183781791 0.0295165520589)
(0.326001893084 0.0437988577892 0.0348275470492)
(0.244793412326 0.0458781089033 0.0345325424164)
(0.157400578178 0.0426243366789 0.0281407931682)
(0.0740371102028 0.0298059575533 0.0185723886662)
(0.0276371770723 0.00722274362347 0.0275440193505)
(0.0220522993088 -0.0167281706752 -0.0129301198601)
(0.095548231155 -0.0177482745515 -0.028633956939)
(0.131493393069 -0.03303639867 0.00190513160946)
(0.163739827651 -0.0513100866636 0.0205779243573)
(0.197353881214 -0.0682353964202 0.0252785427203)
(0.238781213671 -0.0774447352227 0.0221861827976)
(0.287109848409 -0.0782832559317 0.0161429255304)
(0.342750228753 -0.0730727706774 0.00960972785015)
(0.398744116402 -0.062148174975 0.00588544444652)
(0.44824572344 -0.0481077518932 0.00567787630475)
(0.484893031819 -0.034284546976 0.00955778352542)
(0.507539099974 -0.0206682390386 0.016209270455)
(0.508860990181 -0.00968625609384 0.0304611243138)
(0.481370477631 0.00215118360059 0.0454829783243)
(0.430196994556 0.0151845491442 0.0565992924943)
(0.355601008227 0.0296878675605 0.065609600858)
(0.265486276155 0.0409062569938 0.0665972555916)
(0.166205668273 0.0476950364855 0.0547768794517)
(0.0695541902472 0.0456783122044 0.0271661304347)
(0.0239591127282 0.0293613671613 0.0166534552608)
(0.0213005778791 -0.0238616144718 -0.0128358667077)
(0.091636184821 -0.0467124335746 -0.0166823024642)
(0.114448182969 -0.0741987124462 0.0187733566241)
(0.138726953319 -0.101293424962 0.0310096989097)
(0.169771377072 -0.12392484814 0.0254403007153)
(0.213829060983 -0.136545188945 0.0134729487672)
(0.269084999822 -0.137926182616 0.00140700275925)
(0.333308706645 -0.130274571315 -0.00754706440252)
(0.399085812981 -0.114721494242 -0.0106761739507)
(0.45750314208 -0.0956597126466 -0.0110380652868)
(0.501895291153 -0.0765097941334 -0.00515073798605)
(0.529143674108 -0.0579297647175 0.00570986363522)
(0.533734918522 -0.0428650223095 0.0215843569264)
(0.51038703823 -0.026936592833 0.0401002241464)
(0.460114932003 -0.0087533483365 0.0578038202133)
(0.382150020574 0.0119164112371 0.0740387401116)
(0.284959766708 0.0298667099091 0.0819463351699)
(0.175789349827 0.0441022877326 0.0723633315724)
(0.0666974951104 0.0522515138835 0.0370316260004)
(0.0202809567405 0.0480798346883 0.0123584408843)
(0.0200735512772 -0.0306554518978 -0.0134608731372)
(0.0840253543664 -0.0734322168861 -0.0113407477074)
(0.097466973082 -0.108858289131 0.020119352137)
(0.116065448482 -0.139795247531 0.0217203271581)
(0.147793350848 -0.16305274422 0.00563039645406)
(0.198117991846 -0.173686535073 -0.0146755578914)
(0.26257032393 -0.17121165504 -0.0307745873755)
(0.336128006677 -0.15874070263 -0.0415412846772)
(0.408821805508 -0.13805154666 -0.0446829436168)
(0.472226100941 -0.114914150921 -0.0415947653469)
(0.520429962512 -0.0923684991268 -0.0327677352426)
(0.54922112813 -0.0720833487054 -0.0189616562588)
(0.555294339947 -0.0547693800712 0.000316514639562)
(0.534248109181 -0.0379077686206 0.0224372396565)
(0.484728249846 -0.0197032852759 0.0448993294469)
(0.405177648129 0.00138015267041 0.0681102855699)
(0.301878121453 0.0217704335064 0.082746130475)
(0.18495189404 0.0400524138445 0.0794596305427)
(0.0652128771595 0.055352547739 0.0425290261967)
(0.016680756599 0.0669595521572 0.00993689838152)
(0.0202888956233 -0.0361016772206 -0.0144503762996)
(0.0763715188163 -0.0908440818369 -0.0122391519535)
(0.0843140963419 -0.1292648156 0.0116674697917)
(0.0998335713011 -0.158724444061 0.00368991929933)
(0.134760059454 -0.177413931139 -0.0213436335697)
(0.193539116947 -0.18157342706 -0.0462811090375)
(0.26669905636 -0.17368835719 -0.0644854426701)
(0.349028669185 -0.1559636836 -0.074284021889)
(0.427189224752 -0.13097618823 -0.0742534020692)
(0.492521374283 -0.104448892162 -0.0671813532413)
(0.540314446737 -0.080452893394 -0.0554073526925)
(0.567719302687 -0.0606031301798 -0.0399339638146)
(0.57256763783 -0.0430966089494 -0.0190086356714)
(0.551074658196 -0.0287912290951 0.00496627959211)
(0.501315624314 -0.0144506880792 0.0303054872767)
(0.420510783174 0.00329632137483 0.0571793448081)
(0.31352213543 0.0213355536773 0.0773255896838)
(0.189971817775 0.0408401143806 0.07922589894)
(0.0644598394909 0.0600590651893 0.0450770522588)
(0.0141682780896 0.0824081917777 0.00824677167994)
(0.0198456985693 -0.0377765094523 -0.0163759944803)
(0.0713937233467 -0.0942797822863 -0.0176855125161)
(0.0775752036197 -0.129972834558 -0.00121393848795)
(0.0926990511523 -0.153917441523 -0.0163079776924)
(0.132846768546 -0.165392219468 -0.0465192220463)
(0.199102628879 -0.163091205176 -0.0731117478959)
(0.280092722119 -0.150041897029 -0.0908684293305)
(0.369143399515 -0.128169393549 -0.0977938258279)
(0.450259697708 -0.100289923378 -0.0935467521394)
(0.514806357021 -0.0721422206824 -0.0828654108716)
(0.559339160958 -0.0486519434397 -0.0691899783227)
(0.58411827363 -0.0312022091493 -0.0536891907944)
(0.58597414047 -0.0137995625674 -0.0314285185644)
(0.561392438849 -0.00430899559738 -0.00823605970225)
(0.510197273705 0.00504284817563 0.0175354232229)
(0.429147884106 0.0175550136335 0.0472547534711)
(0.319227802428 0.0317371046021 0.0696012645166)
(0.191663923264 0.0485429947303 0.0754226998917)
(0.0627553649108 0.0672700624772 0.0445088278215)
(0.0116937954842 0.0895425865136 0.00541897832259)
(0.0196788182686 -0.0339213482391 -0.0180697020878)
(0.0693461042806 -0.0833890016415 -0.0255377175165)
(0.0763253551147 -0.112049438408 -0.0149917795124)
(0.0932283022623 -0.128398739819 -0.0344716409656)
(0.138881687365 -0.132381241647 -0.0668410615471)
(0.212525359112 -0.123809556839 -0.0929367535494)
(0.300108494436 -0.107052877395 -0.108501628724)
(0.39448274177 -0.0828853138128 -0.111104900811)
(0.476945416452 -0.0544060173017 -0.10085315282)
(0.538530979223 -0.0280888406064 -0.0841471682157)
(0.577209598554 -0.0056949344688 -0.0695880708659)
(0.599131466037 0.0114314212281 -0.0626886140605)
(0.596266744612 0.0227182542735 -0.0289583977709)
(0.565528508978 0.0295240321601 -0.0139674452061)
(0.513280611236 0.0353060346041 0.00940551843842)
(0.432216426885 0.0431730740461 0.039175390711)
(0.32080526661 0.0525921230119 0.0627578889815)
(0.190700021359 0.0651141334949 0.0702990023899)
(0.0605617381819 0.0798054080681 0.0421384281382)
(0.00839194188424 0.0986426756412 0.00436223671394)
(0.0197635795449 -0.0284453297425 -0.0179745896825)
(0.0698888519186 -0.060649377313 -0.0325622596653)
(0.0793334494395 -0.0786450497634 -0.0263180958568)
(0.0994921842608 -0.086604212029 -0.0465143010829)
(0.150653944179 -0.0840728508935 -0.0805215031201)
(0.23010048234 -0.0721486059073 -0.104663782243)
(0.322839427882 -0.0547992253851 -0.117232120548)
(0.420851770579 -0.0319870627816 -0.114519298425)
(0.500891211286 -0.0095297297386 -0.08847877981)
(0.561166365993 0.0174202795519 -0.0774969935853)
(0.593582629641 0.0378478743017 -0.062028213969)
(0.606584958872 0.0526370166365 -0.0498101579496)
(0.599879686261 0.0577182141121 -0.0328029788007)
(0.56845528855 0.0641447034215 -0.0148871002457)
(0.513567089826 0.0684649351014 0.00675267590715)
(0.431919504198 0.0730598615066 0.0353245861962)
(0.31948946883 0.0787647120517 0.0583878081354)
(0.187336826227 0.0869901800585 0.0648414921443)
(0.0570136791672 0.095295580333 0.0412382642006)
(0.00517480794475 0.104549549288 0.00419021152472)
(0.0213533746825 -0.0137004340894 -0.014969713916)
(0.0727607746457 -0.0294024518573 -0.0374583328803)
(0.0843600495803 -0.0352745432113 -0.0335350910783)
(0.108433663111 -0.0347181591222 -0.0530584791653)
(0.164040418294 -0.0278095974121 -0.087470742783)
(0.247332853283 -0.0154938918098 -0.109437751251)
(0.343303939444 -0.000535480496456 -0.119545529949)
(0.442216354771 0.0174108547262 -0.111704969991)
(0.524111795599 0.036483291153 -0.0897649717357)
(0.578831255106 0.0544079526682 -0.0712846162021)
(0.606556019882 0.0699308735699 -0.0534025092491)
(0.613765276163 0.0818350474064 -0.0410110638169)
(0.600613816612 0.0897123278895 -0.0321244736138)
(0.570379106283 0.0956044178083 -0.011774958627)
(0.513227571336 0.0996632860505 0.00845627311086)
(0.430853548697 0.102415605108 0.0356118590867)
(0.31823315562 0.105142570696 0.0575295977745)
(0.184821197964 0.108743918241 0.0616272293443)
(0.053792963754 0.110205419371 0.0415488769829)
(0.0024385501612 0.107470324948 0.00414998972523)
(0.0174433457469 -0.00222028783348 -0.0239056098841)
(0.0702963290809 0.00403181691154 -0.0409182439673)
(0.0896017767471 0.0113831168503 -0.0363558947131)
(0.11749565149 0.0205506911689 -0.0550981388461)
(0.175689766478 0.0305305191943 -0.088084438337)
(0.260775157658 0.0415039640292 -0.108494941574)
(0.357538704194 0.0524994355251 -0.117465969475)
(0.456533290066 0.0639153353283 -0.108539066647)
(0.537931795482 0.0748577553666 -0.0863296544553)
(0.591066182314 0.0852324461923 -0.0665801415996)
(0.616600540681 0.0956030580052 -0.0482291704132)
(0.621112177521 0.105661280337 -0.0356978180202)
(0.605344685955 0.113687745338 -0.0276280143262)
(0.573611636751 0.121473729271 -0.00662807939971)
(0.514622567197 0.126501544031 0.0135022351259)
(0.430864191105 0.127529101009 0.039736520516)
(0.317683819298 0.127572990068 0.0608924317353)
(0.183898342761 0.125342591394 0.0635448051234)
(0.0525602447356 0.120281681078 0.0443763675351)
(0.00107154072581 0.106652880323 0.00510818157012)
(0.0188780005146 0.00409319748989 -0.0213980775708)
(0.0748878496467 0.0350962887829 -0.0395952664149)
(0.0964877826094 0.0551449653137 -0.0344156803626)
(0.126312991782 0.0717218206482 -0.0523136388496)
(0.185019202997 0.0847860659133 -0.0823554100568)
(0.269752722344 0.0947059969623 -0.102097618882)
(0.36493186931 0.101925331279 -0.111317007354)
(0.463436979779 0.106706316805 -0.105472889864)
(0.542507260418 0.112285956785 -0.0798630465846)
(0.597333402094 0.113119506154 -0.0654609564167)
(0.623434546213 0.118106398107 -0.0481151234531)
(0.627720561993 0.125372490399 -0.0351513448984)
(0.611714321293 0.13278682875 -0.0229808896433)
(0.578064443801 0.141467596989 -0.000354416175598)
(0.517150094689 0.146481137042 0.020661017207)
(0.431200183421 0.145802389369 0.0469023122648)
(0.317287599175 0.142887243266 0.0679623870903)
(0.183937197539 0.134951023584 0.0712360859013)
(0.0534316368232 0.125159029574 0.0499997165225)
(0.00137599395838 0.102671386645 0.00685015683176)
(0.0195620303807 0.0158888521113 -0.0202479835348)
(0.0790410486038 0.0609012128712 -0.0358784699072)
(0.104103380551 0.0900028592738 -0.0277308816444)
(0.13596882871 0.11283102082 -0.0433810382501)
(0.193941029366 0.128938612597 -0.0696517365199)
(0.276193205049 0.140110603141 -0.0894042878478)
(0.367424639159 0.145129471661 -0.0995943074177)
(0.462664481689 0.145343779794 -0.0971487676258)
(0.542057853086 0.142346008157 -0.0824474739635)
(0.597473621675 0.14153398598 -0.0614805161515)
(0.626322834478 0.139148101685 -0.0482112948578)
(0.634002627884 0.144685568594 -0.028900828537)
(0.61958245358 0.150414243356 -0.0116230167645)
(0.582021436705 0.155509280531 0.00909925488119)
(0.519801200625 0.158106216816 0.03164173035)
(0.43147034966 0.154816033385 0.0574315621383)
(0.316309849452 0.148268597843 0.0779701378924)
(0.185582309177 0.137024289592 0.0831561277465)
(0.0570726344118 0.122609244154 0.0558898245996)
(0.00313061393368 0.0938027672614 0.00951377802136)
(0.0198695536565 0.0238916438585 -0.0184503405297)
(0.0842574391145 0.0759183497091 -0.0307845990336)
(0.113882100491 0.111027289837 -0.0178779786674)
(0.147589453698 0.139260562148 -0.0282960752297)
(0.204988248399 0.160713984067 -0.0490364711456)
(0.283837094594 0.1725162762 -0.069956643291)
(0.368660742382 0.176720952024 -0.0810185435692)
(0.458781451005 0.174856927243 -0.0816058108745)
(0.536018093618 0.168176161419 -0.0712862220945)
(0.592545325706 0.161266895913 -0.0555568917227)
(0.625020274549 0.157318222474 -0.038178676505)
(0.634789212849 0.156643901197 -0.0195666132168)
(0.621360247157 0.158962134596 -0.000463640899)
(0.582780581025 0.16048809768 0.0221126502418)
(0.518937275573 0.158816363574 0.0453812229231)
(0.428874208042 0.15137948876 0.06974779153)
(0.314681544882 0.141074254949 0.0879719920978)
(0.186635514676 0.127665781969 0.0925418760402)
(0.0592307000642 0.109773902913 0.0610312933418)
(0.00536740711574 0.0787804804519 0.0121683014631)
(0.0205926269778 0.0273279216959 -0.0166966353056)
(0.0914659141118 0.0783779478583 -0.0265381949511)
(0.127545991349 0.115410020687 -0.00796997366925)
(0.165955593492 0.146842230302 -0.0118692826863)
(0.219906635136 0.172865113349 -0.0292238546682)
(0.292128018519 0.185435551258 -0.045957577763)
(0.371363174855 0.189753478158 -0.0563253227475)
(0.455334905338 0.187215633162 -0.0591809589794)
(0.529326534397 0.178706850561 -0.0524388323981)
(0.585395396204 0.16906320237 -0.0396046149657)
(0.619241575808 0.161379022846 -0.0232420249002)
(0.631222415806 0.156745921157 -0.00431842461889)
(0.618675687395 0.153052097827 0.0145652141664)
(0.578677744444 0.151358778865 0.0387990086548)
(0.513169421415 0.145065784916 0.060854266739)
(0.422330178046 0.134010139372 0.0820875768708)
(0.31016490148 0.121064594533 0.0971044941973)
(0.185730130178 0.105992751424 0.0980215029168)
(0.0611349461307 0.0893839246646 0.0644207511235)
(0.0080177085196 0.0614247219902 0.0153547432671)
(0.0209912953372 0.0247565011319 -0.0152414052574)
(0.100586418026 0.0664167650612 -0.0249180130367)
(0.14486049534 0.100712397064 -0.000700278250055)
(0.188490191233 0.131584709963 0.00379588773379)
(0.241136498259 0.157452668566 -0.0057469958591)
(0.306944359249 0.172738108384 -0.0177819487234)
(0.379199690132 0.177612760684 -0.0256655565116)
(0.455362797796 0.17543956646 -0.0290181354583)
(0.524093133931 0.166399017398 -0.0246939270196)
(0.57759192917 0.1552929001 -0.0145179314487)
(0.610776770185 0.145345524916 -7.20548581701e-05)
(0.621265212497 0.137509153643 0.0171037125782)
(0.609269600738 0.129139610521 0.0322638262062)
(0.568971964216 0.122303773705 0.0610722451932)
(0.500936830222 0.113389710796 0.0770118029808)
(0.410539909713 0.100566450578 0.0932177590519)
(0.301937183365 0.0871751347514 0.104305379822)
(0.182961391289 0.0740439278983 0.100487351964)
(0.0623396793556 0.061516122989 0.0655524860841)
(0.00994364333997 0.0436345015342 0.0210762903893)
(0.0221407520069 0.0197530906473 -0.0146541018727)
(0.108363352317 0.0452126409866 -0.0280337858247)
(0.162780324497 0.0726813723736 -0.000686873227749)
(0.21269657705 0.0988816071475 0.0126888673774)
(0.265825113085 0.121174332428 0.0121494208374)
(0.326674213179 0.1348368836 0.00681271696268)
(0.391578288951 0.138506443143 0.00207203813442)
(0.459677451473 0.135752196034 -0.000725824900558)
(0.521908800104 0.126404502545 0.00226261064658)
(0.57103850389 0.11477944277 0.0100331121237)
(0.601431593152 0.103928308732 0.022064977821)
(0.609517645268 0.0947437332627 0.0371740460315)
(0.594539049705 0.0856918082829 0.0527947801007)
(0.553714043355 0.0761640580491 0.0719103048127)
(0.486634184971 0.0672422069383 0.08777641731)
(0.396969553953 0.0561340614565 0.0993427253324)
(0.292840489623 0.0456225640152 0.104961387664)
(0.180171851448 0.0382005848931 0.0961475275668)
(0.0674151731301 0.0324213056783 0.062686184505)
(0.0149716072584 0.0309026902121 0.0245853986124)
(0.0235626697061 0.0116579965435 -0.0155958722901)
(0.112509846843 0.0199527196123 -0.0370046803275)
(0.178345672472 0.0365616105502 -0.0132364569261)
(0.235543188599 0.0538806761488 0.00526254132625)
(0.291211135493 0.0690771163291 0.0131365447949)
(0.35019351378 0.0771302254897 0.0147678373461)
(0.40918360618 0.0771417966269 0.0145742474876)
(0.469654668906 0.0731956677314 0.0132288054702)
(0.524164788152 0.063843916558 0.0157568869012)
(0.566482292204 0.0530179454515 0.0222345366306)
(0.591521841302 0.0431531228613 0.0322328743486)
(0.59518115048 0.0348433993808 0.044537765314)
(0.576856654113 0.0273833131795 0.0578093072834)
(0.53404343859 0.0214204603703 0.0716117424571)
(0.467788449412 0.0146727045843 0.0833299044945)
(0.381996857565 0.00783085501499 0.0909362198905)
(0.284391754918 0.00290934776407 0.0915469430899)
(0.178965156301 0.00239207839257 0.0814354611873)
(0.0753118696452 0.00636244490002 0.0550268476263)
(0.0212035358617 0.0181796348038 0.0288018269323)
(0.0226141204526 0.00505412095775 -0.0129609474005)
(0.107886944443 0.000617811065146 -0.0458549439509)
(0.185474240658 0.00299654081103 -0.0386044293359)
(0.252829127793 0.00678400506731 -0.0259119898882)
(0.314345438928 0.0103157674285 -0.0172514987039)
(0.375191798773 0.0119886047233 -0.0113218423217)
(0.430383552625 0.00913870923694 -0.0070223099331)
(0.484666429607 0.005247788116 -0.00593987262658)
(0.53039028999 -0.00232417498581 -0.00202345141048)
(0.563342303525 -0.00970937876775 0.00443395080626)
(0.579825053143 -0.0166194542602 0.012505616724)
(0.576609634683 -0.0227199586014 0.0221883269623)
(0.554843147752 -0.0283927055293 0.0326732193779)
(0.510653394467 -0.0301787643656 0.0422858465328)
(0.445739373256 -0.0335557917325 0.0508337503122)
(0.365131608829 -0.0359347794862 0.0566029514125)
(0.27549264972 -0.0327505013306 0.0581302579038)
(0.179869879606 -0.024981651744 0.053406714987)
(0.085849273355 -0.0112613680798 0.0431192716347)
(0.0279977205885 0.0127320149305 0.0366202147689)
(0.0181118987264 0.00794346783809 -0.0043872231351)
(0.089441134365 0.0079226840222 -0.0238944563781)
(0.173968423029 0.00795416871913 -0.0319336272449)
(0.253481278191 0.00774235860482 -0.0322062283465)
(0.329513882058 0.00654649700487 -0.030068587986)
(0.400988872684 0.00570163617755 -0.0277077860321)
(0.45220682696 0.000656096218041 -0.0231092488522)
(0.501124091072 -0.00114595520026 -0.0211092685006)
(0.5343849843 -0.00608919151519 -0.0170059896023)
(0.55241117137 -0.0109621884897 -0.0134794080744)
(0.554379678309 -0.0145204025389 -0.00926042588777)
(0.539549770263 -0.0173104024633 -0.00456596343918)
(0.51264906963 -0.0195081868116 0.000490572320473)
(0.466891871841 -0.0188199443877 0.00684786209494)
(0.405232962481 -0.0186172797664 0.0156859494044)
(0.337311629785 -0.0184846091653 0.0242690672793)
(0.263697915018 -0.0147328280665 0.0301625629139)
(0.183071518714 -0.00952473563265 0.0349157752349)
(0.103243760325 -0.00171441917847 0.0418780307644)
(0.0388436079617 0.0118714499336 0.0482785122382)
(0.0320455652034 0.00985800544364 -0.065862333091)
(0.095703593161 0.0133045939195 -0.0921752013534)
(0.141244416844 0.0101500174901 -0.0919715485275)
(0.176653068552 0.00189275125685 -0.0816484717382)
(0.216218153291 -0.0065126362813 -0.0715836295699)
(0.263247964301 -0.0111784650903 -0.0633826576502)
(0.314166805103 -0.0123810912111 -0.0559358613557)
(0.364927323969 -0.0118874105293 -0.0472781819169)
(0.409822927429 -0.00760868064694 -0.0395932246336)
(0.448663598691 -0.00328970461416 -0.0306084081187)
(0.474276979806 0.00018290268633 -0.0199957194292)
(0.488472319319 0.00293494829906 -0.00802116508209)
(0.484768108019 0.00561234894172 0.00730705049706)
(0.456320950603 0.00900370082149 0.0226195942374)
(0.408021625953 0.0126834904301 0.0373442639194)
(0.340631459912 0.0183902820488 0.0513303802126)
(0.256435312196 0.0243856213086 0.0598599432075)
(0.162012878813 0.0276209312474 0.0614064219738)
(0.0716507715419 0.0198857775229 0.06339059935)
(0.0167510340872 -0.000112962491336 0.0764894485845)
(0.048962300379 0.0132949609336 -0.0825781339148)
(0.0911852668138 -0.0114190882824 -0.0570459567825)
(0.112696201144 -0.0342280533147 -0.0205918965118)
(0.136298481238 -0.0563547293157 0.00154511258169)
(0.170231312869 -0.0737124896481 0.0102857110345)
(0.215304083197 -0.0843245237622 0.0120701781288)
(0.269515943638 -0.0878611827479 0.00956754767587)
(0.329517029316 -0.0860794421051 0.00640557342273)
(0.389280235131 -0.0773147955992 0.0067519937277)
(0.443601334399 -0.0676106565488 0.0122495957869)
(0.486202115605 -0.0583675991179 0.0230672629422)
(0.516469696042 -0.0506079943607 0.0394418713482)
(0.526183802101 -0.0396429539074 0.0573639820187)
(0.506778921724 -0.0275724258112 0.0834623073509)
(0.462912439342 -0.0167896406944 0.103046316085)
(0.39671035532 -0.00243562213446 0.117968920381)
(0.31084989224 0.0135479037929 0.123115819381)
(0.208848842769 0.0269514495025 0.112533734672)
(0.105838506807 0.0284165825587 0.0848741049672)
(0.0264303380343 0.0162029270999 0.0477023116004)
(0.0507132190816 -0.0153164478106 -0.0790196535364)
(0.0764666980597 -0.0618583671457 -0.020761183749)
(0.089289563817 -0.0924503826198 0.0225673494421)
(0.109788913685 -0.118991846846 0.0378473889273)
(0.144281335596 -0.139665685349 0.0361450128064)
(0.192021967459 -0.152229784769 0.0266701606762)
(0.250220496399 -0.15622948962 0.0155175832637)
(0.314643030975 -0.153020569538 0.00723547717335)
(0.379294945704 -0.143075299669 0.0048616113323)
(0.438656619205 -0.131177146238 0.00989539604167)
(0.485968731303 -0.117780181822 0.0225315272242)
(0.523687438269 -0.103283385508 0.0420405383411)
(0.542016213486 -0.0903025727096 0.0580994809155)
(0.525788984126 -0.0740010971235 0.1111193018)
(0.485114061735 -0.055300326418 0.131062367203)
(0.423573144031 -0.0337921048136 0.153012496678)
(0.339728918787 -0.0118270914398 0.164675194224)
(0.236107583259 0.00865020414544 0.155973305051)
(0.12591328367 0.0212633777747 0.113957493655)
(0.0317713452415 0.0294184796685 0.0403578150183)
(0.0432438901476 -0.0523330323476 -0.0709733824931)
(0.055807671705 -0.108772974684 -0.00248453244282)
(0.064495637312 -0.140780919984 0.0329833158311)
(0.0845523044729 -0.166744138815 0.0343845189826)
(0.122687917514 -0.186302039091 0.0178599016194)
(0.175404531631 -0.198405218697 -0.0042864606462)
(0.238836769323 -0.201972195556 -0.0237273959366)
(0.308625543247 -0.198290635489 -0.0353598018871)
(0.377248046205 -0.188329399722 -0.0381673903324)
(0.439586402097 -0.174288116547 -0.0308278114212)
(0.491889500948 -0.157720254957 -0.0143826612462)
(0.52864443752 -0.138122084553 0.0105536864272)
(0.546692992305 -0.124236936612 0.0413951867335)
(0.53875543162 -0.107148247612 0.0823222221438)
(0.504436232611 -0.0845032368402 0.120132065855)
(0.445944669687 -0.0594100069617 0.15493104974)
(0.363446346804 -0.0347034236363 0.176951233228)
(0.257966956703 -0.0111046304621 0.176894060684)
(0.142814369445 0.00790476393292 0.133567474116)
(0.0383604310561 0.0306274745567 0.04234456648)
(0.0343722911003 -0.0816524810464 -0.0682817206012)
(0.0376660587127 -0.141041455575 -0.0011995489386)
(0.0427774880197 -0.17024143929 0.0220056067855)
(0.0630161756595 -0.191485045948 0.00822610806098)
(0.104764019254 -0.206978777709 -0.0233645730006)
(0.163214873879 -0.215724019728 -0.0571411672579)
(0.232492665574 -0.217374021492 -0.0822702861222)
(0.307040492693 -0.211743437079 -0.095696585571)
(0.380472666103 -0.200690824424 -0.0961965772509)
(0.446794091179 -0.184534656554 -0.0850919536558)
(0.501365151928 -0.166371649491 -0.0641647748567)
(0.538395953443 -0.147200929821 -0.0341864408478)
(0.556393272694 -0.128577157871 0.00315594343202)
(0.551271645623 -0.109784201251 0.04675829895)
(0.521145874891 -0.0887837541659 0.0931349322796)
(0.465136806464 -0.0664462526411 0.140377211469)
(0.38282615203 -0.0432011265882 0.172792309163)
(0.275511553015 -0.0203932854211 0.180719745556)
(0.155706416592 0.00185305377711 0.142358207952)
(0.0445879548801 0.033699213158 0.044892106918)
(0.0283901183737 -0.0971299776321 -0.0714417165527)
(0.0249172556256 -0.154936119682 -0.0118227715001)
(0.0270619787438 -0.1796152902 -0.000988406864677)
(0.0470959893271 -0.195288477496 -0.0282452129023)
(0.0922225528492 -0.205455092101 -0.0718134221193)
(0.155583685226 -0.210089868916 -0.112437818393)
(0.231028801839 -0.208210224821 -0.140383378991)
(0.311605574345 -0.199637360658 -0.152314574518)
(0.389894763309 -0.185555638232 -0.14834575722)
(0.459316578595 -0.167646184268 -0.131844051263)
(0.515013592476 -0.148650570963 -0.106151547849)
(0.552606213985 -0.130179519018 -0.0726226690831)
(0.570554955479 -0.108973868576 -0.0331788234276)
(0.565387372639 -0.091840403994 0.0151539968518)
(0.534998458497 -0.0738260649772 0.0661578170812)
(0.479936862923 -0.0562299977374 0.118781732589)
(0.398145724963 -0.0373022662496 0.160481472485)
(0.288417917699 -0.017195692293 0.176099046999)
(0.164133574577 0.00515223478038 0.143935989205)
(0.0483676497722 0.0406500215026 0.0455661079773)
(0.0261829906759 -0.0973755677948 -0.0777136627773)
(0.0186426476975 -0.148975782504 -0.0296360985671)
(0.018585491849 -0.168716442744 -0.0290164437213)
(0.0382048478056 -0.179170776079 -0.0659756091772)
(0.0855015411823 -0.184551049299 -0.116659238107)
(0.153798880023 -0.184737556991 -0.16053565386)
(0.235324154528 -0.178869273289 -0.187484486594)
(0.321758800556 -0.167077573352 -0.194921247006)
(0.404542468831 -0.150326591872 -0.184265730605)
(0.476118940752 -0.130757248257 -0.160940356809)
(0.531664299546 -0.112021482881 -0.130415296372)
(0.570927065546 -0.101058304792 -0.0944364345978)
(0.587097505257 -0.0649695731133 -0.0546175099658)
(0.577936581461 -0.0579678828352 -0.00736093849513)
(0.547058893555 -0.0450113667548 0.0452656275588)
(0.490832130893 -0.0310880384816 0.100478301736)
(0.408412872609 -0.0169728765321 0.147623415794)
(0.29655224728 -0.00110422614037 0.168057804125)
(0.168622585955 0.0186367506259 0.140589737972)
(0.0497474586691 0.0521564025733 0.0445363554911)
(0.0270512091103 -0.0828791357953 -0.085857525155)
(0.018428225699 -0.124855146176 -0.049385677517)
(0.0167295420846 -0.139658478533 -0.0561535201522)
(0.0359143613243 -0.145595795126 -0.0987176043247)
(0.0851654953905 -0.14711515596 -0.152713769949)
(0.157644146843 -0.143500603714 -0.196430890461)
(0.244558038693 -0.134457040091 -0.219755925552)
(0.33628806988 -0.120172180924 -0.22070921315)
(0.423078488048 -0.101648265209 -0.202177565187)
(0.495141796219 -0.0808159313806 -0.17067053215)
(0.542862856744 -0.0605287822602 -0.134925427627)
(0.59789212602 -0.043606373245 -0.0980882856032)
(0.611132470397 -0.0286948909914 -0.0607544667541)
(0.58133602463 -0.0175763916594 -0.0163783096549)
(0.555531647236 -0.00697308709067 0.0342318095286)
(0.498790478745 0.00329931532851 0.0887450658506)
(0.414318111034 0.0136455695479 0.136841729478)
(0.299937074042 0.0239882158972 0.15997689268)
(0.170027476721 0.0409695783201 0.135150438496)
(0.0503347351365 0.0689842249092 0.0439805286636)
(0.029649916593 -0.0564115105161 -0.0935365553639)
(0.0221289175302 -0.0864772628752 -0.0667517031302)
(0.0198445805707 -0.0962810105313 -0.0782064554666)
(0.0388049559862 -0.0991186563334 -0.122527311476)
(0.0895626679866 -0.097493299088 -0.177443215985)
(0.165518214765 -0.0914118749018 -0.219064863254)
(0.256853542329 -0.0805686297353 -0.23761820921)
(0.352848892138 -0.0650924373654 -0.231913071356)
(0.444072176477 -0.0451168197873 -0.208874731428)
(0.517349749814 -0.0255317088887 -0.168188703153)
(0.569214525338 -0.00574047631463 -0.126364137465)
(0.603765607127 0.0167737901259 -0.0876980158518)
(0.613212121614 0.00984062750202 -0.0540257048339)
(0.597947649932 0.0258930560262 -0.0140411878386)
(0.563514935212 0.0351916348322 0.0329955115926)
(0.50348456155 0.0425950027642 0.0851181702131)
(0.415886459305 0.049418088778 0.132385060294)
(0.300775526208 0.0557311241136 0.156990727947)
(0.17077070733 0.0685325285927 0.131967053572)
(0.0503315630274 0.0863403288057 0.0451767467481)
(0.0309396734181 -0.0297522263835 -0.0980845426626)
(0.0259546545022 -0.0398489648715 -0.0790854786676)
(0.0251962464243 -0.0440390867448 -0.09266644514)
(0.0449246373766 -0.0442806695893 -0.13690079985)
(0.0973533796568 -0.0406464969719 -0.190757447718)