/*--------------------------------*- C++ -*----------------------------------*\
| =========                 |                                                 |
| \\      /  F ield         | OpenFOAM: The Open Source CFD Toolbox           |
|  \\    /   O peration     | Version:  3.0.1                                 |
|   \\  /    A nd           | Web:      www.OpenFOAM.org                      |
|    \\/     M anipulation  |                                                 |
\*---------------------------------------------------------------------------*/
FoamFile
{
    version     2.0;
    format      ascii;
    class       volScalarField;
    location    "8.8";
    object      p_rgh;
}
// * * * * * * * * * * * * * * * * * * * * * * * * * * * * * * * * * * * * * //

dimensions      [1 -1 -2 0 0 0 0];

internalField   nonuniform List<scalar> 
7968
(
4950.1245547
4950.1244055
4950.11777059
4950.1068985
4950.09140959
4950.07246875
4950.05141092
4950.02901517
4950.00540376
4949.98145426
4949.9576078
4949.9343896
4949.91217129
4949.89199179
4949.87435397
4949.85954691
4949.8475613
4949.83794302
4949.83167484
4949.82734429
4950.12703996
4950.13058603
4950.12586225
4950.11634232
4950.10111995
4950.08203836
4950.06045973
4950.03748836
4950.01374571
4949.98965658
4949.96570886
4949.94241669
4949.92020862
4949.90009742
4949.88251502
4949.86749813
4949.85496911
4949.84408437
4949.83633886
4949.8294039
4950.1271945
4950.13273816
4950.12974133
4950.12114345
4950.10567489
4950.08563679
4950.06277233
4950.03846119
4950.01360946
4949.98876863
4949.96446769
4949.94121748
4949.9193686
4949.89988952
4949.88291475
4949.86835245
4949.85586543
4949.844244
4949.83541143
4949.82725153
4950.12699936
4950.13423209
4950.1322721
4950.12386787
4950.10770962
4950.08636161
4950.06196033
4950.03620374
4950.01011127
4949.9843363
4949.95952445
4949.93614635
4949.91470436
4949.89570738
4949.87935743
4949.8654069
4949.85329083
4949.84157993
4949.83221965
4949.82331525
4950.12588677
4950.13383555
4950.13181285
4950.12281192
4950.10557889
4950.08277763
4950.05680999
4950.02954565
4950.0022182
4949.97555109
4949.95017283
4949.92656718
4949.90530638
4949.88667338
4949.87084806
4949.85751716
4949.84600968
4949.83486673
4949.82589292
4949.81704645
4950.12466336
4950.13286935
4950.13012589
4950.12000417
4950.10139561
4950.0770086
4950.04943755
4950.02070956
4949.99218352
4949.96461626
4949.9386368
4949.91473438
4949.89350158
4949.87511619
4949.85977687
4949.84712836
4949.83637733
4949.82616886
4949.81815298
4949.80951853
4950.12394583
4950.1320458
4950.12828179
4950.11684979
4950.09681634
4950.07091624
4950.04185268
4950.01188224
4949.98234732
4949.95396818
4949.92737477
4949.90306977
4949.88167365
4949.86333248
4949.8483061
4949.83622017
4949.82621488
4949.8169787
4949.8099548
4949.801931
4950.12379154
4950.131795
4950.12699184
4950.11434332
4950.0930374
4950.0657798
4950.03552081
4950.00458797
4949.97427452
4949.94521033
4949.91801426
4949.89316406
4949.87139153
4949.85287487
4949.83789996
4949.82613686
4949.81668495
4949.80829358
4949.80223408
4949.79473215
4950.12422928
4950.13214723
4950.12648239
4950.11288819
4950.09050264
4950.06219461
4950.03101344
4949.9993404
4949.9684805
4949.93903837
4949.9112628
4949.88564869
4949.86318204
4949.84436013
4949.82926942
4949.81759459
4949.80845165
4949.80063397
4949.79534729
4949.78825394
4950.1251707
4950.1328651
4950.12666158
4950.11244425
4950.08933833
4950.06030907
4950.02845523
4949.99619469
4949.96498056
4949.93509872
4949.90672577
4949.88047329
4949.85726904
4949.83794278
4949.82259993
4949.81079147
4949.80167747
4949.79402549
4949.78922192
4949.78248902
4950.12584141
4950.13372165
4950.12738374
4950.11291693
4950.08949857
4950.06010126
4950.02782749
4949.99510072
4949.96338812
4949.93296009
4949.90404514
4949.8772928
4949.85356522
4949.83374661
4949.81799257
4949.80582357
4949.79646545
4949.78867812
4949.78395061
4949.77747294
4950.12672057
4950.13468727
4950.12855462
4950.11421674
4950.09089299
4950.06147997
4950.0290438
4949.99597201
4949.96361835
4949.93258247
4949.90322531
4949.87604353
4949.85201034
4949.8317823
4949.81542988
4949.80270992
4949.79286358
4949.78472808
4949.77968366
4949.77331366
4950.12782597
4950.13579779
4950.13018605
4950.11629652
4950.09343055
4950.06431552
4950.03198246
4949.99877024
4949.96600917
4949.93438895
4949.90459438
4949.87715836
4949.85283139
4949.83203693
4949.81498725
4949.80152179
4949.7909595
4949.78223099
4949.77645548
4949.770083
4950.12914798
4950.13714006
4950.13223663
4950.11907134
4950.09693836
4950.06834724
4950.03639782
4950.00329756
4949.97044338
4949.93859131
4949.90843517
4949.88066726
4949.85576951
4949.83431989
4949.81649206
4949.80214932
4949.79069006
4949.78103332
4949.77449355
4949.76808559
4950.13067838
4950.13865384
4950.13443616
4950.1220782
4950.10066235
4950.07298578
4950.04177933
4950.00910964
4949.97643398
4949.94455375
4949.9141882
4949.88601572
4949.86047333
4949.83832083
4949.81961783
4949.80427544
4949.79181774
4949.78118174
4949.77382229
4949.76734089
4950.13234696
4950.13996326
4950.13618088
4950.12452381
4950.10394673
4950.07725564
4950.04697915
4950.01504554
4949.98283196
4949.9511412
4949.92069146
4949.89216525
4949.86608557
4949.84317472
4949.82352649
4949.8071618
4949.79371594
4949.78216285
4949.77401626
4949.76771804
4950.13370344
4950.14052012
4950.1365999
4950.12525718
4950.10538801
4950.0796919
4950.05045992
4950.01946046
4949.98793
4949.95664883
4949.92628855
4949.89754868
4949.87104036
4949.8474185
4949.82689074
4949.80962972
4949.79539536
4949.78315487
4949.77457046
4949.76835435
4950.13411724
4950.13918424
4950.13415652
4950.1224968
4950.10313906
4950.07849812
4950.05049524
4950.02063212
4949.99004484
4949.95938638
4949.9292844
4949.9004405
4949.87355757
4949.8492621
4949.82805067
4949.81006404
4949.79527581
4949.78278906
4949.77435808
4949.76855347
4950.13429759
4950.13724771
4950.13061588
4950.11809486
4950.09897077
4950.07525317
4950.04840546
4950.01972766
4949.99014259
4949.96015281
4949.93037163
4949.90154339
4949.87440684
4949.84953973
4949.82779988
4949.80934223
4949.79429885
4949.7820281
4949.77406396
4949.76876685
4950.13244835
4950.13196683
4950.12355765
4950.10985489
4950.09054316
4950.06703805
4950.04072513
4950.01263117
4949.98353307
4949.95397691
4949.92458785
4949.89612456
4949.86934893
4949.84461827
4949.82321952
4949.80511439
4949.79046892
4949.77892644
4949.77159533
4949.76706786
4950.12147444
4950.1196858
4950.11128179
4950.09937115
4950.08393002
4950.06565861
4950.04510713
4950.02285562
4949.99987902
4949.97602256
4949.95181364
4949.92786042
4949.90453449
4949.8831158
4949.86427988
4949.84845005
4949.83610437
4949.8272989
4949.82263456
4949.82011354
4950.1216129
4950.12305305
4950.11488321
4950.10430548
4950.09088467
4950.07492587
4950.05651392
4950.03615462
4950.01415393
4949.99072587
4949.96637563
4949.94175225
4949.91721455
4949.89433963
4949.87367749
4949.85584614
4949.84161121
4949.83132975
4949.82632217
4949.82138707
4950.11970192
4950.12174088
4950.11224201
4950.10184085
4950.0892943
4950.07423795
4950.05652888
4950.03658563
4950.01473516
4949.99120551
4949.9665318
4949.94154865
4949.91579739
4949.89235693
4949.87077685
4949.8519646
4949.83686884
4949.82633822
4949.82275725
4949.81812334
4950.11829205
4950.12203922
4950.11283204
4950.10341498
4950.09193919
4950.077628
4950.06023124
4950.04014716
4950.0180692
4949.99410688
4949.96880547
4949.94288129
4949.91688135
4949.89255742
4949.87004324
4949.8501725
4949.83392903
4949.82254016
4949.81900592
4949.81367681
4950.11720449
4950.12319933
4950.11489111
4950.10655603
4950.09615627
4950.08258024
4950.06549224
4950.04536964
4950.02274404
4949.99807027
4949.97204479
4949.94543916
4949.91895294
4949.89355814
4949.86987702
4949.84880547
4949.83129261
4949.81883823
4949.81459971
4949.80787762
4950.11671692
4950.12510288
4950.11769624
4950.11014241
4950.10051014
4950.08739304
4950.07030445
4950.04996913
4950.02688121
4950.0015632
4949.97482183
4949.94749626
4949.92028047
4949.89394543
4949.86937332
4949.84716161
4949.82849315
4949.81510758
4949.80995696
4949.80150987
4950.11683786
4950.12735612
4950.12067652
4950.11353601
4950.10431419
4950.09122039
4950.07393469
4950.0532862
4950.02973169
4950.00377875
4949.9763235
4949.94827853
4949.92033411
4949.89324198
4949.86784153
4949.8448502
4949.82528758
4949.81114314
4949.80512235
4949.7950771
4950.11761805
4950.12983278
4950.12364427
4950.11654219
4950.10732994
4950.09414112
4950.07657556
4950.05560315
4950.03154169
4950.00488064
4949.97669772
4949.94798887
4949.91942968
4949.89165273
4949.86556572
4949.84194338
4949.82189175
4949.80708061
4949.80034359
4949.78896693
4950.11868651
4950.13210564
4950.12617986
4950.11882181
4950.10949001
4950.09603583
4950.0780895
4950.05665449
4950.03177815
4950.00402143
4949.97504385
4949.94592114
4949.91719663
4949.88898277
4949.862449
4949.8384569
4949.81810635
4949.80305154
4949.79561526
4949.78334238
4950.11960047
4950.13377572
4950.1279154
4950.12028743
4950.11062442
4950.09679011
4950.07837783
4950.05636309
4950.03051194
4950.00202529
4949.97235229
4949.94262803
4949.91363461
4949.88529137
4949.85848986
4949.83430133
4949.81380338
4949.79877123
4949.79075427
4949.77813492
4950.1207391
4950.13470574
4950.12866684
4950.12073578
4950.11068593
4950.09641954
4950.0775106
4950.0549408
4950.02847676
4949.9993852
4949.96912254
4949.93887624
4949.90948095
4949.88090742
4949.853911
4949.82959487
4949.80902691
4949.7939861
4949.78574657
4949.77327663
4950.12148892
4950.13476158
4950.1283772
4950.12013976
4950.10965184
4950.09492627
4950.07553125
4950.05248575
4950.02582253
4949.99631286
4949.96561277
4949.93498625
4949.90513679
4949.8761132
4949.84894911
4949.82455761
4949.80395817
4949.78878398
4949.78073832
4949.76889203
4950.12199828
4950.13407556
4950.12715938
4950.11860478
4950.10751486
4950.09228229
4950.07240426
4950.04889007
4950.02209979
4949.99261555
4949.96166741
4949.930648
4949.90018008
4949.87090814
4949.8437101
4949.81935387
4949.79882224
4949.78350291
4949.77604759
4949.76511729
4950.12250822
4950.13292711
4950.12528241
4950.11615956
4950.10432549
4950.08854983
4950.06818696
4950.04417376
4950.01704564
4949.98742444
4949.95641837
4949.92515374
4949.89455512
4949.86533956
4949.83832023
4949.81422869
4949.79397972
4949.77884581
4949.77201915
4949.76245672
4950.1233138
4950.13169375
4950.12311786
4950.11316597
4950.10044645
4950.08388782
4950.06300811
4950.03856717
4950.01115807
4949.98142426
4949.95038662
4949.91913145
4949.88864094
4949.85963073
4949.83300982
4949.80941902
4949.78967133
4949.7751964
4949.76892398
4949.76101677
4950.12439509
4950.13049132
4950.12087194
4950.10981371
4950.09588823
4950.07830373
4950.05683865
4950.0320142
4950.00447707
4949.97480494
4949.94391775
4949.91285563
4949.88266728
4949.85403913
4949.82797725
4949.80503169
4949.78613569
4949.77245887
4949.76681297
4949.76052107
4950.1258432
4950.12974038
4950.11911711
4950.10676595
4950.09145282
4950.07272741
4950.05049576
4950.02530188
4949.99782467
4949.96833771
4949.93773183
4949.90700849
4949.87718264
4949.84895289
4949.82350108
4949.80152288
4949.78367693
4949.77083088
4949.76573164
4949.76082862
4950.12753584
4950.12963679
4950.11855467
4950.105129
4950.08857026
4950.06884077
4950.04598433
4950.02050321
4949.99290822
4949.96357294
4949.93325017
4949.90292026
4949.87354414
4949.84593749
4949.8211485
4949.79987099
4949.7828449
4949.77062018
4949.76548996
4949.76133163
4950.12978609
4950.13111831
4950.12122724
4950.10763557
4950.09018422
4950.06945897
4950.04577181
4950.01973144
4949.99187738
4949.96258127
4949.93250726
4949.90254639
4949.87364065
4949.84657658
4949.82242406
4949.80178397
4949.78529631
4949.77314356
4949.76675389
4949.76223169
4950.13049598
4950.12861218
4950.1185727
4950.10389999
4950.08465666
4950.06186864
4950.03631319
4950.00882362
4949.98014273
4949.95067612
4949.92100865
4949.89194755
4949.86437572
4949.83868905
4949.81615989
4949.79723556
4949.78222255
4949.77107135
4949.76453216
4949.76113226
4950.12702723
4950.12455812
4950.11493501
4950.10180668
4950.08549753
4950.06662532
4950.04570845
4950.02328053
4949.99978787
4949.97539761
4949.9505032
4949.92574617
4949.90135004
4949.87896989
4949.85915762
4949.84264789
4949.83003192
4949.82161688
4949.81766854
4949.8158167
4950.1260411
4950.13078488
4950.12337583
4950.11244415
4950.09915998
4950.08345557
4950.06534576
4950.04505258
4950.02274795
4949.99886008
4949.97388037
4949.9483938
4949.92304163
4949.89888007
4949.87675628
4949.85743062
4949.8418812
4949.83090194
4949.82451902
4949.81705583
4950.1228321
4950.13047435
4950.12178455
4950.1096835
4950.09657097
4950.08178842
4950.0647565
4950.04540022
4950.02381466
4950.00015903
4949.97492135
4949.94878589
4949.9224299
4949.89707753
4949.8736608
4949.85327696
4949.83718863
4949.82666704
4949.82160321
4949.81292945
4950.12038308
4950.13085243
4950.12125777
4950.10854392
4950.09574032
4950.08161488
4950.06512142
4950.04602919
4950.02424229
4950.00018128
4949.97438695
4949.94758452
4949.92066915
4949.89409084
4949.86959184
4949.84820181
4949.83157565
4949.82148219
4949.81754486
4949.80758526
4950.11889186
4950.13273021
4950.12342891
4950.11101678
4950.09893566
4950.08545695
4950.06928256
4950.05016275
4950.02818222
4950.00364404
4949.97719096
4949.94959642
4949.92170341
4949.89421824
4949.8685491
4949.8457368
4949.82797805
4949.81737172
4949.81327156
4949.80115772
4950.11849826
4950.13559373
4950.12723403
4950.11545871
4950.10401318
4950.09096252
4950.07495334
4950.05568091
4950.03328231
4950.00810285
4949.98090532
4949.95255234
4949.92400263
4949.8954896
4949.86880343
4949.84472159
4949.8256198
4949.81400227
4949.80894039
4949.79440295
4950.11906081
4950.13893037
4950.13165964
4950.12039627
4950.10929522
4950.0964026
4950.08037823
4950.06074942
4950.03773422
4950.01175877
4949.98370842
4949.9545206
4949.92514134
4949.89628188
4949.86886555
4949.84376601
4949.82355689
4949.81082303
4949.80452273
4949.78782896
4950.12045256
4950.14224308
4950.13605981
4950.125041
4950.1139976
4950.1010388
4950.0847999
4950.06464852
4950.04092016
4950.01411258
4949.98519042
4949.95518565
4949.9250971
4949.895772
4949.86790244
4949.84219493
4949.82102531
4949.80753257
4949.800058
4949.78175935
4950.12219448
4950.14518358
4950.13975838
4950.12876451
4950.11760034
4950.10436934
4950.08773734
4950.06694125
4950.04253203
4950.01506093
4949.98537908
4949.95462111
4949.92383588
4949.89401957
4949.86575013
4949.83962752
4949.81788576
4949.80367786
4949.79539219
4949.7762008
4950.12380104
4950.14738513
4950.1422689
4950.13116453
4950.11968849
4950.106052
4950.08893632
4950.06753485
4950.04255896
4950.01438085
4949.98399756
4949.95261526
4949.9212863
4949.89101212
4949.86240061
4949.83598421
4949.81392183
4949.799213
4949.7903736
4949.77089989
4950.1251087
4950.14860845
4950.14335873
4950.1319637
4950.12008969
4950.10598604
4950.08834078
4950.06635606
4950.04078848
4950.01202584
4949.98106564
4949.9491941
4949.91745257
4949.88683881
4949.85798061
4949.83137238
4949.80912292
4949.79414468
4949.78514307
4949.76585672
4950.12589488
4950.14871947
4950.1429481
4950.13110204
4950.1187485
4950.1041461
4950.08596742
4950.06348051
4950.03735369
4950.00813862
4949.97685393
4949.94464356
4949.91260144
4949.8817528
4949.85272861
4949.82600936
4949.80369121
4949.78866634
4949.77979151
4949.76120576
4950.12633672
4950.14785309
4950.14116203
4950.12870747
4950.11576642
4950.10060095
4950.08187716
4950.05902253
4950.03250777
4950.00291779
4949.97136537
4949.93890787
4949.90675459
4949.87576605
4949.84666626
4949.82000916
4949.79787082
4949.78308004
4949.77457276
4949.75714745
4950.12668262
4950.14625125
4950.13833918
4950.12514256
4950.11148237
4950.0956626
4950.0763465
4950.0531493
4950.02642796
4949.99672043
4949.96506178
4949.93254234
4949.90030302
4949.86926499
4949.840109
4949.81366829
4949.79208914
4949.7779092
4949.77006872
4949.75424513
4950.12731661
4950.14425528
4950.1350106
4950.12092133
4950.10637917
4950.08975435
4950.06976711
4950.0461735
4950.01925005
4949.98948259
4949.95782272
4949.92535332
4949.8931668
4949.86221627
4949.83319317
4949.80738537
4949.78678753
4949.77317382
4949.76628242
4949.75269926
4950.1284598
4950.14218407
4950.13182409
4950.11677681
4950.10113969
4950.08353093
4950.06279344
4950.03872275
4950.01154749
4949.98173203
4949.95014186
4949.91781789
4949.88583403
4949.85517402
4949.82684554
4949.80213505
4949.78255734
4949.76967082
4949.76359193
4949.75251995
4950.13026572
4950.1406745
4950.12975654
4950.11411492
4950.09738317
4950.07868082
4950.05711632
4950.03247191
4950.00495098
4949.9750861
4949.94362276
4949.9115582
4949.87999048
4949.85004843
4949.82275155
4949.79890711
4949.78022499
4949.76785161
4949.76210141
4949.75329948
4950.1328691
4950.14038273
4950.12985777
4950.1145586
4950.09722503
4950.0775119
4950.05501683
4950.02976219
4950.00201712
4949.97220331
4949.94095451
4949.90921439
4949.87807172
4949.84866959
4949.82201054
4949.79900349
4949.78082007
4949.76824226
4949.76182002
4949.75445884
4950.13629077
4950.14080448
4950.13135421
4950.11708809
4950.09943575
4950.07864324
4950.05490513
4950.02858389
4950.00006078
4949.96986788
4949.93872772
4949.90750043
4949.87715769
4949.84871707
4949.82301487
4949.80087486
4949.78307858
4949.77011844
4949.76253733
4949.75596202
4950.13811053
4950.1357195
4950.12437309
4950.1082928
4950.08791341
4950.06419968
4950.03793127
4950.00981761
4949.98045545
4949.9502316
4949.91965553
4949.88950975
4949.8607279
4949.83414923
4949.81072219
4949.79106328
4949.77563858
4949.76449702
4949.75812737
4949.75463263
4950.13437574
4950.13026355
4950.11985365
4950.10591776
4950.08924141
4950.07018402
4950.04915024
4950.02647829
4950.0024103
4949.97716255
4949.95111746
4949.92481224
4949.89897165
4949.87464265
4949.85281571
4949.83452551
4949.82070477
4949.81205519
4949.80841121
4949.80807113
4950.1312843
4950.13630749
4950.12881602
4950.11690458
4950.10315825
4950.08729628
4950.06923921
4950.04899581
4950.02661026
4950.00228289
4949.97643156
4949.94964851
4949.92271058
4949.89671235
4949.87263349
4949.85148731
4949.83459698
4949.82292646
4949.81556951
4949.80818083
4950.12718541
4950.13616555
4950.12912622
4950.11644787
4950.10280504
4950.08743747
4950.06984345
4950.04993618
4950.02777268
4950.00346785
4949.97743152
4949.9502815
4949.92281613
4949.89607199
4949.87114459
4949.8492186
4949.83160396
4949.8197861
4949.81231555
4949.80322596
4950.12436814
4950.1360511
4950.1288022
4950.11520059
4950.10117504
4950.08562622
4950.06782152
4950.04756035
4950.02493159
4950.00008266
4949.97346816
4949.94573477
4949.91776626
4949.8905685
4949.8650766
4949.84266574
4949.82495123
4949.81385744
4949.80737667
4949.79698684
4950.1234519
4950.13828813
4950.13146649
4950.1175222
4950.10339559
4950.08777777
4950.06970181
4950.04882494
4950.02538393
4949.99961337
4949.97207681
4949.94346871
4949.91477029
4949.88704183
4949.86128635
4949.83850787
4949.8203318
4949.80927584
4949.80278368
4949.79008696
4950.12413876
4950.14210025
4950.13592882
4950.12185622
4950.10779071
4950.09218253
4950.07363226
4950.05164817
4950.02693816
4949.99987967
4949.97116804
4949.94156758
4949.91217345
4949.88407121
4949.85828664
4949.83537506
4949.81693654
4949.80559977
4949.79853075
4949.78319637
4950.12604763
4950.14683161
4950.14119498
4950.12701112
4950.11295892
4950.09710814
4950.07758337
4950.05397781
4950.02771513
4949.9992429
4949.96937755
4949.93893607
4949.90906014
4949.88079366
4949.85505466
4949.832356
4949.81382778
4949.80216107
4949.79445027
4949.77677054
4950.12866261
4950.15174247
4950.14651758
4950.13217608
4950.11796345
4950.1015028
4950.08076342
4950.0552649
4950.027284
4949.99735563
4949.96646415
4949.9354747
4949.90545606
4949.87727684
4949.85161853
4949.82906129
4949.81052707
4949.79861057
4949.79042264
4949.77098985
4950.13142167
4950.15610991
4950.15117336
4950.13664024
4950.12209457
4950.10493628
4950.08310849
4950.05573722
4950.02630086
4949.99533442
4949.96377977
4949.9324549
4949.90219085
4949.8739358
4949.84817926
4949.82551665
4949.80682212
4949.79461597
4949.78626853
4949.76569668
4950.13382996
4950.15936304
4950.1545207
4950.13968975
4950.12478806
4950.10702619
4950.084403
4950.05578815
4950.02533477
4949.99356751
4949.96142809
4949.92965634
4949.89895962
4949.87040799
4949.84439684
4949.82147299
4949.80248313
4949.78988372
4949.78109798
4949.76038487
4950.13560646
4950.16118941
4950.15623532
4950.14109543
4950.12575598
4950.10745487
4950.08421827
4950.05493113
4950.02389149
4949.99160988
4949.95896012
4949.92669545
4949.89543893
4949.86641799
4949.84003884
4949.8167938
4949.79747796
4949.78449543
4949.77545001
4949.75501239
4950.13654452
4950.16141773
4950.1561797
4950.14069849
4950.12487554
4950.10612339
4950.08250374
4950.05319693
4950.0220722
4949.98958047
4949.95655316
4949.92372341
4949.89182278
4949.86216888
4949.83530037
4949.81167737
4949.79202671
4949.77869857
4949.76953302
4949.74973008
4950.13680322
4950.16021322
4950.15445896
4950.13856841
4950.12224234
4950.10319419
4950.07953141
4950.05090319
4950.01994001
4949.98722468
4949.9536634
4949.92006795
4949.8876243
4949.85741586
4949.83014772
4949.80622084
4949.78630791
4949.77277615
4949.76373403
4949.74493906
4950.13663934
4950.15789394
4950.15148628
4950.13521477
4950.11834993
4950.09909403
4950.07570705
4950.04797341
4950.01761719
4949.98516979
4949.9514638
4949.91736268
4949.8842073
4949.85327609
4949.82546694
4949.80102082
4949.78079951
4949.76721091
4949.75844067
4949.74120542
4950.13650495
4950.15502847
4950.14780839
4950.13121381
4950.11379486
4950.09415869
4950.07102128
4950.04406176
4950.01424858
4949.98208842
4949.94839969
4949.91416065
4949.88070598
4949.8494137
4949.82110973
4949.79604768
4949.77573783
4949.76226544
4949.75382832
4949.738939
4950.13685024
4950.15225672
4950.14411115
4950.12728852
4950.10937225
4950.08926773
4950.06607827
4950.03960262
4950.01027766
4949.97851119
4949.9450788
4949.91098488
4949.87749922
4949.84595108
4949.81718836
4949.791997
4949.77187319
4949.75867042
4949.75075434
4949.73865397
4950.13813386
4950.15028797
4950.14136949
4950.12458644
4950.10639316
4950.08595412
4950.06261901
4950.0362458
4950.00712368
4949.9755903
4949.94238096
4949.90850199
4949.87515046
4949.84357198
4949.81478738
4949.78989621
4949.76996555
4949.75674071
4949.74928515
4949.73991556
4950.14101601
4950.15004835
4950.14081272
4950.12464955
4950.1064974
4950.08586713
4950.06235532
4950.03594771
4950.00685163
4949.97540092
4949.94233682
4949.9086634
4949.87551194
4949.84407902
4949.815478
4949.79080946
4949.77116694
4949.75748113
4949.74956401
4949.74196415
4950.14510659
4950.14989118
4950.14000466
4950.12452498
4950.10609005
4950.08474124
4950.06057149
4950.03369929
4950.00432011
4949.9728407
4949.9399687
4949.90667466
4949.87406148
4949.84332864
4949.81554219
4949.79164082
4949.77251144
4949.758828
4949.7506445
4949.74431172
4950.14883055
4950.144891
4950.13241383
4950.11501221
4950.09363032
4950.06906713
4950.04204939
4950.0131304
4949.98270231
4949.95113148
4949.91895349
4949.88696871
4949.8561691
4949.82765736
4949.80244487
4949.78111816
4949.76461858
4949.75306523
4949.7466984
4949.74384666
4950.14746095
4950.14208218
4950.13184811
4950.11747203
4950.10060524
4950.08122126
4950.05974286
4950.03644283
4950.01153523
4949.98509288
4949.9575401
4949.9293752
4949.90136582
4949.87453551
4949.85011678
4949.82937061
4949.81342168
4949.80362875
4949.79908416
4949.80028842
4950.14245371
4950.14210576
4950.13340256
4950.11963106
4950.10474845
4950.08794022
4950.06906774
4950.04800913
4950.02469464
4949.9993264
4949.97220582
4949.94396767
4949.91541879
4949.88760067
4949.86171206
4949.83910105
4949.82113788
4949.80920304
4949.80194423
4949.79874259
4950.1388728
4950.14072304
4950.13355969
4950.11969244
4950.10494971
4950.08814515
4950.06902199
4950.04764951
4950.02414906
4949.99859534
4949.97134626
4949.9429764
4949.91432551
4949.88644553
4949.86036852
4949.83722992
4949.81841442
4949.80557445
4949.79719356
4949.79332962
4950.13650992
4950.13932771
4950.13271957
4950.11838724
4950.10323616
4950.08589811
4950.06586755
4950.04331371
4950.01879678
4949.99235714
4949.96433828
4949.93526658
4949.90612537
4949.87816439
4949.85241566
4949.82944677
4949.81078374
4949.79841101
4949.79058116
4949.78609513
4950.13694821
4950.14157267
4950.13543107
4950.12081299
4950.10540754
4950.08722541
4950.06569153
4950.04131546
4950.01522934
4949.98743415
4949.95826119
4949.92821257
4949.89847734
4949.87046909
4949.84514206
4949.82299971
4949.80502845
4949.7932668
4949.78533873
4949.7785696
4950.13925512
4950.14586719
4950.13993089
4950.12504642
4950.10927159
4950.0897763
4950.06616815
4950.03925124
4950.01105799
4949.98151606
4949.95102747
4949.92008392
4949.89006027
4949.86228571
4949.83763554
4949.81643717
4949.79915564
4949.7891443
4949.78090911
4949.77126482
4950.14292154
4950.15157171
4950.14554178
4950.13021839
4950.11373062
4950.09253648
4950.06649441
4950.0362561
4950.00538122
4949.9737886
4949.94206787
4949.91060513
4949.88091291
4949.85380866
4949.83003012
4949.80987791
4949.79396528
4949.78432417
4949.77672388
4949.76455942
4950.14712789
4950.15769899
4950.15151403
4950.13567063
4950.11836409
4950.09533866
4950.06672765
4950.03216562
4949.99776697
4949.96355034
4949.93071854
4949.89962874
4949.87133332
4949.84571722
4949.82295106
4949.8036148
4949.78860698
4949.77962803
4949.77222888
4949.75836318
4950.15122425
4950.163281
4950.15701399
4950.14076732
4950.12277904
4950.09818735
4950.0672722
4950.0278371
4949.99056282
4949.95507796
4949.92225395
4949.89198304
4949.86436414
4949.83961728
4949.81731671
4949.79823135
4949.78348127
4949.77475898
4949.76745393
4949.75232231
4950.15467708
4950.16757209
4950.1612455
4950.14462506
4950.12617953
4950.10059206
4950.06828817
4950.02609118
4949.98707471
4949.95070192
4949.91763152
4949.88742446
4949.85954546
4949.83484568
4949.8124593
4949.7932063
4949.77829964
4949.76942544
4949.76240477
4949.74605108
4950.15710564
4950.17014091
4950.16377133
4950.14683303
4950.12788726
4950.10164613
4950.06858685
4950.02546714
4949.98591914
4949.94918386
4949.91569044
4949.88488743
4949.85615049
4949.8307436
4949.8078248
4949.78816169
4949.77289306
4949.76359556
4949.75636154
4949.73940211
4950.15835767
4950.17085361
4950.16438918
4950.14713692
4950.1276682
4950.10120603
4950.06807395
4950.02614292
4949.98739015
4949.95074515
4949.91665953
4949.88463051
4949.85453084
4949.8276148
4949.8036676
4949.78335257
4949.76755175
4949.75762983
4949.7498511
4949.73271977
4950.15848373
4950.16981809
4950.16318629
4950.14557371
4950.12583936
4950.0996825
4950.06742242
4950.02883962
4949.99092635
4949.95381594
4949.91819453
4949.88416679
4949.85269805
4949.82435032
4949.79951963
4949.77869188
4949.76240335
4949.75178407
4949.74340821
4949.72686152
4950.15772314
4950.16742782
4950.16064714
4950.14292634
4950.12323843
4950.09792184
4950.06710549
4950.03172711
4949.99596588
4949.95984195
4949.92374148
4949.88782265
4949.8539173
4949.82350144
4949.79734697
4949.77551343
4949.75826357
4949.74669637
4949.73739697
4949.72275261
4950.15656727
4950.16437569
4950.15736209
4950.13962638
4950.1201501
4950.09589079
4950.0666424
4950.03354418
4949.99909367
4949.96339208
4949.92685445
4949.89025093
4949.85528123
4949.82369503
4949.79642898
4949.77345235
4949.75495408
4949.74240191
4949.73269157
4949.72046162
4950.15568424
4950.16152436
4950.15399749
4950.13620784
4950.11678285
4950.09356656
4950.06597514
4950.03479263
4950.00152411
4949.9664005
4949.92995101
4949.89309812
4949.85749905
4949.82510065
4949.79669199
4949.77239393
4949.75265076
4949.73958494
4949.73045955
4949.72103615
4950.15555609
4950.15960558
4950.15122048
4950.13353943
4950.11416572
4950.09161933
4950.06535994
4950.03572426
4950.00346767
4949.96892086
4949.93277744
4949.89607921
4949.86036407
4949.82728394
4949.79772118
4949.77219364
4949.75161524
4949.73765053
4949.72967673
4949.72336591
4950.15781441
4950.16041343
4950.15095939
4950.1334098
4950.11416917
4950.09200399
4950.06661418
4950.03806973
4950.00658716
4949.97253358
4949.93673892
4949.90032083
4949.86465986
4949.83114749
4949.8007993
4949.77451053
4949.75385823
4949.73955144
4949.7311958
4949.72685781
4950.16121623
4950.16089384
4950.14961854
4950.13211816
4950.11234088
4950.0897939
4950.06448907
4950.03626286
4950.00519506
4949.97161154
4949.93622095
4949.90018457
4949.86483505
4949.83152883
4949.80151016
4949.77585014
4949.75556231
4949.74154646
4949.73354075
4949.73019118
4950.16660179
4950.16094401
4950.14795971
4950.1292269
4950.10658002
4950.0806945
4950.05229023
4950.02185982
4949.9897313
4949.95618828
4949.92168939
4949.88709237
4949.85349005
4949.82215974
4949.79432328
4949.77094285
4949.75277435
4949.74027918
4949.73325247
4949.7314211
4950.16888998
4950.16119163
4950.15219775
4950.13731949
4950.12058009
4950.10075433
4950.07843996
4950.05395985
4950.02783123
4949.999574
4949.97006767
4949.93969117
4949.90907521
4949.87920223
4949.85141318
4949.82725733
4949.80833914
4949.7965236
4949.79050094
4949.79368385
4950.1608393
4950.14893634
4950.13831562
4950.12188752
4950.10501139
4950.0859141
4950.06455217
4950.04094826
4950.01499944
4949.98764615
4949.95866657
4949.92883141
4949.89894022
4949.86993176
4949.84295063
4949.81953367
4949.80136838
4949.78993617
4949.78388855
4949.7894003
4950.1588164
4950.14507423
4950.13687468
4950.12133382
4950.10470829
4950.08519738
4950.06293332
4950.03856203
4950.01261645
4949.98503598
4949.95606151
4949.92620787
4949.89642174
4949.86790795
4949.84154848
4949.818057
4949.79848089
4949.78494178
4949.77671939
4949.78371375
4950.15752314
4950.14187732
4950.13521713
4950.12066884
4950.10411444
4950.08356456
4950.05946098
4950.03313726
4950.00609627
4949.97782558
4949.94824983
4949.91759802
4949.88711188
4949.85847794
4949.83264308
4949.8099069
4949.79060134
4949.77654712
4949.76784279
4949.77487222
4950.16010213
4950.14278512
4950.13674777
4950.12259565
4950.10559734
4950.08310087
4950.05633443
4950.02754179
4949.99891333
4949.96944436
4949.93884619
4949.90716881
4949.8760689
4949.84754298
4949.82260868
4949.80140965
4949.78453603
4949.77104326
4949.76173392