/*--------------------------------*- C++ -*----------------------------------*\
| =========                 |                                                 |
| \\      /  F ield         | OpenFOAM: The Open Source CFD Toolbox           |
|  \\    /   O peration     | Version:  3.0.1                                 |
|   \\  /    A nd           | Web:      www.OpenFOAM.org                      |
|    \\/     M anipulation  |                                                 |
\*---------------------------------------------------------------------------*/
FoamFile
{
    version     2.0;
    format      ascii;
    class       surfaceScalarField;
    location    "2.9";
    object      alphaPhi;
}
// * * * * * * * * * * * * * * * * * * * * * * * * * * * * * * * * * * * * * //

dimensions      [0 3 -1 0 0 0 0];

internalField   nonuniform List<scalar> 
22672
(
3.24674994162e-28
3.36558009981e-28
-2.18315592673e-25
7.07381925152e-27
1.98834745748e-27
-1.75425579189e-24
3.42732614848e-26
5.13036939987e-27
-5.37339719712e-24
3.551363922e-26
4.47857123774e-27
-4.34532367446e-24
6.74276339974e-26
9.82576384022e-27
-6.79755036114e-24
2.30989814199e-26
4.44534236195e-27
-2.33692681702e-24
8.72627877655e-27
2.35684687224e-27
-1.03272245081e-24
7.77377692812e-28
3.25826156536e-28
-1.36439835939e-25
3.10243262892e-30
2.56080981771e-30
-7.54125766511e-28
7.19102361216e-34
6.61305584328e-33
5.19472558404e-34
-4.64899071427e-30
7.81031756817e-33
5.79091565239e-34
-5.78811579987e-28
4.47926150747e-30
-2.03657707622e-27
-3.93193656741e-27
2.51123997002e-28
-1.0685399513e-25
-1.21676539632e-26
1.0435124744e-27
-5.00235769006e-25
-4.25208185919e-26
2.22290711955e-27
-1.3693372755e-24
-4.53343845394e-26
5.76447341652e-27
-4.84605077147e-24
-2.84441760663e-26
5.35354637024e-27
-5.97933523382e-24
-1.06605409078e-26
4.17570859389e-27
-4.89143868397e-24
-5.71176749021e-28
3.12344222536e-27
-3.02653785834e-24
6.73091680698e-28
-4.5868781604e-25
1.98308320825e-27
7.24746549185e-27
-1.81888683742e-24
4.4035699974e-26
4.35536668825e-26
-1.11972980046e-23
1.93024218218e-25
1.12275355134e-25
-2.61777030849e-23
1.68583634512e-25
8.26764474827e-26
-1.66263801939e-23
1.82551978753e-25
9.25914718542e-26
-1.51878160636e-23
1.32172298174e-25
7.82179575814e-26
-1.16089490353e-23
2.70100207109e-26
2.04645404471e-26
-2.72451220825e-24
2.72710113099e-27
3.01018288278e-27
-3.70346322351e-25
1.98608191506e-28
4.20331342116e-28
-5.22087506276e-26
3.25060844884e-30
1.01222206368e-28
-1.30920391499e-26
-1.47064572965e-28
1.0305078155e-28
-1.35822274636e-26
-1.42576425699e-27
3.48679290049e-28
-4.58278026321e-26
-9.21933202177e-27
1.62689047859e-27
-2.27453693245e-25
-4.43741047365e-26
7.03481710861e-27
-1.09010411476e-24
-1.1307690842e-25
2.623820425e-26
-4.64624001952e-24
-8.71085178172e-26
5.7706358587e-26
-1.13831564166e-23
-1.13280497291e-25
4.39102369269e-26
-9.09732114439e-24
-1.75172528118e-26
7.00123515846e-26
-1.79606629448e-23
-2.59127013815e-27
1.93108376722e-26
-4.71347028968e-24
1.22893562353e-26
-3.17238330799e-24
4.57309083622e-27
3.11471900034e-26
-4.63921049206e-24
1.14869488967e-25
1.91510039054e-25
-2.63959644474e-23
3.93602774651e-25
3.8652991193e-25
-4.96648759509e-23
3.28672166061e-25
2.69837456829e-25
-2.90542708517e-23
1.73515714945e-25
1.43569565508e-25
-1.34071436739e-23
2.27573931461e-26
2.13529266357e-26
-1.72705224216e-24
1.5516489794e-27
1.82561409414e-27
-1.29374709778e-25
8.14523063143e-29
1.38162701152e-28
-8.58206382158e-27
3.56296028971e-30
1.17230990003e-29
-6.42097311955e-28
1.52717982544e-32
2.16421212401e-30
-1.10408996116e-28
-3.02720422905e-30
2.24856298942e-30
-1.20977004052e-28
-4.40196316466e-29
1.01569335997e-29
-6.3743722487e-28
-4.68620299563e-28
7.42530577303e-29
-5.58573822932e-27
-4.65871115478e-27
5.46610550297e-28
-4.70408545039e-26
-3.70808166708e-26
4.36179712553e-27
-4.26013321896e-25
-1.26800010608e-25
3.11227961751e-26
-3.42612731955e-24
-9.20327490827e-26
1.08405222882e-25
-1.32800718829e-23
-6.82969028749e-26
9.74249289086e-26
-1.24793747696e-23
-3.54966849006e-27
1.29088550479e-25
-1.93702637814e-23
3.39243703697e-26
-5.19010986503e-24
1.07442766136e-26
8.8330856853e-26
-1.05833955362e-23
1.04345687452e-25
2.08271730755e-25
-2.15525603878e-23
2.27929200841e-25
2.70184314244e-25
-2.27876393067e-23
1.73375854092e-25
1.7177659116e-25
-1.32926558984e-23
1.94968119357e-26
1.93323515906e-26
-1.20871247213e-24
9.78445384828e-28
1.09198954818e-27
-4.76898214298e-26
3.2004692405e-29
4.46554855824e-29
-1.03542115168e-27
9.73270473053e-31
1.96772152727e-30
1.62964346494e-33
3.57310263227e-32
1.44412028415e-31
7.67980492312e-33
-2.93958486533e-34
2.46307443383e-32
1.88587823303e-33
-3.18781989279e-32
2.49728947528e-32
1.77551662307e-33
-5.1247925073e-31
1.15205882425e-31
4.32946443403e-33
-8.91373800998e-30
9.71616908388e-31
-1.07673982335e-29
-1.81161360178e-28
1.19575730764e-29
-4.22865905827e-28
-2.95987191436e-27
1.98812849582e-28
-1.12771586699e-26
-3.0205365679e-26
2.96460438016e-27
-2.19905115227e-25
-7.60171991085e-26
3.12392186475e-26
-2.80688124779e-24
-4.4665979118e-26
9.7705105117e-26
-9.6351099698e-24
-4.7608254735e-27
1.01761167976e-25
-1.06849213114e-23
5.55282081215e-26
-6.7650166777e-24
9.37888176149e-27
6.8147970559e-26
-6.84844188532e-24
1.56927685086e-25
3.08420971593e-25
-2.57109324687e-23
2.23355519223e-25
2.67252962365e-25
-2.0351825248e-23
2.82839240317e-26
2.84739593041e-26
-1.75792217881e-24
1.14847084597e-27
1.15727294645e-27
-4.33992722001e-26
2.6406251432e-29
2.99357514334e-29
-2.71281815188e-28
5.59747871055e-31
7.95874786302e-31
5.93746676886e-32
1.32549460827e-32
2.76077557105e-32
4.29956636684e-33
3.91535750036e-34
1.70075609259e-33
3.50720793943e-34
-8.65365316952e-36
2.66777935537e-34
6.06937526666e-35
-3.67228769049e-34
2.62184012076e-34
5.78302076946e-35
-5.89135510504e-33
1.22363883871e-33
2.27996326374e-34
-1.25780805303e-31
1.07381684992e-32
1.34677225881e-33
-4.42671049978e-30
1.65495087866e-31
6.35267735702e-33
-1.57364566037e-28
4.83770018793e-30
-9.65536841047e-29
-3.37838051912e-27
1.58890382391e-28
-7.89976488503e-27
-3.49552197611e-26
3.54897810175e-27
-2.57264113552e-25
-6.08168399506e-26
4.55154917484e-26
-4.01081407534e-24
-3.87422015996e-27
1.36750893807e-25
-1.30971868425e-23
3.80512264306e-26
-3.88689627996e-24
1.21680557047e-26
6.83357055335e-26
-6.4285348604e-24
6.89824085843e-26
1.18912472078e-25
-9.2976720648e-24
6.05506320611e-26
6.53671519468e-26
-4.61884949332e-24
3.0001184988e-27
2.74646194278e-27
-1.32967291974e-25
5.93133719732e-29
5.444257008e-29
-6.17107974905e-28
9.12484513278e-31
9.43410830289e-31
1.03946141972e-31
1.28284488452e-32
1.67122381953e-32
3.89551489331e-33
1.93687963907e-34
3.7453222925e-34
1.19991296592e-34
4.07798374994e-36
1.72768290087e-35
6.45135587511e-36
-1.42763654862e-37
2.46097697992e-36
9.71292471663e-37
-3.93026067264e-36
2.32081540377e-36
8.9441173468e-37
-6.79893272413e-35
1.08824352541e-35
3.7724956953e-36
-2.13477921988e-33
1.07036296475e-34
2.98975767861e-35
-1.12500627469e-31
2.47360447229e-33
4.5539238281e-34
-6.61713610098e-30
1.09810543036e-31
6.77055171082e-33
-2.96032412383e-28
6.03288006872e-30
-1.40044511787e-28
-5.95185093151e-27
2.82561371051e-28
-1.71740911652e-26
-2.93382170841e-26
7.0154913554e-27
-5.88988565983e-25
-2.54557830963e-27
5.79677039127e-26
-5.37975149254e-24
1.84635592152e-26
-1.78614364972e-24
5.58335233814e-27
2.28998583519e-26
-2.28375175617e-24
3.07507730457e-26
4.26714299726e-26
-3.78045565984e-24
7.98977393189e-27
7.09997007468e-27
-5.18711364898e-25
2.25632190855e-28
1.70848615977e-28
-5.63633791769e-27
3.51805528408e-30
2.67156326962e-30
2.34871760962e-31
4.54146636464e-32
3.88379565496e-32
1.08651857671e-32
4.53930814356e-34
4.90690075187e-34
2.09780032528e-34
3.66954769064e-36
5.96153184246e-36
3.17043161487e-36
3.9088200864e-38
1.46877583092e-37
8.72978343979e-38
-1.72740403129e-39
1.82037496699e-38
1.12564318759e-38
-3.5445387803e-38
1.61483135944e-38
9.77707846611e-39
-8.20278847273e-37
7.38838380415e-38
4.1156104445e-38
-4.93315921749e-35
1.00828884596e-36
4.78110540127e-37
-3.92299026736e-33
4.55511660699e-35
1.63289943862e-35
-2.92990255706e-31
3.0991840193e-33
6.54921850109e-34
-2.05012601254e-29
2.18940896435e-31
7.65920015535e-33
-7.86601160815e-28
1.61695610294e-29
-7.63042838564e-28
-7.77902403797e-27
7.65888339355e-28
-6.68525880217e-26
-4.74361432e-28
1.24122633193e-26
-1.211100997e-24
2.44918134785e-27
-2.30881082966e-25
1.44066673035e-27
3.97953555985e-27
-4.91015940387e-25
1.01926300925e-26
1.02099546609e-26
-1.13822035166e-24
8.03976505331e-28
5.23254526896e-28
-4.55097270373e-26
1.42781221901e-29
7.92031077419e-30
-8.63614866879e-29
2.08359240934e-31
1.15401860817e-31
3.14176672555e-32
2.450505109e-33
1.52208617568e-33
8.16103121784e-34
2.06756873035e-35
1.62181049518e-35
1.20269357138e-35
1.12439597256e-37
1.33737218381e-37
1.18807873954e-37
6.5320364271e-40
1.89908210981e-39
1.85325002393e-39
-3.30128238251e-40
3.01711515679e-39
3.04531016073e-39
-2.78538762905e-40
1.6849816509e-39
1.66907724968e-39
-1.51142099782e-38
3.80098234878e-40
3.50097963689e-40
-1.84010314119e-36
1.26032804049e-38
1.01062365378e-38
-1.96402061983e-34
1.18028341555e-36
7.52144167744e-37
-1.74170243015e-32
1.09964108949e-34
4.7481811442e-35
-1.3671959094e-30
9.38962986248e-33
1.78644959772e-33
-8.43341396992e-29
7.88818415143e-31
-2.07067315287e-29
-1.34904687889e-27
6.04024639483e-29
-6.17761230574e-27
-3.61794579487e-29
1.56351426432e-27
-1.84897450411e-25
1.25034242139e-28
-9.91336134076e-27
1.30646487282e-28
2.04367056995e-28
-3.90603447935e-26
3.39585063567e-27
2.00133307218e-27
-3.62559887864e-25
1.32099788974e-28
5.06225855361e-29
-6.65167022323e-27
1.86712335753e-30
6.02555224566e-31
7.54561185149e-32
2.38695645844e-32
7.55828969903e-33
4.96209810991e-33
2.43441324278e-34
8.49084531806e-35
9.65641629765e-35
1.73730265277e-36
7.53234492032e-37
1.1537271405e-36
7.96242737304e-39
5.20251578995e-39
9.52427616466e-39
3.23410698666e-41
5.40189012915e-41
1.09053680903e-40
-1.61626698728e-41
6.67869041965e-41
1.40445864331e-40
-3.58783993537e-42
3.47777437034e-41
7.2227997021e-41
-5.21893961865e-40
2.35990545904e-42
4.57355223704e-42
-8.37190194559e-38
2.18560516842e-40
3.69202518029e-40
-1.01168935896e-35
2.80228773691e-38
3.78226936526e-38
-9.765922515e-34
3.07167546309e-36
2.90694087371e-36
-8.12127938811e-32
2.96444263606e-34
1.48056715292e-34
-6.35933543431e-30
2.72374441345e-32
1.521947673e-33
-1.60033952186e-28
2.70783702221e-30
-4.01914400851e-28
-4.2217667895e-31
1.11028940755e-28
-2.0749465856e-26
8.43536874993e-31
8.07192331134e-32
2.25453072774e-30
1.01197066733e-30
1.26645432275e-31
1.08362820407e-27
1.7905169335e-28
-1.17308178713e-25
3.07887881293e-29
3.06936376828e-30
-1.39147537524e-27
4.08312359665e-31
3.02386977876e-32
2.93384369289e-32
4.86374577049e-33
2.94011649279e-34
1.16274608953e-33
4.57592848558e-35
2.37373151866e-36
1.97553427089e-35
2.97693778404e-37
1.33175034255e-38
2.1149864983e-37
2.10730000854e-39
7.6625904858e-41
2.69654737586e-39
1.57660055961e-41
2.29046999807e-43
5.95820512419e-41
-2.17167122387e-43
-1.65163872452e-44
1.74169338567e-42
-5.24448686955e-42
-1.19498386351e-45
8.77943006325e-43
-1.21177892368e-40
-3.78811724502e-44
6.5843993242e-42
-9.70355712851e-39
-2.78742348794e-43
8.66274590617e-41
-1.27442774326e-36
1.54326266271e-40
4.53455662599e-39
-1.33162802383e-34
4.2986612772e-38
3.91253235821e-37
-1.18906375584e-32
7.13623575468e-36
2.32584521108e-35
-9.91720001465e-31
9.35406269321e-34
5.4772445023e-34
-3.37558170364e-29
1.18592108653e-31
-5.76228413583e-29
-2.71254192461e-33
7.3457252804e-30
-4.35908243787e-27
1.81207872262e-33
7.35943962581e-34
8.62097264587e-31
-5.13631424987e-30
6.28726315131e-32
7.63237849531e-28
-3.95915387482e-28
-8.4778563656e-26
2.01401062552e-29
-8.90871471076e-30
-9.10862154843e-28
2.58172897525e-31
-1.07986040971e-31
1.98575081851e-32
2.96784639651e-33
-1.38247976938e-33
7.24913396645e-34
2.68788547342e-35
-1.56177424994e-35
1.17734264962e-35
1.67659399067e-37
-1.37031003199e-37
1.20689961992e-37
1.79458261879e-39
-8.30223310368e-40
2.33498685022e-39
1.61113364648e-41
-4.20522058225e-42
6.37217122976e-41
-1.31362415098e-44
-2.8673624955e-41
1.15335538254e-42
-1.42033022512e-42
-9.1521416557e-43
4.98237487442e-44
-9.59259779979e-41
-4.00019919308e-42
1.73112727507e-42
-1.17692414279e-38
-2.62730973845e-40
6.70525727389e-41
-1.56178741274e-36
-2.97228488276e-38
5.40065069964e-39
-1.65110901365e-34
-2.9289105354e-36
4.72097269808e-37
-1.4920395431e-32
-2.48790343251e-34
2.84105612244e-35
-1.25537273732e-30
-1.98389978533e-32
6.66463507975e-34
-4.20972447661e-29
-1.70941790002e-30
-7.38360589913e-29
-1.93915509112e-33
-5.7622399532e-29
-5.43937946634e-27
-1.89246150949e-31
5.44772763028e-34
7.85307293064e-30
-8.98564108548e-28
-1.26408299622e-30
1.4952992019e-27
-3.72698907771e-27
-1.69487696586e-25
4.67754884768e-29
-1.12142212905e-28
-2.41947576735e-27
5.9361822833e-31
-1.29199876561e-30
3.25776518869e-32
6.7557980024e-33
-1.58961711501e-32
1.50342051879e-33
6.07084649773e-35
-1.77651826129e-34
2.51334648505e-35
3.76426933366e-37
-1.68017009767e-36
2.59520192769e-37
1.32739782174e-39
-1.67606697578e-38
1.66342262969e-39
2.19090294949e-42
-5.06133360593e-40
8.3407820052e-42
-4.43584356333e-43
-1.14095628666e-39
5.45480580288e-41
-5.74293058986e-42
-1.7492923966e-40
1.64346022699e-42
-6.17043609241e-40
-1.15294271983e-39
6.73249601391e-42
-9.66066359272e-38
-1.81418149622e-38
4.09482788464e-40
-1.2112534292e-35
-8.92406983237e-37
4.14024158408e-38
-1.23113859776e-33
-7.11971862868e-35
3.3251604796e-36
-1.0809513427e-31
-5.69876183089e-33
1.78400589852e-34
-8.90574769787e-30
-4.49588967131e-31
1.68745947842e-33
-2.18964414414e-28
-3.13094335438e-29
-5.91906240795e-28
-2.93169218468e-31
-6.58073428034e-28
-2.89827379504e-26
-2.43929040199e-29
5.11970678902e-32
4.87053434478e-28
-7.67434450493e-27
-1.59675960722e-25
5.33530856374e-27
-2.34184936882e-26
-6.45714832352e-25
2.35121186234e-28
-1.08995052569e-27
-1.47978452511e-26
2.98899112756e-30
-1.76264813256e-29
1.43291254338e-32
3.44155397906e-32
-2.28974665077e-31
5.92657207224e-33
3.2039578972e-34
-3.10754538883e-33
1.14488460822e-34
2.23656632928e-36
-5.32961479176e-35
1.37658510045e-36
1.35804187323e-38
-1.61356335524e-36
1.53147060923e-38
1.43741933814e-40
-9.64063557926e-38
4.767610157e-40
-4.123050165e-41
-2.13627052054e-38
1.05743665028e-39
-8.47555978403e-40
-3.39062108962e-38
1.54099687129e-40
-2.17218609477e-38
-2.36442832449e-37
9.38009177113e-40
-1.44202672422e-36
-2.53331250016e-36
1.31550398106e-38
-1.40495424947e-34
-4.87404020698e-35
5.41948804923e-37
-1.27019441427e-32
-1.99922392837e-33
3.15035560449e-35
-1.02667475506e-30
-1.18064236339e-31
1.1994934809e-33
-6.29129142431e-29
-8.06502440687e-30
-1.74383190031e-29
-8.78130731455e-28
-3.27266572983e-28
-4.84912837354e-27
-1.14778620246e-29
-4.47814433037e-27
-1.25484742714e-25
-5.59223234266e-28
3.30541766401e-29
2.40879835672e-27
-1.79321114062e-26
-9.88276554836e-25
2.09429949884e-26
-8.0845418191e-26
-2.84724084697e-24
1.46862893548e-27
-8.84297948967e-27
-1.10305358248e-25
2.67155493597e-29
-2.6983765392e-28
-6.255430611e-28
3.30623544408e-31
-4.89721072644e-30
3.01863824824e-32
3.80341948349e-33
-1.11873788622e-31
1.00986077263e-33
4.91243319115e-35
-3.92728410211e-33
2.43553766334e-35
9.31653182246e-37
-1.84280432313e-34
8.64463008203e-37
2.1108992702e-38
-1.30415215693e-35
5.49062585473e-38
-4.82398493179e-39
-3.10126251179e-36
1.21544797576e-38
-1.16847975037e-37
-4.93425109869e-36
1.83351985166e-38
-2.07221076337e-36
-3.31038671067e-35
1.15878261728e-37
-5.37852904245e-35
-3.1680151501e-34
1.06193146341e-36
-2.67141640737e-33
-4.18143382677e-33
1.58382101766e-35
-1.75603260658e-31
-9.77533645508e-32
3.96562388201e-34
-1.20602825868e-29
-3.68747802102e-30
3.35435806948e-33
-4.19803283794e-28
-1.33008920286e-28
-5.01316645132e-28
-3.65887565304e-27
-2.19911790801e-27
-3.83693554366e-26
-1.42452044671e-28
-7.58693723636e-27
-6.15595594377e-25
-1.79329277944e-27
-6.59581025898e-26
3.79467062252e-27
-4.11287493927e-26
-2.02878679478e-24
5.39968791865e-26
-1.02802031301e-25
-8.32304242833e-24
9.16779101647e-27
-5.77409639331e-26
-7.87213868818e-25
3.19526129701e-28
-4.06865213204e-27
-1.46138628167e-26
5.59107034919e-30
-1.66865500188e-28
-3.43542180373e-29
1.09615833893e-31
-6.34478542121e-30
1.49984912454e-32
2.94552827391e-33
-3.12359832303e-31
9.71157633453e-34
8.89618225184e-35
-1.69960067363e-32
5.88411003654e-35
2.59652359257e-36
-1.33590185898e-33
4.63316368862e-36
-4.44098820886e-37
-3.39087218385e-34
1.12052385283e-36
-1.24306073894e-35
-5.43450332112e-34
1.684020097e-36
-2.02388699273e-34
-3.52845772918e-33
9.88979541213e-36
-3.63275268466e-33
-3.16614186818e-32
7.48330452203e-35
-1.02865958442e-31
-3.47645012396e-31
6.39915260152e-34
-4.29873858592e-30
-5.8535684646e-30
4.25111295559e-33
-1.54496193602e-28
-1.04317054082e-28
-1.13562338967e-28
-2.15484585722e-27
-1.51705183578e-27
-1.00029624215e-26
-4.54765060589e-27
-1.74603935905e-26
-2.26893409959e-25
-2.81422224199e-28
-3.62235534243e-26
-9.18892729488e-25
-6.66385095929e-27
-2.20643667149e-25
6.36796141707e-27
-5.20064392865e-26
-4.55120411806e-24
5.75097269226e-26
-1.95238826273e-25
-9.87715678179e-24
5.18762348264e-26
-1.00935416965e-25
-5.11838731341e-24
4.23870506359e-27
-4.11835726712e-26
-2.78661770356e-25
1.69361115836e-28
-4.5289408864e-27
-6.4212013933e-27
5.58634943193e-30
-3.56461393999e-28
-4.35386538748e-29
2.13752345712e-31
-2.26235269321e-29
2.56344997318e-32
7.68978871279e-33
-1.32755591186e-30
2.60593826097e-33
2.70625375935e-34
-1.13833885686e-31
2.57156994013e-34
-2.93611443873e-35
-3.06428725838e-32
6.88751547664e-35
-1.09669463869e-33
-4.9646106942e-32
1.01942343369e-34
-1.73854844617e-32
-3.14203916307e-31
5.24071501921e-34
-2.63077902782e-31
-2.69809672794e-30
2.81089929062e-33
-5.39171787055e-30
-2.65553032416e-29
3.24614298567e-33
-1.06428185526e-28
-2.44448271675e-28
-1.69899469879e-28
-1.53450358314e-27
-1.77640362187e-27
-6.35902626323e-27
-1.46758147066e-26
-1.38178386805e-26
-1.30771484543e-25
-1.77920810961e-26
-2.32747639828e-26
-1.87612890592e-24
-6.61018095399e-28
-2.63212332283e-26
-4.40654994226e-24
-6.06761751022e-27
-8.92686324819e-25
6.82719377098e-27
-3.48707777295e-26
-6.9301991923e-24
1.04558599882e-25
-1.35737098782e-25
-2.28106173101e-23
8.94420461999e-26
-1.91505159395e-25
-9.42919578102e-24
4.28431017498e-26
-8.90475836871e-26
-3.55266839728e-24
4.62298395254e-27
-5.50145316046e-26
-3.06059145699e-25
3.18050519638e-28
-8.89954194725e-27
-1.64699069177e-26
1.58853935222e-29
-1.07467899206e-27
-5.50284067625e-28
6.30945623581e-31
-9.6423620381e-29
-1.57650401017e-30
2.60230529381e-32
-8.95626584631e-30
4.82618374178e-33
-1.2815260554e-33
-2.5398535435e-30
1.76601355753e-33
-8.91492289579e-32
-4.16078430177e-30
2.20508634863e-33
-1.41817820758e-30
-2.59251295892e-29
1.61343208222e-33
-1.95792880316e-29
-1.57294524676e-28
-6.12831692386e-29
-2.21398678093e-28
-8.88631416181e-28
-1.24019722031e-27
-1.79005751767e-27
-3.6587523631e-27
-1.65148442292e-26
-1.37959375762e-26
-1.70762217204e-26
-1.53490002076e-25
-1.90862789672e-26
-2.09539970519e-26
-1.47209543485e-24
-1.209033284e-26
-4.28165036023e-26
-2.6520341337e-24
-4.15963256864e-28
-1.37909040213e-26
-3.57352057664e-24
-2.77872679184e-27
-9.162979484e-25
5.42149855798e-27
-8.80666801045e-27
-5.68261733645e-24
8.62338659068e-26
-4.74150287667e-26
-2.1721955282e-23
2.03564153713e-25
-3.49599468029e-26
-2.71978959916e-23
1.11495792542e-25
-1.03547223204e-25
-1.0086645743e-23
6.74424636737e-26
-7.92156852638e-26
-5.62718026482e-24
9.52284138686e-27
-2.41152897467e-26
-7.50530351089e-25
9.09091854773e-28
-1.1506266241e-26
-8.06298192669e-26
5.60751463042e-29
-1.88170285953e-27
-6.21016674508e-27
2.64343708395e-30
-2.65618723519e-28
-5.06017129891e-28
1.3989894325e-33
-9.17185708143e-29
-1.39099638061e-28
-7.83929584186e-30
-1.33588855237e-28
-2.46430672453e-28
-9.29798321675e-29
-5.7433707739e-28
-1.79920371364e-27
-7.54967167108e-28
-2.0055334536e-27
-1.26809552658e-26
-3.88380781919e-27
-7.1501427102e-27
-8.40918436823e-26
-2.04575845059e-26
-7.32837479719e-27
-3.95831739776e-25
-2.51163184208e-26
-2.17801888326e-26
-2.17555423291e-24
-4.21013320337e-26
-1.95499394323e-26
-2.92696328249e-24
-7.45434096914e-27
-7.36710993928e-27
-7.36474296807e-24
-2.10475747768e-28
-4.20431502888e-27
-2.39788927316e-24
-2.13752824823e-27
-5.06223902162e-25
2.59745974719e-27
-4.93794512776e-28
-2.45168940627e-24
5.196449012e-26
-2.1954900243e-27
-1.37454321203e-23
6.4197761053e-26
-4.64770889049e-27
-8.5896492779e-24
2.21848204303e-25
-5.93728159154e-27
-2.43171754146e-23
1.61901907568e-25
-4.99315718819e-27
-1.51133910058e-23
4.19028327409e-26
-3.41191754558e-27
-3.45707542752e-24
1.55466194959e-26
-7.37490921325e-28
-1.61471409137e-24
1.74274273763e-27
-5.75076376622e-29
-2.38012163402e-25
1.28468589081e-28
-9.02230141988e-31
-3.24338775263e-26
3.28193596913e-30
-4.7396590615e-33
-1.15688897665e-26
-2.46311796059e-28
-4.60382829423e-32
-1.70896877394e-26
-1.78695360962e-27
-4.48036546729e-30
-7.71923774456e-26
-9.53128615705e-27
-8.37157590028e-29
-2.95730899034e-25
-1.27118296757e-26
-5.19507164246e-28
-1.24134162559e-24
-4.45621502815e-26
-9.83150962385e-28
-1.52549404923e-24
-4.1617815515e-26
-1.15086394462e-27
-5.38699281427e-24
-1.30729487627e-26
-6.54024971594e-28
-5.82802364188e-24
-4.10326514376e-27
-2.4294045707e-28
-2.32935962913e-24
-3.74747857456e-28
-3.9908756697e-28
-1.38095609715e-24
-1.01114545037e-28
-7.3751068785e-25
5.60302859613e-28
-3.76775782752e-25
9.75884302687e-27
-2.49033848737e-24
3.93292491616e-26
-5.94600460729e-24
5.78253750876e-26
-7.1122871138e-24
3.99899284858e-26
-4.14476037297e-24
2.00140077694e-26
-2.03215642683e-24
3.03377083876e-27
-3.22139944918e-25
1.52364187785e-28
-1.66812261617e-26
1.23045753425e-30
1.23621145771e-31
7.81030703116e-34
9.38913031464e-34
-5.03577597025e-30
7.36554925992e-33
-2.16641093801e-28
2.26152741668e-32
-2.27691804366e-27
-3.00406590173e-26
-6.6948851909e-27
-2.99091891079e-25
-1.19357690809e-26
-8.05985646801e-25
-9.36562053735e-27
-1.58868662159e-24
-3.0321154608e-27
-1.45440648588e-24
-2.17378829859e-27
-5.65161316692e-25
-1.01036282871e-28
-7.56563978864e-25
-1.06808040692e-25
1.67392237138e-25
1.723048914e-25
-6.00267713814e-23
2.56851310723e-24
1.3740950386e-24
-4.06215396346e-22
1.20029141145e-23
4.876650354e-24
-1.32444035327e-21
1.38992578662e-23
5.25109750368e-24
-1.27841891565e-21
3.00500583075e-23
1.18640088343e-23
-2.2087518023e-21
1.43057153752e-23
6.42341974953e-24
-1.07024992925e-21
9.18197646562e-24
5.1116173017e-24
-7.95844037218e-22
2.16741334418e-24
1.70447820131e-24
-2.63488570585e-22
3.50564560975e-25
5.18606033295e-25
-8.20948065393e-23
7.27831189172e-27
1.599656155e-25
-2.66796621041e-23
-1.993229223e-25
1.55683199022e-25
-2.59368865008e-23
-1.52137395953e-24
3.31758111748e-25
-5.31560326223e-23
-4.2946502306e-24
1.2516248578e-24
-2.05674565066e-22
-8.28101733115e-24
2.45080924526e-24
-4.15037479092e-22
-2.12603243174e-23
3.80418677496e-24
-7.07399683424e-22
-1.89294580203e-23
8.67722703098e-24
-1.80126684595e-21
-1.07830328914e-23
7.53631376552e-24
-1.82858841882e-21
-4.39314300668e-24
4.71585056938e-24
-1.28396757475e-21
-3.56395182678e-25
2.55962289708e-24
-7.66181304652e-22
3.9826812756e-25
-1.40281873507e-22
1.46558981132e-24
2.70532127845e-24
-4.39744400717e-22
1.17943609162e-23
1.15525876694e-23
-1.66570552155e-21
3.61922395836e-23
2.71435506606e-23
-3.18333509675e-21
2.93627925072e-23
2.04107670409e-23
-2.16678605224e-21
3.2757482706e-23
2.37159553697e-23
-2.09779271129e-21
2.92894551443e-23
2.40759517756e-23
-2.00184378349e-21
7.56749381027e-24
7.72107161593e-24
-5.99482574385e-22
1.0088284308e-24
1.45891274317e-24
-1.07487768028e-22
1.01660601648e-25
2.78072044446e-25
-2.09521982049e-23
1.68198467865e-27
8.36984348486e-26
-6.57399275553e-24
-7.69955513631e-26
8.46874949553e-26
-6.75959528381e-24
-5.63890449985e-25
2.30567037048e-25
-1.82071217318e-23
-2.82246280288e-24
8.42041936448e-25
-6.96795417822e-23
-1.10590021279e-23
2.92903784626e-24
-2.62548921867e-22
-2.32511147234e-23
9.25171594692e-24
-9.10779980943e-22
-1.5200248432e-23
1.73206497573e-23
-1.75658081623e-21
-2.34794905284e-23
1.10706422683e-23
-1.1326319744e-21
-4.72950526761e-24
1.88130270511e-23
-2.46731979573e-21
-2.55654700242e-24
5.00533894604e-24
-6.67198440488e-22
5.06628240914e-24
-8.26077434317e-22
4.37700170433e-24
1.04277794008e-23
-1.06049922388e-21
2.79604137965e-23
3.56623110572e-23
-3.20137086755e-21
6.68044444236e-23
6.55076764551e-23
-5.64276339205e-21
5.00654750441e-23
4.54602976263e-23
-3.30878003711e-21
2.89156545566e-23
2.73231486298e-23
-1.74032188874e-21
4.55837107594e-24
4.89734636476e-24
-2.71139051892e-22
4.03943769683e-25
5.41153889932e-25
-2.56243075439e-23
2.92705575733e-26
5.60540126446e-26
-2.15647308126e-24
1.79834510378e-27
6.656906829e-27
-1.90073388484e-25
6.0674589335e-30
1.56212882125e-27
-3.36972292161e-26
-1.5692568633e-27
1.61312213046e-27
-3.85005699292e-26
-1.70682243894e-26
5.84156139522e-27
-2.01836062172e-25
-1.34803364489e-25
3.24478812272e-26
-1.54122064846e-24
-1.04898214609e-24
1.79486527593e-25
-1.03129120166e-23
-6.94801135643e-24
1.1313287591e-24
-7.55487227413e-23
-2.15532626594e-23
6.70253193666e-24
-5.00303678434e-22
-1.58210421426e-23
2.04185290863e-23
-1.67800770489e-21
-1.94843432192e-23
1.65404726604e-23
-1.43426609686e-21
-4.91010097134e-24
2.68330131335e-23
-2.72349521659e-21
1.25387255789e-23
-1.29118203851e-21
1.31221087304e-23
3.37297794147e-23
-2.93428625582e-21
2.65762127052e-23
3.69551128906e-23
-2.91354129156e-21
3.56868397516e-23
3.83237420497e-23
-2.35792210268e-21
2.809325204e-23
2.79629051162e-23
-1.61141239877e-21
3.55403729851e-24
3.68598605822e-24
-1.70493606182e-22
2.09879849911e-25
2.48460935028e-25
-7.72836591644e-24
8.48915453746e-27
1.26221734421e-26
-1.50323012926e-25
4.17712082162e-28
8.99428355836e-28
6.0280744511e-29
2.23455803747e-29
9.6243858421e-29
1.55435651369e-29
-2.59009894399e-31
2.12648107882e-29
4.32354737817e-30
-2.04966482348e-29
2.14121827364e-29
4.12743511704e-30
-2.2182626806e-28
7.84717779531e-29
1.02994379433e-29
-2.69437125874e-27
4.4766867812e-28
9.41914414374e-30
-4.3964517269e-26
3.85092424597e-27
-8.44318883677e-26
-5.98340509388e-25
5.12554000896e-26
-2.13893723177e-24
-5.57865313452e-24
6.27441801504e-25
-3.4710704453e-23
-1.42867056886e-23
5.77477903059e-24
-3.8886287747e-22
-1.25949454635e-23
1.63777588025e-23
-1.22591807352e-21
-8.54733020774e-24
1.89952863927e-23
-1.50847086759e-21
2.37205168876e-23
-2.13692503303e-21
1.19506810467e-23
2.97578097359e-23
-2.21211469021e-21
3.93389884931e-23
5.33936980305e-23
-3.36545707975e-21
4.04041028787e-23
4.24818975462e-23
-2.49289204322e-21
5.21910829001e-24
5.08765190467e-24
-2.39871233841e-22
2.30917564697e-25
2.34737485491e-25
-6.38899958287e-24
5.81102212592e-27
6.76568886697e-27
-2.02123620891e-27
1.61859012621e-28
2.38428884501e-28
4.83912426168e-29
6.33304079848e-30
1.37158981057e-29
4.829064549e-30
2.96500323509e-31
1.34038656238e-30
5.96512414115e-31
-8.37836971277e-33
2.89866899846e-31
1.40284731688e-31
-2.73695372839e-31
2.68472606327e-31
1.26245286311e-31
-2.94384244868e-30
9.53048210721e-31
3.86532410014e-31
-4.2142131306e-29
5.59337550039e-30
1.63150170341e-30
-1.13048873707e-27
5.75301771009e-29
7.52275079423e-30
-3.64416487014e-26
1.26991562946e-27
-1.36756020385e-26
-7.12268895538e-25
3.70982503022e-26
-1.41458649559e-24
-7.59678781614e-24
7.20715322538e-25
-4.04830898006e-23
-1.94114990118e-23
8.55727755337e-24
-5.8797826494e-22
-7.16470744877e-24
2.88036636292e-23
-2.1216239072e-21
1.95028263479e-23
-1.50537366464e-21
1.7009202755e-23
3.79208297701e-23
-2.65000031763e-21
1.83419516257e-23
2.23913224661e-23
-1.35816125035e-21
1.2325031067e-23
1.16611565954e-23
-6.3945241411e-22
6.39979137412e-25
5.60300293791e-25
-2.00869637544e-23
1.30027673853e-26
1.1860811424e-26
-2.0843715516e-26
2.29520149923e-28
2.40186374703e-28
6.71678402545e-29
4.04932205472e-30
5.3930727577e-30
2.74341367731e-30
1.11364981314e-31
2.21218137806e-31
1.48451076536e-31
4.84277526513e-33
2.10544699726e-32
1.61997702902e-32
-2.02112969761e-34
5.38792138558e-33
4.35311396426e-33
-3.45474570819e-33
3.53738941711e-33
2.79204595841e-33
-3.72586559929e-32
9.96930850184e-33
7.13440160107e-33
-7.68869096333e-31
6.06892784089e-32
3.57038472786e-32
-3.33384542377e-29
9.14180237135e-31
3.7409671423e-31
-1.72509011988e-27
3.29840552689e-29
5.95883118551e-30
-7.5043169824e-26
1.56213703695e-27
-2.0237818627e-26
-1.51632787223e-24
6.8163331067e-26
-3.16836518999e-24
-1.05118847202e-23
1.54475230107e-24
-1.00879812724e-22
-5.40826492138e-24
1.41634856002e-23
-1.02544733277e-21
1.33725253117e-23
-1.00278748323e-21
1.02103523802e-23
1.88645441318e-23
-1.42124570497e-21
9.8505945907e-24
9.97253807474e-24
-7.03259563963e-22
1.95306729318e-24
1.52853115974e-24
-8.5577627302e-23
5.61603552654e-26
4.05056171942e-26
-7.71708042526e-25
9.97246882491e-28
7.4645786638e-28
1.96001446011e-28
1.44077805651e-29
1.23598847781e-29
7.67727009766e-30
1.74140279821e-31
1.90750782438e-31
1.71391943393e-31
2.84623671702e-33
4.70910771462e-33
5.14485444974e-33
1.64840283518e-34
6.27132940358e-34
7.56543565561e-34
-1.3606782542e-35
2.21972300364e-34
2.76973366886e-34
-6.38967514838e-35
1.39335148059e-34
1.70185260952e-34
-4.80782888836e-34
1.39275758894e-34
1.5739018686e-34
-2.07206440908e-32
6.10501030969e-34
5.94719947883e-34
-1.48618050552e-30
1.95405001866e-32
1.4771729145e-32
-1.01743366635e-28
1.18232770934e-30
5.65742082086e-31
-6.36280442612e-27
7.50265694165e-29
1.12967454538e-29
-2.47124295975e-25
4.76321008752e-27
-1.46743635186e-25
-3.23920631098e-24
2.0947041747e-25
-1.37264732011e-23
-1.45537254903e-24
3.65552289197e-24
-2.78021647776e-22
3.02519444589e-24
-2.35353572633e-22
4.72092347405e-24
6.47617673332e-24
-6.15391601231e-22
3.97278321971e-24
2.97992863474e-24
-2.6196881242e-22
2.52772426664e-25
1.45742793842e-25
-9.08066578442e-24
4.87910169219e-27
2.57140463595e-27