/*--------------------------------*- C++ -*----------------------------------*\
| =========                 |                                                 |
| \\      /  F ield         | OpenFOAM: The Open Source CFD Toolbox           |
|  \\    /   O peration     | Version:  3.0.1                                 |
|   \\  /    A nd           | Web:      www.OpenFOAM.org                      |
|    \\/     M anipulation  |                                                 |
\*---------------------------------------------------------------------------*/
FoamFile
{
    version     2.0;
    format      ascii;
    class       volScalarField;
    location    "2.9";
    object      ddt0(epsilon);
}
// * * * * * * * * * * * * * * * * * * * * * * * * * * * * * * * * * * * * * //

dimensions      [0 2 -4 0 0 0 0];

internalField   nonuniform List<scalar> 
7968
(
-0.000503904785095
-0.000550884741611
-0.000584187708789
-0.000600945459289
-0.000607844882857
-0.000609943611499
-0.000610062010139
-0.00060960654766
-0.000609509593555
-0.000609241050545
-0.000609546256883
-0.000609749817842
-0.000610061986615
-0.000610552786658
-0.000610485039918
-0.000608452900654
-0.000601594618054
-0.000584804399737
-0.000551362447679
-0.000504088778456
-0.000550898584917
-0.000801624543829
-0.000976367925376
-0.0010750222124
-0.00112490978877
-0.00114647472968
-0.00115320417447
-0.00115353501779
-0.0011521092346
-0.00115113257918
-0.00115148163834
-0.0011528481316
-0.00115436380068
-0.00115399211217
-0.00114725062484
-0.00112580621516
-0.00107609138224
-0.00097753347915
-0.000802682380591
-0.000551348932631
-0.000584215946623
-0.000976372843203
-0.00126346710997
-0.00143552524128
-0.00152965213324
-0.00157524761631
-0.00159314048542
-0.00159760864288
-0.00159710023739
-0.00159629453286
-0.00159679810638
-0.00159837568185
-0.00159917163461
-0.00159467512459
-0.00157650470755
-0.00153070346165
-0.00143647325594
-0.00126437246703
-0.000977225807275
-0.000584737705911
-0.000601019796339
-0.00107530030909
-0.00143588379543
-0.00166086560865
-0.0017899351084
-0.00185651215116
-0.0018857511547
-0.00189988478434
-0.00190268934687
-0.00190292939105
-0.00190346847836
-0.00190406527831
-0.00189879993153
-0.00188882306837
-0.00185902239316
-0.00179160298933
-0.00166174188695
-0.00143625655885
-0.00107557739309
-0.000601456519478
-0.000608037852365
-0.00112577681053
-0.00153076661376
-0.00179069928831
-0.00194461003443
-0.00202768295962
-0.00207074726715
-0.00208701906437
-0.00209131526099
-0.00209211164495
-0.00209309275789
-0.00209403678942
-0.0020906576893
-0.00207456581695
-0.00203182804856
-0.00194742092549
-0.00179177048778
-0.00153057705881
-0.00112530444063
-0.000608291640022
-0.000610330016511
-0.0011481952583
-0.00157744428496
-0.00185830061827
-0.00202828768729
-0.0021261532871
-0.00217352627032
-0.00219206866106
-0.00219702299488
-0.0021979910087
-0.00219941741703
-0.0022010257315
-0.00219777468693
-0.00217966477162
-0.00213133931159
-0.00203256792109
-0.00185987488286
-0.00157683797772
-0.00114699203518
-0.000610363661481
-0.000610673217154
-0.00115587205777
-0.00159651810765
-0.00188838098325
-0.00207039854957
-0.00217306469686
-0.00222310223774
-0.00224231725764
-0.00224695941764
-0.00224765186514
-0.00224945016271
-0.00225203580482
-0.00224969896868
-0.00223130385264
-0.00218031159763
-0.00207516774867
-0.00189067907708
-0.00159574657636
-0.00115411832923
-0.000610507656573
-0.000610403285363
-0.00115700433143
-0.00160180328634
-0.0018984632398
-0.00208615691856
-0.00219101297707
-0.00224162753955
-0.0022602992868
-0.00226404147822
-0.00226421226877
-0.00226629881883
-0.00226992435959
-0.00226894230549
-0.00225141453826
-0.00219989688593
-0.00209224108105
-0.00190153526441
-0.00160111351529
-0.00115493988644
-0.000610069710043
-0.000610030082645
-0.00115604279248
-0.00160173557173
-0.00190275980132
-0.00209009303833
-0.00219530331556
-0.00224549892061
-0.00226328769993
-0.00226614911835
-0.00226589865942
-0.00226823705876
-0.00227266509163
-0.00227287259865
-0.00225646453178
-0.00220541042123
-0.00209716412688
-0.00190563993068
-0.0016013376348
-0.00115391618742
-0.000609428808766
-0.000609749283925
-0.00115511545936
-0.00160069936129
-0.00190278807559
-0.0020903362916
-0.00219546233531
-0.002245303279
-0.00226265581188
-0.00226520443902
-0.00226495649601
-0.00226751220502
-0.00227229826997
-0.00227309889437
-0.00225731509911
-0.00220662721108
-0.0020983066692
-0.00190629860544
-0.0016010203931
-0.00115333436443
-0.000609175852029
-0.000609967686959
-0.00115514834247
-0.00160060229411
-0.00190291204768
-0.00209061307291
-0.00219594139761
-0.0022460803338
-0.00226384773346
-0.00226690030259
-0.00226706877005
-0.00226970901233
-0.0022744681593
-0.00227515974663
-0.00225915551364
-0.0022081545244
-0.0020994902819
-0.00190718843878
-0.00160211085076
-0.0011541631054
-0.000609566579575
-0.000610326014933
-0.00115603167805
-0.0016014467163
-0.00190311482277
-0.00209084963191
-0.00219661966241
-0.00224763497031
-0.0022665336549
-0.00227064351112
-0.00227140659844
-0.0022741936406
-0.00227868367413
-0.00227861461336
-0.00226156648565
-0.00220960790398
-0.00210038773321
-0.00190814146804
-0.00160426906054
-0.00115596451085
-0.000610053594455
-0.000610737629039
-0.00115696613178
-0.00160144820471
-0.00190049712562
-0.00208719379918
-0.00219282284181
-0.00224461758235
-0.00226485022132
-0.0022702656819
-0.00227180988848
-0.00227468979269
-0.00227853031027
-0.00227715207897
-0.00225863029944
-0.00220572655586
-0.00209671258768
-0.0019069814073
-0.00160520957264
-0.00115763885694
-0.00061088164378
-0.000611078056234
-0.00115599398698
-0.00159626180354
-0.00188811950721
-0.00207134124018
-0.00217490973632
-0.00222627186576
-0.00224722814596
-0.00225371060702
-0.00225593379862
-0.00225869511971
-0.00226158304147
-0.00225876507196
-0.00223914086263
-0.00218649698127
-0.00207998570295
-0.00189675255746
-0.00160024094273
-0.00115709108826
-0.000611454883341
-0.00061084492271
-0.00114870688462
-0.00157765263646
-0.00185835594769
-0.00202876490968
-0.0021276752245
-0.0021762449133
-0.00219645079219
-0.00220316818254
-0.00220561839125
-0.00220799818321
-0.00220990501867
-0.00220612662591
-0.00218677456214
-0.00213714883311
-0.00204028814105
-0.00186580491423
-0.00158123256081
-0.00114997394333
-0.000611308086148
-0.000608660691252
-0.00112680037931
-0.00153163451731
-0.00179138537259
-0.00194550370174
-0.00202921605234
-0.00207274522668
-0.00209021170048
-0.00209598209387
-0.00209803570733
-0.00209982494279
-0.00210102392134
-0.00209735365163
-0.00208082599091
-0.00204057509493
-0.00195435963544
-0.00179701173872
-0.00153457720825
-0.00112809827523
-0.00060916380703
-0.000601681787741
-0.00107670736705
-0.00143728174052
-0.00166210166339
-0.00179126224592
-0.00185849086732
-0.00188883897766
-0.00190129028974
-0.00190559643113
-0.00190674260085
-0.00190789795369
-0.00190914808115
-0.00190761434882
-0.00189727728552
-0.00186608578536
-0.00179707471185
-0.00166599258554
-0.00143959384362
-0.00107794316163
-0.000602168734786
-0.000584811282546
-0.000977842083086
-0.00126499846111
-0.00143692361888
-0.00153102776147
-0.00157696297508
-0.00159562678266
-0.00160100168764
-0.00160145295246
-0.0016013940698
-0.00160255207468
-0.00160465014483
-0.00160548024489
-0.00160039894859
-0.00158125134863
-0.00153450383203
-0.00143952795912
-0.001266799842
-0.000978932243916
-0.00058522950009
-0.000551335162433
-0.00080278076316
-0.000977571785262
-0.0010761090972
-0.001125904615
-0.00114754481652
-0.00115455905529
-0.00115528767646
-0.00115423416099
-0.00115364965271
-0.00115434382493
-0.00115594026511
-0.00115749527199
-0.00115689700053
-0.00114976593345
-0.00112792247908
-0.00107783955056
-0.000978902244117
-0.00080361470541
-0.000551628041839
-0.000504066115748
-0.000551319304176
-0.000584742107305
-0.000601519130832
-0.00060840329888
-0.000610493955852
-0.000610623382626
-0.00061015301263
-0.000609541932683
-0.000609266308918
-0.000609684763674
-0.000610146363362
-0.00061085552745
-0.000611340757238
-0.000611213799433
-0.000609104480151
-0.000602144777022
-0.000585229175954
-0.000551632707568
-0.000504193499572
-0.000550404591933
-0.000799246414524
-0.000973272709374
-0.00107200546728
-0.00112252163406
-0.0011449964816
-0.00115271443541
-0.00115383296397
-0.00115233737748
-0.00115149185525
-0.00115198183717
-0.00115331346963
-0.00115442917827
-0.00115313571609
-0.00114524527882
-0.00112263717322
-0.00107202083593
-0.000973237778065
-0.000799298171923
-0.000550703008428
-0.000799462096997
-0.00149016648536
-0.00173452287613
-0.00188363307323
-0.00196226074303
-0.00199797399379
-0.00201076221286
-0.00201324183116
-0.00201231119484
-0.00201128486361
-0.00201120347828
-0.00201203652223
-0.00201267367323
-0.00200987193877
-0.00199680498743
-0.00196092909436
-0.00188229594798
-0.00173340689733
-0.00148962286242
-0.000799607915974
-0.000973531829159
-0.00173480897771
-0.00200916674266
-0.00218808947618
-0.0022887015896
-0.00233819717033
-0.00235844084061
-0.00236437840599
-0.00236475786321
-0.00236419075231
-0.00236422860624
-0.00236489608318
-0.00236439875463
-0.00235814736874
-0.00233743654478
-0.00228747098128
-0.00218653045142
-0.0020076065219
-0.0017337906859
-0.00097344495292
-0.00107235451315
-0.00188417428563
-0.00218829648854
-0.00239467356896
-0.00251585043158
-0.00257876759984
-0.00260675033106
-0.00261733182285
-0.00261946845326
-0.00261945614491
-0.00261973731193
-0.00262021412219
-0.00261792464145
-0.00260770273652
-0.00257915025878
-0.00251540937297
-0.00239342655179
-0.00218662437026
-0.00188277925368
-0.0010719800706
-0.00112313042999
-0.00196316504363
-0.0022891273897
-0.00251594425685
-0.0026529281422
-0.00272672544052
-0.00276155953338
-0.00277452584425
-0.00277766852672
-0.002778029621
-0.00277864651296
-0.00277940430456
-0.00277692749662
-0.002764052058
-0.00272861167688
-0.0026537607472
-0.00251540039494
-0.00228757250466
-0.00196144797358
-0.00112240139878
-0.00114605680733
-0.00199940297167
-0.00233891658646
-0.00257884351292
-0.00272631183966
-0.00280766196249
-0.0028460633832
-0.00286044934195
-0.00286390702925
-0.00286431957686
-0.00286525156988
-0.00286657245836
-0.00286436997398
-0.00285041427843
-0.00281136853797
-0.00272862782558
-0.00257920495866
-0.0023376075706
-0.00199740629275
-0.00114494048311
-0.00115433862012
-0.00201281377873
-0.00235948773972
-0.00260661281909
-0.00276034034642
-0.0028451011928
-0.00288505555444
-0.00289962610838
-0.00290266101321
-0.00290276382272
-0.00290393619363
-0.00290604534709
-0.00290473155992
-0.00289095969243
-0.00285048778437
-0.00276392855132
-0.00260787655883
-0.00235847300655
-0.00201059770071
-0.00115287153804
-0.00115602923615
-0.00201587298163
-0.00236563832032
-0.00261613278518
-0.00277240855532
-0.00285838946962
-0.00289842854733
-0.00291232561397
-0.00291450116613
-0.0029140835142
-0.00291541082199
-0.00291835728936
-0.00291824811847
-0.00290544656488
-0.00286503158304
-0.00277711513859
-0.00261809014057
-0.00236489787583
-0.00201352238228
-0.00115431649472
-0.00115549488859
-0.00201538787892
-0.00236614410672
-0.00261803833319
-0.00277486366905
-0.00286088184233
-0.00290037592369
-0.00291340271219
-0.00291474259231
-0.00291386053183
-0.00291529875409
-0.00291893710278
-0.00291991471141
-0.00290820771038
-0.00286843187309
-0.00278038290295
-0.00262044407372
-0.00236569466533
-0.00201307565671
-0.00115381864185
-0.00115476907167
-0.00201450520193
-0.00236545819207
-0.00261774384203
-0.00277466972718
-0.00286051228827
-0.00289960528115
-0.00291214916335
-0.00291309259482
-0.00291204534514
-0.00291360540997
-0.00291765691851
-0.00291926094608
-0.00290819793391
-0.00286885441947
-0.00278087976785
-0.00262066776351
-0.00236542585818
-0.00201241792748
-0.0011532549549
-0.00115501079767
-0.00201433946304
-0.00236534280732
-0.00261779093913
-0.0027748509648
-0.00286082385944
-0.00290007924376
-0.00291283371399
-0.00291402188393
-0.00291320280068
-0.00291492250991
-0.00291906843359
-0.00292067478954
-0.00290949979238
-0.0028699452863
-0.00278170767585
-0.00262125229003
-0.00236591472096
-0.00201279434564
-0.00115407283937
-0.00115583186336
-0.00201489238145
-0.00236580627797
-0.00261814696784
-0.00277533993938
-0.00286171837612
-0.00290166025682
-0.00291526935578
-0.00291727860242
-0.00291703179828
-0.00291895262534
-0.00292287034644
-0.00292384496497
-0.00291180597339
-0.00287142183596
-0.00278263506187
-0.00262206148504
-0.00236701075245
-0.00201403716491
-0.00115565276739
-0.00115630423329
-0.00201513788611
-0.00236509467317
-0.00261628690508
-0.00277295266914
-0.00285944601226
-0.00290013160504
-0.00291487134248
-0.00291801586566
-0.00291853095265
-0.00292059352976
-0.00292395580001
-0.00292381222953
-0.00291047592568
-0.0028691309137
-0.00278017762576
-0.00262056237669
-0.00236668646953
-0.00201478240613
-0.00115634110908
-0.00115463802001
-0.00201198536045
-0.00235875872855
-0.002606262981
-0.00276060796714
-0.00284595527438
-0.00288664775981
-0.00290218588573
-0.00290634030259
-0.00290753179787
-0.00290956754375
-0.00291214416484
-0.00291073881775
-0.00289627802978
-0.00285470532941
-0.00276706768176
-0.00261056318803
-0.00236030440602
-0.00201192795542
-0.00115480757526
-0.00114644202157
-0.00199862251362
-0.00233810468071
-0.00257822517154
-0.00272617916458
-0.00280796600324
-0.00284705836219
-0.00286239755435
-0.00286697245199
-0.00286847844395
-0.00287026649264
-0.00287202368637
-0.00286967505836
-0.00285500635144
-0.00281504002788
-0.00273194718771
-0.00258154031738
-0.00233920084423
-0.00199866390473
-0.00114673635158
-0.0011236033756
-0.00196251141363
-0.00228831785793
-0.0025151599923
-0.00265236269944
-0.00272653123881
-0.00276179481517
-0.00277550800823
-0.00277962846286
-0.00278094801644
-0.00278230213271
-0.00278342798752
-0.00278088326758
-0.00276760536382
-0.00273214127224
-0.00265634336321
-0.00251712861243
-0.0022888441792
-0.0019625740902
-0.00112393791183
-0.00107280497679
-0.00188365576255
-0.00218755760718
-0.00239385686967
-0.00251513402895
-0.00257839671134
-0.0026069047451
-0.00261756029591
-0.00262042170391
-0.00262112617222
-0.00262197550472
-0.00262286501813
-0.00262116046472
-0.00261094232548
-0.00258168094413
-0.00251712428598
-0.00239463318721
-0.0021876505872
-0.0018837565035
-0.00107314843109
-0.000973832285234
-0.00173448123138
-0.00200866263129
-0.00218749554267
-0.00228814293458
-0.0023378890367
-0.00235860658639
-0.00236509370344
-0.00236607767102
-0.00236597148369
-0.00236646269334
-0.00236743806173
-0.00236693407211
-0.0023603640693
-0.00233910906204
-0.00228869105719
-0.00218754629842
-0.00200857493781
-0.00173464315565
-0.000974169312126
-0.000799636765075
-0.00149029944581
-0.00173464699917
-0.00188373581681
-0.00196239208462
-0.00199825851896
-0.0020113415287
-0.0020141872891
-0.00201368241286
-0.00201292772555
-0.00201307834277
-0.00201404869446
-0.00201462291948
-0.00201164583902
-0.00199832884408
-0.00196227371827
-0.00188356520579
-0.00173457541118
-0.00149046702522
-0.000799926501432
-0.000550691432642
-0.000799789318898
-0.000973868556054
-0.001072564766
-0.00112304223962
-0.00114555727361
-0.00115342843148
-0.0011548116718
-0.00115418707935
-0.00115366603144
-0.00115438511136
-0.00115552940451
-0.00115614989729
-0.00115465836497
-0.00114655203955
-0.00112377352089
-0.00107304939352
-0.000974140759102
-0.000799933073999
-0.000550905917582
-0.000583145661029
-0.000970695874201
-0.00125486533898
-0.00142617581143
-0.00152137406038
-0.00156907098685
-0.00158931065173
-0.00159558571021
-0.00159623159804
-0.00159594797822
-0.00159681253726
-0.0015982837002
-0.00159817177079
-0.00159197764241
-0.00157142676866
-0.00152305479094
-0.0014268647988
-0.00125454365672
-0.000970042425258
-0.000583469924944
-0.000971083848413
-0.00172991370219
-0.00200271620911
-0.0021809201246
-0.00228172472283
-0.00233198072194
-0.00235313116834
-0.00235978563244
-0.00236076300132
-0.00236063418915
-0.00236106669262
-0.00236200205033
-0.0023615860911
-0.00235516685445
-0.00233388761237
-0.00228308920215
-0.00218136116953
-0.00200215137745
-0.00172885712073
-0.000970590944441
-0.00125526561881
-0.00200314807528
-0.00224807792216
-0.00242373847109
-0.00252948522825
-0.00258563962615
-0.00261145235051
-0.00262110918453
-0.0026238831915
-0.00262491461262
-0.00262567707925
-0.00262643478262
-0.00262505739675
-0.00261616209133
-0.00259043622623
-0.00253357420204
-0.0024264401973
-0.00224909863793
-0.00200289676104
-0.00125493644903
-0.00142636807434
-0.00218134027756
-0.00242349364981
-0.00260739784176
-0.00272290136534
-0.00278708159642
-0.00281842446634
-0.00283138923088
-0.00283576551265
-0.00283748934279
-0.00283902437228
-0.00284024854792
-0.00283823259879
-0.0028267547188
-0.00279585859968
-0.0027307629537
-0.00261322837751
-0.00242674548943
-0.00218236627512
-0.00142681870288
-0.00152129267177
-0.00228182224382
-0.00252833834483
-0.00272158589139
-0.00284603024981
-0.00291705517314
-0.00295133341038
-0.00296604950006
-0.0029720045145
-0.00297437832439
-0.00297667198526
-0.00297869565001
-0.00297795445375
-0.00296595887927
-0.00293032281368
-0.00285812907531
-0.00273087026848
-0.00253398072712
-0.0022841582777
-0.00152260213629
-0.00156880835751
-0.00233167005574
-0.00258317794224
-0.00278355675051
-0.00291429098968
-0.00298571883711
-0.00301820494726
-0.00303488920107
-0.00304295548551
-0.00304567430336
-0.00304876343589
-0.00305203422967
-0.00305486896472
-0.00304688087411
-0.00300937935545
-0.002930542066
-0.00279616623148
-0.0025910004098
-0.00233505346188
-0.00157078587502
-0.00158905079436
-0.00235250985289
-0.00260753580335
-0.00281207514761
-0.00294469480464
-0.00301118404324
-0.0030432168964
-0.00306325714791
-0.00307301251667
-0.0030756308743
-0.00307940565423
-0.00308419499152
-0.0030912234691
-0.0030889144166
-0.00305240734563
-0.00296689562893
-0.00282758953059
-0.00261711116262
-0.00235657181798
-0.00159144092786
-0.00159548866831
-0.00235900536396
-0.00261586784093
-0.0028221976055
-0.0029539499111
-0.00301727611326
-0.00305044336026
-0.00307182803628
-0.00308186220974
-0.00308396025752
-0.0030881702699
-0.00309441290124
-0.00310472534027
-0.00310648923564
-0.00307222734749
-0.00298283533863
-0.00284008619014
-0.00262670804327
-0.00236341647708
-0.00159806116297
-0.00159630496137
-0.00235985765903
-0.00261741894036
-0.00282417859007
-0.00295518731865
-0.0030176706267
-0.00305063412738
-0.00307168862503
-0.00308107176777
-0.00308258438935
-0.00308705139728
-0.00309444943439
-0.00310682206398
-0.00311086228919
-0.00307795692752
-0.00298799243517
-0.0028437879359
-0.00262915089282
-0.00236447644489
-0.00159900500655
-0.00159593215004
-0.00235951446197
-0.00261728926892
-0.00282404444663
-0.00295476623608
-0.00301668978301
-0.00304902802699
-0.00306949952226
-0.00307841324797
-0.00307973757162
-0.00308447397489
-0.00309261346583
-0.00310605956138
-0.00311120893532
-0.00307907162847
-0.00298932530185
-0.00284489014108
-0.00262969298023
-0.00236440434841
-0.00159889992052
-0.00159636813661
-0.00235973890476
-0.00261761803721
-0.00282444909051
-0.00295518944148
-0.0030171365972
-0.00304964916343
-0.00307047424556
-0.0030798390874
-0.00308160042977
-0.00308670180818
-0.00309507103176
-0.00310859074775
-0.00311363061215
-0.00308117582565
-0.00299095681492
-0.0028460675353
-0.00263054380322
-0.00236507855593
-0.00160002336347
-0.00159740554915
-0.00236048410183
-0.00261833643504
-0.00282528632977
-0.00295631785547
-0.00301882516898
-0.00305224311187
-0.00307427273124
-0.0030849270137
-0.00308769085329
-0.0030932167129
-0.00310128229457
-0.00311386951407
-0.00311759760197
-0.00308377295745
-0.00299244940897
-0.00284695506918
-0.0026314197091
-0.00236621684307
-0.00160170288428
-0.00159698169622
-0.00235994152607
-0.00261718576518
-0.00282373385315
-0.00295587279471
-0.00302029681759
-0.00305524602816
-0.00307867391683
-0.00309073818764
-0.00309467741165
-0.00310047462966
-0.00310770359759
-0.00311814381249
-0.00311875214932
-0.00308187808068
-0.00298933519089
-0.00284433762983
-0.00262963900703
-0.00236562768048
-0.00160133646119
-0.00159074197107
-0.00235362062445
-0.0026090164337
-0.00281374066542
-0.00294669125177
-0.00301560279753
-0.00305155127871
-0.00307498292684
-0.00308734493804
-0.00309212136407
-0.0030977673063
-0.00310369435516
-0.00311051713465
-0.00310565197829
-0.00306403136329
-0.00297376245203
-0.00283201121502
-0.00261995390702
-0.00235869583397
-0.00159460117362
-0.00157048581959
-0.00233275328414
-0.00258456954574
-0.00278493054701
-0.00291539008278
-0.00298826889475
-0.00302474990975
-0.00304556469099
-0.0030564218437
-0.00306136119107
-0.00306637872136
-0.00307079144395
-0.00307306218401
-0.00306145229662
-0.00301859129148
-0.00293616069366
-0.00279976872179
-0.00259317941321
-0.00233675984967
-0.00157344551422
-0.00152271242476
-0.00228264615456
-0.00252946490356
-0.00272269039001
-0.00284687093128
-0.00291778195858
-0.0029529963967
-0.00296986976178
-0.00297809657028
-0.00298251113511
-0.00298656940908
-0.00298960151879
-0.00298840627774
-0.00297442820836
-0.00293653727688
-0.00286229728151
-0.00273328387436
-0.00253539481779
-0.00228544397376
-0.00152467032614
-0.00142722537525
-0.00218170590433
-0.00242425598501
-0.00260826906447
-0.0027236564072
-0.00278782027801
-0.00281967128258
-0.00283349199808
-0.00283932927672
-0.00284262176804
-0.0028455234624
-0.00284747270322
-0.00284527940214
-0.00283289706245
-0.0028003246138
-0.00273347744759
-0.00261470059428
-0.00242772609901
-0.00218346375314
-0.00142835842518
-0.00125539918172
-0.00200309184331
-0.0022485894559
-0.0024245940695
-0.00253047289231
-0.00258681322595
-0.00261309773964
-0.00262361213813
-0.0026273673778
-0.00262920284616
-0.00263099467843
-0.00263232590837
-0.00263061014032
-0.00262070795176
-0.00259359068337
-0.00253550333904
-0.002427695582
-0.00225023407609
-0.00200411283913
-0.00125601552418
-0.000970844344639
-0.00172993862632
-0.00200345665494
-0.0021822279311
-0.00228340849612
-0.00233401453756
-0.00235566652986
-0.00236300331206
-0.00236470353773
-0.00236517054691
-0.00236605759005
-0.00236711894718
-0.00236629296358
-0.00235903748255
-0.00233679114001
-0.00228528159358
-0.00218327595184
-0.00200401866188
-0.00173042117731
-0.00097120048007
-0.000583507718781
-0.000971108818686
-0.00125550312384
-0.00142703922363
-0.00152238394514
-0.0015702991785
-0.00159099340385
-0.00159794958867
-0.00159940279932
-0.00159982791027
-0.00160114113604
-0.00160264419779
-0.00160205723092
-0.00159503654494
-0.00157359045288
-0.00152461659581
-0.00142825170607
-0.00125596003464
-0.000971200005712
-0.000583791105759
-0.000599095420183
-0.00106356047309
-0.00141783389432
-0.00164210116513
-0.00177457047553
-0.00184637328405
-0.00188057027519
-0.00189396205406
-0.0018979634527
-0.00189942254497
-0.00190170905627
-0.00190416283607
-0.00190304710372
-0.00189139767367
-0.00185764495687
-0.00178473682931
-0.00164939705429
-0.00142103752
-0.00106345496371
-0.00059944962909
-0.0010640833416
-0.0018686353782
-0.00216965366668
-0.00237592916432
-0.00249970525473
-0.00256650989432
-0.00259823703356
-0.00261096639594
-0.00261529454614
-0.00261709521804
-0.00261906362113
-0.00262090695066
-0.00261978156268
-0.00260940676246
-0.0025788098807
-0.00251143956968
-0.00238507796467
-0.00217467068741
-0.00186962189058
-0.00106418048887
-0.00141793629995
-0.00216965644115
-0.00241220352855
-0.00259774846532
-0.00271595648754
-0.00278326471141
-0.0028175576998
-0.00283303257846
-0.00283984724259
-0.00284367886217
-0.00284674692916
-0.00284855159888
-0.00284708262172
-0.00283559225663
-0.00280342733165
-0.00273577677288
-0.00261454376929
-0.00242383864273
-0.0021757239563
-0.00142148950599
-0.00164052218171
-0.00237425651724
-0.00259540685332
-0.00277799937404
-0.00289928213519
-0.00296878026482
-0.00300335710286
-0.00302181439226
-0.00303192352283
-0.00303731956866
-0.00304207123039
-0.00304584110094
-0.00304749461062
-0.0030388166238
-0.00300332036147
-0.00292987957185
-0.00280453283565
-0.00261508708331
-0.00238653651118
-0.00164917696285
-0.0017703152096
-0.00249489752467
-0.00270894921163
-0.00289349152373
-0.00301317999728
-0.00307524036944
-0.00310721274167
-0.00313213471351
-0.00314855599963
-0.00315589212182
-0.00316277805186
-0.00316893724889
-0.00317809551579
-0.00317862533897
-0.00314500989284
-0.00306422748499
-0.00293033462197
-0.00273667759437
-0.00251305819807
-0.00178395954516
-0.00183907821078
-0.00255788203874
-0.00277006971262
-0.00295430843761
-0.00306143752552
-0.00311362646051
-0.00314720353545
-0.00318203809891
-0.00320569320852
-0.00321441219902
-0.00322339408208
-0.00323247839065
-0.00325138829893
-0.0032659821585
-0.00323869576746
-0.00315223552978
-0.0030046600648
-0.00280492797512
-0.00258074005518
-0.00185678908307
-0.00187051459326
-0.00258596827131
-0.00279769333509
-0.002975718778
-0.00306983517029
-0.00311687405154
-0.00315535016887
-0.00320073506656
-0.00322988194235
-0.00323887618143
-0.00324933593646
-0.00326138406312
-0.00328941381057
-0.00331721725799
-0.00329644428947
-0.00320612220686
-0.00304645749905
-0.00283826699823
-0.00261205657581
-0.00189112404791
-0.00188176685903
-0.0025957514708
-0.00280695975832
-0.00297818137279
-0.00306682702649
-0.00311233926806
-0.00315615954391
-0.00320723301786
-0.00323846953622
-0.00324659383684
-0.00325776682135
-0.00327246487984
-0.00330710610061
-0.0033435395065
-0.0033278235176
-0.00323415250503
-0.00306812608186
-0.00285175619957
-0.00262371602991
-0.00190410513647
-0.0018841579307
-0.00259784912795
-0.00280837152379
-0.00297653012198
-0.00306320835766
-0.0031083983462
-0.00315343494622
-0.00320540527161
-0.00323608874521
-0.00324301325043
-0.00325454959422
-0.00327143174452
-0.00331008178673
-0.00335105175564
-0.00333805950408
-0.0032440089069
-0.0030756343598
-0.00285602380649
-0.00262674286322
-0.00190735762591
-0.00188439302692
-0.00259819826946
-0.00280829885894
-0.00297507065097
-0.00306039595145
-0.00310445773903
-0.00314871815478
-0.00320003455741
-0.00323001460473
-0.00323657075749
-0.00324862501978
-0.00326699650259
-0.0033077864747
-0.00335101042306
-0.00333967696479
-0.00324630510106
-0.00307777948855
-0.00285786125206
-0.00262749931892
-0.0019080311088
-0.00188554907406
-0.002599281571
-0.00280911675226
-0.00297546531757
-0.00306036775774
-0.00310429054527
-0.0031488623706
-0.00320095908819
-0.00323198730291
-0.00323954608615
-0.00325241446527
-0.0032712722307
-0.00331225254165
-0.00335538085059
-0.00334354864945
-0.00324934405373
-0.00307993706135
-0.00285929943458
-0.00262867010564
-0.00190963379177
-0.0018873444747
-0.00260092197126
-0.00281064848899
-0.00297752704522
-0.00306287922387
-0.0031075314691
-0.00315332619802
-0.00320741355494
-0.00324101959708
-0.00325080720572
-0.00326472910155
-0.00328307546098
-0.00332235450968
-0.00336312847079
-0.00334874259036
-0.00325229715736
-0.00308140779543
-0.00285992813866
-0.00262967364983
-0.00191124745499
-0.00188643537277
-0.00260039735257
-0.00281030287532
-0.00298040337532
-0.00306939828157
-0.00311699710011
-0.00316453043979
-0.00322027424351
-0.00325622746902
-0.00326848098425
-0.00328326828129
-0.00330027534036
-0.00333573466262
-0.00337055644349
-0.00334975351249
-0.00324894087335
-0.00307655380159
-0.00285654036086
-0.00262706994025
-0.00190858796957
-0.00187605396658
-0.00259161293798
-0.00280163381568
-0.00297902427693
-0.00307607009613
-0.00312976613904
-0.00317681232832
-0.00323031344679
-0.00326562861515
-0.00327937661733
-0.00329418114849
-0.00330910002678
-0.00333766854298
-0.00336103583646
-0.00332911904284
-0.00322539694825
-0.00305554554055
-0.00284224992814
-0.0026145499126
-0.00189482349667
-0.00184481122652
-0.00256379252441
-0.00277423973992
-0.00295650594712
-0.00306591476642
-0.00312608546958
-0.00317011849072
-0.00321477100539
-0.00324501953885
-0.00325868781606
-0.00327231369258
-0.0032845268395
-0.00330335884446
-0.0033108951463
-0.00326957179265
-0.00316776269791
-0.00301062386738
-0.00280700188924
-0.00258170234457
-0.00185906364063
-0.00177551191538
-0.00250026329113
-0.00271303617967
-0.00289495193178
-0.00301364723584
-0.00308019089867
-0.00312015930647
-0.00315280225326
-0.00317496549876
-0.00318697951734
-0.00319829349175
-0.00320740951511
-0.00321605804859
-0.00321000071666
-0.00316418834097
-0.00307259696853
-0.00293280281118
-0.00273673674535
-0.00251271407101
-0.0017849821009
-0.00164429868294
-0.00237829102914
-0.00259915331223
-0.00278005597485
-0.00289896268558
-0.00296742207016
-0.0030043529516
-0.00302763190083
-0.00304190189871
-0.00305121467748
-0.00305958474468
-0.00306566208934
-0.00306664889213
-0.0030533162306
-0.00301150598193
-0.00293331022453
-0.0028048834879
-0.00261401696081
-0.00238584852024
-0.00164963566696
-0.00141960990191
-0.00217193154723
-0.00241545648547
-0.00260073428528
-0.00271782023787
-0.00278415818839
-0.00281844503482
-0.00283521222651
-0.00284416646569
-0.00285071707508
-0.00285589549495
-0.00285938815435
-0.00285751992214
-0.00284377180217
-0.00280832279983
-0.00273749037242
-0.00261424300841
-0.00242316316424
-0.0021759110253
-0.00142212663426
-0.00106405964897
-0.00186962999088
-0.0021726366463
-0.00238005354941
-0.00250405547467
-0.00257085287716
-0.00260306228723
-0.00261697774328
-0.00262290211232
-0.00262640641046
-0.00262952003403
-0.00263153656798
-0.0026291872902
-0.00261637012905
-0.00258288770827
-0.00251322352657
-0.00238590708569
-0.00217583689247
-0.00187145397386
-0.00106512625573
-0.000599545856543
-0.00106438388089
-0.00141984302661
-0.00164482295828
-0.00177730631903
-0.00184905550542
-0.00188379585568
-0.00189843715464
-0.00190406396516
-0.00190717582948
-0.00191046086069
-0.00191289795752
-0.00191048740694
-0.00189650810138
-0.00186019635581
-0.00178549722614
-0.00164972749072
-0.00142207322401
-0.00106508778864
-0.000599985618778
-0.000604335462277
-0.00110494303907
-0.00150277720692
-0.00176677649594
-0.00193085920737
-0.00202507752567
-0.00207345289556
-0.00209504317343
-0.00210377830352
-0.00210870135025
-0.00211422605757
-0.00211948368229
-0.00211920524494
-0.00210409985883
-0.00205946132596
-0.00196507906932
-0.00179555735855
-0.00152092170742
-0.00111082258176
-0.000605076237954