/*--------------------------------*- C++ -*----------------------------------*\
| =========                 |                                                 |
| \\      /  F ield         | OpenFOAM: The Open Source CFD Toolbox           |
|  \\    /   O peration     | Version:  3.0.1                                 |
|   \\  /    A nd           | Web:      www.OpenFOAM.org                      |
|    \\/     M anipulation  |                                                 |
\*---------------------------------------------------------------------------*/
FoamFile
{
    version     2.0;
    format      ascii;
    class       volVectorField;
    location    "8.3";
    object      ddt0(rho,U);
}
// * * * * * * * * * * * * * * * * * * * * * * * * * * * * * * * * * * * * * //

dimensions      [1 -2 -2 0 0 0 0];

internalField   nonuniform List<vector> 
7968
(
(0.0710842697432 0.0510905953779 -0.0609651483259)
(0.244468962654 0.0778762758784 -0.0928427489325)
(0.382293453847 0.0850485965555 -0.0944426805168)
(0.464741944909 0.0709273781149 -0.0613055396293)
(0.519487623268 0.049178564045 -0.0130959322473)
(0.492934924457 0.0257605652975 0.0400663558321)
(0.478747247143 -0.000368848584797 0.0637837045192)
(0.456872549271 -0.0219062088682 0.0918487486)
(0.409755875916 -0.0293247828079 0.11425473171)
(0.345354039059 -0.0290883794747 0.124730895708)
(0.271727523785 -0.0252356165964 0.12760459148)
(0.186826962468 -0.0181403637057 0.123012908385)
(0.0949583118531 -0.00486479269417 0.106952396187)
(0.00913088184719 0.018661274726 0.0834466767749)
(-0.0712692803736 0.0338328057882 0.052374280953)
(-0.168819278356 0.0780572408506 0.0218027295528)
(-0.209930397388 0.0870646095588 -0.0353195445097)
(-0.206056144024 0.100458485019 -0.0680467614253)
(-0.146764943866 0.0915456225837 -0.0689746068888)
(-0.039835381228 0.0594468678283 -0.0392359942341)
(0.101010522218 0.180986506828 -0.0895761235543)
(0.318956124051 0.249830484122 -0.167279158797)
(0.425003012507 0.264092854364 -0.146907552351)
(0.47495440804 0.222061433533 -0.091517608173)
(0.487704104818 0.142552103646 -0.0097594954273)
(0.445891374144 0.0418490286956 0.073517572364)
(0.426472828674 -0.0749979139606 0.133264534564)
(0.407753609384 -0.165932838829 0.193159617611)
(0.377978747701 -0.218612391096 0.241281423601)
(0.340150970965 -0.237521094765 0.267060735299)
(0.294731806983 -0.232053167953 0.272544205428)
(0.23623632739 -0.203309920628 0.257985345748)
(0.163293468899 -0.143177707187 0.22037733009)
(0.0813390352562 -0.0481885291999 0.166922451637)
(-0.00669382712447 0.067212639741 0.108353628581)
(-0.126836939152 0.180789615588 0.0365296414112)
(-0.20371373929 0.258604350346 -0.0482561503207)
(-0.239668333206 0.299375204851 -0.106996967279)
(-0.21619320944 0.28208517089 -0.134793534493)
(-0.0683330184612 0.206062198382 -0.0694118460525)
(0.109293073636 0.269327277902 -0.0901898356126)
(0.335732183894 0.304070013573 -0.144572499997)
(0.400519873379 0.276226045207 -0.078444170631)
(0.406203897033 0.171263785973 0.00154043890274)
(0.379656731867 0.013658995654 0.0851179148851)
(0.330270320056 -0.177567487445 0.156186128024)
(0.317951606751 -0.378274133227 0.204261569385)
(0.322238625347 -0.535565361207 0.251520913338)
(0.326394345678 -0.634093550536 0.292868440882)
(0.327270498712 -0.675310220942 0.316032006657)
(0.320648004742 -0.666119835067 0.321428160638)
(0.299632232244 -0.607897356511 0.308903861356)
(0.258290576497 -0.496541404974 0.277525452157)
(0.19730877017 -0.332121220891 0.237018026199)
(0.114171696562 -0.129304461973 0.193690553463)
(-0.0157721347337 0.0725684729638 0.13227656725)
(-0.131730760996 0.225867495946 0.0501107941832)
(-0.212497976339 0.326966949936 -0.0328468128131)
(-0.231056269464 0.350602475656 -0.108397296122)
(-0.0761872794468 0.308114737487 -0.0688639880667)
(0.0960903477482 0.303773872134 -0.0587714408167)
(0.294883296389 0.302533763787 -0.0893821748018)
(0.297688537736 0.230598588002 0.00113595139733)
(0.238219470087 0.0603147076035 0.0708552018934)
(0.163623786861 -0.176879233976 0.134300281178)
(0.105351275181 -0.446189746124 0.157619751224)
(0.113045784244 -0.710775738741 0.157884336077)
(0.162957435832 -0.914766323304 0.172136885641)
(0.229170729493 -1.04214106241 0.191989018921)
(0.299218463943 -1.09576825553 0.203929754849)
(0.362741335391 -1.08353988935 0.208775964474)
(0.410375406294 -1.00720023078 0.207202178697)
(0.429420433999 -0.86103591234 0.198087889105)
(0.410627095859 -0.647789935598 0.192522407762)
(0.342273219571 -0.380934711527 0.198918714052)
(0.200614989534 -0.103676096547 0.185366511191)
(0.0354461885693 0.127763458889 0.122546051896)
(-0.109661832012 0.291885300996 0.0498758501097)
(-0.190057919083 0.359487613238 -0.0503068784842)
(-0.0624012148543 0.352754220348 -0.036961227231)
(0.0800922399565 0.308088139881 -0.00886771015525)
(0.216204509122 0.266397739422 -0.00882701128834)
(0.141295760833 0.155356407899 0.0817562156365)
(0.00164941913175 -0.0640050483845 0.130179210988)
(-0.116727031308 -0.346752480119 0.137417029366)
(-0.182700399014 -0.666140926707 0.108025116003)
(-0.14185299014 -0.968567280819 0.0647192685953)
(-0.0341121557287 -1.20197426552 0.0432254429065)
(0.111232143847 -1.34514455651 0.0356183417999)
(0.266528307752 -1.40423952004 0.0340153174578)
(0.415676654907 -1.38819421179 0.0397128593607)
(0.546438311247 -1.2999922969 0.0536972588741)
(0.641064729445 -1.13430181909 0.0748144191327)
(0.674315462885 -0.890747788879 0.106637104492)
(0.632022927747 -0.58772268509 0.156394147372)
(0.478463937548 -0.262971213726 0.196854940055)
(0.266836186298 0.0112420392435 0.188749945565)
(0.0429129784889 0.221843350055 0.134132399993)
(-0.113754792241 0.327796037347 0.0333987353766)
(-0.0466619430366 0.361365798792 0.0163838779148)
(0.0491556850741 0.243695258413 0.0340373291854)
(0.109240450935 0.184643527021 0.068368575724)
(-0.0564709670007 0.0650758966202 0.147096592985)
(-0.275293270543 -0.164495783618 0.147138228056)
(-0.441017281065 -0.457415794692 0.10082113387)
(-0.504947930017 -0.776529210805 -7.51433811263e-05)
(-0.423467964119 -1.06385897436 -0.0952010185135)
(-0.244843479551 -1.28110136937 -0.153334069885)
(-0.0122954296453 -1.41053938409 -0.178944952501)
(0.233138412032 -1.45983343214 -0.185341414672)
(0.47126165611 -1.44117736182 -0.177882219764)
(0.69008604468 -1.35913127493 -0.155246176578)
(0.866694563924 -1.20418041592 -0.112313647666)
(0.961486354151 -0.975557092084 -0.0420581493081)
(0.95062995797 -0.689701206039 0.0561949276858)
(0.798212159424 -0.370532529548 0.164753698386)
(0.534732715599 -0.0888086767442 0.208694004898)
(0.235455308255 0.130611598057 0.201331029278)
(-0.0092746747292 0.24305595532 0.11172479716)
(-0.0142785923892 0.294176181074 0.0590667090793)
(0.0282025110108 0.198622154788 0.0595747466586)
(-0.00740001078758 0.133743230574 0.126879825311)
(-0.260289082769 0.0191840404903 0.192911708887)
(-0.545918335275 -0.193469290571 0.143398981534)
(-0.747424829279 -0.458030604226 0.0521010896243)
(-0.794275966809 -0.742099048672 -0.0998778216024)
(-0.670495455154 -0.993511198865 -0.227797142741)
(-0.425183095651 -1.18633183448 -0.309625672043)
(-0.113307682186 -1.29781773577 -0.347132816955)
(0.210588712391 -1.33531869658 -0.354787002868)
(0.521248625833 -1.31533602819 -0.344614823099)
(0.815128791123 -1.24140573896 -0.317491348212)
(1.06518642866 -1.10477083295 -0.257280202409)
(1.2143437116 -0.901810449582 -0.160977948288)
(1.23436041512 -0.653988100275 -0.0322437929395)
(1.09514471557 -0.372348760687 0.123647489831)
(0.792393484907 -0.121168823697 0.208353587423)
(0.431163993051 0.0793453270382 0.247646494989)
(0.102774133188 0.184770620256 0.17085903893)
(0.00500883215086 0.242640090922 0.0863017884015)
(0.00536682419569 0.148019322576 0.0844701810056)
(-0.100644796156 0.0870894626277 0.182988884795)
(-0.423355840465 -0.00576163806999 0.236911577238)
(-0.760131482362 -0.174460052274 0.15176434388)
(-0.990872431874 -0.385055704433 0.0213514491009)
(-1.02115971695 -0.604577264783 -0.16856076048)
(-0.867252208356 -0.797441094136 -0.323520616142)
(-0.564968015996 -0.943443824538 -0.430905694633)
(-0.187813174948 -1.03095791258 -0.468181364422)
(0.192431573865 -1.07360977043 -0.431985576058)
(0.567717841077 -1.05111767727 -0.432636540747)
(0.920606446608 -0.987378715592 -0.413062877974)
(1.22102637485 -0.868486458743 -0.362772937043)
(1.41501477798 -0.716389042116 -0.23971557475)
(1.45414921525 -0.528370504914 -0.0873289039561)
(1.32760248676 -0.312080547265 0.104372782286)
(0.992461270785 -0.116800737451 0.221027538372)
(0.584771221079 0.0419769279654 0.292305201604)
(0.191124049511 0.126018299684 0.227458776773)
(0.0255363655701 0.181311177936 0.111277882893)
(-0.00578297888125 0.0839477719764 0.103163606495)
(-0.157686455637 0.0414289657368 0.224947766744)
(-0.53214482978 -0.0178621280985 0.273360669642)
(-0.900945081995 -0.124308784564 0.164547145644)
(-1.15063526761 -0.257393222254 0.00381110676749)
(-1.16946082641 -0.393935828071 -0.207377920396)
(-0.995035356269 -0.513263061611 -0.380452612807)
(-0.659195227943 -0.59946927859 -0.492630483015)
(-0.250481158666 -0.661582973535 -0.502585168489)
(0.174734976409 -0.683528891049 -0.528832944058)
(0.596459761178 -0.671235229201 -0.52408872925)
(0.994862581762 -0.632892372994 -0.482976104275)
(1.33425964772 -0.553987541621 -0.399719531252)
(1.54216458378 -0.456709980127 -0.281884793213)
(1.59435946669 -0.344067723508 -0.115513468959)
(1.47672877551 -0.210819870582 0.0962505941803)
(1.12251115921 -0.0904753912037 0.239264311965)
(0.683501416986 0.0100430790161 0.328082150816)
(0.244299619567 0.0644810675671 0.269417692882)
(0.0338623174858 0.103218798517 0.129476055678)
(-0.00986533003416 0.0168459316358 0.110139581147)
(-0.182166172662 0.00157167306297 0.244274449004)
(-0.583873228436 -0.0191053484578 0.291002767982)
(-0.969430941675 -0.0558237992617 0.171244272596)
(-1.22907546337 -0.102281961928 -0.00544949955161)
(-1.24218231285 -0.149624214934 -0.224439983209)
(-1.05331189832 -0.19075911514 -0.404457169929)
(-0.736736141795 -0.225543961651 -0.43259308631)
(-0.286089200699 -0.242946345679 -0.54076115999)
(0.162850148696 -0.252228302977 -0.571163313485)
(0.605097720087 -0.248908243896 -0.56236930144)
(1.02476588307 -0.237373349148 -0.519706332442)
(1.38022287829 -0.207605056016 -0.426573449926)
(1.6022540964 -0.172455458697 -0.296646588196)
(1.65921399656 -0.1356314633 -0.12771060648)
(1.54861458968 -0.0901617142641 0.0911182606921)
(1.18436494738 -0.0481435933026 0.246715995589)
(0.73081162043 -0.0132887296165 0.345029769067)
(0.266685578189 0.00595335723501 0.288868151661)
(0.0363506565438 0.0200819596538 0.136326052624)
(-0.0101264722102 -0.0484574461819 0.109758331999)
(-0.182683502945 -0.034580327859 0.243917296768)
(-0.584886433648 -0.0157328081376 0.29066829068)
(-0.970862445084 0.0182768402907 0.170967289454)
(-1.23103982577 0.0605628317568 -0.00591471837707)
(-1.24448247835 0.103821015033 -0.225055468475)
(-1.05577726894 0.140435360985 -0.405309170354)
(-0.739688228429 0.170532100779 -0.432586567852)
(-0.288210795019 0.184637418082 -0.542065114408)
(0.161712320714 0.190999875779 -0.572919622425)
(0.604891929076 0.186507671737 -0.564262778093)
(1.02532175006 0.175345031261 -0.521433376942)
(1.38164866614 0.145939761597 -0.42740892282)
(1.60375494971 0.112109629708 -0.298297586797)
(1.66100240338 0.0781405845384 -0.129052713106)
(1.55042931619 0.035739552959 0.0900286629496)
(1.18609870679 -0.00201881874269 0.246039081889)
(0.732306735445 -0.0334744965496 0.344576414195)
(0.267655887031 -0.0499953023544 0.288571579468)
(0.0368098696252 -0.0623785576634 0.135994040506)
(-0.00660982765294 -0.113464621492 0.102484273663)
(-0.159469658053 -0.0721894369276 0.224218030215)
(-0.535385150807 -0.0146403593992 0.272677810534)
(-0.905488615082 0.0889164777928 0.163890729087)
(-1.15661131222 0.217980556805 0.00252005219462)
(-1.17630384337 0.350642207076 -0.209316383843)
(-1.00256360038 0.465731243323 -0.383181496536)
(-0.666854112224 0.547260795858 -0.496118705449)
(-0.257043174289 0.606313837924 -0.505761883019)
(0.171146327673 0.625344798565 -0.533444393774)
(0.59614687825 0.612119277473 -0.529009836902)
(0.997255964999 0.574572634108 -0.486787722064)
(1.33949282168 0.496791335474 -0.400741296571)
(1.54679664381 0.400628429435 -0.286715710089)
(1.59964746233 0.29054526432 -0.119521741319)
(1.48213866346 0.160076872036 0.0929916466515)
(1.1276894621 0.0434431749149 0.237166200963)
(0.687946501203 -0.0539086971713 0.326663539378)
(0.247244924214 -0.105994478623 0.268544946748)
(0.0351885274864 -0.143272991087 0.128709816238)
(0.00406791215686 -0.174608158979 0.0837699119007)
(-0.103888776656 -0.114197557882 0.18226293825)
(-0.428786009201 -0.0226480454067 0.236315715976)
(-0.768077131503 0.143232397096 0.150904667837)
(-1.00080559541 0.350306048376 0.0191994964802)
(-1.03224975903 0.566473808151 -0.17185527043)
(-0.879508496538 0.755911028787 -0.328098836735)
(-0.577171257167 0.898411284111 -0.437911353044)
(-0.198145636813 0.983782603288 -0.4760618999)
(0.186590092017 1.02586069783 -0.437898727969)
(0.567485075202 1.00269726775 -0.438623207418)
(0.925150592308 0.939578497845 -0.417200268562)
(1.22671629865 0.819382577042 -0.371908351472)
(1.42259001064 0.668986827382 -0.24716278364)
(1.46242061875 0.482734917449 -0.0936680302135)
(1.33626654859 0.268598116462 0.0993453224784)
(1.00083278671 0.0760329039843 0.21770731921)
(0.591792973655 -0.0800882373344 0.290117405238)
(0.196022263689 -0.162801267866 0.22619339411)
(0.0275247460137 -0.217487912385 0.110185358896)
(0.0266482767787 -0.221328386336 0.058742454539)
(-0.0116864971578 -0.156488503216 0.126777535654)
(-0.268108850904 -0.0427459948164 0.192619782951)
(-0.5570049179 0.167870632912 0.142200774838)
(-0.760841796922 0.430082003064 0.0492290102736)
(-0.808785424243 0.711722386862 -0.104343793808)
(-0.685689298792 0.960892934163 -0.233625294104)
(-0.439813756522 1.15228132015 -0.317598673743)
(-0.124890650054 1.26308453674 -0.35770583949)
(0.204017274348 1.29993111319 -0.36662199414)
(0.519938460774 1.27926041715 -0.356527502387)
(0.818442422945 1.20489604328 -0.328550506473)
(1.07199390311 1.06824694099 -0.266778238234)
(1.22330404625 0.865677152601 -0.169430531876)
(1.24469254148 0.61895291328 -0.0396578093517)
(1.10633353342 0.338681753196 0.117544112679)
(0.803480563146 0.0890608366647 0.204108304644)
(0.44049538559 -0.109997593908 0.245059982763)
(0.108945791581 -0.215067776427 0.169382898881)
(0.00745739782314 -0.273093011654 0.0846594092428)
(0.0479538238232 -0.262474081207 0.0329231877154)
(0.104137898966 -0.203111751588 0.0686466173967)
(-0.0659852866549 -0.0833511704713 0.147170698258)
(-0.288601708002 0.145354823322 0.145790732337)
(-0.456926577377 0.436970145166 0.0973697723773)
(-0.521824129489 0.754869125854 -0.00516088406964)
(-0.440233174739 1.04087994223 -0.10159711653)
(-0.260142128268 1.25775739568 -0.161098644935)
(-0.0243066022064 1.38763896 -0.188082953855)
(0.225905856147 1.43711609703 -0.195391934867)
(0.469157364319 1.41798596703 -0.188015703039)
(0.692723622444 1.33488660593 -0.164857400919)
(0.873374059143 1.17853823257 -0.121101020867)
(0.971273395707 0.950370474221 -0.0504065549467)
(0.962428801463 0.665354031125 0.0486235993343)
(0.811233192807 0.346974366052 0.158239063025)
(0.547656937672 0.0660481703184 0.204179878218)
(0.246353594987 -0.153085380014 0.198814546614)
(-0.00230473664454 -0.266383965063 0.110218926775)
(-0.012318502049 -0.318504904784 0.0568079332024)
(0.0794492507003 -0.322257339329 -0.00898741083172)
(0.211386571623 -0.279729637094 -0.0077220210661)
(0.131445725465 -0.167871683495 0.0825808501057)
(-0.0128612822026 0.051753562803 0.129577469047)
(-0.134016714658 0.334388436125 0.134554250678)
(-0.201375664257 0.653575465475 0.102971977919)
(-0.160358665673 0.955471190623 0.0580777878186)
(-0.050589458067 1.18866012901 0.0349164213118)
(0.0984373538051 1.331968362 0.0259374654862)
(0.258672589934 1.39102482338 0.023511581827)
(0.41310974371 1.37458120602 0.0291900424354)
(0.548626904069 1.2853418969 0.0439999859251)
(0.648528183578 1.11597294894 0.0670420914139)
(0.686064365069 0.875977687999 0.0987099624318)
(0.645529573755 0.574122927749 0.148957826233)
(0.492948715586 0.249776654205 0.191184533694)
(0.28090554393 -0.0246483356995 0.185223579352)
(0.0541414537394 -0.235900107845 0.13265415637)
(-0.10717502021 -0.343376208216 0.0330922821157)
(-0.0453961108072 -0.378710447142 0.0150860080255)
(0.0954659305935 -0.314841400668 -0.0591487321473)
(0.290871361121 -0.311752451701 -0.0880972906831)
(0.288479107578 -0.23819435034 0.00285172426555)
(0.224031580769 -0.0665802006857 0.0712902808284)
(0.146491715312 0.171584815369 0.133204331229)
(0.0868748989233 0.441465963845 0.154374057651)
(0.0953277456533 0.706410570378 0.15329664786)
(0.147230809605 0.910696500131 0.166579318937)
(0.216883755761 1.03850455984 0.185808971882)
(0.291399915806 1.09216775802 0.197252925136)
(0.359245247576 1.07981580612 0.202184349909)
(0.40854118015 1.00333275363 0.202003419907)
(0.436221859047 0.856967539532 0.199772857528)
(0.425070023568 0.643721841849 0.187974682012)
(0.356102415053 0.376962144881 0.193920278314)
(0.214782192212 0.0993142685978 0.181782167495)
(0.0490505547319 -0.133127358381 0.120567216635)
(-0.0994269219811 -0.299109846805 0.0495741799713)
(-0.184670215657 -0.36910442774 -0.0503906185995)
(-0.061349977339 -0.365162708132 -0.0390296825398)
(0.109008711978 -0.276678278103 -0.0904588586425)
(0.332774202375 -0.309829149677 -0.142877645959)
(0.392612278803 -0.280235769611 -0.0756934060603)
(0.393311498321 -0.173433080535 0.00341487773771)
(0.363479748093 -0.0143023946742 0.0857164810647)
(0.312698140174 0.178264552582 0.155339114879)
(0.300783612886 0.379348966202 0.202053259102)
(0.30682093967 0.536847797991 0.247940643614)
(0.314288234471 0.635268021572 0.288269657673)
(0.319553816614 0.676438888879 0.31082100082)
(0.317582934421 0.667410374004 0.31616044477)
(0.301040625482 0.610074260198 0.304270897915)
(0.264923264924 0.502533470571 0.274538859755)
(0.207975773935 0.335179867078 0.233958148001)
(0.126565672103 0.131887930403 0.191206231082)
(-0.00259742037578 -0.0711719479867 0.130839192705)
(-0.119785613307 -0.226050038678 0.0499200084171)
(-0.204006120648 -0.329338414496 -0.0318536741692)
(-0.227091209306 -0.355232773529 -0.108359104575)
(-0.0756010595342 -0.314936329564 -0.0710082028441)
(0.100787384513 -0.185518474181 -0.0899157803493)
(0.316782863492 -0.253651234391 -0.165703887826)
(0.418460957057 -0.266556077256 -0.144263070671)
(0.463877404667 -0.222877629398 -0.0889793883768)
(0.473312412509 -0.14196930413 -0.00800222643515)
(0.429859588904 -0.0400034048998 0.0744182847627)
(0.410469942733 0.0771617033973 0.132962783583)
(0.393269112906 0.168543261415 0.191549228027)
(0.366635983801 0.221592454599 0.238729448514)
(0.332874736431 0.240650676826 0.263926736602)
(0.291941168581 0.235392313604 0.269375406832)
(0.237997116635 0.207116294475 0.255278220294)
(0.169305067617 0.147763495097 0.218731949846)
(0.0902420253482 0.0523711443484 0.166075354952)
(0.00363201059378 -0.0630534644639 0.10799320463)
(-0.115749691038 -0.177822936909 0.0369902297147)
(-0.194048476373 -0.257028048581 -0.0471106831754)
(-0.232942099772 -0.299511341504 -0.105817668123)
(-0.213235092814 -0.283610820369 -0.134502391863)
(-0.0677789722777 -0.20868893502 -0.0709737736133)
(0.0699751991932 -0.0527573718429 -0.0607586275013)
(0.241604094045 -0.0798625873669 -0.0923039815014)
(0.375927261399 -0.0865880106214 -0.0932196331696)
(0.454465771992 -0.071794696942 -0.0600480117836)
(0.505986253199 -0.0494011972981 -0.0120825501592)
(0.478282309523 -0.0251742694508 0.0402013746737)
(0.464011202824 0.00109199208874 0.0633936012107)
(0.443511455331 0.0230511156114 0.0907510623139)
(0.399246521995 0.0308337637795 0.112711392914)
(0.338478281139 0.0307947637072 0.122808943162)
(0.268941334387 0.0270730689652 0.125603878511)
(0.188204481375 0.0200946442128 0.121324641509)
(0.100106786128 0.00687016438332 0.105870127312)
(0.0168052438901 -0.0167192319047 0.0830066578286)
(-0.0625390022379 -0.03177149088 0.0519686700777)
(-0.158871384114 -0.0770726859174 0.0225924697352)
(-0.201639483894 -0.0864720204116 -0.0347597581163)
(-0.199708384984 -0.100402579856 -0.0672049353413)
(-0.143186460607 -0.0917121474493 -0.0681237335536)
(-0.0383071003246 -0.0593675050922 -0.0381556132918)
(0.110949058918 0.0920815396561 -0.463210100133)
(0.345537183697 0.159242864494 -0.537303036141)
(0.421151451459 0.187152410673 -0.47025699482)
(0.417633588411 0.185641999951 -0.347260762669)
(0.365178334583 0.153387811769 -0.195730098778)
(0.309719962223 0.0909748565734 -0.0598558622115)
(0.278975262156 0.0334631312591 0.0527953882964)
(0.274501916781 -0.0253926978208 0.158659109468)
(0.284879448525 -0.0661229747911 0.239001032889)
(0.304735525254 -0.0854235856156 0.278221433668)
(0.323701684796 -0.0841168463439 0.28875018151)
(0.322099307986 -0.062941844636 0.271950498775)
(0.287971657239 -0.0206357163563 0.214109888719)
(0.219997575788 0.0384560346592 0.122881220702)
(0.11834293709 0.0955295100893 0.0152311267811)
(-0.00650619320026 0.165935132244 -0.10689325843)
(-0.148728330445 0.199290873992 -0.256708525683)
(-0.235638075792 0.202129428704 -0.383606135575)
(-0.242136245143 0.173178440792 -0.456291856186)
(-0.0813120180467 0.0995846263783 -0.390440598164)
(0.189771977191 0.279774041771 -0.535254422061)
(0.389469314457 0.303330710627 -0.384425141619)
(0.402732283015 0.300620284338 -0.205206449518)
(0.362834872285 0.244391095111 -0.0460618157053)
(0.300416437566 0.156531468095 0.107305876685)
(0.246337968541 0.0371775713592 0.239685524799)
(0.222503653847 -0.0921317893893 0.344462139205)
(0.23043449511 -0.202888022541 0.433979460711)
(0.26014322335 -0.277369130184 0.503846500216)
(0.29940550987 -0.310787961621 0.543710858659)
(0.334569969333 -0.304801080294 0.554569920257)
(0.350799845932 -0.260841139096 0.536334933439)
(0.3366037865 -0.17815313798 0.486093413069)
(0.284064480322 -0.0639090943911 0.410216045958)
(0.191439044687 0.0659903298782 0.316538353572)
(0.0649569178016 0.190306328762 0.197290796241)
(-0.0745413873189 0.279663699138 0.0499753724501)
(-0.192049919088 0.335437146151 -0.109044191286)
(-0.257245004262 0.338131704189 -0.290014976898)
(-0.143084312067 0.304361525311 -0.452284010003)
(0.222436001766 0.300350215544 -0.468829644506)
(0.393033440928 0.263208395507 -0.207541116345)
(0.380999708998 0.235574141322 0.0378585950342)
(0.301473163571 0.137976340418 0.211172448518)
(0.214185699441 -0.0164840049514 0.342856140693)
(0.154168837618 -0.206574240737 0.434420929732)
(0.139281206007 -0.398418567559 0.494179643506)
(0.167472174717 -0.554283550066 0.543015228024)
(0.223599148631 -0.657252871091 0.584918966172)
(0.290338880423 -0.702579914616 0.614510396509)
(0.351636247631 -0.691412104788 0.62683868001)
(0.393283573183 -0.625672191807 0.621027169097)
(0.402844572089 -0.506373251897 0.599950326401)
(0.368991422229 -0.341197017442 0.564582404486)
(0.28416552949 -0.146181885681 0.516586306359)
(0.151281392952 0.0446966328839 0.437323549127)
(-0.00852330943293 0.196546924 0.313370812039)
(-0.161977690445 0.292142597919 0.143217002345)
(-0.250603201837 0.318171387804 -0.104966482735)
(-0.167760339624 0.34625329781 -0.377539395687)
(0.223285276552 0.243125624363 -0.350080582324)
(0.338421427295 0.174137226992 -0.0537503519722)
(0.28600337977 0.109646258515 0.206166825814)
(0.157028879633 -0.0357306580258 0.355371393103)
(0.0280057237554 -0.25291421393 0.413768978987)
(-0.045875775143 -0.505176648221 0.417162723382)
(-0.0362546337722 -0.744505543593 0.397174503262)
(0.0405459102965 -0.933049570856 0.383262887644)
(0.151198211344 -1.05135375602 0.384310204132)
(0.270375736289 -1.10106689057 0.394483952408)
(0.382208337531 -1.08552924994 0.407620923664)
(0.47447333275 -1.00744109189 0.422796930767)
(0.536272623588 -0.86692954213 0.44533405739)
(0.547447027411 -0.664378226618 0.476979315491)
(0.482504735629 -0.421388068951 0.511000089628)
(0.334241177621 -0.170609488345 0.515765586552)
(0.133490646829 0.038772833561 0.463432147089)
(-0.0655087631193 0.179373279701 0.317018443349)
(-0.195375930478 0.242229593477 0.0571585464801)
(-0.16344313871 0.304868449083 -0.250130773272)
(0.192562774599 0.137273973496 -0.205934247452)
(0.251322890114 0.0673549730835 0.0914375423242)
(0.132109665805 -0.0188942257787 0.330484908177)
(-0.0600459151505 -0.205052180608 0.407169061301)
(-0.223359017754 -0.456141098163 0.365541642233)
(-0.286370690569 -0.723997149685 0.252437965633)
(-0.236220767057 -0.968399590064 0.128812111293)
(-0.104066696937 -1.15905874625 0.0464625926773)
(0.0681786340447 -1.27636212532 0.00869040997196)
(0.249781934539 -1.3222287506 0.00105463110931)
(0.422379909025 -1.30266383457 0.0157518525208)
(0.574819361477 -1.22075788743 0.0520588617238)
(0.693172253593 -1.07484477231 0.117261661312)
(0.751062018703 -0.867146226245 0.222458811591)
(0.720187020974 -0.620938239269 0.357667737893)
(0.578160872866 -0.361529856837 0.474187074728)
(0.342932706503 -0.121218870763 0.520861566167)
(0.0845484743867 0.0586177270791 0.446049495952)
(-0.108755556654 0.141987815213 0.208657528005)
(-0.131154119667 0.209017284049 -0.0962224642033)
(0.125904737682 0.0433889097098 -0.0831804881091)
(0.129797597413 -0.024351360251 0.213933781582)
(-0.0609213105562 -0.11578827438 0.414562982172)
(-0.314972513963 -0.316390248401 0.402773800374)
(-0.49301710147 -0.559323817905 0.246606653739)
(-0.537847301185 -0.811872785226 0.0154075644121)
(-0.444396978627 -1.04038460549 -0.197393811263)
(-0.252741178493 -1.21614899737 -0.33665729828)
(-0.0143824490994 -1.32077007333 -0.403730049807)
(0.232313029183 -1.35772291409 -0.421399397074)
(0.46795470908 -1.33484285597 -0.404119080618)
(0.683023789629 -1.25538851627 -0.351869789776)
(0.86070928476 -1.11648564532 -0.249222788282)
(0.965164040171 -0.922775942031 -0.0806569421974)
(0.96231763835 -0.694106261063 0.142737545204)
(0.834688417438 -0.456600199932 0.369885827325)
(0.587749686049 -0.228449318944 0.525531648005)
(0.268534871136 -0.0372932785665 0.5330157715)
(0.00884272083762 0.0504627305948 0.334933015873)
(-0.065931535807 0.116757053493 0.0329395947517)
(0.0695031426185 -0.020494472805 0.0232938926178)
(-0.000134360640447 -0.0800235804378 0.312048823259)
(-0.25760547392 -0.163144044809 0.468185739388)
(-0.562036544533 -0.342418788268 0.376022744752)
(-0.74590197391 -0.550675553792 0.111554863706)
(-0.771054911667 -0.766058736277 -0.210422770731)
(-0.637666255811 -0.963284963707 -0.488148743021)
(-0.390489485668 -1.11594689969 -0.670375106783)
(-0.0887981843487 -1.20421015623 -0.756575415916)
(0.21998640714 -1.2316270145 -0.778225489241)
(0.515086099095 -1.20668178593 -0.756230535649)
(0.789084075827 -1.13398932123 -0.689401533735)
(1.02007732067 -1.00971692127 -0.555108879847)
(1.16376327579 -0.841839401194 -0.338428204536)
(1.18514771149 -0.647185012306 -0.0530033800637)
(1.06866843124 -0.446059829917 0.256166663547)
(0.818110113946 -0.25845868924 0.506036968046)
(0.452879109149 -0.0906073830629 0.590932061463)
(0.131806478782 -0.0119973056201 0.434303121393)
(-0.0113020941069 0.0460630902628 0.142173035377)
(0.0108257849452 -0.051867099569 0.11908838076)
(-0.114057235434 -0.0972760260658 0.395013429109)
(-0.422842696943 -0.161338808936 0.50927916102)
(-0.765034948384 -0.294842750728 0.349507719716)
(-0.953109223527 -0.451535995397 0.0102081749043)
(-0.962102326316 -0.614659396272 -0.372490329371)
(-0.798935813841 -0.76837357643 -0.700910524923)
(-0.50525131579 -0.888642197911 -0.920177593257)
(-0.149496422499 -0.953298396104 -1.02139059731)
(0.212881567003 -0.962632632564 -1.05851803731)
(0.55782635081 -0.941276869827 -1.02563452853)
(0.880541637655 -0.888219356209 -0.932221837762)
(1.1530498473 -0.791976975563 -0.76906370909)
(1.32530252014 -0.662693742656 -0.513933480999)
(1.36351731485 -0.514610432887 -0.185068096309)
(1.25586580955 -0.363362210748 0.178868274536)
(1.00218096624 -0.223814034749 0.491674165005)
(0.604578027196 -0.104225827033 0.63999063898)
(0.236592998448 -0.0440172317992 0.517523925972)
(0.0443423343194 0.000426391556383 0.237953992981)
(-0.0308939642584 -0.0550162910073 0.186395126088)
(-0.194521260535 -0.0817183384279 0.454618523288)
(-0.537137368146 -0.121421675401 0.540980043523)
(-0.901479487913 -0.200313286824 0.339021669563)
(-1.09435357233 -0.296161594476 -0.0439724210156)
(-1.09473515686 -0.397797015361 -0.465737373922)
(-0.912937301249 -0.496089394184 -0.829443649533)
(-0.582694773874 -0.576061823545 -1.07527545623)
(-0.181510099678 -0.610161912096 -1.19695042241)
(0.213762258269 -0.610776473119 -1.21662299438)
(0.58652819626 -0.594755590882 -1.17919056128)
(0.938530903189 -0.562624988168 -1.08176350279)
(1.24197436991 -0.505244079605 -0.889220803155)
(1.43370004896 -0.425317107627 -0.611330238423)
(1.48231668355 -0.333628847661 -0.25686776297)
(1.38039514432 -0.240686383173 0.138621993823)
(1.12245866066 -0.155326147544 0.487306338933)
(0.70888566172 -0.08658902635 0.669794886205)
(0.310214167156 -0.0494463129405 0.57544704756)
(0.0834463652333 -0.023404300256 0.303030042551)
(-0.0517622624542 -0.0340602702375 0.213145716882)
(-0.235331584462 -0.0431933908783 0.482392227081)
(-0.595259055745 -0.0570435873226 0.556615466261)
(-0.96950551569 -0.0831930502451 0.336991214145)
(-1.16579997351 -0.115871220998 -0.0661948700137)
(-1.16318056893 -0.15132462506 -0.506370727292)
(-0.973168665038 -0.186336538935 -0.888763713058)
(-0.608486668752 -0.21526404489 -1.1777420307)
(-0.190018927888 -0.228406868381 -1.27728322868)
(0.217630310042 -0.227938948472 -1.28997262746)
(0.600305915005 -0.222382607627 -1.24883409604)
(0.965760049304 -0.211194871265 -1.14712569461)
(1.28423841447 -0.19138204596 -0.943031988625)
(1.48594393361 -0.164248409252 -0.652207420687)
(1.5407392653 -0.133055722528 -0.287141809738)
(1.44191965861 -0.101443311186 0.121866954228)
(1.18262536939 -0.0726797899909 0.487278570218)
(0.761694785982 -0.0492056908426 0.68686060202)
(0.346909889401 -0.0360136601935 0.603166263026)
(0.102570994964 -0.0268816089265 0.328802772567)