/*--------------------------------*- C++ -*----------------------------------*\
| =========                 |                                                 |
| \\      /  F ield         | OpenFOAM: The Open Source CFD Toolbox           |
|  \\    /   O peration     | Version:  3.0.1                                 |
|   \\  /    A nd           | Web:      www.OpenFOAM.org                      |
|    \\/     M anipulation  |                                                 |
\*---------------------------------------------------------------------------*/
FoamFile
{
    version     2.0;
    format      ascii;
    class       volScalarField;
    location    "8.3";
    object      ddt0(k);
}
// * * * * * * * * * * * * * * * * * * * * * * * * * * * * * * * * * * * * * //

dimensions      [0 2 -3 0 0 0 0];

internalField   nonuniform List<scalar> 
7968
(
-4.91555748864e-05
-5.60903490417e-05
-6.17391558016e-05
-6.5443487849e-05
-6.78197129674e-05
-6.92754792061e-05
-7.00695777381e-05
-7.05142725355e-05
-7.08139569985e-05
-7.10324399428e-05
-7.13416250346e-05
-7.13570745296e-05
-7.11303786946e-05
-7.06774547552e-05
-6.98190634566e-05
-6.83140960622e-05
-6.58148732977e-05
-6.20008596665e-05
-5.62655866976e-05
-4.92737615534e-05
-5.60640869901e-05
-8.54679333699e-05
-0.000105138902122
-0.000116742360292
-0.000123238061559
-0.000126398014343
-0.000127570999195
-0.000127865478897
-0.000128064456753
-0.000128357198532
-0.000128683915195
-0.00012881508759
-0.000128857722215
-0.000128639177327
-0.000127428028908
-0.000124226250462
-0.000117528404668
-0.00010571005179
-8.58383667433e-05
-5.62998299947e-05
-6.17274163558e-05
-0.000105226487153
-0.000133316731028
-0.000149789664689
-0.000158893726531
-0.000163204052444
-0.000164640435311
-0.000164949218544
-0.000165145797928
-0.000165480871596
-0.000165829564694
-0.000165976926383
-0.000166094716316
-0.000165900447726
-0.000164457669525
-0.000160052503534
-0.000150716631723
-0.000133976789398
-0.000105647197705
-6.20394430442e-05
-6.54636312548e-05
-0.000116931172583
-0.000149913615798
-0.000168818166654
-0.000178666631685
-0.000182606525038
-0.000183074778412
-0.00018268686939
-0.000180358640011
-0.000180083190411
-0.000180317468247
-0.000180858646631
-0.000183854663454
-0.000184385411478
-0.000183985003517
-0.00017992890607
-0.000169798572272
-0.000150591770898
-0.000117365749253
-6.58128445721e-05
-6.78821852716e-05
-0.000123497846296
-0.000159107854797
-0.000178762149821
-0.000187748829164
-0.000188935645779
-0.000190643154982
-0.000191145195692
-0.000190954407261
-0.000190931708806
-0.000191177103982
-0.000191521156976
-0.000192029502815
-0.000191599612445
-0.000189956608034
-0.000189117919931
-0.00017981023905
-0.000159811797458
-0.000123953691109
-6.82555260588e-05
-6.93487055313e-05
-0.000126649965525
-0.000163432815949
-0.000182720972209
-0.000188992296209
-0.00019363389643
-0.000195668017726
-0.000195977342636
-0.000195756819871
-0.000195683525279
-0.000195949429075
-0.000196373227911
-0.000196816821101
-0.000196568107099
-0.000194511590386
-0.000189885804541
-0.00018383178039
-0.000164187374652
-0.000127148808462
-6.97370562551e-05
-7.01562203822e-05
-0.000127800593017
-0.000164832725023
-0.000183138517764
-0.000190695883305
-0.000195667429319
-0.000197318848627
-0.000197056993939
-0.000196349668512
-0.000196023511063
-0.000196319698312
-0.000197025592452
-0.000197952887596
-0.000198276608225
-0.000196560807453
-0.000191519564925
-0.000184295471215
-0.000165660310774
-0.000128358544111
-7.05601252671e-05
-7.05852971198e-05
-0.000128004095624
-0.000165010076552
-0.000182569821549
-0.000191092068125
-0.000195881774047
-0.000196956753347
-0.000195970352889
-0.000194645554444
-0.000194013239986
-0.000194365425349
-0.000195453099502
-0.000196997009171
-0.000198044897257
-0.000196895782372
-0.000192015947532
-0.000183035836333
-0.00016597166294
-0.000128639333589
-7.10000459711e-05
-7.0827587365e-05
-0.000128014131389
-0.000164975876694
-0.000180527948529
-0.000190833674062
-0.000195493334319
-0.000196055514324
-0.000194435796786
-0.00019252069712
-0.000191470437473
-0.000191921820964
-0.000193485804609
-0.000195647038083
-0.000197297495323
-0.000196603709518
-0.000191621548144
-0.000180790874113
-0.000166048078665
-0.000128735863238
-7.12539610558e-05
-7.09251723197e-05
-0.000128038211596
-0.000164994019734
-0.000179886620014
-0.000190569889283
-0.000195185322224
-0.000195472432803
-0.000193521317781
-0.000191128872726
-0.00018973867543
-0.000190311955917
-0.000192249181018
-0.000194834615462
-0.000196827001238
-0.000196388381594
-0.00019147786554
-0.00018047223418
-0.00016615653068
-0.000128823226879
-7.13686483289e-05
-7.09046869364e-05
-0.000128006225782
-0.000164954099385
-0.000179854807206
-0.000190531305932
-0.000195140171307
-0.000195419437552
-0.000193456551878
-0.000191044430792
-0.000189631121815
-0.000190198059263
-0.000192152063544
-0.000194755771103
-0.000196759709133
-0.000196329475328
-0.000191425070108
-0.000180423711594
-0.000166104777101
-0.000128785197478
-7.13462262037e-05
-7.07907171554e-05
-0.000127928249061
-0.000164867335959
-0.000180451614826
-0.000190729317817
-0.000195372557512
-0.000195917215879
-0.000194271783088
-0.000192321042914
-0.000191230253545
-0.000191668890139
-0.000193258263913
-0.000195452056216
-0.000197125059475
-0.000196448055496
-0.000191477936271
-0.00018065513077
-0.000165900834575
-0.000128627970494
-7.12118114627e-05
-7.05455531032e-05
-0.000127879343004
-0.000164846539739
-0.000182380747921
-0.000190918864596
-0.000195696465815
-0.000196746815577
-0.000195725051656
-0.000194363112011
-0.000193691192183
-0.000194028614679
-0.000195138491072
-0.000196710397908
-0.00019778784808
-0.000196660144496
-0.000191793926991
-0.00018287633321
-0.000165745832578
-0.000128477134843
-7.0951440138e-05
-7.01189655889e-05
-0.000127661341846
-0.000164637874014
-0.000182895108851
-0.00019047915892
-0.000195434954412
-0.000197056086429
-0.000196754626722
-0.000196004172674
-0.000195642314276
-0.000195924483108
-0.000196646509839
-0.000197603992091
-0.000197958696997
-0.000196268756837
-0.000191236284574
-0.000183958540671
-0.000165385361855
-0.000128167135497
-7.0511270345e-05
-6.93201261567e-05
-0.00012651832752
-0.000163236392483
-0.000182456862234
-0.000188743405749
-0.000193369537515
-0.000195368118577
-0.000195637908789
-0.000195370526616
-0.000195263702092
-0.000195516390103
-0.000195953211138
-0.000196428351506
-0.000196209555085
-0.000194183011996
-0.000189560596541
-0.000183464466396
-0.000163903419077
-0.000126958752596
-6.96953709191e-05
-6.78691216163e-05
-0.000123392719184
-0.00015894113161
-0.000178522858931
-0.000187425926004
-0.00018864378263
-0.000190305147304
-0.000190769288239
-0.000190515625653
-0.000190473030853
-0.000190707659899
-0.000191053895973
-0.000191600480871
-0.00019119809105
-0.000189590173049
-0.000188686396297
-0.000179468670075
-0.00015956039046
-0.000123793240114
-6.82290787831e-05
-6.54645574619e-05
-0.000116867133155
-0.000149799967681
-0.000168635993914
-0.000178398873589
-0.000182243991742
-0.000182626398124
-0.000182194035251
-0.000179832141535
-0.000179590943981
-0.000179820676297
-0.000180327009701
-0.000183180128898
-0.000183848328536
-0.00018351793285
-0.000179557168775
-0.000169521096245
-0.0001504003992
-0.000117250251363
-6.57997594209e-05
-6.17390495602e-05
-0.00010521031754
-0.000133269885775
-0.000149684922819
-0.000158715064398
-0.000162946897163
-0.00016431066419
-0.00016456105361
-0.000164706419214
-0.000165008698456
-0.000165343899608
-0.00016549846757
-0.000165642410416
-0.00016548813668
-0.000164110209208
-0.000159784911204
-0.000150531435444
-0.000133863623812
-0.000105584696247
-6.20381757339e-05
-5.60807482675e-05
-8.54896336086e-05
-0.000105152111442
-0.000116721835982
-0.000123164127262
-0.000126269757497
-0.000127391375238
-0.000127638518363
-0.000127797788689
-0.000128064280936
-0.000128383136891
-0.000128524794415
-0.000128592187094
-0.000128408583853
-0.000127240572545
-0.000124093224238
-0.000117453630475
-0.0001056765069
-8.58290457363e-05
-5.63096415653e-05
-4.91654402976e-05
-5.61096683506e-05
-6.17665330509e-05
-6.54706981494e-05
-6.78364174121e-05
-6.92746218893e-05
-7.00510587002e-05
-7.04769330471e-05
-7.07605559365e-05
-7.096598681e-05
-7.12720241744e-05
-7.12987400421e-05
-7.10875525162e-05
-7.06527840039e-05
-6.9810775444e-05
-6.83226931829e-05
-6.58349288298e-05
-6.20237832953e-05
-5.62852602673e-05
-4.92862733376e-05
-5.39836334981e-05
-7.83368137344e-05
-9.59427856411e-05
-0.000107254292397
-0.000114238918664
-0.000118245524662
-0.000120285578425
-0.000121179014048
-0.000121542427148
-0.000121733543096
-0.000121961161013
-0.000122081631559
-0.000121882223489
-0.000121017886767
-0.000118915305656
-0.000114808046464
-0.000107669272228
-9.620891324e-05
-7.85223692954e-05
-5.42003493186e-05
-7.82311062838e-05
-0.000163092608044
-0.00020826982407
-0.000235673479954
-0.000251674094647
-0.000259982737144
-0.000263535104847
-0.000264534777989
-0.000264656839383
-0.000264735533912
-0.000265057081317
-0.000265426553501
-0.000265564400891
-0.000264662589395
-0.000261098868485
-0.000252715007532
-0.000236523733929
-0.000208880301436
-0.000163502254996
-7.86310504485e-05
-9.58234844427e-05
-0.000208353083544
-0.000267965842116
-0.000304815178896
-0.000326866549772
-0.000338726372227
-0.000343907389642
-0.000345867531424
-0.000346761072497
-0.000347260891467
-0.000347673509372
-0.000347762466934
-0.000347140150952
-0.000345263738799
-0.000340073671192
-0.0003281056904
-0.00030582044754
-0.000268700226216
-0.000208845644234
-9.63467296619e-05
-0.000107172222086
-0.000235845185265
-0.000304934959385
-0.00034761759439
-0.000372728861629
-0.000385733782054
-0.000389573419992
-0.000391831174322
-0.000394602693239
-0.000395532668602
-0.000395992447346
-0.000395723390921
-0.000392996861088
-0.000390745797274
-0.000387050938566
-0.000374022822156
-0.00034865915301
-0.00030571537596
-0.00023640809968
-0.000107769784647
-0.000114195477297
-0.000251893306624
-0.000327084847324
-0.000372855262843
-0.000398954070904
-0.000412455498396
-0.000417197689401
-0.000418457331089
-0.000418984998307
-0.000419334714329
-0.000419799011976
-0.000420157157273
-0.000419984877989
-0.000418872905772
-0.00041409721307
-0.000400375205861
-0.00037389437382
-0.000327895615377
-0.000252531792731
-0.000114852508363
-0.000118204463283
-0.000260164030227
-0.000338982232026
-0.000385967671859
-0.000412504189229
-0.000424534846695
-0.000428350377762
-0.000428575429376
-0.000428016232763
-0.000427837314447
-0.000428328807897
-0.000429288928248
-0.000430384997188
-0.000430417718861
-0.000426526520859
-0.000414076207486
-0.000386853606438
-0.000339826341237
-0.000260917066501
-0.00011892320167
-0.000120222396439
-0.00026365025919
-0.000344138106291
-0.000389806178716
-0.000417161570983
-0.000428230244037
-0.000430874109824
-0.000429951151351
-0.000428471083348
-0.000427836116262
-0.000428383286614
-0.000429892360794
-0.000432019640962
-0.000433304691425
-0.000430608355593
-0.000419011993536
-0.000390601608847
-0.00034507360274
-0.000264531768669
-0.000121006181555
-0.000121043477325
-0.000264511405903
-0.000345921994489
-0.00039182672099
-0.00041811502063
-0.000428129199898
-0.000429614117313
-0.00042750386452
-0.000425184916271
-0.000424344540735
-0.000424939477486
-0.000426875766344
-0.000429838962973
-0.000432400011064
-0.000430956006272
-0.000420517250573
-0.000393917865935
-0.0003471488794
-0.000265556530821
-0.000121892245407
-0.000121262498812
-0.000264374458488
-0.000346419248961
-0.000393892228877
-0.000418100501415
-0.000427073973536
-0.000427651815263
-0.000424710119974
-0.000421918512286
-0.000420392489359
-0.000421063204381
-0.00042361546116
-0.000427342446511
-0.000430764576367
-0.000430348490846
-0.000421150169412
-0.000396374360144
-0.000348045104457
-0.000265614845098
-0.000122177121677
-0.000121246032645
-0.000264118737396
-0.000346500806679
-0.000394397883728
-0.000417946690489
-0.000426355849526
-0.000426474443092
-0.000423424443708
-0.00041984280338
-0.000417935776722
-0.00041870707612
-0.000421622843018
-0.000425888347972
-0.000429760112193
-0.000429865651938
-0.000421238337035
-0.000397025303702
-0.000348281196687
-0.000265488441754
-0.000122214855561
-0.000121216994802
-0.000264050848226
-0.00034641715996
-0.000394308210652
-0.000417855111888
-0.000426258013214
-0.000426366034088
-0.000423300188904
-0.000419692379621
-0.000417758295287
-0.000418520165683
-0.000421447986117
-0.000425735586297
-0.000429617685269
-0.000429734455582
-0.000421116303825
-0.000396911665806
-0.000348173019537
-0.000265404678546
-0.000122185404406
-0.000121190831591
-0.000264191446652
-0.000346188458221
-0.000393639379604
-0.000417843432493
-0.000426798826052
-0.000427347016934
-0.000424364524867
-0.000421532542104
-0.000419951804691
-0.000420596295869
-0.000423168054661
-0.000426934628358
-0.000430374236609
-0.000429983323811
-0.000420808986091
-0.000396055003142
-0.000347744248622
-0.000265383564816
-0.000122098485438
-0.000120946683443
-0.000264243059862
-0.000345583125506
-0.00039148196387
-0.00041772229032
-0.000427691721228
-0.000429123811058
-0.000426952902159
-0.000424591761861
-0.000423700614669
-0.000424259478703
-0.000426217969854
-0.000429183460577
-0.000431784866616
-0.000430381611466
-0.000419983654202
-0.00039337278139
-0.000346692648549
-0.000265210046811
-0.000121779387307
-0.000120113706121
-0.000263329944662
-0.000343723716351
-0.000389362779742
-0.000416644544786
-0.000427650904978
-0.000430226763924
-0.000429227448302
-0.000427675225527
-0.00042697923441
-0.000427492071836
-0.000429009973234
-0.000431169278071
-0.000432503345155
-0.00042986345563
-0.000418334637405
-0.0003900237529
-0.000344519136151
-0.000264111655515
-0.00012087508842
-0.000118097019854
-0.000259821258947
-0.000338531481766
-0.000385427840936
-0.000411903570823
-0.000423850928511
-0.000427583729394
-0.000427729241337
-0.000427095009281
-0.000426848907376
-0.000427309015911
-0.000428281430957
-0.000429407768519
-0.000429490066507
-0.000425668026848
-0.00041330151091
-0.000386154943829
-0.000339222442202
-0.000260468427819
-0.000118791838716
-0.000114102118787
-0.00025155711219
-0.000326647538775
-0.00037232408264
-0.000398330334822
-0.000411728896649
-0.000416378036305
-0.000417573806049
-0.000418038277764
-0.000418310944498
-0.000418743095275
-0.000419120818912
-0.000418979469329
-0.00041790457372
-0.000413198233218
-0.000399577275827
-0.000373194154808
-0.000327310800802
-0.000252093832845
-0.000114736381095
-0.000107103435812
-0.000235561206283
-0.000304558399016
-0.00034714380727
-0.000372142114341
-0.000385013459894
-0.000388836565534
-0.000391071128632
-0.000393750166218
-0.000394585668788
-0.00039501034268
-0.000394774209564
-0.000392239541482
-0.000389897761398
-0.000386179471557
-0.000373267741007
-0.000348028558478
-0.000305207799123
-0.000236034016997
-0.000107680977683
-9.57826144151e-05
-0.00020814446053
-0.000267684664326
-0.000304445890077
-0.000326389404071
-0.000338137321071
-0.000343224723685
-0.000345111424137
-0.000345940067555
-0.000346373208636
-0.000346758201063
-0.000346863150172
-0.000346275045335
-0.000344447895782
-0.000339335374463
-0.00032748413328
-0.000305321347734
-0.000268312090656
-0.000208563501795
-9.62903444658e-05
-7.82168017201e-05
-0.000162984793093
-0.000208113299591
-0.000235455122005
-0.000251370738269
-0.000259593692422
-0.000263071083059
-0.000264008170153
-0.000264074849903
-0.00026411080696
-0.000264414872302
-0.000264794665673
-0.000264963603367
-0.000264108906297
-0.000260612014358
-0.000252313387402
-0.000236216490892
-0.00020865162518
-0.000163346695888
-7.86100114558e-05
-5.39860677972e-05
-7.83245446469e-05
-9.59231039218e-05
-0.000107221822573
-0.000114182799513
-0.000118158816135
-0.000120169115326
-0.000121034303534
-0.000121375039336
-0.00012155117887
-0.000121775995306
-0.000121905993403
-0.000121724699295
-0.000120885329109
-0.000118810837093
-0.000114732784942
-0.000107619719994
-9.61765635639e-05
-7.85056491813e-05
-5.42079986489e-05
-5.64451547155e-05
-8.99646766082e-05
-0.000114415881217
-0.000130602962596
-0.000140867438189
-0.000146931532503
-0.000150071747795
-0.000151309839877
-0.000151534516815
-0.00015146197377
-0.000151588791128
-0.000151904143033
-0.000151888160794
-0.000150769790098
-0.000147638808103
-0.000141495940543
-0.000131080517455
-0.000114712009688
-9.01468017359e-05
-5.67501037637e-05
-8.97517725136e-05
-0.000195616556809
-0.000253165626979
-0.000289672883268
-0.000311955793722
-0.000324541030151
-0.000330822575937
-0.000333372682783
-0.000334122614833
-0.000334296738137
-0.000334638229996
-0.000335019955732
-0.000334660169231
-0.000332264542965
-0.000325951117797
-0.000313241064611
-0.000290742137158
-0.000253957282478
-0.000196125152508
-9.03930619022e-05
-0.000114156774391
-0.00025323488021
-0.000327755700381
-0.000375581451426
-0.000405581521254
-0.000422951101484
-0.000432150420094
-0.000436373299068
-0.000438015881243
-0.000438623876953
-0.000439058599951
-0.000439145325483
-0.000438045302069
-0.000433948565138
-0.000424543982831
-0.000407101907518
-0.000376876633034
-0.000328778497292
-0.000253979504026
-0.000115015059624
-0.000130350324526
-0.000289796799287
-0.000375649622761
-0.000430354330098
-0.000463997872771
-0.000482341880313
-0.000493340065349
-0.000498240966897
-0.000500532542213
-0.00050157480246
-0.000502097207168
-0.000501915501758
-0.000500143948599
-0.000495265582653
-0.000483394301295
-0.000465542954009
-0.000431758824849
-0.000376873621699
-0.000290761922358
-0.000131378632415
-0.000140595598109
-0.000312052155219
-0.000405709840524
-0.000464112334004
-0.000498348432234
-0.000519814892721
-0.000530214326746
-0.000535026302697
-0.000537290160373
-0.000538279558979
-0.00053887341571
-0.000538891988601
-0.000537713990006
-0.000533216990772
-0.000521973042142
-0.000499973502408
-0.000465511384342
-0.000407093838642
-0.000313300201173
-0.000141786722733
-0.000146586084192
-0.000324542836076
-0.000423118444872
-0.000482847344085
-0.000519855548855
-0.000539763045723
-0.000549078487826
-0.0005539452009
-0.000556179030112
-0.000556849387543
-0.000557516143885
-0.000557990512389
-0.0005581471045
-0.000555153129274
-0.000544187250387
-0.000522084309218
-0.000483396689067
-0.000424598056291
-0.000326117482244
-0.000147955546652
-0.000149607323167
-0.00033068485911
-0.000432208816731
-0.000493353168943
-0.000530032253659
-0.000547905817099
-0.000556476385537
-0.000561492032192
-0.000563499412292
-0.000563716646541
-0.000564454607414
-0.00056544394169
-0.000567080042531
-0.000566330398297
-0.000556545176253
-0.000533727108037
-0.000495631890418
-0.00043422355257
-0.000332628090794
-0.000151147547979
-0.000150688155858
-0.000333015955871
-0.000436196353903
-0.000497950018194
-0.000533973662471
-0.000550344775491
-0.000558485542418
-0.000563071658803
-0.000564496555146
-0.000564195866093
-0.000564999845194
-0.000566544944953
-0.00056934016754
-0.000570360721957
-0.000562219682375
-0.000539348049031
-0.000501029191407
-0.000438653942576
-0.000335300302939
-0.000152361855218
-0.000150721625365
-0.000333407042511
-0.000437491472661
-0.000499722945817
-0.000535237577168
-0.000550876332481
-0.00055846928033
-0.000562357292642
-0.000562919077367
-0.000562090548975
-0.000563001289643
-0.000565160133734
-0.000568865113192
-0.000570947962515
-0.000563893186256
-0.000541640737066
-0.000503346365406
-0.000440039416906
-0.000335975934425
-0.000152489323631
-0.000150457956119
-0.000333164204552
-0.000437618193642
-0.000500171790594
-0.000535523672009
-0.000550834326801
-0.000558056633171
-0.000561399264848
-0.000561434399262
-0.000560342166361
-0.000561352300159
-0.000563844174489
-0.000568020447438
-0.000570631984112
-0.000564103469871
-0.000542259952288
-0.000504063593384
-0.00044038555015
-0.000335926951644
-0.000152288463776
-0.000150411636316
-0.000333059972227
-0.000437499741917
-0.000500055464603
-0.000535407140093
-0.000550711243446
-0.000557921730411
-0.000561232744876
-0.000561237370016
-0.000560120615016
-0.000561123582325
-0.000563624813754
-0.000567822945626
-0.000570453913024
-0.000563934080899
-0.000542092331646
-0.000503898461236
-0.000440222816449
-0.000335795889689
-0.000152243253817
-0.000150602302276
-0.000333124471454
-0.000437154425664
-0.000499393982651
-0.000534906939903
-0.000550525420391
-0.000558091688234
-0.000561917131724
-0.000562431524368
-0.000561553446279
-0.000562435501773
-0.000564589968496
-0.000568332530717
-0.00057045497735
-0.000563415850972
-0.000541166325642
-0.000502880876503
-0.000439585412973
-0.000335615515582
-0.000152368056835
-0.000150519334441
-0.000332598113099
-0.000435693876921
-0.00049745477143
-0.000533468956816
-0.000549780163049
-0.00055787428379
-0.000562412622614
-0.000563800117396
-0.000563429635582
-0.000564163726287
-0.000565693360573
-0.000568502090734
-0.000569556537261
-0.000561449631992
-0.000538608640985
-0.000500318041009
-0.000437968966503
-0.000334758743873
-0.000152180990118
-0.000149407872466
-0.000330173030514
-0.000431599539733
-0.000492722531048
-0.000529378547874
-0.000547175280667
-0.000555667181499
-0.00056060155236
-0.000562529576437
-0.000562665229527
-0.000563335490242
-0.000564291921296
-0.000565931781333
-0.000565236384793
-0.000555532876561
-0.000532795387502
-0.000494767365285
-0.000433400789866
-0.00033196656205
-0.000150928698428
-0.00014637226631
-0.000323972239822
-0.0004224448229
-0.000482048049412
-0.000519094594473
-0.000538920440787
-0.000548124963765
-0.000552866233262
-0.000554971430591
-0.000555534132619
-0.000556141525372
-0.000556612727738
-0.000556806879119
-0.000553901995589
-0.000543050227101
-0.00052106370279
-0.000482483896857
-0.000423720488323
-0.000325402277975
-0.00014772469041
-0.00014038613499
-0.000311467511809
-0.000405038948752
-0.000463373005222
-0.000497579412744
-0.000518895903939
-0.000529200053773
-0.000533874862683
-0.000535989860869
-0.000536858797978
-0.000537398285839
-0.000537437978053
-0.000536330498298
-0.000531933364141
-0.000520810213296
-0.00049898609348
-0.000464563082318
-0.000406240081653
-0.000312595206318
-0.000141566516853
-0.000130164364816
-0.000289261999308
-0.000375037296435
-0.000429662267565
-0.000463192397155
-0.000481299620803
-0.000492304446608
-0.00049707615166
-0.000499216876538
-0.000500138467919
-0.000500610038983
-0.000500456940585
-0.000498773743602
-0.000494013155315
-0.00048228932859
-0.00046454093422
-0.00043088423225
-0.000376117762893
-0.00029013604118
-0.000131188012405
-0.000114003986993
-0.000252799855176
-0.000327243019179
-0.000374995747077
-0.000404880438766
-0.000422109773218
-0.000431195359634
-0.000435252955133
-0.000436713779386
-0.000437220717673
-0.000437614065288
-0.000437726407578
-0.00043674920731
-0.000432789963937
-0.000423520363411
-0.00040623162275
-0.000376152825264
-0.000328164020499
-0.000253483802552
-0.00011486284462
-8.96438443915e-05
-0.00019532028495
-0.000252815798141
-0.000289253503165
-0.000311442234018
-0.00032392602678
-0.000330113627369
-0.000332563567415
-0.000333214910716
-0.000333317753547
-0.000333632056301
-0.000334033952913
-0.000333740677256
-0.000331428557949
-0.000325213433622
-0.00031261978266
-0.00029023590334
-0.000253545707867
-0.000195790814466
-9.02905870054e-05
-5.64114247053e-05
-8.98951794939e-05
-0.000114324161418
-0.000130494805178
-0.000140730871584
-0.000146759456856
-0.000149864871083
-0.000151071050945
-0.000151271254609
-0.000151184727124
-0.000151308766963
-0.000151632719018
-0.000151637928746
-0.000150549350726
-0.00014745399234
-0.000141348797568
-0.000130964772608
-0.000114615981846
-9.00780433691e-05
-5.67273310551e-05
-5.67961266894e-05
-9.64304106637e-05
-0.000125534906422
-0.000145068807944
-0.000157609190469
-0.000165032128664
-0.000168761746246
-0.00017004377003
-0.000170090506345
-0.000169876507847
-0.00016993911722
-0.000170299038726
-0.000170447928547
-0.000169357450359
-0.000165703123778
-0.000158318821644
-0.000145683848369
-0.00012595131077
-9.6605431568e-05
-5.71762176727e-05
-9.60510356121e-05
-0.000215975339974
-0.000281940056426
-0.000324697954251
-0.000351717236465
-0.000367586158176
-0.000375846571356
-0.00037913160406
-0.000379877524624
-0.000379883336222
-0.000380224939951
-0.000380808727342
-0.000380595403815
-0.000377526117912
-0.000369283352388
-0.000353286141499
-0.000326042963622
-0.00028302924943
-0.000216686600073
-9.70439517865e-05
-0.000125129617635
-0.000281957252112
-0.000367035351833
-0.000422596579033
-0.000458367675519
-0.000479706828198
-0.00049169543403
-0.000496926531631
-0.000497067134582
-0.000496952400079
-0.000497333066549
-0.000498011386477
-0.000499111933263
-0.000494167742137
-0.000482140659528
-0.000460457723377
-0.000424407945118
-0.00036859753784
-0.000283200901515
-0.000126414154372
-0.000144620859236
-0.000324617818114
-0.000422550729799
-0.000485661883668
-0.000525216312521
-0.000546953643723
-0.000560023462559
-0.000567365261272
-0.000570872331514
-0.000572151533136
-0.000572795925761
-0.000572674150103
-0.00057123274757
-0.000565596503182
-0.00055156808685
-0.000527912396419
-0.000487926049471
-0.000424612184316
-0.000326429836467
-0.000146189393742
-0.000157049293684
-0.000351468052595
-0.000458270281573
-0.00052518454594
-0.000565131990167
-0.000587294381944
-0.000600617423366
-0.000610191992816
-0.000615599234345
-0.000617226392518
-0.000617991858139
-0.000617757935691
-0.000617555517471
-0.000613667234243
-0.000598916807595
-0.000571092717158
-0.000528163878883
-0.000460929916328
-0.000353937495062
-0.000158911871699
-0.000164261251291
-0.000367124090873
-0.000479536560746
-0.000546559208154
-0.000585766923852
-0.000607328200517
-0.000621665888641
-0.000633912060983
-0.000640887114779
-0.000642337838446
-0.000643200956659
-0.000643312353792
-0.000645574708722
-0.000645475999948
-0.000631971275002
-0.000601002002729
-0.000552401866635
-0.000483022630065
-0.000370336343019
-0.000166441588714
-0.000167809884229
-0.000375165272444
-0.000491422762257
-0.000558692529266
-0.000595035008964
-0.000615709436771
-0.000630842171064
-0.000645172458976
-0.000653001694907
-0.000654063082134
-0.000655009318231
-0.000655559455618
-0.000660179986396
-0.000664381161855
-0.000653308633954
-0.000621062627065
-0.00056831336403
-0.000495601990069
-0.000379096328835
-0.00017023208918
-0.000168917711923
-0.00037817435403
-0.000496370030022
-0.000563538020178
-0.000598929136784
-0.000618854631126
-0.000634575707217
-0.000649383763993
-0.000657140413482
-0.000657752419876
-0.000658807063646
-0.00065984577215
-0.000665987482106
-0.000673033768298
-0.000664539136828
-0.000632043299997
-0.000577319457463
-0.000501309386665
-0.000382784358166
-0.000171492617906
-0.000168811481838
-0.000378544389112
-0.000497757979325
-0.000565428612963
-0.000600660092847
-0.000620379943256
-0.000635966477684
-0.000650133348107
-0.000657013944837
-0.0006571415559
-0.000658386022888
-0.0006601949168
-0.00066727870593
-0.000675619322531
-0.000668449353138
-0.0006364395929
-0.00058084279966
-0.0005004363856
-0.000383505612082
-0.000171466093244
-0.000168473441299
-0.000378087626588
-0.000496142734984
-0.000565911231699
-0.000601332950594
-0.000620937895252
-0.000636263843776
-0.000649789311116
-0.000656123116116
-0.000656020036798
-0.000657367099733
-0.000659505099633
-0.000667070186591
-0.000675934579776
-0.000669293478729
-0.000637614988917
-0.000581847686743
-0.000500524641441
-0.000383423372654
-0.000171186890259
-0.000168419905204
-0.000377948307452
-0.000496018566449
-0.000565780891102
-0.000601204522026
-0.000620807513247
-0.00063611102043
-0.000649570953467
-0.000655858757265
-0.000655720373933
-0.000657057600173
-0.00065920553604
-0.000666811102094
-0.000675711818063
-0.000669085358305
-0.000637399307181
-0.000581621731834
-0.0005003088871
-0.000383228594162
-0.00017113278359
-0.000168663151762
-0.000378146516473
-0.000497323361614
-0.000565039848736
-0.000600285113708
-0.000620010958157
-0.000635567616083
-0.00064960221084
-0.000656394568328
-0.000656444827047
-0.000657635436626
-0.000659430273494
-0.000666593586985
-0.000675011973662
-0.00066786329668
-0.000635822612455
-0.000580196587585
-0.000499817739578
-0.000382963636081
-0.000171318798273
-0.000168698141739
-0.00037757850445
-0.000495705739298
-0.000562943824833
-0.000598351252636
-0.000618258217776
-0.000633924426748
-0.000648598146041
-0.000656194509285
-0.000656660115567
-0.000657607125031
-0.000658622852869
-0.000664767933956
-0.000671852757288
-0.000663432681454
-0.000631004127622
-0.000576315451585
-0.000500328689453
-0.000381970575699
-0.000171267801328
-0.000167541375254
-0.000374437948526
-0.000490630204397
-0.000557944781857
-0.000594280588908
-0.000614902970046
-0.000629956761781
-0.000644061892884
-0.000651624234637
-0.000652489163075
-0.000653299668247
-0.000653771330263
-0.00065833098684
-0.000662577509621
-0.000651707564578
-0.000619696181885
-0.000567096956834
-0.000494466452643
-0.000378139950233
-0.000169958812225
-0.000163958425933
-0.000366314432461
-0.000478685223916
-0.000545796466975
-0.000584879879649
-0.000606373423377
-0.000620578760708
-0.00063254220193
-0.000639179804646
-0.00064039300144
-0.00064112636361
-0.000641201542056
-0.000643458480035
-0.000643477706207
-0.000630225490515
-0.000599540674683
-0.000551136325652
-0.000481861629577
-0.000369342848574
-0.000166148667008
-0.000156742927455
-0.000350635999512
-0.000457402801799
-0.000524278291619
-0.000564153042215
-0.000586221206569
-0.000599383630758
-0.000608680376343
-0.000613766628138
-0.000615156937961
-0.000615796609456
-0.000615563497599
-0.000615452290308
-0.000611744645642
-0.000597262433932
-0.000569709662174
-0.000526937481256
-0.000459851486928
-0.000353000273042
-0.000158637366219
-0.000144333883161
-0.000323836948597
-0.000421747336994
-0.000484804159921
-0.000524262508569
-0.000546002195175
-0.000558716890826
-0.000565756914384
-0.0005689670446
-0.000570056204986
-0.000570598804114
-0.000570480406685
-0.000569185663121
-0.000563844145434
-0.000550122309373
-0.0005266542411
-0.00048687356799
-0.000423703317979
-0.000325615140057
-0.000145946902238
-0.000124871845658
-0.000281289550221