/*--------------------------------*- C++ -*----------------------------------*\
| =========                 |                                                 |
| \\      /  F ield         | OpenFOAM: The Open Source CFD Toolbox           |
|  \\    /   O peration     | Version:  3.0.1                                 |
|   \\  /    A nd           | Web:      www.OpenFOAM.org                      |
|    \\/     M anipulation  |                                                 |
\*---------------------------------------------------------------------------*/
FoamFile
{
    version     2.0;
    format      ascii;
    class       volScalarField;
    location    "8.3";
    object      nut;
}
// * * * * * * * * * * * * * * * * * * * * * * * * * * * * * * * * * * * * * //

dimensions      [0 2 -1 0 0 0 0];

internalField   nonuniform List<scalar> 
7968
(
8.53951721883e-05
9.38291319319e-05
9.9897239266e-05
0.000103445444055
0.00010525444058
0.000105853668215
0.000105730945017
0.000105126107141
0.000104373482083
0.000103742537229
0.000103602389544
0.000104127112387
0.00010484367714
0.000105444784024
0.000105589099014
0.00010501566949
0.000103257803895
9.97630474424e-05
9.37413189924e-05
8.53464195006e-05
9.38487922023e-05
0.000117366764576
0.000129988292087
0.000136257314493
0.00013874989633
0.000138923374419
0.000137921188293
0.000136382804613
0.000134944484333
0.000134043073446
0.000133920052102
0.000134645960331
0.000135975470495
0.000137469303738
0.000138472496136
0.000138310811274
0.000135872882667
0.000129679634628
0.000117150681865
9.37172058062e-05
9.99305912153e-05
0.000129971973211
0.000145195879913
0.000152592173714
0.000155469016834
0.000155623813995
0.000154378198098
0.000152627756539
0.000151064866501
0.000150117515713
0.000149988013623
0.000150740765366
0.000152178615536
0.000153874898217
0.000155111001627
0.000154971335545
0.000152145110116
0.000144830020783
0.000129708060063
9.97399027226e-05
0.00010347703685
0.000136228813609
0.000152578022857
0.00016039065924
0.000163281488833
0.000163259839348
0.0001617989771
0.000159961758951
0.000158529067986
0.000157733316779
0.000157617087314
0.000158232511854
0.000159475242263
0.000161259371277
0.0001627039099
0.000162740642219
0.000159899254232
0.00015216830407
0.000135921924417
0.000103235518983
0.000105282005082
0.000138716359495
0.000155451603454
0.000163276863445
0.000165917908027
0.00016612327762
0.000165852336315
0.000164907042783
0.000163827600054
0.000163094610491
0.000162971596672
0.000163526990784
0.000164504088968
0.000165427830873
0.000165689727124
0.000165352464735
0.000162748268866
0.000154999289656
0.000138361649843
0.00010499234441
0.000105883982069
0.000138901360907
0.000155614524669
0.000163255363452
0.00016610781728
0.000167777144384
0.000168006357512
0.000167253163496
0.000166199456882
0.000165421454197
0.000165279181009
0.000165860237743
0.000166822043551
0.000167574796391
0.000167380987107
0.000165708291152
0.000162712385364
0.000155131858275
0.000138510110628
0.000105559552213
0.000105760956224
0.000137913910085
0.000154383742133
0.000161799680464
0.000165833840136
0.000168001706787
0.000168329546135
0.000167469175173
0.000166227740012
0.000165292080306
0.000165118882952
0.000165821859947
0.000166964380318
0.000167840890379
0.000167582493075
0.000165452172345
0.000161263936166
0.000153882412728
0.00013749571342
0.000105417992109
0.000105161696725
0.000136410916625
0.000152673367299
0.000160003252815
0.000164913634444
0.000167278589518
0.00016750611729
0.00016636101178
0.000164764190766
0.000163573276604
0.000163359959456
0.000164270217279
0.000165753984224
0.000166930234305
0.000166802280447
0.000164506069983
0.000159458111416
0.000152148410287
0.000135970387373
0.000104813714343
0.000104425759498
0.000135036483545
0.000151187419348
0.000158592521107
0.000163897396442
0.000166305071385
0.000166361730456
0.000164874001738
0.000162883667678
0.000161336220579
0.000161068111923
0.000162286537811
0.000164160636564
0.000165690363358
0.000165760380161
0.00016346695206
0.000158186788597
0.000150632268477
0.000134574406143
0.000104076935207
0.000103836047846
0.000134221114939
0.000150343453151
0.000157878085699
0.000163261856951
0.00016564688565
0.00016557300345
0.000163857603614
0.000161538249961
0.000159654287251
0.000159331798874
0.000160853382311
0.000163065045179
0.000164832922024
0.000165051543564
0.000162802963837
0.00015747237361
0.000149760206896
0.000133739955571
0.000103479258917
0.000103811336508
0.000134202324733
0.000150329259532
0.000157866259078
0.0001632527112
0.000165640280366
0.000165568479164
0.000163854365839
0.000161534995888
0.000159649812788
0.000159327125362
0.000160850154017
0.000163062170989
0.000164828848212
0.00016504518908
0.000162793287193
0.000157458357678
0.000149740888106
0.000133713678828
0.000103445812193
0.000104375103303
0.000134986688317
0.000151147365838
0.000158560090245
0.000163871756216
0.00016628600813
0.000166348194827
0.000164864073051
0.000162875186629
0.000161326981037
0.00016105879475
0.000162278723256
0.000164151977989
0.000165678333551
0.000165742495888
0.000163440751376
0.000158149902104
0.0001505824169
0.000134509551409
0.000104010267717
0.000105096718343
0.000136335359167
0.000152607181178
0.000159951507794
0.000164869259655
0.000167243457287
0.000167478691943
0.000166338762682
0.000164745100286
0.000163555497069
0.000163342415526
0.000164252588695
0.000165733373764
0.000166905121122
0.000166769400369
0.000164462349384
0.000159401627493
0.000152073033031
0.000135878551924
0.000104730824798
0.000105691213768
0.000137821119965
0.000154295784502
0.000161723493798
0.00016577006491
0.000167949203069
0.000168285855557
0.000167431905816
0.000166194577444
0.000165260914578
0.000165087884874
0.000165789370227
0.000166928518825
0.00016779958955
0.000167532641386
0.000165389796212
0.000161187608072
0.000153786943248
0.00013738794879
0.000105330862925
0.000105818339918
0.000138800395124
0.000155511975315
0.000163159799704
0.000166026348375
0.000167709076985
0.00016794736699
0.000167200937005
0.000166152176223
0.000165376927253
0.000165234683447
0.00016581300188
0.000166770058062
0.000167516979419
0.000167314365834
0.000165627196637
0.000162615966661
0.000155021660779
0.000138395277402
0.00010547836196
0.000105224807894
0.000138613363409
0.000155343246376
0.00016317164338
0.000165815462698
0.000166040679727
0.000165778268726
0.000164839036167
0.000163766420556
0.000163036878947
0.000162913490856
0.00016346474704
0.000164433684323
0.000165351862408
0.000165605265178
0.000165249301957
0.000162637694724
0.0001548804118
0.000138243684561
0.000104921366853
0.00010343453643
0.000136137095123
0.00015247582555
0.000160287700656
0.000163178353287
0.000163156095264
0.000161696884956
0.00015986273349
0.000158451638192
0.000157660719717
0.000157543246607
0.000158152061207
0.000159370186896
0.000161150211189
0.000162592896381
0.000162628412483
0.000159784648183
0.000152051817344
0.000135813809871
0.000103182531467
9.99028431872e-05
0.000129898242394
0.000145109791717
0.000152501511769
0.000155374659583
0.000155526537426
0.000154279461567
0.000152528315087
0.000150963412381
0.000150012638199
0.000149879376968
0.000150629635142
0.000152065420231
0.000153761987756
0.000154999399347
0.000154861605583
0.000152038611706
0.000144727469189
0.000129618131661
9.97055941884e-05
9.38366160003e-05
0.000117320231803
0.000129929870443
0.000136190634657
0.000138672499397
0.000138837227225
0.000137829605297
0.00013628668907
0.000134841533265
0.000133932667701
0.000133803811856
0.000134528830615
0.000135860224318
0.000137358515253
0.000138368306206
0.000138215395552
0.000135789213597
0.000129605022845
0.000117090855634
9.37012676568e-05
8.5392273603e-05
9.38170312432e-05
9.98753948372e-05
0.000103412878024
0.000105208489295
0.000105794452806
0.000105661556013
0.000105047589499
0.000104285436854
0.000103645256341
0.000103497142859
0.000104022590212
0.000104743794156
0.000105353046907
0.000105508853654
0.000104950460519
0.000103209265621
9.97278792463e-05
9.37183144503e-05
8.53385015535e-05
9.29050522245e-05
0.000111455378113
0.000123453789478
0.000130472869991
0.000134215915159
0.00013580079184
0.00013606034281
0.000135588521721
0.000134920904472
0.000134435294879
0.000134343478694
0.000134696207505
0.000135286733945
0.000135731976203
0.000135483469484
0.000133929055802
0.000130240396857
0.00012328484338
0.000111341151903
9.28151076601e-05
0.000111514629248
0.000337694335964
0.000442629424097
0.000489605730496
0.000505675993781
0.000505355675566
0.00049767548726
0.000487842368513
0.000479388609783
0.000474379976054
0.000473794091468
0.000477860912834
0.000485665796234
0.000495133499903
0.00050264610053
0.000502882080041
0.000487046454543
0.000440719259089
0.000336958005156
0.000111268171503
0.000123525181158
0.00044203607848
0.000610057376347
0.000692747921166
0.000727523005654
0.00073527510602
0.000729495858505
0.000718997002188
0.00070893338216
0.00070254948055
0.000701621464016
0.000706509230131
0.000715654466149
0.000725676921231
0.000731286643477
0.000723691988578
0.000689485433211
0.000607930510673
0.000441562020972
0.000123205383648
0.000130539177476
0.000488696735507
0.000692303755526
0.000797614199219
0.000845817735509
0.000860944387181
0.00085906977559
0.000852326314785
0.000843084407746
0.000836269290557
0.000834999748115
0.000839824942806
0.00084853396664
0.000854862530193
0.000856237190633
0.000841507376363
0.000794102773946
0.000690164228203
0.000488367956652
0.000130170067946
0.00013427723309
0.000504700521548
0.000726898381833
0.000845585816735
0.00090222977378
0.000921167584249
0.000911681133663
0.000895515179217
0.00088136354133
0.000872772018624
0.000871117651769
0.000876997077942
0.000889592298099
0.000905226847843
0.000915012060063
0.000897451518002
0.000841922310114
0.000724716296681
0.000504366289457
0.000133865887598
0.000135863772892
0.000504477875291
0.000734657807464
0.000860644094801
0.000921173134078
0.000927323635511
0.000909833573196
0.000887170432596
0.000868711538104
0.000858008042888
0.000855899326877
0.000863117632114
0.000879542630567
0.00090178043725
0.000919943325875
0.000915102739566
0.00085684602642
0.000732406477348
0.000504073243354
0.000135420203326
0.000136129063484
0.000496957285412
0.000729024117109
0.000858767543457
0.000911945722309
0.000910215088278
0.000886225596173
0.000857984928506
0.000835340257825
0.000822289935718
0.000819700202451
0.000828437109046
0.000848554677797
0.000876391345075
0.000901500932171
0.000905129904734
0.000855545972756
0.000726709153801
0.000496425245951
0.000135664879027
0.000135676260673
0.000487413996511
0.000718926064491
0.000852552931717
0.000896663124981
0.000888681421755
0.000859285303319
0.00082589617974
0.000799076242896
0.00078427197098
0.000781310297293
0.000790968695184
0.000814607642375
0.000847448296362
0.000878295685817
0.000888710635195
0.000848615117766
0.000716309317879
0.000486675607
0.000135200742102
0.000135047834571
0.000479410016799
0.000709602979219
0.000844828510968
0.000884100273782
0.000872160128351
0.000838911727613
0.00080152303571
0.000772918890045
0.000756184268793
0.000752826257659
0.000763882965526
0.000788815132211
0.000825270878099
0.000860088431613
0.000874610129334
0.000838456580024
0.000706408870786
0.000478404789822
0.000134563567394
0.000134620996455
0.000474942524474
0.000704132421722
0.000839469401468
0.000877380123181
0.000863791584638
0.000828645159649
0.000789738611416
0.000759455357152
0.000741328053952
0.000737732081824
0.000749772241855
0.000776291381414
0.000813936068297
0.0008506786256
0.000866959866594
0.000832220144079
0.000700564080498
0.000473739366866
0.000134125805927
0.000134602876589
0.000474893223873
0.000704081026658
0.000839457603628
0.00087742447841
0.000863897271062
0.000828808485577
0.000789954219556
0.000759710221811
0.000741604666175
0.000738015771378
0.000750051355165
0.000776550953464
0.000814152256187
0.000850836285419
0.000867047506928
0.000832236731246
0.000700532555896
0.000473701163517
0.000134100897008
0.000134998576802
0.000479252643466
0.000709431793623
0.000844757274139
0.000884185486834
0.000872414706144
0.000839327759613
0.000802085702655
0.000773601714477
0.000756937209634
0.000753602702396
0.000764645277637
0.00078950575743
0.0008258341946
0.000860489066058
0.000874821585859
0.000838477689103
0.000706305515285
0.000478289855701
0.000134500611825
0.000135602749073
0.000487120349924
0.000718591723052
0.000852324576648
0.000896666522309
0.000888912432031
0.000859743873164
0.000826567076113
0.000799936688626
0.000785273359476
0.000782355890543
0.000791973794405
0.000815466691482
0.000848126112272
0.00087874544358
0.000888906214618
0.000848544866829
0.000716093773097
0.000486463312173
0.000135112326838
0.000136041892776
0.000496510891126
0.000728503939036
0.000858378260546
0.00091175584297
0.000910236369542
0.000886486853447
0.000858491992054
0.000836062779489
0.000823160220401
0.000820621223233
0.000829299789832
0.000849270128661
0.000876904441092
0.000901784241137
0.000905174412626
0.000855328798915
0.000726346631373
0.000496094189605
0.000135563749392
0.000135773409861
0.000503885166481
0.000733963489437
0.00086007800888
0.000920775215109
0.00092707909992
0.000909791947051
0.000887358023541
0.000869106333094
0.000858545803343
0.000856484007771
0.000863637234607
0.000879918801136
0.000901977328763
0.000919957441801
0.000914941452861
0.000856478189671
0.000731879893444
0.000503607331506
0.00013531677315
0.000134191666661
0.000503982002007
0.000726088394196
0.000844913115995
0.000901747827398
0.000920797232944
0.000911485228493
0.000895506958544
0.000881491239588
0.000872999928209
0.000871380009066
0.000877216562783
0.000889731057355
0.000905222468488
0.000914849325834
0.000897163699625
0.000841419801229
0.000724046809533
0.000503755778878
0.000133767283336
0.000130466530687
0.000487943666707
0.000691490004757
0.000796947012152
0.000845349725304
0.00086067960581
0.00085909538357
0.000852528914031
0.000843239802495
0.00083646223665
0.000835210860343
0.000840029226052
0.000848829962603
0.000855021732919
0.000856131414279
0.000841186531157
0.000793555982712
0.000689444944598
0.000487687830661
0.000130084826623
0.000123469935969
0.000441365514481
0.000609387512993
0.000692232272266
0.000727192636566
0.000735128751009
0.000729528009668
0.000719173982071
0.000709194247977
0.000702859639478
0.000701947319608
0.00070681404006
0.000715906261314
0.000725811629588
0.00073125428843
0.000723465249648
0.000689049280096
0.000607316353108
0.000440929592777
0.00012313884941
0.000111481293649
0.000337280325916
0.000442273233308
0.000489377205683
0.000505576899155
0.000505376212254
0.000497798511057
0.000488046547252
0.000479644596568
0.000474663436775
0.000474087830117
0.000478147142224
0.000485919640489
0.000495327996142
0.000502750807013
0.000502861168479
0.000486876845762
0.000440397668023
0.000336553524823
0.000111225297522
9.28979939231e-05
0.000111409335551
0.000123389194695
0.000130397284331
0.000134130664096
0.000135706944617
0.000135959150739
0.000135479812248
0.000134802847437
0.000134308362163
0.000134210900983
0.000134563969357
0.000135158461049
0.000135610377123
0.00013537029106
0.00013382582212
0.00013014844307
0.00012320527243
0.000111281275663
9.28013923202e-05
9.9157269807e-05
0.000123173472732
0.000138178561914
0.000146930150911
0.000151726239576
0.000153989009748
0.00015473299528
0.000154701924541
0.000154455677953
0.000154273965866
0.000154209259179
0.000154276004612
0.000154431953538
0.000154409793945
0.000153653586605
0.000151410152512
0.000146661938406
0.00013797697181
0.000123033780459
9.90387702203e-05
0.000123271474148
0.000422919674081
0.000570912551837
0.000638216739368
0.000662305627112
0.000663749837269
0.000655001252854
0.000643476313311
0.000633758405082
0.000628067474897
0.000627195927412
0.00063142435562
0.00064011019
0.000651047916114
0.000659538622484
0.000658036882284
0.000634280820803
0.000567968567441
0.000421760213752
0.000122906409577
0.000138295456244
0.000569943835388
0.000827034481288
0.00096123567788
0.00102218656835
0.00104075269983
0.00103749892322
0.0010251452991
0.00101248191061
0.00100432253819
0.00100277576218
0.00100832633145
0.00101925615046
0.00103083709904
0.00103408080511
0.00101596919567
0.00095612050512
0.00082386874612
0.000569323557288
0.000137831005612
0.00014704876485
0.000636787167375
0.000960469783148
0.00114243694967
0.00123422269702
0.00127083100396
0.00127796105598
0.00126815285411
0.0012550322114
0.00124571869732
0.00124353850807
0.00124915106715
0.00125992298977
0.00126891603154
0.00126263930926
0.0012268636251
0.00113675370639
0.000957247804248
0.000636322782315
0.000146518226668
0.000151853376687
0.000660883551606
0.00102115004113
0.00123381337328
0.00134794188337
0.00139425804591
0.00139970391153
0.00138651509896
0.00136994559577
0.00135841805381
0.00135552973555
0.00136205805119
0.0013751658731
0.00138722922267
0.0013830831119
0.00133960581072
0.00122754016168
0.00101760538462
0.00066018718235
0.00015126067971
0.000154135272607
0.000662603071051
0.00103983649996
0.001270389992
0.00139437786793
0.00143938650149
0.00143909120808
0.00141873579167
0.00139627289417
0.00138142497704
0.00137780761537
0.00138625182203
0.00140362289387
0.00142172610666
0.00142398876311
0.00138306034065
0.0012634987701
0.00103572710782
0.000661467943478
0.000153486786631
0.000154905979072
0.000654260282872
0.00103706435323
0.00127827312033
0.00140093235813
0.00144106872542
0.00143260987829
0.00140317476585
0.00137360131396
0.0013548245805
0.00135060439289
0.00136165438829
0.00138428079169
0.00140947940788
0.00141989235211
0.00138609319186
0.00126899664513
0.00103201651435
0.000652566545923
0.000154216087801
0.000154911439321
0.00064331615586
0.00102563033787
0.00126994961689
0.00139027444327
0.00142481174749
0.001408043515
0.00136975830473
0.00133312429436
0.00131039576584
0.00130566266412
0.00131946228576
0.00134750816704
0.00137979405092
0.00139795530316
0.00137154779018
0.00125847865453
0.001019484462
0.000641006639585
0.000154200773231
0.000154709736682
0.000634385209254
0.00101434500522
0.0012590205762
0.00137704100816
0.00140697979658
0.0013839125332
0.00133884655072
0.00129662291906
0.00127054174116
0.00126532636746
0.00128138302126
0.00131387794356
0.0013518975004
0.00137609464219
0.00135512186718
0.00124545600565
0.00100714056366
0.000631476547843
0.000153993824018
0.000154575733649
0.00062958048299
0.00100778203404
0.00125214487696
0.00136888059007
0.00139640491482
0.00137005887838
0.00132144064158
0.00127608432107
0.00124804760388
0.00124252274014
0.00125987017491
0.00129486248821
0.00133603633087
0.00136347745909
0.00134527940946
0.00123739186693
0.000999918489229
0.000626276471918
0.000153855426082
0.000154561932503
0.000629545147293
0.00100775177877
0.00125216616529
0.00136898494209
0.00139660005453
0.00137033029425
0.00132177833054
0.00127647986887
0.00124848137995
0.00124296850562
0.00126030675151
0.00129527566935
0.00133640848888
0.0013637811617
0.00134548288375
0.00123749179468
0.000999945923232
0.000626273409684
0.000153833946732
0.000154666810386
0.000634245746085
0.00101421809166
0.00125904623627
0.00137730992843
0.00140752581147
0.00138471087897
0.00133987146988
0.00129784808688
0.00127189742938
0.0012667242692
0.00128274383236
0.00131513486655
0.00135299246722
0.0013769541883
0.00135567586811
0.00124571271373
0.00100719307397
0.000631449288824
0.000153935312178
0.000154841557989
0.000643005619505
0.00102532013397
0.0012698759832
0.00139058610519
0.00142560344377
0.00140932143172
0.00137146997704
0.00133519499906
0.00131269948437
0.00130804242605
0.00132176246387
0.00134958314251
0.0013815242648
0.0013992185416
0.00137228808915
0.00125876245803
0.00101947356895
0.000640898971581
0.000154114343664
0.000154818742293
0.00065373425987
0.00103650537249
0.00127800076897
0.00140110348077
0.0014418581743
0.00143411690023
0.00140532555441
0.00137624269839
0.00135776964574
0.0013536452063
0.00136457080615
0.00138685877108
0.00141151419428
0.00142123297915
0.00138676984909
0.00126915684556
0.00103183994861
0.00065231345476
0.000154113724346
0.000154042568987
0.000661864513693
0.00103902988752
0.00126989161301
0.0013943015075
0.00143986232976
0.00144029507465
0.00142065511796
0.00139872051679
0.00138418919294
0.00138067005641
0.00138897428764
0.00140596169697
0.00142344514946
0.00142500660612
0.00138348314321
0.00126343496206
0.00103531753572
0.000661021011469
0.000153379192025
0.000151764792661
0.000659965906576
0.00102016828987
0.00123314451788
0.00134774743833
0.00139447004856
0.00140041265496
0.00138775924435
0.00137162273251
0.00136036422277
0.00135756261072
0.00136397553597
0.00137677163944
0.00138837868597
0.00138375783142
0.00133982151805
0.00122726240626
0.00101696367215
0.000659522536555
0.000151156137555
0.000146972025852
0.000635786063052
0.00095946552595
0.00114176163459
0.00123397845518
0.00127106335709
0.00127857361164
0.0012691576013
0.00125634243672
0.00124723040976
0.00124511610119
0.00125064254637
0.00126120239214
0.00126986985168
0.00126324316217
0.00122697094274
0.00113637744282
0.000956484962965
0.000635500258084
0.000146424444624
0.000138235850786
0.000569025454693
0.000826219138836
0.000960756752737
0.00102209130422
0.00104103957653
0.0010381238464
0.00102606677762
0.00101363808618
0.00100562864186
0.00100413118049
0.00100961841759
0.00102038052221
0.00103172309275
0.00103465506504
0.00101613825094
0.00095585031179
0.000823204410558
0.000568506357729
0.000137754314548
0.000123234703845
0.00042233632246
0.000570503978793
0.000638056278053
0.000662389396368
0.000664060802893
0.00065550455936
0.000644138969066
0.000634538761642
0.00062891948901
0.000628075517892
0.000632283783191
0.000640893026633
0.000651714306808
0.000660036790339
0.000658298724609
0.000634257756456
0.000567643544933
0.000421210897502
0.000122853409074
9.91576249841e-05
0.000123106712052
0.000138089541137
0.000146830299664
0.000151617159763
0.000153871431761
0.000154607438619
0.000154568485041
0.000154312527843
0.000154122257023
0.000154051738877
0.000154117520652
0.000154276192044
0.000154260877049
0.000153513778274
0.000151280158125
0.000146542505106
0.000137869785846
0.00012295036237
9.90312916954e-05
0.000104572144764
0.00013343108037
0.000150653865247
0.000160581773464
0.00016620052744
0.000169155838537
0.000170564568941
0.000171196927591
0.000171533168676
0.000171710846803
0.00017167450467
0.000171419207397
0.000171002957638
0.000170299126288
0.000168849130852
0.000165889192977
0.000160307897161
0.000150453053281
0.000133316494523
0.000104442972576
0.000133585946835
0.000499638265803
0.000677902490423
0.000759103285314
0.000790195665857
0.000795180757769
0.000788653172692
0.000779382521715
0.00077201850672
0.000767926373395
0.00076687511683
0.000769104051438
0.000775079254898
0.000783506045803
0.000789628473975
0.00078456518532
0.000753860855438
0.000673859929176
0.000497959736444
0.000133100715488
0.000150827467791
0.000676728459352
0.000993190173022
0.00115961175194
0.00123828455403
0.00126659138747
0.00126833241167
0.0012592871036
0.00124920683509
0.00124255686278
0.00124050586701
0.00124352562987
0.00125090571429
0.00125874006037
0.00125696185558
0.00122939408446
0.0011522301484
0.00098835837715
0.000675400418947
0.00015021918235
0.000160768193511
0.000757636169798
0.00115893600825
0.00138799460928
0.00150837447557
0.00156348372786
0.00157785228451
0.00157192906967
0.00156042959988
0.00155145833741
0.00154832304334
0.00155168818915
0.0015587814493
0.00156251861267
0.00154928148971
0.00149658027996
0.00137882941189
0.00115314836629
0.000755801936552
0.000160062592009
0.000166417585502
0.000789145012795
0.00123769459406
0.00150822846835
0.0016599487269
0.00172944199183
0.00174749402944
0.00173929394362
0.00172392197123
0.00171205157543
0.00170801272271
0.00171236058934
0.00172096926634
0.00172458481749
0.00170720861291
0.00164312297984
0.00149677951096
0.00123031354511
0.000786115267881
0.000165611983789
0.000169419923557
0.000794896810238
0.0012666403337
0.00156398000682
0.00173131926779
0.00180530011803
0.00181898560807
0.001803179138
0.00178114165173
0.00176559556273
0.0017609736018
0.00176758603512
0.00178016148142
0.0017874618104
0.001771671345
0.00170520885118
0.00154861102087
0.00125716297426
0.000790369266446
0.000168521851482
0.000170878023401
0.00078924373515
0.00126947891138
0.00158101821671
0.00175511475943
0.00182602617659
0.00183030470745
0.00180375403712
0.0017738890099
0.00175426913119
0.0017494767634
0.00175943777878
0.00177771910013
0.00179121980228
0.00178053409972
0.00171686588131
0.00155896989161
0.00125756960822
0.0007832041398
0.00016991777628
0.00017155060408
0.00078093778979
0.00126203312119
0.00157952004965
0.00175435059205
0.00181903690316
0.00181291323807
0.00177556492439
0.00173793292307
0.00171429668463
0.00170948189172
0.00172305173039
0.00174753524687
0.00176814427321
0.0017641443369
0.0017057219784
0.00155057132996
0.00124776622896
0.000773570361215
0.000170575598174
0.000171911853497
0.000774681151868
0.00125395183949
0.00157228020105
0.00174528432674
0.00180435146202
0.00179008626096
0.00174446948828
0.00170052636149
0.00167347933995
0.00166845771034
0.00168481738454
0.0017144787311
0.001741326281
0.00174350723228
0.00169037844648
0.00153884567844
0.00123817288975
0.000766276180171
0.000170956485087
0.000172108265205
0.000771732979974
0.00124948316133
0.00156701461355
0.00173843304807
0.00179436793556
0.00177579060699
0.00172574210771
0.00167831693237
0.0016493151018
0.00164410207792
0.00166196400579
0.00169448675569
0.00172492650395
0.00173074496009
0.00168079031209
0.00153157481648
0.00123270879805
0.000762712429891
0.00017116728586
0.00017209959513
0.000771743675297
0.00124953540716
0.00156714532662
0.00173865705288
0.00179466319475
0.00177610717451
0.00172606811667
0.00167866981521
0.00164969637561
0.00164449910033
0.00166237244295
0.00169491973338
0.00172540224325
0.00173123474404
0.00168121865227
0.0015318807854
0.00123288209837
0.000762775089575
0.000171149330185
0.000171880774525
0.000774639435994
0.00125405350963
0.00157262988647
0.00174594545506
0.00180529766419
0.00179119887824
0.00174571050106
0.00170192711204
0.00167501186619
0.00167005328019
0.00168642467753
0.00171608680859
0.00174294455308
0.00174504104787
0.00169163718528
0.00153970264291
0.00123863386331
0.000766421890192
0.000170905584075
0.000171496382637
0.000780731782842
0.00126203877852
0.00158000573705
0.00175543944111
0.00182075231569
0.00181512167023
0.00177817003961
0.00174091394303
0.00171755563342
0.00171286143944
0.00172640277026
0.00175075646466
0.00177115807794
0.00176676715467
0.0017077088772
0.00155181637376
0.00124835469584
0.000773710269973
0.000170499351431
0.000170809310303
0.000788814759007
0.00126926154439
0.00158147784992
0.00175648771136
0.00182849078944
0.0018337837361
0.00180807067539
0.00177885584044
0.00175965505094
0.00175502023305
0.00176487134185
0.00178279144885
0.00179567696063
0.00178408266785
0.0017192815931
0.00156030308964
0.00125806541077
0.00078323193563
0.000169827740407
0.000169349395342
0.000794254932058
0.00126616989631
0.00156416634882
0.00173254310314
0.00180794736743
0.00182312765423
0.00180856744476
0.0017874085943
0.00177237860857
0.00176793401911
0.00177436582098
0.00178635909737
0.00179262275692
0.00177541558338
0.00170744908517
0.00154963151225
0.0012573884107
0.000790191287602
0.000168428414064
0.00016635460985
0.00078832424119
0.00123700516297
0.00150809213005
0.00166068802496
0.0017314617094
0.00175106596063
0.00174422149966
0.00172975848038
0.00171840808416
0.00171454895349
0.00171870988848
0.00172666803989
0.00172908710313
0.00171018378465
0.00164471687714
0.00149735197991
0.0012301821505
0.000785670149427
0.00016552354441
0.000160719186053
0.000756702275173
0.00115815832766
0.00138773362667
0.00150877373924
0.00156472091342
0.00158010072579
0.00157519906378
0.00156443051914
0.0015558872053
0.00155290226279
0.00155611003312
0.00156266446497
0.00156548295592
0.00155123150984
0.00149762154788
0.0013790662873
0.00115272753011
0.000755108961847
0.000159986556071
0.000150796789655
0.000675821542348
0.000992520303794
0.00115940761493
0.00123862407773
0.00126752092225
0.00126981924055
0.00126132207215
0.00125175784825
0.00124542491576
0.00124347583567
0.00124636093039
0.00125334655286
0.00126072000202
0.00125838915752
0.00123016276033
0.00115233136593
0.000987875252752
0.000674611184146
0.000150162518263
0.00013357863417
0.00049903981659
0.000677570535194
0.000759061867341
0.000790447968729
0.000795739036905
0.00078949653899
0.000780491318819
0.00077333999669
0.000769380360522
0.000768370303539
0.000770546517546
0.00077636553299
0.000784593711475
0.000790460544594
0.000785064132878
0.000753994057426
0.000673619761673
0.000497396491956
0.000133070785281
0.000104596911221
0.000133365726249
0.000150566234284
0.000160481104932
0.000166087076674
0.000169031173161
0.000170430892171
0.000171056371189
0.000171384050821
0.000171553846465
0.000171510703157
0.000171251899158
0.000170834786684
0.000170135476651
0.000168694721935
0.000165746704822
0.000160179652541
0.000150340599796
0.000133230112673
0.000104457625203
0.000109985926619
0.000143680794972
0.000162759355553
0.000173750876745
0.000180302329748
0.000184181545883
0.00018649203668
0.000187921247627
0.000188853777029
0.000189352499318
0.000189341957289
0.000188820149439
0.000187843939476
0.000186346559671
0.00018398261303
0.000180059684374
0.000173521884972
0.000162602099986
0.000143651557302
0.000109874269818
0.000143909231309
0.000583996043701
0.000792032542044
0.0008885346572
0.000930033336459
0.000942859571732
0.000943007812596
0.000939879028147
0.000937592878255
0.000936302605824
0.000935129901892
0.000934341996329
0.000935100625738
0.00093722462703
0.000936510796193
0.000923527907638
0.000882502690426
0.000787293835475
0.000581920647663
0.000143325200176
0.000162992719711
0.000790987965633
0.00115963108286
0.00135246427186
0.00144691642063
0.00148584953149
0.00149554160387
0.00149323756788
0.00148817594375
0.00148358729939
0.00148082201424
0.00148048165202
0.00148169069151
0.00148160547503
0.00147228036675
0.00143487481806
0.00134238036266
0.00115265561342