/*--------------------------------*- C++ -*----------------------------------*\
| =========                 |                                                 |
| \\      /  F ield         | OpenFOAM: The Open Source CFD Toolbox           |
|  \\    /   O peration     | Version:  3.0.1                                 |
|   \\  /    A nd           | Web:      www.OpenFOAM.org                      |
|    \\/     M anipulation  |                                                 |
\*---------------------------------------------------------------------------*/
FoamFile
{
    version     2.0;
    format      ascii;
    class       volVectorField;
    location    "8.3";
    object      U;
}
// * * * * * * * * * * * * * * * * * * * * * * * * * * * * * * * * * * * * * //

dimensions      [0 1 -1 0 0 0 0];

internalField   nonuniform List<vector> 
7968
(
(0.000799860106339 0.000730765317981 -0.00124796848224)
(0.0030730646921 0.000192660813998 -0.00145177224789)
(0.00612322509281 -3.80479814545e-05 -0.00136987855976)
(0.00853881887869 -3.19791653345e-05 -0.00102521074681)
(0.0101230757501 0.000223774112626 -0.000637666978081)
(0.0102446105975 0.000668255436516 -0.000276650878931)
(0.00946103409485 0.00099248210238 -8.73947125671e-05)
(0.00770698027601 0.00136924302405 7.24656682914e-05)
(0.00521368630654 0.00166446628299 0.000150129781736)
(0.00233275653261 0.00182132144939 0.000171699369485)
(-0.000679324521133 0.00183099541755 0.000176986112553)
(-0.00360677707463 0.00169193068436 0.000166787171753)
(-0.00619801502495 0.00141000664648 0.000103991643962)
(-0.00809726805807 0.00103885951611 -3.96940976293e-05)
(-0.00904021034377 0.000693298954918 -0.000230924428648)
(-0.00910992079555 0.000283670777082 -0.000556715210761)
(-0.00776202534307 1.22573470773e-05 -0.000949041618069)
(-0.00557797325738 8.03252427291e-06 -0.00129069988358)
(-0.00276066407105 0.000236418039349 -0.00137609147273)
(-0.000694898794783 0.000764860621143 -0.00117682578009)
(0.000266191382849 0.00286905685663 -0.00144674452445)
(0.00283600128615 0.00262613133824 -0.00375641001298)
(0.00644356337515 0.00281474281967 -0.00444374941143)
(0.00916121471706 0.00341770815907 -0.00430909776553)
(0.0107358415394 0.00436483569537 -0.00391376324177)
(0.0108817331654 0.00541166171676 -0.00347690064503)
(0.00991630984337 0.00625751661323 -0.00313790486712)
(0.00799222926 0.00699234732658 -0.00287054715087)
(0.00537208240938 0.00753294076035 -0.0027131293242)
(0.00239754211132 0.00782161731901 -0.00265221330816)
(-0.000696189787395 0.00783736369094 -0.00264129898471)
(-0.00372023561441 0.00757649272374 -0.00267945186561)
(-0.0064410084683 0.00705500144268 -0.00281364178813)
(-0.00851143740429 0.00632846220167 -0.00306272619213)
(-0.0096405571813 0.00548563985072 -0.00339182187709)
(-0.00969735952883 0.00446792381052 -0.00380904736235)
(-0.0083550907535 0.00352843658446 -0.00420233992744)
(-0.00588391347493 0.00293149318206 -0.00434081069903)
(-0.00251692574053 0.00273814507157 -0.00366836807263)
(-0.000156896340659 0.00296245576854 -0.00137798372277)
(3.91099001916e-05 0.00578287682898 -0.00137391558994)
(0.00302984907357 0.00609243236887 -0.00444467546649)
(0.0071144802884 0.00675833799918 -0.00513218372773)
(0.0101052082868 0.0078981430303 -0.00474745468396)
(0.0117206001311 0.00938755192726 -0.0040721527917)
(0.0117959375482 0.0109310514982 -0.00342048138272)
(0.0106249764995 0.0122309070127 -0.00294093288339)
(0.00847180714883 0.0133052982384 -0.00262566165676)
(0.00564892977791 0.0140855038846 -0.0024629952304)
(0.00249903523783 0.0144972521501 -0.00240442260516)
(-0.000762443836389 0.0145234936901 -0.00239240729228)
(-0.00396924346406 0.0141579323085 -0.00242712187878)
(-0.00690261825267 0.0134072114908 -0.00256748986513)
(-0.00920570948568 0.0123433599984 -0.00286501301575)
(-0.0105429198391 0.0110513034343 -0.00332861040466)
(-0.0106674719716 0.00953651884381 -0.00395830814977)
(-0.00928401526255 0.00805690538559 -0.00462243298281)
(-0.00654343976159 0.00692399947835 -0.00500906038939)
(-0.00270451971532 0.00625497875361 -0.00434168268189)
(7.16671464243e-05 0.0059246851345 -0.00129873548666)
(4.53190013104e-05 0.00807527833541 -0.00103419968468)
(0.00363243456871 0.00867818444029 -0.0043180863088)
(0.0082559236475 0.00961609273902 -0.00475679971416)
(0.0115586949997 0.0110672832175 -0.00399541265858)
(0.0132235426425 0.012857311786 -0.00293027447127)
(0.013153772785 0.0146678923069 -0.00197796882697)
(0.0117034618747 0.0162230765931 -0.00130374039353)
(0.00922149618491 0.0175038306167 -0.000900045614652)
(0.00608532592179 0.0184321570227 -0.000717112833621)
(0.00265379409582 0.0189288560822 -0.000664352012662)
(-0.000875154730223 0.0189640216888 -0.000649581571579)
(-0.00437455946847 0.0185284287532 -0.000673673071688)
(-0.00763627416251 0.0176370818846 -0.000833104799368)
(-0.0102761591449 0.0163646892504 -0.00122002861146)
(-0.0118930981266 0.014812578124 -0.00187551335152)
(-0.0121559995483 0.0130270247442 -0.00280083473953)
(-0.0107223421184 0.0112496026379 -0.00385078512241)
(-0.00767177151786 0.0098070519697 -0.00461186268687)
(-0.00329860716382 0.00886907148215 -0.00419612951556)
(6.95329069153e-05 0.00824503852626 -0.000947968031412)
(0.000308254499569 0.00954597744793 -0.000649651784018)
(0.0045781427304 0.0101394374348 -0.00393056764214)
(0.00974503194804 0.0111186388371 -0.00409499806621)
(0.0133478933543 0.0126196242103 -0.00294564671356)
(0.0150725758252 0.0144693734779 -0.00147869638753)
(0.0148323810173 0.0163334228814 -0.000182366245941)
(0.0130818922904 0.0179313100083 0.000788577437882)
(0.0102273523686 0.0192548858284 0.00142297534868)
(0.0067022035545 0.0202257808745 0.00174961730584)
(0.00288103925872 0.020757189853 0.00186973572838)
(-0.00104282073794 0.0208023463367 0.0018917740538)
(-0.0049517584209 0.0203468818461 0.00181117505202)
(-0.00862795535389 0.0194154048352 0.00150973031868)
(-0.0116549019537 0.0180921846606 0.000886439419293)
(-0.0135710775642 0.0164860854255 -7.13763703671e-05)
(-0.0139965501332 0.0146409560147 -0.00133705391076)
(-0.0124998252048 0.0128006522007 -0.00278061111853)
(-0.00915046915651 0.011308550292 -0.00392851953316)
(-0.00423882879683 0.0103313257581 -0.00378683473633)
(-0.000191554992113 0.00971873868903 -0.000548329911017)
(0.000741559492112 0.00958402536257 -0.000306920830079)
(0.00561510318697 0.0101969561515 -0.00350907024998)
(0.0112802452079 0.0111053378866 -0.00345924426443)
(0.0151501783889 0.0124610342229 -0.00200749306246)
(0.0169301302777 0.0141404796936 -0.000194688282044)
(0.0164676240984 0.0157834389226 0.00142201866207)
(0.0144210216892 0.0172160190619 0.00260523667419)
(0.0112024328289 0.0184249863693 0.00338526576061)
(0.007295837446 0.0193292131258 0.00379012392493)
(0.00310157780078 0.0198392855128 0.00394057230457)
(-0.00119794940189 0.0198920447473 0.00397400982372)
(-0.00550595117534 0.0194699197599 0.00387940514773)
(-0.00959858438074 0.0186103504839 0.00349687723051)
(-0.013009333578 0.0173970621024 0.00271026849703)
(-0.0152186001371 0.0159427463682 0.00152572359842)
(-0.0158475029277 0.0143029842959 -5.5344596341e-05)
(-0.0142943006631 0.0126266661372 -0.00183871451484)
(-0.0106752167054 0.0112737680766 -0.00328167186271)
(-0.00526919020964 0.0103633508448 -0.00335406431752)
(-0.000618342690247 0.00973319218218 -0.000199731681151)
(0.00107366262983 0.0087372215742 -0.000120198489401)
(0.00646011142644 0.0091668819027 -0.00317920616323)
(0.0125774859234 0.00986512678857 -0.00298957331793)
(0.0167016422121 0.010934838695 -0.00134090184499)
(0.0185262626468 0.0123067657028 0.000772603495055)
(0.0178985425623 0.0136477367116 0.00260750274365)
(0.0156152297171 0.0148365627507 0.00395111060157)
(0.0120834092339 0.0158678672398 0.00485954122617)
(0.00784120563134 0.0166675728921 0.00534588648607)
(0.00331145077262 0.0171122079519 0.00555034434334)
(-0.00133109288692 0.0171660026993 0.00559630963285)
(-0.00600211202082 0.0168167799614 0.00546273020001)
(-0.0104686489531 0.0160676351053 0.00499381462518)
(-0.0142191306569 0.0150320625019 0.00406539638355)
(-0.016670955662 0.0138165281292 0.00270901079078)
(-0.0174516588653 0.0124668635366 0.000908004749061)
(-0.0158487826614 0.0110863971739 -0.00117412325727)
(-0.01197030029 0.0100098130874 -0.00280854150251)
(-0.00611355363108 0.00930480171437 -0.00301899076138)
(-0.000953426525295 0.0088611099338 -1.02728185213e-05)
(0.00144506388226 0.006932429111 3.11638206725e-05)
(0.00718772855921 0.00719148839321 -0.00292406148335)
(0.0136411337802 0.0076548278416 -0.00268566752552)
(0.0179681997809 0.00838525826501 -0.000950366907006)
(0.0198375100816 0.00937075068145 0.00139571331702)
(0.0190955985535 0.01033370433 0.00338301561092)
(0.0166421340523 0.0111946604537 0.00485739593835)
(0.0128650000252 0.0119646963855 0.00590923991511)
(0.00829449535397 0.0125061333018 0.00655904610917)
(0.00348207641896 0.0129074869414 0.00654643786073)
(-0.00143681644566 0.0129670955258 0.00656254204687)
(-0.00639931047787 0.0126397562416 0.00668905345664)
(-0.0112274327012 0.0121459504598 0.00607851880118)
(-0.0152562166231 0.0113808476541 0.00499197067499)
(-0.0178905121072 0.0104959917345 0.00349641237021)
(-0.0187812986824 0.00951982405492 0.00153975503218)
(-0.0171314497476 0.00851719165543 -0.000775419672977)
(-0.0130442396388 0.00777093238693 -0.00250234851021)
(-0.00684782381198 0.0072957387138 -0.00276231944941)
(-0.00132965039155 0.00702554737826 0.000138334510311)
(0.00173010362255 0.00441567419935 0.000101674005539)
(0.00771312285684 0.00454782321161 -0.00278000142522)
(0.0143969729803 0.00480227594294 -0.00253732210076)
(0.0188657679582 0.00521037048379 -0.00078817617567)
(0.0207758156775 0.00579242269066 0.00169687670801)
(0.0199653134431 0.00635614062888 0.0037613740276)
(0.0174129286906 0.00686345153132 0.00531428261395)
(0.0133940095519 0.00729028887851 0.00652785950438)
(0.00868303049996 0.00767963736905 0.00659100606455)
(0.00360486204762 0.00791690339991 0.00658693657489)
(-0.00152756338023 0.00795316120366 0.00662117927985)
(-0.00676471484851 0.00777218253314 0.00667087593615)
(-0.0117417137831 0.00741916392407 0.00667885823783)
(-0.0160241187587 0.00699879665884 0.00548247052073)
(-0.018776515684 0.0064766667323 0.00390017208451)
(-0.0197383170218 0.00590295528511 0.00186185127041)
(-0.0180480153355 0.00530422760339 -0.00059870223079)
(-0.0138175212437 0.00488119563394 -0.00235158205433)
(-0.00738331321639 0.00461648576144 -0.00261949561207)
(-0.00162152293746 0.00447723602542 0.000205389748063)
(0.00187549390345 0.00154084779563 0.000117700017625)
(0.00798281857307 0.00158055623858 -0.00273072862795)
(0.0147778897883 0.001658021654 -0.00249296290676)
(0.0193224704189 0.0017823869904 -0.000756278203352)
(0.0212600921502 0.00196925099415 0.00178671339822)
(0.0204222415493 0.00214884802291 0.00387205991259)
(0.0178107343329 0.00231060715224 0.00546828143606)
(0.0137337690584 0.00244250642284 0.00652856058043)
(0.00889651130488 0.00255708176532 0.00655251085157)
(0.00368579392926 0.00263626363752 0.00662138517718)
(-0.0015933612765 0.00264806556336 0.00666344783015)
(-0.00696750457126 0.00258426438305 0.00664785362908)
(-0.0121079225223 0.00249072040572 0.00656978164805)
(-0.0164111351958 0.00235770388756 0.00565884239421)
(-0.0192422555976 0.0021915414068 0.00402963684091)
(-0.0202325765942 0.00200988605285 0.00196747375928)
(-0.0185159057723 0.00181892055779 -0.000557459402847)
(-0.0142082015205 0.00169080242344 -0.00230496320127)
(-0.00765929281859 0.00161106705734 -0.00257071514595)
(-0.00177105285333 0.00156951180902 0.000220199544411)
(0.00187489350166 -0.00144104559748 0.00011791005778)
(0.00798048197224 -0.00147985621704 -0.00273006534849)
(0.0147748677749 -0.00156579375228 -0.00249364997146)
(0.0193191049655 -0.00170255637604 -0.000758297441439)
(0.0212564626109 -0.00190303758143 0.00178375064479)
(0.0204181509717 -0.00209542462831 0.0038677904855)
(0.0178063471686 -0.00227016681763 0.00546294251939)
(0.0137292709849 -0.00241497636003 0.00652250269884)
(0.00889320525107 -0.00253989658812 0.00654595019003)
(0.00368383978518 -0.00262707753103 0.00661512668506)
(-0.00159423225812 -0.00264134395728 0.00665711327324)
(-0.00696653798059 -0.00257461339516 0.00664072980463)
(-0.0121043977598 -0.00247275272658 0.00656206854306)
(-0.0164060048692 -0.00232740086383 0.00565172364482)
(-0.0192362034676 -0.0021453025253 0.00402403524705)
(-0.0202260700428 -0.00194527263174 0.00196383694741)
(-0.018509254185 -0.00173227783999 -0.000558744342566)
(-0.0142022876287 -0.00158460554114 -0.00230406808902)
(-0.0076551888525 -0.0014903450394 -0.00256801981225)
(-0.00177004125338 -0.00144784135968 0.000221232155207)
(0.00172855622967 -0.00431510942526 0.000103199039974)
(0.00770652489062 -0.00444583826125 -0.00277690358745)
(0.0143886375418 -0.00470660852228 -0.00253807183643)
(0.0188564065326 -0.00512414933408 -0.000792716255219)
(0.0207658504919 -0.00571633935815 0.00168962472537)
(0.0199541004335 -0.00628902271401 0.00375062047296)
(0.017400985759 -0.00680535107732 0.00530076250638)
(0.0133818880448 -0.00724172421175 0.00651139452485)
(0.00867326091442 -0.0076393736824 0.00657218984999)
(0.00359885728341 -0.00788357159148 0.00656766071235)
(-0.00152977749121 -0.00792198369235 0.00660155945873)
(-0.00676149500277 -0.00773845404821 0.00664917518681)
(-0.0117314323344 -0.00737757682162 0.00665806171469)
(-0.016010045895 -0.00694779841221 0.00546432867279)
(-0.0187599104315 -0.00641416836839 0.00388573540654)
(-0.0197205726062 -0.00582693124626 0.00185242460931)
(-0.0180299254447 -0.00521161025309 -0.000602157026481)
(-0.0138015141547 -0.00477342731091 -0.00234909916558)
(-0.00737201029421 -0.00449725028108 -0.00261199737742)
(-0.00161885700987 -0.00435712988011 0.000208904548679)
(0.0014432689265 -0.0068346478516 3.50699131504e-05)
(0.00717865074044 -0.00709063879634 -0.00291807717433)
(0.0136304672592 -0.00755632922375 -0.0026847630389)
(0.017955889911 -0.00829085723949 -0.000954571120155)
(0.0198248056015 -0.00928023686718 0.00138852493743)
(0.0190811102427 -0.0102456009386 0.00337230257042)
(0.0166264492102 -0.0111091558229 0.00484416115092)
(0.0128484553136 -0.0118826180489 0.00589441061812)
(0.00827945416182 -0.0124284715538 0.00653959954803)
(0.00347299865001 -0.0128348436904 0.00651697319676)
(-0.00143944719595 -0.0128950013282 0.00653174950736)
(-0.00639387539654 -0.0125657590911 0.00665927759313)
(-0.0112134380675 -0.0120653991192 0.00605708978224)
(-0.0152374961113 -0.0112967278686 0.00497205698316)
(-0.0178682600225 -0.0104078297026 0.00348047262321)
(-0.0187574386965 -0.00942616953284 0.00152916945641)
(-0.0171067433173 -0.00841559852818 -0.000779158718177)
(-0.0130227636967 -0.00766132425546 -0.0024983062357)
(-0.00683199105173 -0.00718027180697 -0.00275120841207)
(-0.00132633561693 -0.00691082915889 0.000144893274705)
(0.00107214578001 -0.00864728317041 -0.000113918826795)
(0.00645128587206 -0.00907198507543 -0.00317102776635)
(0.0125675646253 -0.00976848079026 -0.00298641995054)
(0.0166908847535 -0.0108364542315 -0.00134220960597)
(0.0185160274039 -0.0122062182122 0.000769881897426)
(0.0178862261706 -0.0135437171177 0.00260358491002)
(0.0156007033664 -0.0147291911784 0.00394586844436)
(0.0120675878899 -0.0157587740396 0.0048526923839)
(0.00782691405152 -0.0165576626359 0.00533638443722)
(0.0033022702154 -0.017001161577 0.00553800823599)
(-0.00133225647469 -0.0170538700871 0.00558230910118)
(-0.00599535048524 -0.0167036746815 0.00544904613989)
(-0.0104555566156 -0.0159538438967 0.00498071201964)
(-0.0142012313952 -0.0149191727708 0.00405338312966)
(-0.0166499482869 -0.0137063115996 0.00269899188254)
(-0.0174285191274 -0.0123584525807 0.000901207003547)
(-0.0158236409543 -0.0109783731961 -0.00117565765754)
(-0.0119477376814 -0.00990172639443 -0.00280243024565)
(-0.00609693141938 -0.00919700807576 -0.00300555290196)
(-0.000950252011781 -0.0087565685925 -1.20506926904e-06)
(0.000737642237319 -0.00950341101801 -0.000301133251041)
(0.00560952063629 -0.0101111529428 -0.0034999793334)
(0.0112759166204 -0.0110149874301 -0.00345351492468)
(0.0151460398172 -0.0123649286048 -0.00200443247813)
(0.0169270843007 -0.0140385213781 -0.000191005587915)
(0.0164624365621 -0.015675218765 0.00142691871038)
(0.0144126199927 -0.0171011168993 0.00261020171774)
(0.011191214695 -0.0183049302138 0.00338919995294)
(0.00728483789274 -0.0192055374967 0.00379127969)
(0.00309461912222 -0.019712984231 0.00393882625652)
(-0.00119819278986 -0.0197636993417 0.00397092738968)
(-0.00549957532725 -0.0193403635825 0.00387750443063)
(-0.00958815094289 -0.0184809203263 0.00349679131781)
(-0.0129969538234 -0.0172709223599 0.00271007059492)
(-0.0152042762765 -0.0158222193547 0.00152525579711)
(-0.0158311085168 -0.0141881886199 -5.50809946113e-05)
(-0.0142756315932 -0.0125176637429 -0.0018356464824)
(-0.0106582394829 -0.0111707341143 -0.00327283489885)
(-0.0052560210058 -0.010265212152 -0.00334001235126)
(-0.000612531195334 -0.00963948537022 -0.000192158156509)
(0.000311432934577 -0.00948092576027 -0.000640004631439)
(0.0045811832387 -0.0100699166861 -0.00392058546087)
(0.00975085512686 -0.011041645364 -0.0040867020754)
(0.0133539987492 -0.0125335928907 -0.00293777185708)
(0.0150790104254 -0.0143754182641 -0.00146911844705)
(0.0148363573221 -0.0162319905558 -0.000169867679024)
(0.0130823761934 -0.0178221470234 0.000802606450829)
(0.0102240474202 -0.0191391098462 0.00143748796748)
(0.00669754698039 -0.0201044681784 0.0017628567257)
(0.00287833644661 -0.0206314891912 0.00188103908816)
(-0.00104138378589 -0.0206739095492 0.00190231103031)
(-0.00494638575253 -0.0202177319905 0.00182278217756)
(-0.00862138269103 -0.019287476613 0.0015224906163)
(-0.0116489356005 -0.0179677486224 0.000897930621574)
(-0.013565000913 -0.0163678041494 -6.14096801166e-05)
(-0.0139901808027 -0.014530414282 -0.00132826988617)
(-0.0124927321047 -0.0126993407777 -0.0027710392658)
(-0.00914551391835 -0.011218067351 -0.00391633467428)
(-0.00423629936862 -0.0102500123063 -0.00377197601503)
(-0.000195065041507 -0.00964229299649 -0.000536849805663)
(4.73238044454e-05 -0.00803012745424 -0.00102583996679)
(0.00364079069489 -0.00862671438633 -0.00431073486815)
(0.0082692217173 -0.00955628951472 -0.00474802562813)
(0.0115728437356 -0.0109974461963 -0.00398468632328)
(0.0132369223321 -0.0127785658952 -0.00291609062563)
(0.013163629753 -0.0145819358456 -0.00196188416306)
(0.011709380314 -0.0161307155151 -0.00128680081365)
(0.00922382391329 -0.0174063954327 -0.000883113076935)
(0.00608624770456 -0.0183297304362 -0.000700535957301)
(0.00265601855834 -0.0188221016569 -0.000648271986741)
(-0.000870225380825 -0.0188543124528 -0.000633328654934)
(-0.00436755955499 -0.0184176100511 -0.000656226638315)
(-0.00763000961072 -0.0175268249406 -0.000814362645792)
(-0.0102726420198 -0.0162563397643 -0.00120142039834)
(-0.0118920452304 -0.0147091954943 -0.00185760244906)
(-0.01215756989 -0.012931444317 -0.00278351862658)
(-0.0107254074781 -0.0111646896984 -0.00383583740999)
(-0.00767676844568 -0.00973477787814 -0.00459816328947)
(-0.00330375370443 -0.00880741452892 -0.00418390880077)
(6.63539736395e-05 -0.00819133369724 -0.000940147485036)
(4.22583759e-05 -0.00575553642448 -0.00136577647683)
(0.00304198363438 -0.0060599746292 -0.00443957798336)
(0.0071337201895 -0.00671838891607 -0.00512448190124)
(0.0101263500885 -0.00784879852172 -0.00473550903115)
(0.0117406215427 -0.0093292364262 -0.00405532660109)
(0.0118111810288 -0.0108648596854 -0.00340087116468)
(0.0106361929861 -0.0121578524937 -0.00292063243804)
(0.00847971298535 -0.0132268582188 -0.00260572113381)
(0.00565533471663 -0.0140023053747 -0.00244313175142)
(0.00250566686476 -0.014410267619 -0.00238436620872)
(-0.000754948394017 -0.0144339779948 -0.00237164461792)
(-0.00396155935265 -0.0140675513615 -0.0024052056833)
(-0.00689710395477 -0.0133178093259 -0.0025441019058)
(-0.00920456772589 -0.0122567798773 -0.00284083173158)
(-0.0105462199063 -0.0109705477716 -0.003304520042)
(-0.0106764840343 -0.00946478687749 -0.00393599008446)
(-0.0092962544754 -0.0079957728158 -0.00460511971392)
(-0.00655680987711 -0.00687440210012 -0.00499616721894)
(-0.00271576519973 -0.00621483914737 -0.0043326664021)
(6.61050526399e-05 -0.00589017606299 -0.00129338007789)
(0.000269333253027 -0.00285755775934 -0.00144266324057)
(0.00284798384502 -0.00261190682884 -0.00375404431286)
(0.0064637477069 -0.0027954569182 -0.00443969367727)
(0.00918532265838 -0.00339206938125 -0.00430086199243)
(0.0107601667151 -0.00433304925141 -0.00389804064964)
(0.0109001722542 -0.00537433122205 -0.00345702380433)
(0.00993030950884 -0.00621513737646 -0.00311733359328)
(0.0080030830305 -0.00694597800558 -0.00285038119745)
(0.00538189070491 -0.00748316993442 -0.00269243837678)
(0.00240754830391 -0.00776934776523 -0.00263069825782)
(-0.000685833995897 -0.00778343102229 -0.00261859841501)
(-0.00371051592773 -0.00752186624771 -0.00265557370939)
(-0.00643453548605 -0.00700103074333 -0.00278849791068)
(-0.00851094602955 -0.00627676361314 -0.00303705491163)
(-0.00964653315367 -0.00543823721425 -0.00336700702279)
(-0.00971128958677 -0.00442740845802 -0.00378793710964)
(-0.00837169469451 -0.00349498798126 -0.00418922123985)
(-0.00589990234641 -0.00290523260458 -0.00433239469769)
(-0.0025292073813 -0.00271687416587 -0.00366427016107)
(-0.000162354885878 -0.00294261879799 -0.00137659184281)
(0.000797854593768 -0.000727201675329 -0.00124433773332)
(0.00307652894453 -0.000188666324902 -0.00145210267585)
(0.00613513997234 4.34889212843e-05 -0.00136931049464)
(0.00855466805663 3.93880832759e-05 -0.00102259612062)
(0.0101404279577 -0.00021441292612 -0.000631615982888)
(0.0102578110596 -0.00065653396594 -0.000268207588258)
(0.00947206958428 -0.000979032349458 -7.89996504726e-05)
(0.00771696154239 -0.00135421005933 8.05624607593e-05)
(0.00522383537833 -0.00164855276662 0.000158204043652)
(0.00234386798108 -0.00180486833512 0.000179726626993)
(-0.000666991696165 -0.00181402794194 0.000185593194558)
(-0.00359413260108 -0.00167439708172 0.000176597534106)
(-0.00618742862036 -0.00139231281241 0.000115428603354)
(-0.00809106278303 -0.00102191631724 -2.71038246779e-05)
(-0.00903899342229 -0.000677051302534 -0.000218898097763)
(-0.00911549046376 -0.000271765009258 -0.000545937368672)
(-0.00776980020717 -1.83004308777e-06 -0.000943157617178)
(-0.00558387212395 5.20411449699e-07 -0.00128699304142)
(-0.00276153078074 -0.000227994823662 -0.00137207904179)
(-0.000693067223945 -0.000755188005346 -0.00116753307785)
(0.00166170048649 0.00159413706142 -0.00613488316649)
(0.00485137994438 0.00231130625381 -0.00694810484403)
(0.00779392099219 0.00291101013659 -0.00691670963178)
(0.00989827244068 0.003562834657 -0.00637552554938)
(0.0110173822723 0.00425287493445 -0.00564398017966)
(0.0108880098141 0.00485211932447 -0.00496186275668)
(0.00984296169502 0.0052805817548 -0.00443313361056)
(0.00790791505883 0.00563391941411 -0.00401715301621)
(0.00531364149702 0.00588351169602 -0.00379731243002)
(0.00237744303595 0.00601408727303 -0.00372941587008)
(-0.000674684220268 0.00602122740385 -0.00371038925261)
(-0.00365957184758 0.00590249468947 -0.00373699581596)
(-0.00635347850548 0.00566046572557 -0.00390876253745)
(-0.0084355011991 0.00530924203465 -0.00428027900774)
(-0.00964954762348 0.00487521096514 -0.00478244893336)
(-0.00996932696895 0.00430449035583 -0.00542306031263)
(-0.00909116434552 0.0036173778668 -0.00614218149005)
(-0.00722915627463 0.00297133376782 -0.00668038451334)
(-0.00453356085907 0.00236723133073 -0.00671829371306)
(-0.00156446046801 0.0016300576867 -0.00592105499946)
(0.00239880826222 0.0046456062269 -0.00694759915303)
(0.00564713057436 0.0054031246901 -0.00908297245263)
(0.0082423996727 0.00626262405212 -0.00924821284058)
(0.00998674608414 0.00733998993335 -0.00857368923475)
(0.0107816393589 0.00853449536402 -0.00761655706461)
(0.0105629383316 0.00966505169203 -0.00666883429617)
(0.0094357110419 0.0105971348141 -0.0058984148424)
(0.00753541415595 0.0113480014157 -0.00533446760126)
(0.00507787758084 0.0118846494406 -0.00500020336253)
(0.00230729944625 0.0121704896987 -0.00485840832144)
(-0.000579439267558 0.0121917172313 -0.00483502207169)
(-0.00340440645745 0.0119424534432 -0.00492879415093)
(-0.00596458674985 0.0114282667794 -0.00521518731077)
(-0.00800642749121 0.0106838575615 -0.00573713658926)
(-0.00930003011399 0.00975524945037 -0.00647030278424)
(-0.00970896545412 0.0086436332877 -0.00737880291905)
(-0.00913008122572 0.0074643825014 -0.00831142122925)
(-0.00761980593146 0.00639764618267 -0.0089772709922)
(-0.00526489323442 0.00553614630623 -0.00881854284756)
(-0.00226601272763 0.00474650980758 -0.00670783002101)
(0.00300749140177 0.00743728442462 -0.00693603917257)
(0.0065203067008 0.0078534808089 -0.00926429153241)
(0.00916239663911 0.00876187990233 -0.00910396047031)
(0.0108033048477 0.0100275718681 -0.00789643371946)
(0.0114211429998 0.0114596242621 -0.00636518804673)
(0.0110251507277 0.0128477224926 -0.00490304224134)
(0.0097204820743 0.0140376202242 -0.00374618055273)
(0.00769026038404 0.0149874066906 -0.00294383377158)
(0.00515822792875 0.0156665660259 -0.00247810333051)
(0.00233937982083 0.0160373507391 -0.00227338975312)
(-0.000592127683465 0.0160713154961 -0.00224336772774)
(-0.00347431462681 0.0157594065799 -0.0023903768701)
(-0.00611907819432 0.0151163539421 -0.0028058200432)
(-0.00829286421308 0.0141775726459 -0.0035671461796)
(-0.00975999514943 0.0129928199506 -0.00468301859047)
(-0.0103385438157 0.011618041877 -0.00610079289676)
(-0.0099243450605 0.0101997622448 -0.00759715216267)
(-0.00851015625092 0.00894620870337 -0.00878910954567)
(-0.00610618919819 0.00804042178199 -0.0089570341005)
(-0.00285441585548 0.00760400623302 -0.00666069797244)
(0.00366362953622 0.0094033180004 -0.00641844301449)
(0.00760155005428 0.00946685714908 -0.0086154905002)
(0.0104317954641 0.0102772974742 -0.0079227362506)
(0.0120274487435 0.0115020156965 -0.00606553057557)
(0.0124671081789 0.0129026037449 -0.00390377309626)
(0.0118182964832 0.0142591565495 -0.00191426264524)
(0.0102633730843 0.0154387250029 -0.000380312023968)
(0.0080298718837 0.0163848482085 0.000649845767388)
(0.00535022540401 0.0170668448847 0.00123342588246)
(0.0024119836955 0.0174462965614 0.00149085542043)
(-0.00063671411764 0.0174914253983 0.0015299288174)
(-0.00365227040528 0.0171895317236 0.00134377724252)
(-0.00646265175568 0.0165523965803 0.000813604315042)
(-0.00884792236411 0.0156171054254 -0.00018003974093)
(-0.0105610729848 0.0144351491015 -0.00167582019474)
(-0.0113817975403 0.0130833994721 -0.0036171846556)
(-0.0111354434489 0.0116920156308 -0.00573308893719)
(-0.00975902749819 0.0104802375126 -0.00756648397066)
(-0.00716814798514 0.00967783323122 -0.00826167981437)
(-0.0034958509054 0.00960381505205 -0.0060941421698)
(0.00435707763962 0.0104028715223 -0.00571540308451)
(0.00879453666579 0.0101530220314 -0.00768956878406)
(0.0118635848581 0.0107922537127 -0.00642320681162)
(0.0134255760994 0.0118433356276 -0.00393286560251)
(0.0136639636002 0.0130458632488 -0.00116364054916)
(0.0127788868461 0.0142559882872 0.0013069180195)
(0.0110021170293 0.0153445122474 0.00316054387023)
(0.00855864092003 0.0162390803812 0.00437711634304)
(0.00567670135127 0.0168956251794 0.00506144963132)
(0.00253849702692 0.0172699721976 0.00536786702319)
(-0.000717143252236 0.0173264246274 0.00541909043786)
(-0.00395323810927 0.0170489067846 0.00520060992172)
(-0.0069962833344 0.0164462483836 0.00456537369786)
(-0.00961194722058 0.0155583295973 0.00336526618902)
(-0.0115446816962 0.0144539794747 0.00153808639538)
(-0.0125858089464 0.0132332055989 -0.000876301863696)
(-0.0125271376411 0.0120314952155 -0.00358466350905)
(-0.0111771824409 0.0109923779879 -0.00603495882865)
(-0.0083491775674 0.0103618915009 -0.00729334835208)
(-0.00417915900236 0.0106052248788 -0.00534171808049)
(0.00494871698315 0.0101908201507 -0.0050694493938)
(0.00992051997202 0.00985029788028 -0.00677431658739)
(0.0132482854385 0.0103129818994 -0.00498968584663)
(0.0147773583023 0.0111116475888 -0.00196411772732)
(0.014865990631 0.0120774216437 0.00129305247742)
(0.0138034483344 0.0131087367359 0.00412157807308)
(0.011826485153 0.0140626635166 0.00621216346857)
(0.00917517517888 0.0148652275364 0.00758278401932)
(0.00607396087669 0.0154709455422 0.00836048799021)
(0.00270006370308 0.0158297478236 0.00871764481792)
(-0.000807429396979 0.0158966841583 0.0087888464711)
(-0.00430604027893 0.0156531922233 0.0085497599179)
(-0.00761087760463 0.0151118390589 0.00782122354535)
(-0.0104675889864 0.014313948623 0.00643384106953)
(-0.0126063912587 0.0133318127164 0.00433383595967)
(-0.0138097929946 0.0122723286283 0.00155683208162)
(-0.01388078136 0.0112912895689 -0.00161965698485)
(-0.012555474645 0.0104963377508 -0.00458797698368)
(-0.00946798920335 0.0100375224561 -0.00635353347912)
(-0.00476129658718 0.0103706397768 -0.00466790436418)
(0.00538086791201 0.00908198929569 -0.00456240945704)
(0.010850551806 0.00865822566525 -0.0060288310647)
(0.0144312087597 0.00894007410313 -0.00385369282907)
(0.0159455597112 0.00948042955589 -0.000444582742963)
(0.0159401175867 0.010216145236 0.00314145606133)
(0.014746801504 0.0110375217262 0.0062109810863)
(0.0126143014334 0.0118229957968 0.0084689308969)
(0.00978551061116 0.0125024106391 0.00996994273568)
(0.00648272908686 0.0130414211648 0.0108474883451)
(0.00287711067609 0.0133814165184 0.0112701333943)
(-0.0008868320408 0.0134536106839 0.0113699567074)
(-0.0046462184429 0.0132363233602 0.0111121541435)
(-0.00819964554485 0.0127669735346 0.0102998774063)
(-0.0112772857307 0.0120954562444 0.0087540386283)
(-0.0135914756059 0.0112802209858 0.00643718918913)
(-0.0149205244497 0.0104204685721 0.00339215695311)
(-0.0150681385636 0.00965436947488 -0.00010839358743)
(-0.0137452739027 0.00910092313246 -0.00345161534333)
(-0.0104005785184 0.00881479982946 -0.00560094991306)
(-0.00519310405571 0.0092299693578 -0.00415283484088)
(0.00573132937411 0.00709945853333 -0.00417009951449)
(0.011591938993 0.00671077729615 -0.00548942740955)
(0.0153617695021 0.00685653303542 -0.00307424449136)