/*--------------------------------*- C++ -*----------------------------------*\
| =========                 |                                                 |
| \\      /  F ield         | OpenFOAM: The Open Source CFD Toolbox           |
|  \\    /   O peration     | Version:  3.0.1                                 |
|   \\  /    A nd           | Web:      www.OpenFOAM.org                      |
|    \\/     M anipulation  |                                                 |
\*---------------------------------------------------------------------------*/
FoamFile
{
    version     2.0;
    format      ascii;
    class       volScalarField;
    location    "1.4";
    object      alpha.air;
}
// * * * * * * * * * * * * * * * * * * * * * * * * * * * * * * * * * * * * * //

dimensions      [0 0 0 0 0 0 0];

internalField   nonuniform List<scalar> 
7968
(
7.42363531526e-27
1.86583469138e-25
3.79981424826e-25
4.54879278086e-25
5.55748133116e-25
4.00694992649e-25
1.36009964811e-25
5.17507959e-27
7.38535250666e-30
1.01756488219e-32
3.04957504454e-32
2.10546703093e-29
9.75762687607e-27
1.1822474519e-25
3.65752375507e-25
7.00808893927e-25
7.33258839252e-25
5.45826285335e-25
2.66320689168e-25
1.56212638241e-26
1.83249400369e-25
1.28807603237e-24
2.78184066719e-24
4.34552439448e-24
4.4941785996e-24
2.19115315309e-24
5.13670611594e-25
8.05062220121e-26
1.12379498385e-26
2.72370970947e-27
2.92950413649e-27
1.14939274324e-26
5.40713875487e-26
2.32431084536e-25
9.58657048109e-25
2.89446734291e-24
4.79175545213e-24
4.01920012818e-24
1.81185969553e-24
2.63157767117e-25
3.60995827684e-25
2.71128672165e-24
6.33018859326e-24
7.18707901898e-24
2.87595255119e-24
3.22642967522e-25
2.13648085278e-26
1.66610771346e-27
1.1040263163e-28
1.99490859523e-29
2.01962122075e-29
1.15783778216e-28
1.3059875104e-27
1.17226332805e-26
9.6863576086e-26
8.70088769718e-25
3.96207370631e-24
6.67104236583e-24
3.8423973343e-24
5.17676371981e-25
3.95087679103e-25
4.08720542209e-24
7.19733750499e-24
2.89700828288e-24
2.26397591226e-25
1.70376244098e-26
5.94304323834e-28
3.14242667854e-29
6.37231527029e-30
1.90040462244e-30
1.40904574822e-30
2.44406655089e-30
9.5567089716e-30
2.49585134047e-28
7.34282285178e-27
7.52921799273e-26
7.64165985298e-25
3.81761673398e-24
4.38670887193e-24
7.09860009652e-25
4.79269573288e-25
4.80193308413e-24
3.74100417783e-24
3.39205037585e-25
2.13572280847e-26
6.64132321471e-28
2.58906102755e-29
1.57337370855e-30
1.63604787075e-31
4.60705023957e-32
2.64371417559e-32
3.73814969807e-32
1.04735731177e-31
2.55733753731e-30
1.84108925714e-28
8.91540128646e-27
9.32792951909e-26
9.31312803342e-25
2.77447683086e-24
7.16220074994e-25
5.6869217459e-25
3.42193937019e-24
1.00866591943e-24
4.12283280177e-26
1.45776452336e-27
2.84546066841e-29
6.46506264076e-31
2.90865484804e-32
2.72995539579e-33
8.79379758991e-34
4.10122180646e-34
3.72807665296e-34
9.24461101927e-34
2.85872489795e-32
2.96325256288e-30
3.38884792358e-28
1.50340178306e-26
1.5787354593e-25
1.160723375e-24
4.71473396342e-25
3.41213742125e-25
1.5523268926e-24
1.40696372151e-25
3.70396294065e-27
5.06018131422e-29
7.75457471141e-31
1.07247874248e-32
3.59470263418e-34
2.46315104553e-34
9.7140968033e-35
9.84383406611e-35
6.71546662782e-35
5.75718099973e-36
2.54285745994e-34
3.67844179832e-32
5.70744632606e-30
9.47675707153e-28
2.94345759059e-26
3.70877875218e-25
1.60905410095e-25
9.96698499206e-26
4.46758113214e-25
1.49821603463e-26
1.2338569359e-28
1.86721659457e-30
2.33792909534e-32
2.28562672704e-34
7.12750468228e-34
1.46807888054e-34
7.42555662954e-34
4.26752824327e-34
2.1682650417e-36
7.72165784585e-36
2.38382847977e-36
4.85527158756e-34
9.5056164625e-32
1.89012984211e-29
3.81084965098e-27
8.57682632393e-26
2.67160970953e-26
8.78824400764e-27
8.74580236476e-26
1.3027734739e-27
9.38031939929e-30
1.07025316443e-31
1.13634140468e-33
1.84043632492e-34
2.18281595968e-34
4.27967685353e-36
8.65960154434e-36
4.74395465231e-36
9.68051154119e-38
2.69349615349e-36
5.81548846522e-38
1.54146620648e-35
4.07180199272e-33
1.02400441697e-30
2.76314500086e-28
1.4206313286e-26
1.69868608206e-27
2.37683732836e-28
2.05974749338e-26
1.49193517017e-28
1.527151812e-30
1.96104851801e-32
2.7640866573e-34
1.92991789276e-34
3.03973403956e-34
3.49419577632e-36
2.74850267298e-38
1.97468149287e-38
1.10553941245e-36
1.53129580492e-35
3.05147709211e-36
3.91665229897e-36
8.40152293392e-34
2.02454231752e-31
4.90506892115e-29
4.34008027399e-27
6.08149551106e-28
1.27699022044e-28
1.41126749549e-26
7.55423805079e-29
7.50020829153e-31
9.550299344e-33
1.1435426781e-34
1.20853399149e-34
3.82377297691e-34
3.79777154748e-36
1.83915345917e-38
8.70222881493e-40
1.05203593421e-37
7.29509332459e-36
5.08225679142e-37
4.19697689733e-36
1.0478918605e-33
2.71357838215e-31
7.05836279832e-29
5.81664092598e-27
7.70705967687e-28
1.04912108365e-27
3.22712793074e-26
2.68894396426e-28
1.86170770267e-30
1.89622975325e-32
1.83437759237e-34
3.20749720195e-35
1.49230485254e-36
8.17208534297e-38
3.33790868107e-36
7.22081483262e-38
4.36202531759e-39
1.72795035269e-38
8.09115509008e-38
2.46758771675e-35
7.54500324402e-33
2.16308307989e-30
6.6254589956e-28
2.60931659276e-26
3.3917939554e-27
4.42356944214e-26
1.21414930169e-25
2.29371539683e-27
1.06322586144e-29
7.89740192056e-32
5.96204101301e-34
3.46531678276e-36
4.82633354112e-36
3.19712944645e-36
2.77999653844e-34
5.44308239199e-36
6.80116866392e-38
1.24873078528e-37
2.08459387703e-36
5.96874549183e-34
1.56839749333e-31
3.93323270904e-29
6.7308232801e-27
1.17316585e-25
3.33395053786e-26
2.14414858818e-25
4.9314427209e-25
1.97304498186e-26
2.19157359538e-28
1.69039074896e-30
1.51830042568e-32
1.36246142929e-34
1.59542211779e-36
6.32115591072e-38
1.26427898807e-36
3.92084372451e-37
1.57836575917e-37
4.2798039713e-36
1.68063581457e-34
2.67961313748e-32
5.54656451691e-30
1.29507323145e-27
3.72215384015e-26
3.92049561047e-25
1.3266145081e-25
4.36601292643e-25
1.6242650133e-24
1.59266367466e-25
7.69885272195e-27
6.76439551917e-29
9.33917683745e-31
1.52733717704e-32
2.96369309517e-34
1.79679654041e-35
6.05279137825e-36
8.86685390523e-36
5.24083630246e-35
1.37138551161e-33
3.75352435455e-32
3.55571825401e-30
4.77880745025e-28
2.11068930057e-26
1.52387568811e-25
8.191900829e-25
2.25572096571e-25
5.83749507602e-25
3.31781460478e-24
1.24880878462e-24
7.87360743899e-26
6.39189439142e-27
1.01038664536e-28
2.27711220094e-30
6.0292701952e-32
4.7557297397e-33
1.53149380419e-33
2.54187976898e-33
1.6029697515e-32
3.73321357964e-31
9.2518239722e-30
6.17546330752e-28
1.40301222509e-26
1.0188040934e-25
7.18033400268e-25
1.75901419461e-24
3.36048493398e-25
4.59751055401e-25
3.72333263285e-24
4.19562640942e-24
9.63475117166e-25
9.34354224167e-26
1.24853658661e-26
3.74066588193e-28
1.29810703207e-29
1.16740716764e-30
3.67032811306e-31
6.65852930642e-31
4.582405628e-30
9.37076730935e-29
2.2587830597e-27
2.71699209843e-26
1.08485804749e-25
5.80362550846e-25
2.12905958861e-24
1.99791706002e-24
3.43855049437e-25
3.57136545161e-25
2.54879628946e-24
5.2045417693e-24
4.35687298159e-24
1.5471987549e-24
2.64586709308e-25
3.33074651849e-26
3.41842708254e-27
3.00645940748e-28
8.84139077336e-29
1.76754325238e-28
1.42144871026e-27
1.13175780055e-26
5.40034914479e-26
1.96692946572e-25
8.30860921e-25
2.20924325287e-24
2.92646469092e-24
1.74835065867e-24
3.20179351206e-25
1.76062873453e-25
1.17477717939e-24
2.53592953279e-24
3.79993050874e-24
3.6137352809e-24
1.88187378541e-24
5.29779818438e-25
9.54469899726e-26
1.80604309118e-26
7.68356056794e-27
1.15765271259e-26
4.55189733088e-26
1.83159407119e-25
5.49031300784e-25
1.07033212042e-24
1.97457296594e-24
2.18350971593e-24
1.72095972175e-24
9.75213243685e-25
1.83469538103e-25
9.67465123635e-27
1.74074849935e-25
3.48340773802e-25
4.68262361214e-25
6.20484142856e-25
4.94315857326e-25
1.81973573903e-25
3.04978921808e-26
1.7682874e-27
6.39801524571e-28
1.13267331832e-27
6.86510606799e-27
6.2630601631e-26
1.8889129228e-25
3.64537248115e-25
3.92838162584e-25
3.47568637189e-25
3.15416590671e-25
1.83065520824e-25
2.01001659093e-26
1.43701922167e-23
2.38407422932e-22
4.76128754008e-22
6.94858307027e-22
1.13933004029e-21
1.13536408843e-21
7.7153364526e-22
2.59939070053e-22
5.53253847297e-23
8.4759704251e-24
1.0475935753e-23
6.4854445079e-23
2.40134877055e-22
6.17538944515e-22
1.00162127058e-21
1.41064692692e-21
1.166032563e-21
7.50259902792e-22
3.74142155334e-22
3.45369648193e-23
2.33216209308e-22
1.0897268532e-21
2.19541031782e-21
3.679331266e-21
4.43671900294e-21
2.64704531336e-21
8.07544501256e-22
1.76996879836e-22
3.61617650571e-23
1.16688860355e-23
1.22937591897e-23
3.59454930166e-23
1.17244644964e-22
3.59358780474e-22
1.12628331401e-21
2.77981194849e-21
4.04716824568e-21
3.2637937008e-21
1.61948629178e-21
3.71755661785e-22
4.41724020675e-22
2.10639153465e-21
4.53129180489e-21
5.49032622896e-21
2.58019639281e-21
3.55024515135e-22
2.83655667178e-23
2.88702564438e-24
2.46436083631e-25
7.72961108591e-26
7.64864931362e-26
2.53202029663e-25
2.33732060124e-24
1.53879688613e-23
9.8419628348e-23
7.36392248588e-22
2.94536993584e-21
4.75283135204e-21
3.12580120657e-21
7.26317028362e-22
5.68211181899e-22
3.38481134908e-21
5.4506800488e-21
2.4561536627e-21
2.31682587138e-22
1.88547884095e-23
8.01980289665e-25
1.41326849434e-25
5.56452077391e-26
2.26840612237e-26
1.77035406304e-26
2.30174917548e-26
4.23332446784e-26
3.70594153629e-25
8.48559784313e-24
6.71300610094e-23
6.02005183935e-22
2.82799385409e-21
3.71497151765e-21
1.16647537025e-21
8.96277509043e-22
4.54924923201e-21
3.284855048e-21
3.49556492118e-22
2.25117168532e-23
1.37250932674e-24
2.13495955206e-25
4.41574540059e-26
6.53775529476e-27
2.50685600227e-27
8.8623996804e-28
8.91893220501e-28
1.58216132552e-27
1.05513235292e-26
3.13323548721e-25
1.02108981454e-23
8.22636590101e-23
7.8643699599e-22
2.67677868925e-21
1.43917817647e-21
1.45527403485e-21
3.68301093292e-21
1.09777082454e-21
4.49140185218e-23
2.25405382139e-24
2.11238302842e-25
1.34393600403e-26
1.42710244429e-27
3.36605993352e-28
1.7399088047e-28
6.14099426574e-29
2.21183182288e-29
2.569908978e-29
1.85467989174e-28
7.96983513065e-27
5.55907956289e-25
1.68893930436e-23
1.57926248936e-22
1.37873670098e-21
1.31086270532e-21
1.26218957345e-21
2.01032114643e-21
1.89805423414e-22
4.95726452639e-24
2.57399640045e-25
1.02124224021e-26
3.17921998833e-28
3.88386716011e-29
4.58635080226e-29
1.92187713697e-29
1.69762392313e-29
1.05476255837e-29
2.44798875059e-31
2.2299422507e-30
1.27102028792e-28
1.32897439807e-26
1.51718361754e-24
3.60931955099e-23
5.56930555627e-22
7.01030726706e-22
7.02726988742e-22
7.44668242665e-22
2.29807743586e-23
3.01134068183e-25
2.70508937924e-26
7.51871579394e-28
1.77557102742e-29
1.50377613661e-28
2.91768662623e-29
1.26403730286e-28
7.02533981465e-29
4.09311658197e-31
1.1220008825e-30
2.56668111593e-32
2.25879945974e-30
2.9847508946e-28
3.9117260418e-26
6.19235804934e-24
1.67568665263e-22
2.99533373553e-22
3.17372456884e-22
2.0018012638e-22
2.49331729408e-24
5.09804299027e-26
2.16815511521e-27
6.78648282084e-29
3.65402566144e-29
5.77041478011e-29
9.50628905432e-31
1.47327625975e-30
7.55059045957e-31
1.38582647824e-32
3.62638722192e-31
1.54872365309e-33
1.18453168461e-31
1.88409761755e-29
3.27046727988e-27
5.93139559241e-25
3.48288094734e-23
1.02093392454e-22
1.3945302219e-22
5.99738248825e-23
3.45855494725e-25
1.4104955314e-26
4.45926300074e-28
3.03577113165e-29
3.89699359446e-29
7.42098422008e-29
8.69665254373e-31
5.09393594387e-33
2.90279017861e-33
1.61078116074e-31
3.0697699332e-30
3.87346354008e-31
1.43226400026e-31
5.33111790657e-30
8.02645537621e-28
1.21855692893e-25
1.24384202175e-23
4.07760501922e-23
1.06564853203e-22
4.39975424239e-23
1.96110273154e-25
7.91347788051e-27
2.06784566844e-28
1.05878037561e-29
2.44806831116e-29
8.73196429764e-29
8.66462896023e-31
2.61055317736e-33
1.22851264009e-34
1.35950158958e-32
8.88393163753e-31
6.69572139956e-32
9.96656825523e-32
5.56856744986e-30
1.01503886781e-27
1.75140880506e-25
1.6536964929e-23
4.48430551624e-23
2.07575294248e-22
8.60015205885e-23
6.06369187034e-25
1.40107731654e-26
3.47244681471e-28
1.25921079696e-29
7.09937102741e-30
4.24731234135e-31
1.35830432338e-32
3.74344931513e-31
9.64804573076e-33
5.3912258896e-34
1.78235652712e-33
2.88121746478e-33
1.3114086318e-31
2.92110282819e-29
6.53619379743e-27
1.4168008366e-24
6.45204190521e-23
1.19600229253e-22
4.45491662549e-22
2.47890560833e-22
4.10576280833e-24
3.94201388737e-26
9.01640549019e-28
1.44941011061e-29
1.45858757906e-31
1.28498179407e-30
4.69742783164e-31
3.0571408816e-29
6.52526101524e-31
8.81379786753e-33
1.23997225538e-32
1.17770065163e-32
2.54581708049e-30
5.00200765302e-28
8.30862489937e-26
1.10608206739e-23
2.20841672365e-22
2.8485878642e-22
9.33187820946e-22
7.60257417652e-22
2.6439564574e-23
3.35200045841e-25
9.50742992976e-27
1.85474230681e-28
2.55250837201e-30
5.56910371087e-32
1.55551585793e-33
1.53041177419e-31
4.66731660183e-32
5.46517359555e-33
2.28338850999e-32
6.31106483061e-31
8.52762640945e-29
1.38217147986e-26
2.35388489049e-24
4.70756078793e-23
5.97871909763e-22
5.51830613646e-22
1.12654575251e-21
1.95995091996e-21
1.72760743242e-22
9.36365338592e-24
1.50932685781e-25
4.1746962604e-27
9.25880391915e-29
2.70158555198e-30
1.55082041036e-31
1.93223721439e-31
1.51071485939e-31
2.82424264739e-31
5.80367953419e-30
1.11067945029e-28
9.39574742313e-27
9.55704163921e-25
2.62480031219e-23
1.63417659849e-22
9.56225506027e-22
5.86795761016e-22
1.18742167695e-21
3.30414760736e-21
1.12432642186e-21
7.4278371657e-23
7.76951635986e-24
1.86210591262e-25
6.37899351267e-27
2.51108238834e-28
2.41001745582e-29
8.84423648468e-30
1.1905757891e-29
5.76627521443e-29
1.20577753615e-27
2.0967096074e-26
1.21623592452e-24
1.78234709563e-23
9.43808111618e-23
7.0075550196e-22
1.94471715961e-21
7.30946062562e-22
7.42293986655e-22
3.24533408848e-21
3.26268110595e-21
8.22140193952e-22
8.90520125056e-23
1.52507293058e-23
5.82949310096e-25
3.21213191365e-26
3.87539362376e-27
1.39958841303e-27
2.32280839457e-27
1.28740526427e-26
2.02696232352e-25
3.92644001324e-24
3.25999423313e-23
1.00163525536e-22
5.27338688855e-22
1.83425033837e-21
1.94930555339e-21
6.36458125788e-22
5.02217935763e-22
2.11014701633e-21
3.85179318074e-21
3.41047239191e-21
1.41549241266e-21
2.93541132915e-22
4.37118012133e-23
5.77528947457e-24
6.56832087209e-25
2.16610570218e-25
4.20123025396e-25
2.84001731176e-24
1.73277744505e-23
6.60073969233e-23
2.09856578793e-22
8.00636994389e-22
1.8825975357e-21
2.4773471115e-21
1.70195684785e-21
5.33383850783e-22
2.45689501698e-22
1.08121991566e-21
2.11205771709e-21
3.36485497949e-21
3.60779320837e-21
2.24692269532e-21
8.01041977988e-22
1.89272087125e-22
4.47333565947e-23
2.16613206059e-23
3.11029668793e-23
1.0405942686e-22
3.2189832303e-22
7.94015377547e-22
1.22160622728e-21
2.13575724994e-21
2.15151473334e-21
1.65624979311e-21
1.07333222384e-21
3.26731822238e-22
2.19537903459e-23
2.44733471298e-22
5.02944786236e-22
7.82615497472e-22
1.27413134621e-21
1.36720191547e-21
7.91795310278e-22
3.33330811135e-22
1.17520386933e-22
5.44713974281e-23
7.78415509889e-23
1.81565451165e-22
4.06057859843e-22
6.86647750841e-22
9.69273547545e-22
8.41093168049e-22
6.3606754134e-22
5.24642512122e-22
3.2703059109e-22
5.37784231598e-23
1.00427822305e-20
1.1011348306e-19
2.1873061887e-19
3.70497699792e-19
7.24911844931e-19
8.1705500464e-19
8.27676463864e-19
4.68415904897e-19
2.38227281074e-19
1.42844421183e-19
1.39005639308e-19
2.37300584557e-19
4.07061892044e-19
6.52257804044e-19
7.17467273341e-19
8.84630135663e-19
6.3968439964e-19
3.89987026299e-19
2.09264822896e-19
2.9538238242e-20
1.06924789617e-19
3.87127100373e-19
7.62035345875e-19
1.32958808664e-18
1.83863685746e-18
1.3243733639e-18
5.22184678727e-19
1.59535032341e-19
4.81428027484e-20
2.11548171962e-20
2.16574309634e-20
4.62359473464e-20
1.04459236046e-19
2.30487163375e-19
5.54559014405e-19
1.130691638e-18
1.47082153883e-18
1.16566590555e-18
6.31496652479e-19
2.09032381522e-19
1.9623933632e-19
7.17542381582e-19
1.48128906245e-18
1.90091865678e-18
1.06355947444e-18
1.84070440955e-19
1.84214792812e-20
2.7364695215e-21
4.37797953408e-22
2.08340184622e-22
2.01280691645e-22
4.11562383244e-22
2.21068722059e-21
9.65917900888e-21
4.66831929042e-20
2.89631224184e-19
1.00943192299e-18
1.54322249934e-18
1.12232766644e-18
3.86669460353e-19
2.89432621328e-19
1.21204775229e-18
1.88234092927e-18
9.70553409089e-19
1.15226836792e-19
1.0361354827e-20
7.65721163644e-22
3.78343529688e-22
2.68332451142e-22
1.50026478658e-22
1.25036388497e-22
1.39956912878e-22
1.40078291193e-22
2.96251127671e-22
4.8014981769e-21
2.82696268354e-20
2.25675544812e-19
9.66418076485e-19
1.3623929898e-18
6.61142737888e-19
5.36331770776e-19
1.8171232088e-18
1.32375388541e-18
1.73656078379e-19
1.16672607899e-20
1.86122260814e-21
1.20452367909e-21
9.64345222772e-22
4.3415432667e-22
2.88625108011e-22
1.13978244186e-22
1.10049948386e-22
9.84917141411e-23
1.10869937232e-22
3.66234200056e-22
5.70804765816e-21
3.43950349885e-20
3.13040416696e-19
1.10768808866e-18
8.91771100045e-19
1.04433465901e-18
1.58874914442e-18
5.54562267641e-19
2.43991469701e-20
2.56794422861e-21
1.64493884592e-21
3.62472490568e-21
5.92739507155e-21
5.06111137548e-21
3.29762112477e-21
2.15766712905e-21
1.15771075732e-21
3.56009912579e-22
1.5004939249e-22
6.47960456857e-23
4.69683174197e-22
9.16549831325e-21
7.49893859055e-20
6.98029794219e-19
9.89189256917e-19
1.08131844948e-18
1.01611874874e-18
1.23342115876e-19
3.5038981642e-21
1.21729562274e-21
2.75988611549e-21
6.25246251687e-21
1.97004893145e-20
3.32647713392e-20
2.40589752347e-20
2.06648597482e-20
1.66777836751e-20
3.37597255873e-21
1.04029902965e-21
1.09562181273e-22
4.00346157678e-23
1.2782228158e-21
2.10226719131e-20
3.52167365297e-19
6.5345948735e-19
7.97577769698e-19
4.84241048296e-19
1.78825523905e-20
5.00794895428e-22
7.48475582057e-22
5.43667842396e-21
1.61138251869e-20
8.49566658478e-20
6.32638165663e-20
9.71537884354e-20
6.86282005976e-20
2.96610557714e-20
1.58189779601e-20
1.2201144779e-21
9.76555205233e-23
5.05041902823e-24
6.19764740096e-23
4.99540622484e-21
1.37890432216e-19
3.96000353542e-19
5.31291816944e-19
1.85474504693e-19
2.62410064013e-21
2.2808922356e-22
2.00937572245e-22
2.92031729623e-21
2.71279815448e-20
5.32028958269e-20
1.66020613442e-21
1.32838886111e-21
1.0854411209e-21
7.2045709874e-22
9.82439490745e-21
1.26475413469e-21
1.4012133493e-22
3.10899946341e-25
1.01092477541e-23
6.70789982697e-22
3.61205757934e-20
2.24303567622e-19
3.47137626287e-19
7.23851133657e-20
5.41436290337e-22
1.04188731484e-22
7.53973063384e-23
2.20787411642e-21
2.6525815658e-20
7.77629341748e-20
9.51990640707e-22
5.40301897553e-24
1.39047535332e-23
1.1263503334e-21
4.5419280208e-20
6.28591247453e-21
1.93188833604e-22
2.4234861533e-25
4.3188644509e-24
1.75653770796e-22
1.51878890358e-20
1.41638059035e-19
2.89427920974e-19
5.69519455897e-20
3.6516389739e-22
6.67123119804e-23
2.72858160728e-23
1.29406893762e-21
2.53723318756e-20
6.99105934183e-20
7.31494188119e-22
6.65469775157e-24
1.20719442827e-23
8.74078288867e-22
3.43441574074e-20
4.82440819004e-21
1.02148070626e-22
2.23709803264e-25
3.75528422812e-24
2.39242107817e-22
2.00854857607e-20
1.41280266278e-19
4.1818784979e-19
9.45904880396e-20
7.8726969057e-22
9.42418175256e-23
5.71513361799e-23
1.55263915983e-21
2.33705275342e-20
2.33200197932e-20
3.46631182009e-22
7.02607077038e-22
5.43970229328e-22
8.21001827704e-23
1.46474779659e-21
2.35020734537e-21
4.70668164036e-23
2.81178886215e-25
1.32664005298e-23
1.57170913851e-21
6.76107240342e-20
2.25134887645e-19
5.98269591349e-19
2.09122146117e-19
3.80884765181e-21
1.23483332178e-22
7.31166587832e-23
6.352192894e-22
4.94315473418e-21
2.42974377424e-20
8.62225965901e-21
3.38766185683e-20
2.96682734436e-20
2.80537512956e-21
7.19911822203e-21
4.08983788137e-21
3.73983858586e-23
2.47339603064e-24
1.14989538551e-22
8.81585302359e-21
1.71583555118e-19
3.45650955147e-19
9.0109883721e-19
4.87391797501e-19
1.70579144242e-20
3.30063440761e-22
1.40421314837e-22
5.12423219844e-22
3.24344297331e-21
5.30457745234e-21
8.79794121579e-22
5.91259060907e-21
3.7441638668e-21
2.80034655264e-21
2.52196555689e-21
9.80599672701e-22
8.02359796523e-24
2.46094606165e-23
2.17370846451e-21
2.80078661157e-20
3.79892869763e-19
5.154463479e-19
7.8186026626e-19
9.88765028619e-19
8.86115474516e-20
5.67169486663e-21
3.14651910899e-22
1.43980556792e-22
3.00022478384e-22
5.67359301788e-22
3.18822404496e-23
1.17643359501e-22
5.91576724705e-23
4.76883662876e-23
4.01043342797e-23
8.94590316018e-24
1.93373766901e-23
9.93425073494e-22
1.55866818433e-20
8.29491193936e-20
4.47498429459e-19
4.09072053998e-19
7.65711773474e-19
1.39398262326e-18
4.71626093359e-19
3.3471657503e-20
4.70689577914e-21
4.38861487205e-22
5.80487427286e-23
1.20099456721e-23
6.60287057999e-25
4.91073436172e-25
3.31776850822e-25
4.61542601727e-25
3.75373842978e-24
3.03286250531e-23
1.23394784683e-21
1.08488608329e-20
4.10884381559e-20
3.26815980812e-19
9.24213506237e-19
4.95187844434e-19
4.26877399491e-19
1.22874129897e-18
1.16633378391e-18
3.33865908235e-19
4.0876748804e-20
9.20773541224e-21
4.83831638566e-22
7.15998636006e-23
1.35026406304e-23
6.28842850555e-24
6.73879044106e-24
2.23173696199e-23
2.46131356162e-22
3.40981372639e-21
1.85453662729e-20
4.3617736382e-20
2.34585431061e-19
7.36439580366e-19
8.29253618717e-19
4.02852242254e-19
2.79486820392e-19
7.85460855363e-19
1.31166836524e-18
1.22888609525e-18
6.03759334685e-19
1.54927029398e-19
2.77059000372e-20
4.93783408586e-21
7.76572489607e-22
3.0336135037e-22
5.4568665583e-22
2.89308249743e-21
1.27498411046e-20
3.80253324382e-20
1.05976097792e-19
3.65300249675e-19
7.44611496495e-19
9.77349009283e-19
7.34677492449e-19
3.24746921664e-19
1.36428714025e-19
4.51638820198e-19
7.89893843061e-19
1.30078848386e-18
1.51833542257e-18
1.11105934018e-18
5.04654787977e-19
1.57893649097e-19
4.69853455362e-20
2.60918853116e-20
3.54888418841e-20
9.9730145719e-20
2.3223614315e-19
4.76707317498e-19
5.58346231749e-19
9.9134751342e-19
9.31003302168e-19
7.03760798457e-19
5.14369739435e-19
2.19687621024e-19
1.92001891075e-20
1.36977950837e-19
2.87492333248e-19
4.61867876492e-19
8.12739102689e-19
1.02466476397e-18
7.35824345778e-19
4.42298893904e-19
2.42530886402e-19
1.5115122004e-19
1.89448273203e-19
2.90755633041e-19
4.48738229599e-19
5.96579402685e-19
7.28983011874e-19
5.70773184534e-19
4.01170490618e-19
3.19946282418e-19
2.2070186152e-19
5.01743085276e-20
3.64748767884e-18
2.63917676219e-17
5.42001617773e-17
9.84378955844e-17
2.07185263497e-16
2.23752580253e-16
3.08260084228e-16
2.29217975954e-16
1.63722741051e-16
1.2839945596e-16
1.2181277605e-16
1.57839750048e-16
1.95713861138e-16
2.43255564319e-16
1.97829107985e-16
2.46563921583e-16
1.68395034983e-16
1.06405069157e-16
6.53057614791e-17
1.32968412965e-17
2.54021242417e-17
7.66521427245e-17
1.51061621313e-16
2.51822038723e-16
3.87596098824e-16
3.29395514502e-16
1.63565032394e-16
6.68487556269e-17
2.80437289726e-17
1.57235140825e-17
1.57675234899e-17
2.63358063198e-17
4.39635540694e-17
7.3417125606e-17
1.40618263601e-16
2.40765672918e-16
2.83524720379e-16
2.28645530218e-16
1.3741407533e-16
6.56136153066e-17
4.66701410262e-17
1.3933118487e-16
2.72423008059e-16
3.54082494574e-16
2.39485510544e-16
5.25814727988e-17
6.66053480576e-18
1.53476620834e-18
4.63264364336e-19
2.97578227109e-19
2.89775458294e-19
4.40161028427e-19
1.22198918381e-18
3.3451463333e-18
1.24402260718e-17
6.49413884668e-17
1.95385513805e-16
2.76869868151e-16
2.22208435827e-16
1.08522110445e-16
7.77931891239e-17
2.33638756123e-16
3.54240383568e-16
2.13456401796e-16
3.2995813114e-17
3.39602057994e-18
5.80706983527e-19
6.12875324285e-19
7.97804266835e-19
6.22798664759e-19
5.68367182193e-19
5.82704039221e-19
3.48042037846e-19
2.78518139246e-19
1.63979775493e-18
6.88709702964e-18
5.01066365852e-17
1.84685751623e-16
2.65961048988e-16
1.79840189862e-16
1.48189052812e-16
3.71736752488e-16
2.91198966335e-16
4.90531109651e-17
3.64351447908e-18
1.64372571471e-18
4.37235221921e-18
9.04433297075e-18
9.70729378469e-18
1.09810854149e-17
6.93350871651e-18
6.84134718144e-18
4.48965402839e-18
1.88987159151e-18
8.55026070297e-19
1.95662823183e-18
8.3974629656e-18
7.24072922387e-17
2.42882926469e-16
2.42566984216e-16
3.11785325949e-16
3.20273566718e-16
1.51244466236e-16
7.93021075597e-18
1.83611209423e-18
7.2129785702e-18
2.44514593598e-17
3.68652486707e-17
4.1464544538e-17
4.06990102348e-17
3.47082175144e-17
2.34590363194e-17
1.37362438847e-17
1.14761363576e-17
3.22403337263e-18
9.13026409895e-19
2.94470352806e-18
2.04824025959e-17
1.83390805433e-16
3.03466300674e-16
3.45710661817e-16
2.25386696993e-16
4.37447010817e-17
1.65138003129e-18
3.9330465512e-18
2.13544824528e-17
2.72612674337e-17
5.03148996841e-17
8.09810765638e-17
7.68751658127e-17
7.32645928905e-17
5.99904303891e-17
2.27501161891e-17
1.56209801509e-17
1.13589899164e-17
2.10411309587e-18
7.16934421983e-19
6.86149951153e-18
1.12363544169e-16
2.1822361869e-16
2.96516279942e-16
1.36413471495e-16
7.85073687941e-18
6.33209869084e-19
8.6338275386e-18
3.67728681734e-17
4.4947468241e-17
1.21440054839e-16
1.07194866563e-16
1.75300916384e-16
1.4117427995e-16
7.96929242469e-17
5.27645737234e-17
1.95004480517e-17
1.2055471701e-17
3.37303808618e-18
1.78130538307e-19
2.3128758505e-18
5.59911105692e-17
1.57280016425e-16
2.4281960008e-16
7.75146675376e-17
1.60684456255e-18
7.42415789089e-19
8.71356749481e-18
3.19929077998e-17
7.28303450741e-17
9.29575937932e-17
5.77958470523e-18
5.46080111806e-18
8.28650419868e-18
4.98507563964e-18
4.21813270567e-17
2.06859512304e-17
1.64525941574e-17
2.33758695769e-18
1.11798356156e-19
4.588258335e-19
1.81967639984e-17
1.18177030259e-16
1.94308948019e-16
3.93499228133e-17
5.36545495291e-19
5.62266814912e-19
7.07179340771e-18
3.45958633381e-17
8.51089764846e-17
1.33834462417e-16
5.30976899915e-18
6.12019675536e-20
3.30324026494e-19
1.01943381984e-17
1.42191737144e-16
5.52685218046e-17
2.43985565083e-17
2.57024019169e-18
1.00625580623e-19
1.90981526998e-19
8.86391563181e-18
9.11005497107e-17
1.66986427031e-16
3.30092984111e-17
3.98660309642e-19
4.05882636445e-19
5.46320774462e-18
2.94752595364e-17
9.10017848809e-17
1.37681142133e-16
7.1625177117e-18
1.3968399539e-19
3.51819316574e-19
9.20843990446e-18
1.26175001433e-16
4.69686105094e-17
2.04562885026e-17
2.64891470866e-18
8.04924001101e-20
2.49080936187e-19
1.17295215198e-17
8.72374222654e-17
2.12161532625e-16
4.75774509395e-17
6.58174287856e-19
5.06803284012e-19
6.42738136141e-18
2.96066560151e-17
8.22067059757e-17
6.62971535066e-17
2.68060756842e-18
5.71966167717e-18
5.00622746376e-18
1.70138991862e-18
1.8547758995e-17
2.51585320674e-17
1.09325444398e-17
1.94741607748e-18
1.51147197818e-19
1.03368585766e-18
3.43772502142e-17
1.0789298768e-16
2.49349026909e-16
8.37943820615e-17
2.02040193233e-18
3.15669928554e-19
5.28221382382e-18
1.98417575406e-17
3.27743194487e-17
7.179465535e-17
3.65097507653e-17
1.0628593787e-16
1.09802802861e-16
2.15328086384e-17
4.31848114897e-17
3.71521701853e-17
1.29230696309e-17
2.36658858288e-18
2.11164443303e-19
3.94684246813e-18
6.44016603943e-17
1.29778255125e-16
3.18281779406e-16
1.54192572442e-16
6.09078480075e-18
3.77301871987e-19
2.25002248286e-18
2.09934797589e-17
3.11839476648e-17
3.67505757133e-17
2.08976713484e-17
5.44010968833e-17
4.04870490543e-17
2.85236094514e-17
2.91692235083e-17
2.39977466412e-17
9.90436097656e-18
1.62525618445e-18
1.25629599103e-18
9.30013033317e-18
1.20734804996e-16
1.75441628976e-16
2.13562031715e-16
2.5113764854e-16
2.55123416364e-17
2.0968397311e-18
6.52021137104e-19
5.20443789739e-18
1.58669961756e-17
2.29895851607e-17
1.39045107391e-17
2.58965064323e-17
2.1209912113e-17
1.35342406763e-17
1.6816105997e-17
1.01450639938e-17
3.19109155151e-18
6.88418505436e-19
5.42142605642e-18
2.40938714657e-17
9.7895158614e-17
1.11704532713e-16
2.20780801609e-16
3.02165662532e-16
1.11636759234e-16
8.74559867892e-18
1.79660516077e-18
1.27485936473e-18
2.26373422989e-18
3.82498624489e-18
3.4222203277e-18
2.61568715119e-18
2.96228278912e-18
1.98966548253e-18
2.48472657867e-18
1.3213542303e-18
7.95155424287e-19
3.91997205285e-18
1.03876366861e-17
8.89975061018e-17
2.28717526178e-16
1.47945064499e-16
1.22098917547e-16
2.50065782313e-16
2.30293348777e-16
7.8918108829e-17
1.10018418996e-17
3.34811412114e-18
3.96708514922e-19
2.56851915417e-19
1.55774438652e-19
1.16564604619e-19
9.81783988083e-20
1.17288142639e-19
4.336562992e-19
1.78427551095e-18
6.09291434257e-18
1.10871562803e-17
6.32547767652e-17
1.64251675041e-16
1.86312162235e-16
1.18274970862e-16
8.63064749795e-17
1.67239502303e-16
2.50713416724e-16
2.43957484407e-16
1.43607114022e-16
4.59844261429e-17
9.88420502241e-18
2.4282654086e-18
5.65523800641e-19
3.23424372804e-19
4.65210900537e-19
1.69940249673e-18
5.21608265189e-18
1.22436673556e-17
3.05042560597e-17
9.52335181502e-17
1.62706420234e-16
2.15274898379e-16
1.68423858776e-16
9.5906906624e-17
4.23742720795e-17
1.12852320597e-16
1.66082054992e-16
2.70845394575e-16
3.25707206599e-16
2.69496279343e-16
1.5755770459e-16
6.42644086077e-17
2.37542917884e-17
1.50051417517e-17
1.9381929319e-17
4.60646186884e-17
8.07526145984e-17
1.4288693671e-16
1.18604018795e-16
2.39196513624e-16
2.15416693948e-16
1.57882409082e-16
1.30674796587e-16
7.5390204799e-17
8.77321019382e-18
4.28311546085e-17
9.06571109127e-17
1.34071317985e-16
2.2755865941e-16
3.09413620614e-16
2.43559218727e-16
1.78550463831e-16
1.24929007226e-16
8.77639644456e-17
1.04786424347e-16
1.3029538769e-16
1.61749517701e-16
1.97519415881e-16
2.28643409537e-16
1.7441884112e-16
1.19179559952e-16
9.49603407131e-17
7.60455487582e-17
2.25124922869e-17
7.89254289677e-16
3.88275872623e-15
8.44454865937e-15
1.33599987321e-14
2.88274262466e-14
2.44063332837e-14
4.39865225453e-14
3.62305576422e-14
3.01785778328e-14
2.61990301985e-14
2.49763294353e-14
2.83122546601e-14
3.10092445138e-14
3.40996097434e-14
2.15979342605e-14
3.27429591477e-14
2.27197492302e-14
1.63242336521e-14
1.21306081315e-14
3.32757631014e-15
3.71191833805e-15
9.659097372e-15
1.8940474936e-14
2.4764390964e-14
4.05959584806e-14
4.03455102499e-14
2.43624213838e-14
1.24504224208e-14
6.67868783422e-15
4.42689497195e-15