/*--------------------------------*- C++ -*----------------------------------*\
| =========                 |                                                 |
| \\      /  F ield         | OpenFOAM: The Open Source CFD Toolbox           |
|  \\    /   O peration     | Version:  3.0.1                                 |
|   \\  /    A nd           | Web:      www.OpenFOAM.org                      |
|    \\/     M anipulation  |                                                 |
\*---------------------------------------------------------------------------*/
FoamFile
{
    version     2.0;
    format      ascii;
    class       surfaceVectorField;
    location    "1.4";
    object      ddt0(Uf);
}
// * * * * * * * * * * * * * * * * * * * * * * * * * * * * * * * * * * * * * //

dimensions      [0 1 -2 0 0 0 0];

internalField   nonuniform List<vector> 
22672
(
(-9.91677094871e-05 -0.000107255896801 0.000146659603913)
(-7.00012897362e-05 -0.000171953033923 0.000146498449512)
(-3.03455817294e-05 -6.77342397013e-05 0.000275160661707)
(-0.000127742278635 -0.000144851343502 0.000136541067818)
(-0.000152694630017 -0.000216621172377 7.65279725358e-05)
(-0.000111108404069 -9.06975822719e-05 0.000250314358648)
(-9.0951192082e-05 -0.000156853277624 0.000116075514043)
(-9.16504205926e-05 -0.0002247936886 2.95867156916e-05)
(-9.48222730171e-05 -9.2771606885e-05 0.00019508197852)
(-2.92548266817e-06 -0.000151657162802 9.20633388596e-05)
(4.11594601609e-06 -0.000210613896279 -1.41966163363e-06)
(-3.20855505226e-05 -8.07481530442e-05 0.000132225283686)
(0.000118518201251 -0.000134404704261 6.65566318656e-05)
(0.000131695166367 -0.000178475146094 -2.50669293303e-05)
(7.20785367949e-05 -6.0861421276e-05 6.95861011684e-05)
(0.000260175673325 -0.000112411636239 4.14631471685e-05)
(0.000269991090444 -0.000139074585355 -4.20934475838e-05)
(0.000200844888797 -3.96606538382e-05 1.3105892703e-05)
(0.000412884762126 -9.17017857082e-05 1.95886075116e-05)
(0.000410507946928 -0.00010288589349 -5.42475961254e-05)
(0.000344549174949 -2.16034196869e-05 -3.0959706226e-05)
(0.000559284985358 -7.51664058741e-05 6.86340064602e-06)
(0.000544719890221 -7.55464769293e-05 -6.05119526232e-05)
(0.000495036946005 -9.01620318718e-06 -4.90579233458e-05)
(0.000723289435638 -6.62276776123e-05 4.0217112724e-06)
(0.000675577098138 -5.44573880363e-05 -5.87202970001e-05)
(0.000649790057702 -3.18794369407e-06 -8.54482457309e-05)
(0.000873792220685 -6.73416749072e-05 1.00030969525e-05)
(0.000802632447234 -5.10715910633e-05 -5.34804334573e-05)
(0.000803254475356 -4.85250256547e-06 -7.40727129392e-05)
(0.00101431490094 -7.73138077848e-05 2.77548701707e-05)
(0.000921293316402 -6.26367942047e-05 -4.06673613088e-05)
(0.000950344014205 -1.10861336067e-05 -5.26439378785e-05)
(0.00113459040121 -9.53076133199e-05 5.71542211855e-05)
(0.00102669760246 -8.65146545002e-05 -2.06977091411e-05)
(0.00108288714151 -2.3194252891e-05 -1.01567819542e-05)
(0.0012139778697 -0.000119424699105 9.65177386941e-05)
(0.00110760454767 -0.000122923158209 6.25614312632e-06)
(0.00118651163017 -4.07597880185e-05 6.40859927554e-05)
(0.00125318009766 -0.000146578234203 0.000143529114609)
(0.00115707685186 -0.000164285969741 4.00749397347e-05)
(0.00125063820066 -6.21288728214e-05 0.000141513630379)
(0.0012354254507 -0.00017279256574 0.000193373357053)
(0.00116582119686 -0.000209229182481 7.98066837554e-05)
(0.00126231048732 -8.60065976333e-05 0.000238729292442)
(0.00115059775098 -0.000192536018559 0.000241418180494)
(0.00112371771404 -0.000252306181326 0.000121837061047)
(0.00120925123561 -0.000109462993279 0.000344122238386)
(0.000988962137437 -0.00019955059016 0.000284301770728)
(0.00102190272726 -0.000285440021722 0.000166028828531)
(0.00108136066027 -0.000129442563776 0.000449566252704)
(0.000742634100983 -0.0001889077892 0.00031964773419)
(0.00084818902852 -0.000301163386629 0.000212018693394)
(0.000870256659307 -0.000141047312088 0.000545799103481)
(0.000408558399293 -0.000150257077961 0.000339678892168)
(0.000622230521074 -0.000296472256695 0.0002698034483)
(0.000590920410537 -0.000138157710164 0.000624918429925)
(0.000229253529779 -0.000256818962586 0.000341585864279)
(0.000191795632559 -0.000110871458536 0.000659831567885)
(-0.000143076831794 -0.000262745874709 7.63668181346e-05)
(-0.000106737456641 -0.00027080669129 0.000133273042633)
(-4.67432626355e-05 -0.000222591263673 0.000247116193419)
(-0.000136235549642 -0.000293925484878 -3.04263795901e-05)
(-0.000179286040687 -0.000288689304593 -3.53673304578e-05)
(-0.000117388604411 -0.000242249142948 7.22115518022e-05)
(-4.50290720187e-05 -0.000281816118118 -8.79084599849e-05)
(-5.55151124891e-05 -0.000264310521839 -0.000120466828147)
(-5.21793223415e-05 -0.000220644955555 -4.1996608859e-05)
(8.4397206909e-05 -0.000240523572745 -0.000118549929824)
(8.2052407004e-05 -0.000207244198499 -0.000155577130933)
(4.24845660589e-05 -0.000170558785284 -0.00011955736818)
(0.00022809663288 -0.000183362456669 -0.00013371700878)
(0.000233726506039 -0.000129870920048 -0.000168135284898)
(0.00016530315823 -0.000106704924519 -0.000174859558936)
(0.000371311281902 -0.000126007642759 -0.000137804190878)
(0.000376633320892 -5.1130181549e-05 -0.000165317235178)
(0.000299336351154 -4.45029867895e-05 -0.000209044934335)
(0.000506995065173 -7.96974073073e-05 -0.00013434815626)
(0.000504113934915 1.34412509858e-05 -0.000154310133032)
(0.000434559592515 4.32866601854e-06 -0.000225070391593)
(0.000631825937723 -4.83020028855e-05 -0.000126095650269)
(0.000614442349497 5.69430788026e-05 -0.000139152211701)
(0.000564533189433 3.52347066002e-05 -0.000225863833872)
(0.000751913740756 -3.40560713776e-05 -0.00011622244173)
(0.000714214283451 7.62853391756e-05 -0.000124426604374)
(0.000689084854977 4.68875199167e-05 -0.000215747039502)
(0.000859858099672 -4.29921662441e-05 -0.000104150891719)
(0.000801453740902 7.80691184193e-05 -0.000115858265884)
(0.000809359107569 4.0888031842e-05 -0.000199830074733)
(0.000963581890639 -7.08291365689e-05 -8.91199406206e-05)
(0.000884095641651 4.37586499002e-05 -9.80414332247e-05)
(0.000923301810267 2.2166255712e-05 -0.000172566385275)
(0.00104823908828 -0.000112424106108 -7.15957872002e-05)
(0.000960527358253 4.24640239556e-06 -8.67852783931e-05)
(0.00102391026588 -9.1190587565e-06 -0.000139609768784)
(0.00110710899326 -0.000168011893976 -5.01866558331e-05)
(0.00101565043391 -5.36974739508e-05 -7.41193097276e-05)
(0.00110255678622 -5.28638917332e-05 -9.5957038924e-05)
(0.00113502046427 -0.000232480660385 -2.36474911193e-05)
(0.00104881503539 -0.000126626107411 -5.85740483463e-05)
(0.00115112014951 -0.000108661915961 -3.86586913173e-05)
(0.00112240222654 -0.000299892954348 8.2703877491e-06)
(0.00105268178041 -0.000209105969441 -3.86904380012e-05)
(0.0011586906167 -0.0001732459695 3.31544108964e-05)
(0.00106070572728 -0.000360816805258 4.64477090832e-05)
(0.0010202480018 -0.00029481242215 -1.37864066612e-05)
(0.00111353104257 -0.000241850750332 0.000118130963308)
(0.000938963982085 -0.00040357155476 9.37457511958e-05)
(0.000943504380066 -0.000371457207884 1.99877680664e-05)
(0.00100476323041 -0.000305934201592 0.000214957832502)
(0.000743385892163 -0.000418287252976 0.000162174407504)
(0.000809311145309 -0.00042711359784 6.86889460198e-05)
(0.000823789737244 -0.00035479804453 0.000322342552408)
(0.000443090422008 -0.000390660464643 0.000271710420412)
(0.000645067513123 -0.000453834050198 0.00016077681866)
(0.000596424899564 -0.000377998017737 0.000453013850585)
(0.000265939692109 -0.000443375557273 0.000323037404632)
(0.00021012225132 -0.000358665412391 0.000624649563949)
(-0.000150697138266 -0.000272242137225 2.15388940409e-05)
(-0.00012017679336 -0.000289270239356 0.000105007471424)
(-4.68133117059e-05 -0.000278326490794 0.00017652609473)
(-0.000108471210214 -0.000245287763577 -0.000125407779014)
(-0.000167115968104 -0.000259318400849 -0.000105700436911)
(-9.03888216907e-05 -0.000251526944268 -6.16312761099e-05)
(2.38931663339e-05 -0.000182221688204 -0.000188135499095)
(1.09858940519e-05 -0.000196760483962 -0.000197371177144)
(1.86769936203e-05 -0.000187686016474 -0.000186127564313)
(0.000179509763307 -9.31132389488e-05 -0.000205162486008)
(0.000181136049203 -0.000101493712486 -0.000214750736858)
(0.000136272495398 -9.38881564989e-05 -0.000242367534574)
(0.000329773685262 3.2401671984e-06 -0.000199735511296)
(0.000343780284421 8.63485656094e-06 -0.000201612508009)
(0.000264951916186 1.08133532248e-05 -0.000263329975316)
(0.000462097127774 8.71468706939e-05 -0.000181823177332)
(0.000477172646815 0.000109858470076 -0.000172950507007)
(0.000389263852457 0.000105134317606 -0.000260545811318)
(0.000574817905466 0.000147076350611 -0.000159114188473)
(0.000581246219116 0.000184733082693 -0.000140723683711)
(0.000503656276541 0.000173714033708 -0.000243601267195)
(0.000671386927437 0.000178661037746 -0.000137483165806)
(0.000660659107292 0.000228934115249 -0.000111883056386)
(0.00060717861778 0.000212553245106 -0.000220966791155)
(0.000765140646804 0.00018241355833 -0.000124062428528)
(0.000727890438166 0.00023947333589 -9.00092515097e-05)
(0.000704285038425 0.000221711941588 -0.000203499210554)
(0.00082734847877 0.00016235261878 -0.00010974880739)
(0.00078522257343 0.000217955718971 -7.99961589475e-05)
(0.00079797270426 0.000207524073644 -0.000144901184015)
(0.000914933167838 0.000121938967481 -9.57067709972e-05)
(0.000841127317538 0.000191689535687 -6.53718332815e-05)
(0.000887321715042 0.000175667044297 -0.000177180500075)
(0.000972897488638 6.33131032776e-05 -8.93088009205e-05)
(0.000893653094428 0.000135143887073 -6.1757543501e-05)
(0.000966247126326 0.000128366534278 -0.0001321878552)
(0.00101259787771 -1.207220675e-05 -8.25067022408e-05)
(0.000927824136278 6.33983981621e-05 -6.07930082564e-05)
(0.00102525206235 6.55438705004e-05 -0.000104488819383)
(0.00102876482871 -0.00010158942522 -7.36169952281e-05)
(0.000944549489849 -2.50452105171e-05 -6.02471603836e-05)
(0.00105774411813 -1.36505954472e-05 -7.21799534866e-05)
(0.00101511971733 -0.000200650403098 -6.07472324115e-05)
(0.000939013511569 -0.000127485558839 -5.93143248145e-05)
(0.00105560812714 -0.000107829353432 -3.10059713754e-05)
(0.000965461297442 -0.000299821200708 -4.0246347678e-05)
(0.000908473357185 -0.000239207195869 -5.56547497577e-05)
(0.00100978189027 -0.000212653581515 2.12130001169e-05)
(0.000870540306668 -0.000385858119739 -5.06903710963e-06)
(0.000848073510349 -0.000347321714149 -4.29048859314e-05)
(0.000911637815908 -0.000316569468171 8.76989457756e-05)
(0.000713080349925 -0.000447521340573 6.7291357176e-05)
(0.000745251423991 -0.00043775105079 -9.14898489071e-06)
(0.000753560628786 -0.000406294627616 0.000175209269755)
(0.000446124566488 -0.00047881432891 0.000212103802881)
(0.000631267428262 -0.000499820523265 8.76018001717e-05)
(0.000569048760605 -0.000469916013978 0.0003121465432)
(0.00027839021232 -0.000538101914941 0.000285067162516)
(0.000211754148084 -0.000501746346158 0.000538169532273)
(-0.00013855759203 -0.000222560909671 -2.2231859528e-05)
(-0.000118090563312 -0.000231991081335 7.11386624765e-05)
(-3.55341698704e-05 -0.000260655122246 9.16010936459e-05)
(-5.18742655887e-05 -0.000157633755344 -0.000177663835041)
(-0.000128738056759 -0.000163446710946 -0.000152812196847)
(-3.94255789183e-05 -0.000203982563552 -0.000168556226158)
(0.000121576603014 -6.41368385486e-05 -0.000223986414907)
(0.000100649898774 -7.62713829036e-05 -0.000233688891408)
(0.000115646223563 -0.000117826649188 -0.000274430169729)
(0.000296057226145 4.99354485576e-05 -0.00021120075886)
(0.000297544726634 3.70045216792e-05 -0.000221452486685)
(0.00025409415291 -3.68378103552e-06 -0.000285734316238)
(0.000441254301108 0.000162042444232 -0.00017482750372)
(0.000460810530409 0.000155567599292 -0.000174986255337)
(0.000380138849658 0.00011637303458 -0.000255173861176)
(0.000550527890188 0.000252135531131 -0.000131851013386)
(0.000574121332505 0.000255189219907 -0.00011811461744)
(0.000483002522908 0.00021890531488 -0.00020660175834)
(0.000632089422815 0.000308932303127 -9.34925516239e-05)
(0.000645868164573 0.000323995567423 -6.90445743056e-05)
(0.000566377040693 0.000288562851549 -0.000161441196689)
(0.000692768964236 0.000329856897335 -6.44091420896e-05)
(0.000688348628684 0.00035157682156 -3.17259658998e-05)
(0.000636324691915 0.000320867910006 -0.000113458646562)
(0.000749514221373 0.000318899450134 -4.59429819291e-05)
(0.000721609166283 0.000345995966789 -8.56521631236e-06)
(0.00070284633899 0.000319560618549 -8.50287110547e-05)
(0.000801625290507 0.00028866078246 -3.5619184839e-05)
(0.000756838362169 0.000316595089716 2.08378492125e-06)
(0.000773207218889 0.000294035725842 -6.71453667727e-05)
(0.000853818529124 0.000242273223193 -3.14226057853e-05)
(0.000793657173838 0.000274803415305 6.15930775368e-06)
(0.000843400559678 0.000253742369815 -4.98232176667e-05)
(0.000892435730667 0.000177016703623 -3.32417508369e-05)
(0.000824700156865 0.000219354476885 3.83188431503e-06)
(0.000903357614778 0.00020009166459 -3.90608213441e-05)
(0.000913066107529 9.60292801241e-05 -3.85334663992e-05)
(0.000841347039825 0.000150806636287 -3.77721581025e-06)
(0.000943278732623 0.000131533866082 -2.94788461408e-05)
(0.000914132736762 -1.35533859759e-06 -4.59444899699e-05)
(0.00084084627436 6.65690878078e-05 -1.54538946803e-05)
(0.000957273914538 4.53194071219e-05 -2.25944957798e-05)
(0.00089341066356 -0.000112733439059 -5.42218421607e-05)
(0.000821981970168 -3.50620232148e-05 -3.12594664187e-05)
(0.000939998951295 -5.94736931838e-05 -1.29662311494e-05)
(0.000849902135658 -0.000229743653074 -5.8313288011e-05)
(0.000787445740604 -0.000150377359482 -4.97729171907e-05)
(0.000887893534354 -0.000178424250766 -1.26246804376e-07)
(0.000777935738831 -0.000339211854288 -4.69848337125e-05)
(0.000737366218021 -0.000268181508544 -6.24570017992e-05)
(0.00079705133522 -0.000299947300745 2.34280907244e-05)
(0.000658367420814 -0.000428288802782 1.1161458105e-05)
(0.000662228931532 -0.000374719682245 -5.1832631109e-05)
(0.000662389237158 -0.000409469776911 7.31123028199e-05)
(0.000432134274736 -0.000496300516503 0.000160565159807)
(0.000593617026451 -0.000459293770652 3.42685889345e-05)
(0.000521456837816 -0.000493736597084 0.000191486196082)
(0.000274649224267 -0.000535628418418 0.000238083815687)
(0.000202309900092 -0.00055689174375 0.000431101940925)
(-0.000109821271705 -0.000113598214122 -5.94416748425e-05)
(-0.000103756721541 -0.000114947504829 3.65800137601e-05)
(-1.70127947063e-05 -0.000173314419795 6.62171607779e-06)
(2.32863178143e-05 -2.51966702415e-05 -0.000208837253214)
(-7.51750166136e-05 -2.34333266535e-05 -0.000184026248991)
(2.39630863715e-05 -9.63712581898e-05 -0.000254202713193)
(0.000231792448558 7.91532488324e-05 -0.000231154963187)
(0.000196771114837 7.06479484392e-05 -0.000246842984015)
(0.000221868344383 -3.43422805387e-06 -0.000328727539576)
(0.000415879979622 0.000194093514685 -0.000185237983162)
(0.000411241329388 0.000179583469711 -0.000204131768763)
(0.000376079092678 0.00010925465158 -0.000288952794972)
(0.000545431563729 0.000298394852353 -0.000118273369057)
(0.000566466971173 0.000283572016735 -0.000126883187135)
(0.000492653178348 0.00022054522302 -0.000206074441525)
(0.00062726167649 0.000373490907907 -5.53081783601e-05)
(0.000652077274087 0.000365301296317 -4.99774477776e-05)
(0.000567924960591 0.000309710882988 -0.000125082225234)
(0.000668115634196 0.000410002185794 -7.27798858149e-06)
(0.000686279198857 0.000406024847274 9.38827446387e-06)
(0.000614412955556 0.000363215523287 -4.06506057992e-05)
(0.00069492202491 0.000410463570556 2.41179598775e-05)
(0.000692262761225 0.000410274740838 4.84541711301e-05)
(0.000647745579774 0.000377520888787 1.03292192597e-05)
(0.000724417899584 0.000384845474996 3.9461550538e-05)
(0.000698513840533 0.000385357010971 6.61415522255e-05)
(0.00068628835882 0.00036003791024 3.73393170789e-05)
(0.000759724415021 0.000344693060846 4.38622775139e-05)
(0.00071777798932 0.00034508029588 7.001819885e-05)
(0.000738273289913 0.000323678862235 4.87026110017e-05)
(0.000794615884761 0.000295895753897 4.14137978541e-05)
(0.000744394876898 0.000299802541588 6.71878250575e-05)
(0.000795581432043 0.000278669786471 5.46613870526e-05)
(0.000817201871895 0.000238193211326 3.32964193417e-05)
(0.000765146605584 0.000251947779885 6.09744869848e-05)
(0.000842473549854 0.000227827326332 5.73648916497e-05)
(0.000820631669685 0.000168775296579 1.93023559087e-05)
(0.000769143985132 0.00019855892921 4.97962579447e-05)
(0.000866151168797 0.000167699214426 5.54377012049e-05)
(0.00080458192993 8.37183251081e-05 -7.68871129037e-07)
(0.000752644487076 0.000133348481962 3.15011736769e-05)
(0.000860901161169 9.20324705444e-05 4.60304244732e-05)
(0.000772770188644 -1.76170664624e-05 -2.68105414487e-05)
(0.000718370408123 5.17648134091e-05 4.65298225429e-06)
(0.000826251074419 -2.87264023568e-06 2.79958305792e-05)
(0.000729459113392 -0.000129353663582 -5.39166309788e-05)
(0.000675012328247 -4.61968118288e-05 -3.07760544033e-05)
(0.000764456500387 -0.000113844268451 5.05598580706e-06)
(0.000673962633691 -0.000240267338244 -6.73047991957e-05)
(0.000628845734485 -0.000152034365769 -6.53060883736e-05)
(0.000677130639199 -0.000230532017342 -1.36932469455e-05)
(0.000587574582148 -0.000338984745732 -2.87255002794e-05)
(0.000574206454843 -0.00025440383578 -7.71116022516e-05)
(0.000563866091437 -0.000339977579164 -5.33551640534e-06)
(0.000403626904542 -0.000428780233364 0.000111787244814)
(0.000541905052017 -0.000344850640787 -7.14428893502e-06)
(0.000463445928944 -0.000431097269657 8.44339879536e-05)
(0.000259185383263 -0.000441778825039 0.000187257129145)
(0.000185834653388 -0.000513989659229 0.000317042701105)
(-7.30206336003e-05 3.37014437986e-05 -8.80045603879e-05)
(-8.39738618385e-05 4.33801995539e-05 4.91862924768e-06)
(4.1382096864e-06 -3.39847379534e-05 -6.75376286055e-05)
(0.000100611590361 0.000128741706924 -0.000222031979791)
(-2.06009627182e-05 0.000140850831938 -0.000200642775228)
(8.61407406586e-05 5.15159328613e-05 -0.000313418816508)
(0.000333606367894 0.000225114149457 -0.000219819789592)
(0.000281066340369 0.000225931569659 -0.0002434480147)
(0.000317989789362 0.000136442171299 -0.000353305063873)
(0.000517542907514 0.000320790332387 -0.000145776972736)
(0.000502849806843 0.000313820326092 -0.000176236105067)
(0.000480852230638 0.000229566210659 -0.000268447083796)
(0.000628125815643 0.000398153061329 -5.85872658555e-05)
(0.000642960465153 0.000389010314472 -7.83997038915e-05)
(0.000583200097849 0.000314321260251 -0.000148185228411)
(0.000671612658779 0.000442768972587 1.47190050463e-05)
(0.000697484758359 0.000434874168043 9.01603582538e-06)
(0.000628352499868 0.000374866470133 -2.56092417146e-05)
(0.000677048370733 0.000450379692926 6.51204341754e-05)
(0.000695528832045 0.000445532649832 7.10656185363e-05)
(0.000638153998894 0.000400842200915 6.12614707882e-05)
(0.000674521070258 0.000427622387959 9.0477763478e-05)
(0.000671034022014 0.000424426391934 0.000103206641492)
(0.000637946842734 0.000392158561865 0.000110209384152)
(0.000686343049112 0.000386967276054 9.66982005374e-05)
(0.000659087508968 0.000381524055505 0.000108682481582)
(0.000654239822425 0.000357335512655 0.000124845561857)
(0.000714178510551 0.000341404478639 9.33437463937e-05)
(0.000672907857233 0.000333134729614 0.000101986843686)
(0.000696408067781 0.000311837284438 0.000122925863014)
(0.000744933346439 0.000297893711131 8.67485141883e-05)
(0.000700933462526 0.000289849436973 9.33085795476e-05)
(0.000750606483431 0.000266591421221 0.000119456079291)
(0.000760398742698 0.000256012396222 7.74743255878e-05)
(0.000722681347796 0.000255238290061 8.72895464189e-05)
(0.00079362979329 0.000225509631679 0.000119071516156)
(0.000751169821666 0.000209685536193 6.19950757129e-05)
(0.000721754687154 0.000224039183154 7.88481127447e-05)
(0.000807065078612 0.000183474637385 0.000115450364545)
(0.000718663863179 0.000151686939509 3.69230270602e-05)
(0.000693345045795 0.000187860978983 6.21260123114e-05)
(0.000785021105394 0.000131517967955 9.94032177915e-05)
(0.000672755812727 7.77674017716e-05 6.87469299668e-07)
(0.000643924662009 0.000138197532559 3.21518725213e-05)
(0.000732283496544 6.29785865603e-05 6.58388102457e-05)
(0.000624313110632 -9.85417697802e-06 -4.2165511798e-05)
(0.000588458738909 7.26050593476e-05 -1.22799786601e-05)
(0.000658761300605 -2.19909540272e-05 1.63777420351e-05)
(0.000577554254997 -0.000102977653106 -7.51128914295e-05)
(0.000540433993243 -5.58442115093e-06 -6.10106514328e-05)
(0.000571975012226 -0.000115640682788 -3.55108825247e-05)
(0.000515430496994 -0.000193640089601 -5.55303909072e-05)
(0.000497314971863 -8.75717703939e-05 -9.02617513415e-05)
(0.000474352964666 -0.000207748927551 -6.26345927756e-05)
(0.000368288571715 -0.000288153864846 6.83255953961e-05)
(0.000489197174863 -0.000168413374525 -3.7548706453e-05)
(0.000406355003254 -0.000291688560966 -3.31169591879e-06)
(0.000238769326136 -0.000267517981598 0.000137478408502)
(0.000167509352121 -0.000381367157902 0.000208309051302)
(-3.88399224379e-05 0.000203149301557 -0.000107719585592)
(-6.53199179755e-05 0.000228344460977 -2.04695595375e-05)
(2.19245127465e-05 0.000139835513432 -0.000124269974534)
(0.000164220441664 0.000288742434027 -0.000222058810136)
(2.38367006472e-05 0.000314540483094 -0.000204894300732)
(0.000134989467301 0.00022021040543 -0.000346407185975)
(0.00040965647153 0.000364023458678 -0.000199864330176)
(0.000342073440571 0.000379426105935 -0.000230095648309)
(0.00038855726234 0.000286217287679 -0.000355256019264)
(0.000586216508512 0.000428596335651 -0.000108858836223)
(0.000561326327818 0.000438606135767 -0.000148322320101)
(0.000552937468882 0.000349342903055 -0.000239161824483)
(0.000670864170552 0.00046975647482 -1.07964022106e-05)
(0.000681340108236 0.000475164821842 -3.89385028643e-05)
(0.000638910684892 0.00039938367191 -8.64942232111e-05)
(0.000682585102053 0.000480184718536 6.53626493154e-05)
(0.000707291958926 0.000486670204392 5.15632643641e-05)
(0.000655917592306 0.000425626809249 4.38055206935e-05)
(0.000657885240482 0.000459876635211 0.000109151825853)
(0.000675596810177 0.000468602155638 0.000107189076952)
(0.000633984791536 0.0004218230726 0.000129720187043)
(0.000634696740103 0.000417106942476 0.000121411359596)
(0.000629039449161 0.00042701871331 0.000125523841507)
(0.000607247992601 0.000391019990456 0.000164606907678)
(0.000639632597582 0.000365733489439 0.000113971124731)
(0.000608487881139 0.000372702377722 0.00011375012792)
(0.000609744481013 0.000342299695916 0.000157778236444)
(0.000671528292013 0.000319523133536 0.00010195167684)
(0.000627231232732 0.00032144956739 9.44359686415e-05)
(0.000651455099117 0.000291801444252 0.000137974878021)
(0.000709313775956 0.000285806112142 9.38496117783e-05)
(0.000667400925579 0.000284455301651 8.11357653287e-05)
(0.000712645821238 0.000250456722399 0.000125949681489)
(0.000727388847614 0.000263418085799 8.86633335758e-05)
(0.000700091870891 0.000264811023252 7.90700283657e-05)
(0.000761737009864 0.000222603745291 0.000127976501101)
(0.000712601639245 0.000244746764443 7.89790493431e-05)
(0.000702596719687 0.000256673212127 7.90409111263e-05)
(0.000773282958575 0.000202474130786 0.000132281163996)
(0.00066743012391 0.000220154193874 5.73548577725e-05)
(0.000668275244978 0.000251532797655 7.13005802471e-05)
(0.000740211388774 0.000180391928959 0.000122181820145)
(0.000607499771848 0.000182601156673 1.91844245616e-05)
(0.000606749670761 0.000237836268177 4.62635027094e-05)
(0.000672178894134 0.00014670436716 8.60914410176e-05)
(0.000549853878413 0.000130206078391 -3.11251182949e-05)
(0.000538131735622 0.000210916362901 5.87167549381e-07)
(0.000586054444879 9.90184988174e-05 2.44046749573e-05)
(0.000504520166626 6.70523352531e-05 -7.61595113449e-05)
(0.000483138198227 0.000168874594193 -5.42190228453e-05)
(0.000496163672461 3.98088062122e-05 -4.8911527299e-05)
(0.000455756214477 -1.78537433326e-06 -7.22800668873e-05)
(0.000443003178958 0.000117967800655 -9.48194983868e-05)
(0.000407718848971 -2.35947174491e-05 -0.000101325979248)
(0.000335397621163 -8.46987680735e-05 3.16041066527e-05)
(0.000446603372979 5.86731181363e-05 -5.73919682438e-05)
(0.000360851526243 -8.84612705844e-05 -6.90819596617e-05)
(0.000219318020626 -2.56024589413e-05 9.43514126394e-05)
(0.000151311799535 -0.000171011570825 0.000115059446767)
(-1.32898908614e-05 0.000380650122668 -0.000117644274677)
(-5.11382377004e-05 0.000424551182102 -3.58856846646e-05)
(3.34594312435e-05 0.000331890493532 -0.000157205514285)
(0.000206788296555 0.000445191220172 -0.000212931138905)
(5.23020382567e-05 0.000487333653684 -0.000199482013309)
(0.000165323947781 0.000395879804549 -0.000357005312951)
(0.000456558329677 0.000490975354712 -0.000178553638234)
(0.000374354101788 0.000524966449833 -0.000211504637829)
(0.000428765934739 0.00043709710391 -0.000343421691452)
(0.000614932674318 0.000521019864011 -7.8401986742e-05)
(0.000585261989635 0.000547003486286 -0.000121667767625)
(0.000588725856267 0.00046749792503 -0.000193055817332)
(0.000677966118207 0.000528654071943 2.34211637104e-05)
(0.000685933477959 0.000555203574845 -8.94644887093e-06)
(0.000657981997693 0.000483036406417 -4.40802595467e-05)
(0.000663243246346 0.000510134622255 9.33896920007e-05)
(0.000687876537524 0.000539152548988 7.66104471139e-05)
(0.000651088594357 0.000477457269035 8.63147054101e-05)
(0.000616663504798 0.000469184653692 0.000123561092606)
(0.000634540703636 0.000501254439018 0.00011977479666)
(0.000604966954878 0.00044885693213 0.000159090365431)
(0.000582077137015 0.000415032162792 0.000117862609831)
(0.000575270855969 0.00044968911159 0.000120887413767)
(0.000560954840956 0.000403002094147 0.000171518908561)
(0.000590456049775 0.000360514363736 9.42149718314e-05)
(0.000554511925286 0.000393495118361 8.92833224392e-05)
(0.000558390907088 0.000347935622355 0.000137704565441)
(0.000635590944594 0.000318695776237 7.36200571305e-05)
(0.000585931598473 0.000346518935245 5.71385328987e-05)
(0.000608167246069 0.000298530525156 9.83751284037e-05)
(0.000689570769543 0.000296435590514 6.63561819161e-05)
(0.00064550666016 0.000318775138226 4.03072431286e-05)
(0.000684617431949 0.000264598865122 7.89562982855e-05)
(0.000718843127108 0.000292267476972 6.94476059162e-05)
(0.000696035887489 0.000312964713342 4.42377092411e-05)
(0.000748001603722 0.000250245670189 8.72610482956e-05)
(0.000705998399057 0.000299214326122 7.13624420303e-05)
(0.000709395009012 0.000324094679715 5.56302560013e-05)
(0.00076610840653 0.000250718524898 0.000106104477478)
(0.000653736399282 0.000307086097447 6.02092251841e-05)
(0.000676018658504 0.000345123366648 6.1729254132e-05)
(0.000729469654668 0.000257618760631 0.000111847746307)
(0.000581561110574 0.000306928614042 2.76662456972e-05)
(0.000607010870543 0.000364450963667 4.73546695188e-05)
(0.000651035497557 0.000259792732256 8.52342312682e-05)
(0.000512271859618 0.000293944062425 -2.25067370011e-05)
(0.000526921674331 0.000375709631194 6.79700445474e-06)
(0.000553467307956 0.00025223572307 2.36236503371e-05)
(0.000462514154786 0.000266850312058 -7.28790098872e-05)
(0.000461171704546 0.00037387125656 -4.82198517714e-05)
(0.00045687939115 0.00023275656788 -6.19674296338e-05)
(0.000416030212214 0.000227104114907 -7.99313997432e-05)
(0.000415645186725 0.000355821525633 -9.35386597042e-05)
(0.000369919806839 0.000203314737389 -0.000124323998873)
(0.000310624280855 0.000167073041841 5.35533774289e-06)
(0.000419727547518 0.000324162051815 -6.68717350241e-05)
(0.000332487647814 0.000164545126666 -0.000111786507567)
(0.000204905514771 0.000263740722734 6.41386365003e-05)
(0.000140399581875 0.000101288656399 4.93554023669e-05)
(1.68770390442e-06 0.000554875387654 -0.000117723423296)
(-4.09381244318e-05 0.000610323855391 -3.35983061255e-05)
(3.86565545656e-05 0.000531924635421 -0.000158620983753)
(0.000225443941228 0.000594014693751 -0.000198055512233)
(6.57403915004e-05 0.000653181767101 -0.00018649434704)
(0.000176470379087 0.000571297913202 -0.000349243329975)
(0.00046773928057 0.000609248200199 -0.00015461876722)
(0.000379288396867 0.000663604795185 -0.000190963885628)
(0.000439621399405 0.000586136857249 -0.000322325706084)
(0.000615212444917 0.000608553030106 -5.22122297537e-05)
(0.00057961631106 0.000657666729964 -9.7305764319e-05)
(0.000591540397119 0.000586996424525 -0.000175169822807)
(0.000657308026113 0.000590461136086 4.42428345325e-05)
(0.000665181945886 0.000637483042906 1.20295308171e-05)
(0.000646024995294 0.000573989038274 -1.41159394101e-05)
(0.000623482999031 0.00055390588188 0.000102995551773)
(0.000650376121689 0.000602849956569 8.95980264718e-05)
(0.000621345311849 0.000545450732954 0.000106157855154)
(0.000564204009102 0.000504760782776 0.00011710111782)
(0.00058516570224 0.000557176879006 0.000119794472866)
(0.00056028296686 0.000503113035973 0.00015940897548)
(0.000526865880111 0.000451142318397 9.23081263748e-05)
(0.000521897736582 0.000507968293362 0.000105527522253)
(0.000508280644028 0.000453487642722 0.000146974127548)
(0.000545801615184 0.000403030487133 5.22068835064e-05)
(0.000506851409374 0.000461366273597 5.69001211214e-05)
(0.000508123343024 0.000402533805746 8.52025836408e-05)
(0.000609433163588 0.000370966350159 2.38257188968e-05)
(0.000554373836536 0.000426691592654 1.43396018318e-05)
(0.000571328241029 0.000361760228529 2.73205378674e-05)
(0.000684064947349 0.000360385634183 1.81887704535e-05)
(0.000635352157749 0.000411733777421 -5.27254835888e-06)
(0.000667345420119 0.00033882184221 1.14068971231e-06)
(0.000730468217225 0.000370384378499 3.04203593262e-05)
(0.000706262641084 0.000417767910784 3.16572819142e-06)
(0.000750159161959 0.000337010215818 1.56490606066e-05)
(0.000726706031502 0.000396232327966 4.5997068103e-05)
(0.000735209882043 0.00044236142725 2.38833955524e-05)
(0.000781987443841 0.000353657167719 5.03113417066e-05)
(0.000673858187965 0.000429505656995 4.88746984667e-05)
(0.000709251410955 0.000481203014999 4.29906363209e-05)
(0.000749758158364 0.000383026501139 7.64015757873e-05)