/*--------------------------------*- C++ -*----------------------------------*\
| =========                 |                                                 |
| \\      /  F ield         | OpenFOAM: The Open Source CFD Toolbox           |
|  \\    /   O peration     | Version:  3.0.1                                 |
|   \\  /    A nd           | Web:      www.OpenFOAM.org                      |
|    \\/     M anipulation  |                                                 |
\*---------------------------------------------------------------------------*/
FoamFile
{
    version     2.0;
    format      ascii;
    class       volScalarField;
    location    "1.4";
    object      ddt0(k);
}
// * * * * * * * * * * * * * * * * * * * * * * * * * * * * * * * * * * * * * //

dimensions      [0 2 -3 0 0 0 0];

internalField   nonuniform List<scalar> 
7968
(
-0.00536264393631
-0.00544653187062
-0.00547382865098
-0.00546746146992
-0.0054562521284
-0.00544980101881
-0.00544804454572
-0.00544879499022
-0.00544943950103
-0.00545014789486
-0.00545004001383
-0.00544906411923
-0.00544849383983
-0.00544801471707
-0.00545011461233
-0.00545694126955
-0.00546841653625
-0.00547477555053
-0.00544728954386
-0.00536290538934
-0.00544648935349
-0.00617126383247
-0.00651018361191
-0.00658995741823
-0.00657429061063
-0.00654492975362
-0.00652725311526
-0.00652140110969
-0.00652121517122
-0.00652195815558
-0.0065212862119
-0.00651941564116
-0.00651914434727
-0.00652552695097
-0.00654448565289
-0.00657536977874
-0.0065922185166
-0.0065130293293
-0.00617419472639
-0.00544727602857
-0.0054737397792
-0.00651005102283
-0.00706796418084
-0.00724231206888
-0.00724726979738
-0.00720860819927
-0.00717724228766
-0.00716206576987
-0.00715710602716
-0.00715751956386
-0.00715521902883
-0.00715357600913
-0.00715706004379
-0.00717243610145
-0.00720556945314
-0.00724671999696
-0.0072441054604
-0.00707125666855
-0.00651389833945
-0.00547499890635
-0.00546719700024
-0.00658919211563
-0.00724162216629
-0.00746706757657
-0.00748562983772
-0.00744077616132
-0.00739779392168
-0.00737351859691
-0.00736144789619
-0.00735697076291
-0.00735514038477
-0.00735625913523
-0.00736576070147
-0.00738877348905
-0.00743338985406
-0.00748171385734
-0.00746696405073
-0.00724445551393
-0.00659345101812
-0.00546884968058
-0.00545565255508
-0.00657257279872
-0.00724564995756
-0.00748488699209
-0.00750377785664
-0.00744983415023
-0.00739503401643
-0.0073602653218
-0.0073449505358
-0.00733917361934
-0.00733672048708
-0.00733803227174
-0.00735006161505
-0.0073830090468
-0.00743758050589
-0.00749524561201
-0.00748169555984
-0.00724713918761
-0.00657670248206
-0.00545754654605
-0.00544880512792
-0.00654227044403
-0.00720626023708
-0.00743975812369
-0.00745007161905
-0.00738419161028
-0.00731857200863
-0.00727989665236
-0.00726313280717
-0.00725687708595
-0.00725385920576
-0.00725458072539
-0.00726714117262
-0.00730365534653
-0.00736907776217
-0.00743693157373
-0.00743287278542
-0.00720575370837
-0.00654575095455
-0.00545077602619
-0.00544668748647
-0.00652395576021
-0.00717456846613
-0.00739724890713
-0.00739673700993
-0.00731980895194
-0.00725021496106
-0.00721024061489
-0.00719367009471
-0.00718773067354
-0.00718426960527
-0.00718380911799
-0.00719535653423
-0.00723257295843
-0.00730202878842
-0.00738090260505
-0.00738701987087
-0.00717186362628
-0.00652645004882
-0.00544860115695
-0.00544718074873
-0.00651793804118
-0.00715971325382
-0.0073765337735
-0.0073632452036
-0.00728261326743
-0.00721187469179
-0.00717252088369
-0.00715713766752
-0.00715193920749
-0.00714815607895
-0.00714629158798
-0.00715598994163
-0.00719210852329
-0.0072625029384
-0.00734544740619
-0.00736069616888
-0.00715504066275
-0.00651932169148
-0.00544893735554
-0.00544858101522
-0.00651817785562
-0.00715583146969
-0.00736454106541
-0.00734916305442
-0.00726746415713
-0.00719712040893
-0.00715904324751
-0.00714491188164
-0.00714039545826
-0.00713631854021
-0.0071331849059
-0.00714106302599
-0.00717558991594
-0.00724546518037
-0.00732961951638
-0.00734949644586
-0.00714939625744
-0.00651848747241
-0.00544942375975
-0.00544971305082
-0.00651983834156
-0.00715593526163
-0.00736121463569
-0.00734481895202
-0.00726291804682
-0.0071930651802
-0.00715579393131
-0.00714233068196
-0.00713803622151
-0.00713349021804
-0.00712946541957
-0.00713622838451
-0.00716977686538
-0.00723920773295
-0.00732375906912
-0.00734489912228
-0.00714816568577
-0.00651938002946
-0.00545016115764
-0.00545006757638
-0.00652036614587
-0.00715614215427
-0.00736062083197
-0.00734388560812
-0.0072616483646
-0.00719146703038
-0.00715385943854
-0.00713999981636
-0.00713513925557
-0.00713011159752
-0.00712585494365
-0.0071326355582
-0.00716645895697
-0.00723640837228
-0.00732159582425
-0.00734334611713
-0.00714750674196
-0.00651928723908
-0.00545055549292
-0.00544931061835
-0.00651961282779
-0.00715663745471
-0.00736280185671
-0.00734650931719
-0.00726383303438
-0.00719250542566
-0.0071533770855
-0.00713798691034
-0.00713197980683
-0.00712662220753
-0.00712287551441
-0.00713087824112
-0.00716627446889
-0.00723767404491
-0.0073236608644
-0.0073456341467
-0.00714778467206
-0.0065183252886
-0.00544999859073
-0.00544807150507
-0.00652003237867
-0.00716106064592
-0.00737293184881
-0.00735920109386
-0.00727712715321
-0.00720478954767
-0.00716368280201
-0.00714624651661
-0.00713888255708
-0.00713337966195
-0.00713076899862
-0.00714085544067
-0.00717849450825
-0.00725129944972
-0.00733695511447
-0.00735650425878
-0.00715346095122
-0.00651961503571
-0.00544978049914
-0.00544765952028
-0.00652662511205
-0.00717664937866
-0.00739722596774
-0.00739201999423
-0.00731337211151
-0.00724177451726
-0.00719954068477
-0.00718042426787
-0.00717196134787
-0.00716662004453
-0.00716548714132
-0.00717776890336
-0.00721705891727
-0.00728952509098
-0.00737171910405
-0.00738344638402
-0.00717161600159
-0.00652797864688
-0.00544994229847
-0.00544978619588
-0.00654530541002
-0.00720904199465
-0.00744074845032
-0.00744824683233
-0.00737777614482
-0.00731010617588
-0.00726893628266
-0.00724943542516
-0.00724060609461
-0.00723579190633
-0.00723604927492
-0.00724966001326
-0.00728855666757
-0.00735693298742
-0.0074309753502
-0.00743174825436
-0.00720777797816
-0.00654895580243
-0.0054526472544
-0.00545655367997
-0.00657564387221
-0.00724887526106
-0.00748691413109
-0.00750352117073
-0.00744681554755
-0.00738748610494
-0.00735046517526
-0.00733252866556
-0.00732440690896
-0.00732041590171
-0.00732151426796
-0.00733466032576
-0.0073698963588
-0.00742969069091
-0.0074926966463
-0.00748360821243
-0.00725146710748
-0.0065815187167
-0.00545991300975
-0.00546797491038
-0.00659197304295
-0.0072448860846
-0.00746976638633
-0.00748678163826
-0.0074396043117
-0.00739395179266
-0.00736610739844
-0.00735141864563
-0.00734511604975
-0.00734207051336
-0.00734369803838
-0.00735319574284
-0.00738034186596
-0.00742954625922
-0.00748260140962
-0.00747130938292
-0.00725046406568
-0.00659944010896
-0.00547155417986
-0.00547437674099
-0.0065124338554
-0.00707102515921
-0.00724529150164
-0.00724937750407
-0.00720915457021
-0.00717565617638
-0.00715816017971
-0.00715120974246
-0.0071482433401
-0.00714589036508
-0.00714501858538
-0.00715018092862
-0.00716851812066
-0.00720540668134
-0.00725006038665
-0.00724992503673
-0.00707813137575
-0.00652036303829
-0.00547767200275
-0.00544700625573
-0.00617352436003
-0.00651322373734
-0.00659319663133
-0.00657714712603
-0.00654688202138
-0.00652792195085
-0.00652061836985
-0.00651915463289
-0.00651904019362
-0.00651787237463
-0.00651628612144
-0.00651725057965
-0.006525708454
-0.00654712756821
-0.00658033151592
-0.00659885408669
-0.00652018534331
-0.00618048527671
-0.00544944915866
-0.00536285619958
-0.00544705413006
-0.00547467075863
-0.00546850241205
-0.00545728340196
-0.00545065189242
-0.00544861159362
-0.0054489864572
-0.00544955065289
-0.00545038078626
-0.00545027880133
-0.00544983828531
-0.00544898525859
-0.005449180964
-0.00545203952182
-0.00545952002389
-0.00547135415062
-0.00547760184102
-0.0054494367494
-0.00536385233536
-0.00544863384469
-0.00618015467604
-0.0065206998944
-0.00660008980831
-0.00658272630045
-0.00655074365274
-0.00653019316027
-0.00652173437377
-0.00652048074043
-0.00652103854088
-0.00652060779454
-0.00651924092451
-0.00651987661249
-0.00652855610433
-0.00654988499079
-0.00658273048472
-0.00660075072649
-0.00652161910886
-0.00618109464385
-0.00544909084458
-0.00617996760794
-0.0106421819201
-0.0121050891662
-0.0125817387416
-0.0126549973767
-0.0126017224103
-0.0125406651435
-0.0125040891082
-0.0124879916931
-0.0124815486797
-0.0124786612002
-0.0124801306728
-0.01249275005
-0.0125283107837
-0.0125905658341
-0.0126466227428
-0.0125767380729
-0.0121030932648
-0.0106417604548
-0.00618157281595
-0.00652048058064
-0.0121056262404
-0.0140281259341
-0.014724917362
-0.0148805153218
-0.0148370846729
-0.0147589717581
-0.0147035247954
-0.0146768016093
-0.0146616515815
-0.0146585187048
-0.014663075555
-0.014685856545
-0.0147388459818
-0.014817798802
-0.0148647897093
-0.0147144247213
-0.0140230647434
-0.0121041117559
-0.00652279589871
-0.00659971742267
-0.0125825054782
-0.0147255465791
-0.0155450539191
-0.0157519586919
-0.0157154950348
-0.0156248217915
-0.0155535879449
-0.015515177462
-0.0154978273294
-0.0154920796442
-0.0154988395323
-0.0155291494344
-0.0155958270454
-0.0156864121115
-0.0157268120077
-0.0155268341282
-0.0147154404764
-0.0125786341638
-0.00660232614166
-0.00658201534112
-0.0126560544808
-0.0148824791333
-0.0157540664111
-0.0159816934994
-0.0159454997295
-0.0158409078143
-0.0157597919125
-0.0157146398108
-0.0156939027204
-0.0156866108839
-0.0156937761178
-0.01572820711
-0.015803039977
-0.0159042542225
-0.0159462245653
-0.0157270271107
-0.0148661300064
-0.0126488235895
-0.00658448381268
-0.00654964370102
-0.012603451766
-0.014841310504
-0.0157214037966
-0.0159498467922
-0.0159016392169
-0.0157909568263
-0.0157033797517
-0.0156546253824
-0.0156320917923
-0.0156233929736
-0.015629614622
-0.0156650693399
-0.0157443480682
-0.0158526903923
-0.0159028109679
-0.0156854697725
-0.014818417848
-0.0125923495857
-0.00655159494395
-0.00652879587356
-0.0125434184386
-0.0147659609111
-0.0156352394862
-0.0158514544156
-0.0157976859902
-0.0156816783029
-0.0155914555812
-0.015542114533
-0.0155193245402
-0.0155093408269
-0.0155133396101
-0.0155470880713
-0.0156272382514
-0.0157400751999
-0.0157977003204
-0.0155915704196
-0.0147370508452
-0.0125285456973
-0.00652997445213
-0.00652035178394
-0.0125080531253
-0.0147132417177
-0.0155682735401
-0.0157762863266
-0.0157174415263
-0.0155994218919
-0.0155097387681
-0.0154618213564
-0.0154397165197
-0.0154285800521
-0.0154296939382
-0.0154600793922
-0.015538442103
-0.015652672915
-0.0157156344528
-0.0155207230891
-0.0146794793071
-0.0124899051678
-0.00652065806352
-0.0065186949731
-0.0124936376628
-0.0146880998172
-0.0155341478703
-0.0157367163602
-0.0156754395728
-0.0155576729827
-0.0154698493094
-0.0154237613611
-0.0154023982828
-0.0153901826183
-0.0153885154845
-0.0154153828236
-0.0154911208708
-0.0156049311083
-0.0156705667901
-0.0154800495835
-0.0146504435509
-0.0124728279997
-0.00651895502832
-0.00651943790713
-0.0124891441563
-0.0146786406494
-0.0155205289721
-0.0157204397693
-0.0156582267801
-0.0155409250243
-0.015454245419
-0.0154089945929
-0.0153876610439
-0.015374407314
-0.015370820274
-0.0153954715492
-0.0154696607865
-0.0155832541469
-0.0156503951261
-0.015463143712
-0.0146382966603
-0.0124663225056
-0.00651990880586
-0.00652019956486
-0.0124881023107
-0.0146769983441
-0.0155175061647
-0.0157163924804
-0.0156532857974
-0.0155351605251
-0.0154476318926
-0.015401341435
-0.0153788880937
-0.015364759583
-0.015360843518
-0.015385782203
-0.0154608340599
-0.0155757796627
-0.0156444411513
-0.0154585997926
-0.014634900601
-0.0124638933285
-0.00652015998085
-0.00651942401477
-0.0124908037602
-0.0146826477668
-0.0155258503728
-0.0157254555672
-0.0156615790892
-0.0155414272024
-0.0154511266003
-0.0154019930917
-0.0153773547771
-0.0153626622543
-0.0153601695134
-0.0153880048015
-0.015466378438
-0.0155841553844
-0.0156541931139
-0.0154676920524
-0.0146412266798
-0.0124663018476
-0.00651911274226
-0.00652133533042
-0.0125042584072
-0.0147056958192
-0.0155564168576
-0.0157600664654
-0.015697214798
-0.0155754458279
-0.0154818402192
-0.015429191665
-0.0154020742001
-0.015387327556
-0.0153875058369
-0.0154197516964
-0.0155024892872
-0.0156229711617
-0.0156927281069
-0.015502343998
-0.0146672487965
-0.0124811995573
-0.00652067972253
-0.00653005907784
-0.0125394685511
-0.0147576633817
-0.0156216534233
-0.0158329880166
-0.0157746392349
-0.015653941015
-0.0155587065882
-0.0155035604014
-0.0154747967442
-0.0154606788511
-0.0154639035394
-0.0155003804644
-0.0155862990504
-0.015706978338
-0.0157727749091
-0.015573580245
-0.0147246565259
-0.0125197427064
-0.00653043940272
-0.00655104730737
-0.0126001673478
-0.0148340749119
-0.0157089365604
-0.0159302379607
-0.015879237995
-0.0157635584605
-0.0156701831652
-0.0156150100737
-0.0155861921054
-0.0155733666378
-0.0155791693595
-0.0156181257839
-0.0157041379794
-0.0158211212888
-0.0158796372361
-0.0156700061785
-0.0148083460892
-0.0125849779288
-0.00655286754032
-0.00658340567153
-0.0126538557001
-0.0148773819468
-0.0157447792026
-0.0159675894272
-0.0159242338618
-0.0158169259108
-0.0157296551119
-0.0156779488939
-0.0156511581406
-0.0156400911514
-0.0156471841697
-0.0156856917118
-0.0157674079354
-0.0158769804145
-0.0159278282663
-0.0157158386806
-0.0148592422309
-0.0126432457473
-0.00658653039706
-0.00660095740755
-0.0125814102602
-0.014722924329
-0.0155395580686
-0.0157428813521
-0.0157021065372
-0.0156063997847
-0.0155292451684
-0.0154849241826
-0.0154624120697
-0.0154533615406
-0.0154599868997
-0.0154945777772
-0.0155670703217
-0.0156657585326
-0.015714046706
-0.0155198189985
-0.0147112105753
-0.0125744044573
-0.00660473568058
-0.0065215255699
-0.0121055873319
-0.0140278402314
-0.0147231445421
-0.0148763609576
-0.0148297230752
-0.0147474003683
-0.0146868741445
-0.0146538039139
-0.0146373984421
-0.0146304729746
-0.0146346759387
-0.0146604007455
-0.0147187393224
-0.0148042068728
-0.0148570506404
-0.0147105030471
-0.0140204498081
-0.0121006045093
-0.00652507182497
-0.00618090622884
-0.0106428052826
-0.0121061151362
-0.0125823246754
-0.0126543146535
-0.0125989874411
-0.0125350622513
-0.0124949703947
-0.0124755386769
-0.0124663919956
-0.0124616564197
-0.0124625878823
-0.0124771931344
-0.0125161910848
-0.0125824445987
-0.0126418776153
-0.0125739518368
-0.0121006068544
-0.0106382712032
-0.00618348206691
-0.00544897284895
-0.00618146822932
-0.00652272047655
-0.00660247185427
-0.00658502670017
-0.00655252787881
-0.00653108215731
-0.00652159043502
-0.00651926352949
-0.00651945049853
-0.00651862845233
-0.00651685443429
-0.00651907260141
-0.00652901751596
-0.00655180098372
-0.00658584854298
-0.0066043745184
-0.00652489004806
-0.00618336843968
-0.0054508774134
-0.0054776542262
-0.00652709900186
-0.00708752375397
-0.00725993400379
-0.00726062861492
-0.00721654872458
-0.00717983352053
-0.00716062772459
-0.0071534256248
-0.00715133358733
-0.00715019614615
-0.00714996760754
-0.00715566294513
-0.00717456861166
-0.00721202440418
-0.00725754561811
-0.00725848582006
-0.00708745459333
-0.00652798138792
-0.00547823682424
-0.00652668967032
-0.0121207120731
-0.0140410917769
-0.0147332075315
-0.0148828617626
-0.0148333601503
-0.0147499057215
-0.0146905640124
-0.0146595449466
-0.0146458464853
-0.0146406313489
-0.0146448319577
-0.0146685186834
-0.0147239236022
-0.0148070098992
-0.0148596478198
-0.0147158518889
-0.0140309000273
-0.0121163413501
-0.00652875773971
-0.00708722995766
-0.0140428514534
-0.0164815353156
-0.0174277824986
-0.0176841736849
-0.0176586776687
-0.0175626221316
-0.0174829013486
-0.0174360293882
-0.0174143713918
-0.0174075374066
-0.0174178014127
-0.0174522259899
-0.0175247069489
-0.0176178482472
-0.0176452821418
-0.017395771652
-0.0164601260547
-0.0140321855611
-0.00708931423897
-0.00725997860248
-0.0147375751281
-0.017431786464
-0.0185223574369
-0.018847710561
-0.0188417364971
-0.0187409843306
-0.0186461908314
-0.0185896407113
-0.0185625697732
-0.0185542960683
-0.0185656171933
-0.0186083266326
-0.0186911739915
-0.0187873260984
-0.0187930809076
-0.0184745260441
-0.0173970780238
-0.0147183314273
-0.00726102313357
-0.0072611350515
-0.0148912981836
-0.0176951523635
-0.0188562880699
-0.0192170683576
-0.0192200974169
-0.0191096643682
-0.0190088937661
-0.0189496612068
-0.0189204473607
-0.0189119008201
-0.0189246388172
-0.0189731496866
-0.0190599761217
-0.0191543737542
-0.0191480346777
-0.0187931566951
-0.0176468500473
-0.01486251535
-0.00726042204225
-0.00721767009969
-0.0148470965458
-0.0176788978983
-0.0188624230303
-0.0192342970133
-0.0192259584844
-0.0191034052114
-0.0190114741934
-0.0189627829757
-0.0189367957591
-0.0189312387759
-0.018946763483
-0.0190032950229
-0.0190942112306
-0.0191739266451
-0.0191521156538
-0.0187856447662
-0.0176180958768
-0.0148091020108
-0.00721487552401
-0.00718168033474
-0.0147691684972
-0.0175925364916
-0.0187737186724
-0.0191382025842
-0.0191115734489
-0.0190017781554
-0.0189388573715
-0.0189065530105
-0.01888514721
-0.0188822615135
-0.0188988339276
-0.0189603124893
-0.019051320707
-0.0191093782395
-0.0190546749705
-0.0186853101386
-0.0175213404298
-0.0147234024244
-0.00717686598757
-0.00716324614518
-0.0147144147573
-0.0175210851651
-0.0186917013073
-0.0190475524571
-0.0190180854038
-0.0189325074899
-0.0188927048902
-0.0188724241416
-0.0188535196849
-0.0188503245558
-0.0188642534547
-0.0189245190108
-0.0190107024962
-0.0190528696141
-0.0189703617782
-0.0185950664679
-0.0174422476034
-0.014662899051
-0.007156697763
-0.00715688441891
-0.0146869916457
-0.0174811500646
-0.0186439066231
-0.0189957220918
-0.0189704456588
-0.0188982581338
-0.0188710368346
-0.0188570491787
-0.0188388714842
-0.0188337143494
-0.0188435170154
-0.0188996062172
-0.0189799452349
-0.0190124452309
-0.0189191961545
-0.0185419309701
-0.0173975629745
-0.0146317574523
-0.00714906879953
-0.00715566844076
-0.0146754757073
-0.0174648608442
-0.0186216388607
-0.018971875959
-0.0189476079214
-0.0188808609958
-0.0188597929508
-0.0188489148927
-0.0188308804197
-0.0188244283574
-0.0188319523714
-0.0188858750312
-0.0189632888564
-0.0189911649135
-0.0188941359414
-0.0185178256992
-0.0173787414364
-0.0146182409735
-0.00714721162465
-0.00715564065717
-0.0146718033419
-0.017458439983
-0.0186146889619
-0.0189640603668
-0.0189396915349
-0.0188760312831
-0.0188583218189
-0.0188482337428
-0.0188292356688
-0.018822413106
-0.0188305422379
-0.0188861593004
-0.0189641275052
-0.0189896859986
-0.0188895924044
-0.0185129415388
-0.0173731794879
-0.014614339685
-0.00714684421268
-0.00715641654771
-0.0146769267573
-0.0174654988709
-0.0186246346653
-0.0189738347618
-0.0189484346733
-0.018885773094
-0.01886891678
-0.0188575902882
-0.0188367756944
-0.0188306148477
-0.01884210022
-0.0189029105
-0.0189844704155
-0.0190096511399
-0.018907014398
-0.0185286370865
-0.0173853511156
-0.0146211979913
-0.00714767902813
-0.00716241161267
-0.0147000065242
-0.0174985997167
-0.0186636262344
-0.019018783475
-0.0189960228462
-0.0189317283659
-0.0189108884392
-0.0188944667166
-0.0188699131108
-0.0188633386999
-0.0188777082564
-0.0189423224203
-0.0190261949133
-0.0190526390133
-0.0189535810113
-0.0185769158638
-0.0174258928356
-0.0146487781576
-0.00715488775248
-0.00718090258107
-0.01475314169
-0.0175669748903
-0.0187412628569
-0.0191057226885
-0.019093097963
-0.0190149223245
-0.0189770891561
-0.018948379319
-0.0189180694459
-0.0189087016049
-0.0189230066192
-0.0189857584453
-0.01906902026
-0.0191049360813
-0.0190342864864
-0.0186662148159
-0.017505157271
-0.0147092873759
-0.00717576002917
-0.00721730550829
-0.0148322773882
-0.0176545773585
-0.0188309304869
-0.0191979637566
-0.0191969499012
-0.0190976157499
-0.0190274333048
-0.0189806634415
-0.0189455798926
-0.0189333692709
-0.0189464688999
-0.0190033930856
-0.0190870215178
-0.0191538725857
-0.0191299546402
-0.0187691781523
-0.0176052142398
-0.0147973659526
-0.0072151196909
-0.00726136565688
-0.0148796327217
-0.0176751129362
-0.0188294246537
-0.019185617755
-0.0191853234947
-0.0190742989295
-0.018976681309
-0.0189156887651
-0.0188803269825
-0.0188682139614
-0.0188817035261
-0.0189344197864
-0.0190254224888
-0.0191252763379
-0.0191285396159
-0.0187807877913
-0.0176381224407
-0.0148534520114
-0.0072618478711
-0.0072607672105
-0.0147299815295
-0.0174179298454
-0.018502637277
-0.018823383815
-0.0188133381863
-0.0187066568068
-0.0186076066183
-0.0185447787992
-0.0185118412899
-0.0185005269381
-0.0185132282568
-0.0185622441324
-0.0186539712265
-0.0187611394388
-0.0187773194431
-0.0184661170725
-0.0173913751639
-0.0147106763694
-0.00726292666968
-0.00708843387343
-0.01403943621
-0.0164745775277
-0.0174166338047
-0.0176690249253
-0.0176393739108
-0.0175381252754
-0.0174520720655
-0.0173991541325
-0.0173718702683
-0.0173612174496
-0.0173707814396
-0.0174115321738
-0.0174930685748
-0.0175968477632
-0.0176337245292
-0.0173899888522
-0.0164553478928
-0.0140243995407
-0.00709093739057
-0.00652809237789
-0.0121202883762
-0.0140396071201
-0.0147295938397
-0.014876546868
-0.0148236833589
-0.0147357733458
-0.01467080457
-0.0146340198617
-0.0146151278408
-0.0146070574546
-0.0146117223207
-0.0146393114227
-0.0147014043401
-0.0147920398167
-0.014850776608
-0.0147099421923
-0.0140245161472
-0.0121073611821
-0.00653013957626
-0.00547803628469
-0.00652905558818
-0.00709028604159
-0.00726289613337
-0.00726317245231
-0.00721809341264
-0.00717982582407
-0.00715865546055
-0.00714951373233
-0.00714599396188
-0.00714409536205
-0.00714426021584
-0.00715154480823
-0.00717296836277
-0.00721315847371
-0.00726071563476
-0.0072623692764
-0.00709063177136
-0.00652991443036
-0.00548056791608
-0.00547157573881
-0.00660979573679
-0.00726156231104
-0.00747837300449
-0.00748505721677
-0.00742823666313
-0.00737606385876
-0.00734607380992
-0.0073332364061
-0.00732843476572
-0.007325787896
-0.00732565770079
-0.00733472975496
-0.007362685556
-0.00741467757073
-0.00747316026554
-0.00746977723924
-0.00725731005154
-0.00660968753467
-0.00547231527812
-0.00660899463035
-0.0125959766978
-0.0147197810022
-0.0155129210769
-0.0156925280373
-0.0156323611324
-0.0155240740865
-0.0154422541883
-0.0153966526012
-0.0153751743844
-0.0153668628167
-0.015372517541
-0.0154044901783
-0.0154760192801
-0.0155783558086
-0.0156382621713
-0.0154654684749
-0.0146863283769
-0.0125796420661
-0.00661059154236
-0.00726136521443
-0.0147245604566
-0.0173915456985
-0.0184518079443
-0.0187499449614
-0.0187231174267
-0.0186068738717
-0.0185055445874
-0.0184432642641
-0.0184135880541
-0.0184046223682
-0.0184166721108
-0.0184619033815
-0.0185480963085
-0.0186520607809
-0.0186721768838
-0.0183764635126
-0.0173306045603
-0.0146880748607
-0.00725970056721
-0.00748012681624
-0.0155268713342
-0.0184641306753
-0.0196806565994
-0.0200615964303
-0.0200582251743
-0.0199300995782
-0.0198228600004
-0.0197617242589
-0.0197326297269
-0.019728178783
-0.0197481463585
-0.0198088802639
-0.0199074791648
-0.0199930732483
-0.0199668372134
-0.0195824736138
-0.018377851066
-0.0154686480794
-0.00747318956564
-0.00748997112441
-0.0157203280594
-0.0187814928878
-0.0200830007178
-0.0204918004017
-0.0204715420542
-0.0203443974447
-0.0202693821668
-0.0202365724827
-0.0202192927403
-0.0202279241154
-0.020262003629
-0.0203505954705
-0.0204656012787
-0.0205212333486
-0.0204268209749
-0.0199663399195
-0.0186732503687
-0.0156415929897
-0.00747714171258
-0.00743702421815
-0.0156765273039
-0.0187775548435
-0.0201050458526
-0.0204872467475
-0.0204606176534
-0.0203707379036
-0.020354220442
-0.0203620519914
-0.020359385778
-0.0203819983929
-0.0204298156547
-0.0205524001669
-0.0207015220631
-0.0207331641846
-0.0205498133231
-0.0199925485322
-0.0186508473879
-0.0155801256387
-0.00741867776627
-0.00738863100403
-0.0155837066096
-0.0186838078669
-0.019996099521
-0.0203546017841
-0.0203488985964
-0.0203111794555
-0.0203587380925
-0.0204006578176
-0.0204050078581
-0.0204326323691
-0.0204847026936
-0.0206311326138
-0.0208130601604
-0.0208373665114
-0.0205812959462
-0.0199268875113
-0.0185423196544
-0.015473731052
-0.00736585829501
-0.0073615689497
-0.015513497953
-0.018600534216
-0.0198923392378
-0.0202599210806
-0.0202849790228
-0.0202984480093
-0.020389379314
-0.020449792264
-0.0204522885155
-0.0204753520684
-0.0205217070892
-0.0206748609275
-0.0208692072097
-0.020888101257
-0.0205839796798
-0.0198677816696
-0.0184486606041
-0.0153947518255
-0.00733581239933
-0.0073506020068
-0.0154747641219
-0.0185507116758
-0.0198363741402
-0.0202154746196
-0.0202637272882
-0.020304788483
-0.0204169052533
-0.0204851929637
-0.0204843795209
-0.0205012928665
-0.0205403045143
-0.0206920938301
-0.0208874000633
-0.0208973662955
-0.0205691673641
-0.0198254385196
-0.0183938631718
-0.0153520088596
-0.00732329699975
-0.00734683203738
-0.0154553546062
-0.0185244113608
-0.0198091410595
-0.0201919261279
-0.0202492092653
-0.0203021159904
-0.0204254721407
-0.0204986496069
-0.0204970355879
-0.0205120932634
-0.0205492577397
-0.0207029727937
-0.0209007841651
-0.0209052385008
-0.0205625790967
-0.0198051398065
-0.0183693013026
-0.0153330150563
-0.00731922049227
-0.00734503939875
-0.0154462525357
-0.0185132331434
-0.0197976077305
-0.0201831444703
-0.0202473798121
-0.0203095314854
-0.0204418547418
-0.0205186998631
-0.0205168142804
-0.0205332303998
-0.0205738266172
-0.0207349073951
-0.0209385907559
-0.0209385129714
-0.020581179512
-0.0198091444776
-0.0183674754878
-0.0153285379648
-0.0073180332749
-0.00734540174952
-0.0154489903455
-0.0185202137604
-0.0198038814895
-0.0201913875244
-0.0202610104301
-0.0203308735736
-0.0204711326638
-0.020551522977
-0.0205504663007
-0.0205713380569
-0.0206196053105
-0.0207916492829
-0.0210026292478
-0.0209977115415
-0.0206252208902
-0.019838095961
-0.0183869480706
-0.015340414899
-0.00732010606864
-0.00735394245594
-0.0154758416986
-0.0185543967941
-0.019852659808
-0.0202536616418
-0.0203369895617
-0.0204152905896
-0.0205586764784
-0.0206374615698
-0.0206341592794
-0.0206563069351
-0.0207081122465
-0.020881340245
-0.0210846757194
-0.0210630771258
-0.0206771292976
-0.0198888229488
-0.0184410233399
-0.0153804851638
-0.00733227716088
-0.00738024876421
-0.0155403998233
-0.0186297692638
-0.0199560063147
-0.0203748344438
-0.020474420535
-0.0205460411151
-0.0206710364465
-0.020733833373
-0.0207230734508
-0.020739503108
-0.0207857425458
-0.020939182529
-0.0211071392622
-0.0210543275939
-0.0206861104087
-0.019947537114
-0.0185376482963
-0.0154619281932
-0.00736413098339
-0.00742954701117
-0.0156340129586
-0.0187226990907
-0.020056497324
-0.0204891345997
-0.0205741903761
-0.0206101224696
-0.0206837673103
-0.0207130350494
-0.0206926766077
-0.0206997784
-0.0207357671373
-0.0208533705981
-0.0209674947767
-0.0209072621983
-0.0206188157964
-0.0200039670393
-0.0186513183606
-0.0155737224817
-0.0074198327995
-0.00748459182766
-0.0156837685823
-0.0187314124506
-0.0200296504677
-0.0204577864779
-0.0205024096157
-0.0204659238976
-0.020459561109
-0.0204443175179
-0.0204144506395
-0.0204119265423
-0.0204378376772
-0.0205198038942
-0.0206036834206
-0.0205948192323
-0.0204489239576
-0.0199731684415
-0.0186785837413
-0.0156399786163
-0.0074806336558
-0.00747743361976
-0.0154998583219
-0.0184237811267
-0.0196346901444
-0.0200156251867
-0.0200205092311
-0.0199183794245
-0.0198416347544
-0.0197874725457
-0.0197520210102
-0.0197433661247
-0.0197629734039
-0.0198247087268
-0.0199168259092
-0.0199913712571
-0.0199666337706
-0.0195893513517
-0.0183855550181
-0.0154682570404
-0.00747729021987
-0.00726129081529
-0.0147090380781
-0.0173651245563
-0.0184186394936
-0.018713911525
-0.0186855638455
-0.0185666586973
-0.0184609252601
-0.0183936392961
-0.0183580997383
-0.0183475493671
-0.0183617334387
-0.0184150178222
-0.0185148929096
-0.0186345404859
-0.018669028256
-0.0183822138727
-0.0173363313833
-0.0146843551996
-0.00726257365919
-0.00661067881367
-0.0125908283755
-0.0147084269066
-0.0154959837071
-0.0156715966126
-0.0156077745861
-0.0154943317077
-0.0154052263746
-0.0153512144197
-0.015322174695
-0.015310341908
-0.015318490303
-0.0153587203967
-0.0154435030779
-0.0155606967271
-0.0156328703688
-0.015465835526
-0.0146842897661
-0.0125692903663
-0.00661220555589
-0.00547207102081
-0.00661194240499
-0.0072635918256
-0.00747954442995
-0.00748499996443
-0.00742648596903
-0.00737180996012
-0.00733847885345
-0.00732199828329
-0.00731417660355
-0.00731027211303
-0.00731132325885
-0.00732398182696
-0.00735738024251
-0.00741519295531
-0.00747802761208
-0.00747609404786
-0.00726198728428
-0.00661176883345
-0.00547551128635
-0.00545823764248
-0.00658496580669
-0.00724225154999
-0.00745253343305
-0.00743944315734
-0.00735878720706
-0.00728730669671
-0.00724573348372
-0.0072274151669
-0.00721999614987
-0.00721550765979
-0.00721447714085
-0.00722536923027
-0.00726090918809
-0.00732816198654
-0.00740751140224
-0.00742412723748
-0.00722341772201
-0.00657918025307
-0.00545878777006
-0.00658342462873
-0.0126212923548
-0.014771342768
-0.0155559122089
-0.0157049375378
-0.0156075729474
-0.0154671005413
-0.0153633058289
-0.0153056130712
-0.0152789744606
-0.0152697504118
-0.0152777887106
-0.0153164326496
-0.015400621598
-0.0155218630431
-0.0156033711369
-0.0154490894792
-0.0146795123498
-0.0125671635342
-0.00657996045047
-0.00724299305261
-0.0147842333929
-0.0174777005883
-0.0185350108591
-0.0188164935095
-0.0187598864371
-0.0186089062311
-0.0184937075274
-0.0184312811184
-0.0184043356172
-0.0184029615038
-0.0184257593319
-0.0184894003128
-0.0185922879211
-0.0186933956279
-0.0187049987827
-0.0184001623561
-0.0173408653481
-0.0146816901367
-0.00722619179651
-0.00746016067986
-0.0155939162868
-0.0185638981429
-0.0197943606606
-0.0201399650027
-0.0200735668057
-0.0199153588139
-0.0198364806554
-0.019812127132
-0.0198053452688
-0.0198274927066
-0.0198763993057
-0.0199879738765
-0.0201353174088
-0.0202089965385
-0.020113556418
-0.0196528614612
-0.0184008100548
-0.0154521968623
-0.00742831283613
-0.0074577763337
-0.0157767351085
-0.0188828818249
-0.0201742666363
-0.0204864846302
-0.0204066572975