/*--------------------------------*- C++ -*----------------------------------*\
| =========                 |                                                 |
| \\      /  F ield         | OpenFOAM: The Open Source CFD Toolbox           |
|  \\    /   O peration     | Version:  3.0.1                                 |
|   \\  /    A nd           | Web:      www.OpenFOAM.org                      |
|    \\/     M anipulation  |                                                 |
\*---------------------------------------------------------------------------*/
FoamFile
{
    version     2.0;
    format      ascii;
    class       volVectorField;
    location    "1.4";
    object      ddt0(U);
}
// * * * * * * * * * * * * * * * * * * * * * * * * * * * * * * * * * * * * * //

dimensions      [0 1 -2 0 0 0 0];

internalField   nonuniform List<vector> 
7968
(
(-4.41136900379e-05 -8.03935235549e-05 0.000147862505919)
(-0.000127844868524 -0.000134355375555 0.000145694603892)
(-0.000102338835933 -0.000155607098472 0.000127470052169)
(-3.11410974163e-05 -0.000158377348204 0.000104744264716)
(8.0458722721e-05 -0.000145220092728 7.94474664579e-05)
(0.000212670660339 -0.00012388051459 5.37287604766e-05)
(0.000357139238907 -0.000101242667942 2.92570732532e-05)
(0.00050189026458 -8.24687078847e-05 9.97617797461e-06)
(0.000649877101188 -6.81783508738e-05 3.80357920099e-06)
(0.000798480180993 -6.45955414452e-05 4.29060210021e-06)
(0.000937591283384 -7.04079386545e-05 1.57653951449e-05)
(0.00106158057805 -8.45385012812e-05 3.9794556078e-05)
(0.00115684757132 -0.000106391544237 7.45657227011e-05)
(0.00121479605207 -0.000132766505812 0.00011852406327)
(0.00122507766631 -0.000160690997884 0.00016859130721)
(0.00117587539695 -0.000185186772428 0.000218215234661)
(0.00105844663388 -0.000200169131583 0.000264683190108)
(0.000861491435923 -0.000199206805881 0.000303983922009)
(0.000599628849827 -0.000178877227545 0.000335381420769)
(0.000203240779393 -0.000121915387925 0.000344167486818)
(-9.61240295078e-05 -0.000234339646792 0.00014537242517)
(-0.000177988631782 -0.000291608318156 7.32071459264e-06)
(-8.14735726145e-05 -0.00029668819906 -6.83769619547e-05)
(3.88721632956e-05 -0.000267413346613 -0.000107661460543)
(0.000182469946577 -0.000214123564034 -0.000129661849131)
(0.000326900795917 -0.000153111826274 -0.000138000515279)
(0.000463534300757 -9.94344635714e-05 -0.000137841556453)
(0.000587294338138 -6.05102138933e-05 -0.00013109348499)
(0.000701125350573 -3.66590657844e-05 -0.000121340847217)
(0.00080674740915 -3.20284224801e-05 -0.000111350051794)
(0.000905076288842 -5.45345212944e-05 -9.71989519043e-05)
(0.000992009697377 -8.76982565956e-05 -8.12874199299e-05)
(0.00105865943911 -0.000137713501993 -6.2148177761e-05)
(0.00109974193439 -0.0001988574618 -3.84654535157e-05)
(0.0011070162853 -0.000266631146549 -9.06556583477e-06)
(0.00107205951234 -0.00033366041092 2.53745062122e-05)
(0.000985887353196 -0.000388456556598 6.72926214932e-05)
(0.000835420076745 -0.000419146686447 0.000119972929109)
(0.000645300767896 -0.000417867601409 0.000204156684323)
(0.000255584268693 -0.000363896897579 0.000339178964324)
(-0.000117610675478 -0.000276366457928 0.000121256355996)
(-0.000181022423948 -0.00026864253057 -7.82589977652e-05)
(-3.00727021663e-05 -0.000222454109736 -0.000172795318617)
(0.000124728410467 -0.00014253259555 -0.000203731464664)
(0.000284514294481 -4.42662063192e-05 -0.000206852479118)
(0.000425944796962 5.01427115908e-05 -0.000192884022041)
(0.000544339069207 0.000123514829017 -0.000171035017023)
(0.000641322850036 0.000169971165701 -0.000147473009151)
(0.000727140724541 0.0001866588787 -0.000127778989274)
(0.000796115027793 0.000177459471104 -0.000120635707771)
(0.000863191783936 0.000146531477649 -9.91533542984e-05)
(0.000929239079374 9.66388693041e-05 -9.25504210357e-05)
(0.000972940159974 2.92977243275e-05 -8.63536765792e-05)
(0.000998273372925 -5.41050886661e-05 -7.89407302096e-05)
(0.000998798455158 -0.000149704733707 -6.8567998229e-05)
(0.000968933557012 -0.000252192938689 -5.31951072365e-05)
(0.00090164614111 -0.000348012440677 -2.75610194271e-05)
(0.000783731918509 -0.000424234167102 1.71631454224e-05)
(0.000645303870596 -0.00047131263198 0.000117168397733)
(0.000276621177002 -0.000486816032719 0.000306925939414)
(-0.000123021289966 -0.000248642706769 8.8821701556e-05)
(-0.000153672437513 -0.000196994925974 -0.000133364117616)
(5.15065319521e-05 -0.000118782198477 -0.000222203394769)
(0.000237016494569 -1.00249123623e-05 -0.000226027487278)
(0.000402551266528 0.000109326530091 -0.000196636770595)
(0.0005279515641 0.000214148848979 -0.000153289655742)
(0.00061777197962 0.000289470437384 -0.00011069365412)
(0.000679705199459 0.000327701830354 -7.65825678575e-05)
(0.000728462579765 0.000331285470629 -5.25355241581e-05)
(0.000774280130229 0.000305764119655 -3.96563461428e-05)
(0.000819145796709 0.000270800514731 -3.18902368184e-05)
(0.000858277459294 0.000212998070524 -3.12612565984e-05)
(0.000883030687652 0.000140311834946 -3.55228273415e-05)
(0.000891238911087 5.1059073473e-05 -4.18364504755e-05)
(0.000879708946289 -5.44149570308e-05 -5.03356097724e-05)
(0.000848538406939 -0.000171652725225 -5.83821810413e-05)
(0.000795051943215 -0.000288392660817 -5.85107550834e-05)
(0.000707324706126 -0.000390550609834 -3.57194429442e-05)
(0.000617717975278 -0.000466518609114 5.77920017178e-05)
(0.00028049000643 -0.000526568079684 0.000263227378749)
(-0.000113444366048 -0.000155359260434 5.3519793704e-05)
(-0.000104287827472 -7.2314723321e-05 -0.000172485498347)
(0.000149225853267 2.14468408321e-05 -0.00024543514437)
(0.000357509929101 0.000136357703269 -0.000217140847174)
(0.000518534363892 0.000251286640749 -0.000153608166877)
(0.000619799743145 0.000344913537997 -8.32234311101e-05)
(0.00067354228004 0.00040142859 -2.76914629696e-05)
(0.000696667662277 0.000417887143378 1.28229175671e-05)
(0.000714555328224 0.000402309543319 3.50877620681e-05)
(0.000739338979211 0.00036662269799 4.35010851028e-05)
(0.000768260587478 0.000321995151826 4.38858374402e-05)
(0.000791357619697 0.000269039213987 3.86071423396e-05)
(0.00080002191779 0.00020662001864 2.76597311196e-05)
(0.000790909535677 0.000130247093791 1.06313035092e-05)
(0.000764779966157 3.65571215974e-05 -1.24691484846e-05)
(0.000726921272644 -7.23712460954e-05 -4.14390699269e-05)
(0.000680270166407 -0.00018686681945 -6.6670179506e-05)
(0.000617718993966 -0.000294155695605 -6.82068375743e-05)
(0.000570024600269 -0.000384271486495 1.05006689906e-05)
(0.000269145462426 -0.000473738028177 0.000212959912824)
(-9.43626958111e-05 -1.55305929249e-05 1.97013946055e-05)
(-4.65680038483e-05 8.25073759648e-05 -0.000195798215685)
(0.000243716739752 0.000174549303992 -0.00024851928681)
(0.00046436917292 0.000275223178441 -0.000191395896628)
(0.000613817310318 0.00036585884823 -0.000100443611337)
(0.000683813291294 0.000429898348955 -1.70323440992e-05)
(0.000698545110833 0.000455035864901 4.61502155008e-05)
(0.0006874916676 0.000445065415709 8.37507992962e-05)
(0.00068224369335 0.000409474113974 9.68466759234e-05)
(0.0006961498286 0.000363722972838 9.61785510438e-05)
(0.000720632321813 0.000318337489983 9.01328637461e-05)
(0.000739200286528 0.000276714058783 8.29926216419e-05)
(0.000738668266437 0.000234608832254 7.15972664392e-05)
(0.00071488636858 0.000184109451147 5.20519921436e-05)
(0.000672538258664 0.000118668166108 2.14725276335e-05)
(0.000623720832242 3.63274356872e-05 -2.040096631e-05)
(0.000578053734525 -5.65224686585e-05 -6.42180148293e-05)
(0.000531313464866 -0.00014987483067 -8.62838492727e-05)
(0.000514315969232 -0.000237816102449 -2.50383857632e-05)
(0.000249571012246 -0.000338890384462 0.000161571303767)
(-7.38882773501e-05 0.000155671195934 -9.80715844551e-06)
(4.83887625029e-06 0.000250271549941 -0.000205724845488)
(0.000317783197239 0.000326853788775 -0.000238653404468)
(0.000540684227543 0.000400805662293 -0.000161360343866)
(0.000671471059945 0.00045595850152 -5.6655834982e-05)
(0.000710559905026 0.000483076852734 3.47438661463e-05)
(0.000691987180558 0.000476760586309 9.56374229974e-05)
(0.000654163057804 0.000442405821145 0.000122295386392)
(0.000635670462888 0.000391172924394 0.000120131201005)
(0.000649587694512 0.000339625555184 0.000107396448751)
(0.00068135037198 0.000298740708342 9.60854078744e-05)
(0.000706461056942 0.000272204592927 9.11988239299e-05)
(0.000705292415336 0.000253999761413 8.57309787816e-05)
(0.000672367168528 0.000234912189287 7.18552590495e-05)
(0.000615945530918 0.000204871594595 4.25091596697e-05)
(0.000553866617218 0.000159862656028 -4.46119182041e-06)
(0.000503491250254 0.000100132568805 -5.80895323334e-05)
(0.000463970307978 3.35978863278e-05 -9.45143974553e-05)
(0.000464630708171 -3.75130080282e-05 -5.03134644371e-05)
(0.000228322325761 -0.000132214015669 0.000113398951127)
(-5.70634394933e-05 0.000341992657302 -3.10789804442e-05)
(4.22877519263e-05 0.000419041814225 -0.00020430701264)
(0.000365699817715 0.000471069197497 -0.000221822248325)
(0.000581281295239 0.000510586638612 -0.000135578866168)
(0.000690527495438 0.000531123726056 -2.15359395453e-05)
(0.000703373280767 0.000525813155157 6.80417047949e-05)
(0.000658626203378 0.000494037686028 0.000118369610338)
(0.000603454254371 0.000443864960707 0.000128349724409)
(0.000581011090049 0.000385689665449 0.000106939235502)
(0.000604785083114 0.000334799352417 8.10297570207e-05)
(0.000653580325552 0.000302042151836 6.57401689448e-05)
(0.000694056427615 0.000290290918588 6.65108048019e-05)
(0.000700402560968 0.000293737666548 7.19473573088e-05)
(0.000664803738492 0.000304229550491 7.03736416918e-05)
(0.000598244823723 0.000309531446678 4.96755218163e-05)
(0.000523117963324 0.000303963673794 5.31886997159e-06)
(0.000463504765925 0.000283606060323 -5.06448399828e-05)
(0.000422722107406 0.000249812153855 -9.54063362687e-05)
(0.00042914860528 0.000204138818931 -6.47299308324e-05)
(0.000210676595562 0.000129766629579 7.53137905492e-05)
(-4.5531878445e-05 0.000527585091346 -4.06428413764e-05)
(6.17536327584e-05 0.000582006903205 -0.000194905054504)
(0.000382318757704 0.000605857440079 -0.000201477902421)
(0.000588521140602 0.000612458366189 -0.000108060414536)
(0.000680615879002 0.000604444117782 3.31512587114e-06)
(0.000671681906202 0.000576246316518 8.48195690761e-05)
(0.000609826706027 0.00053130143638 0.000120783119396)
(0.000546582835424 0.000477922808791 0.000112988667921)
(0.000527688545597 0.000424034524052 7.11561314222e-05)
(0.000566978089427 0.000381678172773 3.27555688619e-05)
(0.000637573777146 0.000359899191457 1.43823243638e-05)
(0.000698380828834 0.000360525499842 2.14926604028e-05)
(0.000718933927319 0.000379919393097 3.88757552062e-05)
(0.000687904239633 0.00041225316501 5.26868856985e-05)
(0.0006165170369 0.000446501135841 4.46729525e-05)
(0.000531490220365 0.000475425713211 7.94555979513e-06)
(0.000459594178307 0.000492216070913 -4.60999967724e-05)
(0.000409281116628 0.00049268948682 -9.19586874853e-05)
(0.000410895669399 0.000477098762621 -6.9277216089e-05)
(0.000199503894822 0.000434444294594 5.29703653634e-05)
(-3.6667848468e-05 0.000715806884671 -2.65066591576e-05)
(6.9154084259e-05 0.00073629125035 -0.000178334975628)
(0.000375551432739 0.000731167661257 -0.000180745239471)
(0.000569967000366 0.000710831189364 -8.68612683157e-05)
(0.000648996148197 0.000678593735066 2.04067066759e-05)
(0.000628340258208 0.000637139515249 9.40034559049e-05)
(0.000559842884072 0.000590592092889 0.000118390223958)
(0.000496678030969 0.00054544021658 9.76049784726e-05)
(0.000485669084782 0.000506191744044 4.21419513275e-05)
(0.000541662499916 0.000479691793394 -4.602551266e-06)
(0.000633280078546 0.000471489622416 -2.54538796326e-05)
(0.000714532647953 0.000483896843419 -1.56640796017e-05)
(0.000752064077301 0.00051452297099 8.42865413919e-06)
(0.000731304339882 0.000560713887329 3.2877719355e-05)
(0.000661748065237 0.000615298595727 3.59851844085e-05)
(0.000570804246988 0.000671145647187 8.7571782499e-06)
(0.000487441785289 0.000718960169788 -3.92338469094e-05)
(0.000423795231392 0.000752157854508 -8.31015461534e-05)
(0.000413504875471 0.000768131235267 -6.36407101206e-05)
(0.000198150114374 0.000763917032233 4.59949389561e-05)
(-4.02132294305e-05 0.000892075111246 -8.07358139916e-06)
(5.41971968974e-05 0.000873887882855 -0.000156415378899)
(0.000346140170168 0.000840341555947 -0.000160129087042)
(0.000530382761723 0.000794405527647 -6.94506910334e-05)
(0.000603684017615 0.000743049007747 3.36500746257e-05)
(0.000582300996433 0.000693704574644 0.000102489583096)
(0.000517836128148 0.000651382777802 0.000121787879463)
(0.000462527183704 0.000619976833817 9.66156265869e-05)
(0.00046260253833 0.000600525633987 3.70304364169e-05)
(0.000533053004348 0.000593438501421 -1.25750510879e-05)
(0.000642444189305 0.000601211692176 -3.56814992987e-05)
(0.00074176293168 0.000626457036377 -2.64827731416e-05)
(0.000795626003023 0.000668296101673 -1.06567587068e-06)
(0.000788435345263 0.000725535364656 2.60775718528e-05)
(0.000726432458691 0.000795943950441 3.47741867599e-05)
(0.000635096029735 0.000873437571334 1.46238814099e-05)
(0.000542582379887 0.000948085970748 -2.73082024619e-05)
(0.00046386195555 0.00101084210847 -6.69628401702e-05)
(0.00043694218402 0.00105702327032 -4.64514552154e-05)
(0.000206358488217 0.00108980328302 6.04722999809e-05)
(-4.86672325872e-05 0.00104939480157 3.10925966488e-05)
(2.57064974227e-05 0.000985773404546 -0.000131901123844)
(0.000296837756722 0.00092318344813 -0.000141900967617)
(0.000472285546694 0.000852053233875 -5.59379209576e-05)
(0.000547679654641 0.000781464396959 4.33759816054e-05)
(0.00053611344558 0.000723439546973 0.000111051018571)
(0.00048612502797 0.000683698298079 0.000132441163603)
(0.000446028741209 0.000664658223962 0.00011187281333)
(0.000459463447372 0.000664321936149 5.71956736854e-05)
(0.000542730160997 0.000676591649455 8.63563563631e-06)
(0.000666598699244 0.000701984139577 -1.60503235703e-05)
(0.000781714239489 0.000741355846341 -9.75388125401e-06)
(0.000850907088009 0.000796178377262 1.19657131937e-05)
(0.000858561412702 0.00086662471001 3.54328207093e-05)
(0.000808427272618 0.000954144356775 4.41823553271e-05)
(0.000721120718334 0.00105301462287 2.80033255846e-05)
(0.000622381115977 0.00115336679007 -8.38445941942e-06)
(0.000527587292822 0.00124402489867 -4.17354103939e-05)
(0.000478837286886 0.00131772539911 -1.54791445449e-05)
(0.000222563891356 0.00138190501673 9.94546783905e-05)
(-7.74959147222e-05 0.00116363743615 5.37171076962e-05)
(-3.31978648854e-05 0.00106377000967 -0.000108057554773)
(0.000224326993774 0.000974010942411 -0.000126581933854)
(0.000393311199368 0.000877206518376 -4.91663323162e-05)
(0.000477062751025 0.000784556022294 4.42662516255e-05)
(0.00048487621826 0.00071228616366 0.000111525034653)
(0.000459415794516 0.000668346001445 0.000138370265422)
(0.000443285680122 0.000654464617898 0.000127457062004)
(0.000474572040436 0.000667601857242 8.49919801255e-05)
(0.000570703439432 0.000697483644493 4.2020328399e-05)
(0.000707128867644 0.000740349525829 1.74846341038e-05)
(0.00083578590065 0.000795704229071 1.93164787093e-05)
(0.000920561908764 0.000866252192984 3.43316763008e-05)
(0.000945952131015 0.000954823728233 5.13879474538e-05)
(0.000911149264506 0.00106293647163 5.84772026592e-05)
(0.000831207905793 0.00118563961368 4.62892205407e-05)
(0.000727645605991 0.00131219723727 1.73617980343e-05)
(0.000614298311922 0.00142878025123 -7.10621555292e-06)
(0.000537033195806 0.00152627163529 2.93058656737e-05)
(0.000245983755647 0.00161566096465 0.000159641124838)
(-0.000105466351484 0.00121499872054 9.81109245545e-05)
(-0.000100127879682 0.00110265188777 -7.93468784857e-05)
(0.000130950659922 0.000993573822534 -0.000113078965639)
(0.000291261338914 0.000873140046605 -4.97964405382e-05)
(0.000386702472734 0.000756481184136 3.18724060032e-05)
(0.000420924509006 0.000664861830169 9.54204990229e-05)
(0.000428887186023 0.000608942883258 0.000127022474142)
(0.000445408903293 0.000591203324253 0.000127136780905)
(0.000502397533334 0.000608853123925 0.000100146867228)
(0.000615323114041 0.00065114489384 6.7518697969e-05)
(0.000764625848651 0.00070897078977 4.58220125839e-05)
(0.000907398346656 0.000780873638189 4.39717659495e-05)
(0.00100976205686 0.000870173814837 5.32503413772e-05)
(0.00105488108597 0.000980010883694 6.56185826108e-05)
(0.00103746055513 0.00111107550758 7.29251106653e-05)
(0.000966653163144 0.00125813615912 6.6608899292e-05)
(0.000857583498115 0.00140870003706 4.78227832794e-05)
(0.0007220804169 0.00154718546213 3.59665379824e-05)
(0.000610581547351 0.00166244454346 8.62254069242e-05)
(0.000275943099349 0.00176830452772 0.000232350109203)
(-0.000134793072984 0.00121955941176 0.000150125699368)
(-0.000175225046819 0.00110356160916 -4.55256727757e-05)
(2.05740269556e-05 0.000984296452396 -9.94442681641e-05)
(0.000166710489551 0.000846519183055 -5.85957326556e-05)
(0.000273818155191 0.000710244864063 5.73113930281e-06)
(0.000338773650242 0.000597979911938 5.94674730513e-05)
(0.000386153019786 0.000525905814582 9.0730190354e-05)
(0.000442981726385 0.000497653385165 9.86446336322e-05)
(0.000534131329759 0.000511380174108 8.55431764386e-05)
(0.000670559373962 0.000557627316612 6.4573729726e-05)
(0.000836718497861 0.000624890517708 4.95634495794e-05)
(0.000996899311827 0.000710577239967 4.82065721132e-05)
(0.00111959600358 0.000816526565732 5.64146141665e-05)
(0.00118655506554 0.000945322875759 6.93423168017e-05)
(0.00118759016003 0.00109615000044 8.10729567782e-05)
(0.00112516947693 0.00126266011811 8.45079068633e-05)
(0.00100833797458 0.00143077290286 8.04034539587e-05)
(0.000846339457247 0.00158459214515 8.56416182777e-05)
(0.000693921359192 0.00170860624214 0.000152426069379)
(0.000308837662894 0.00181765832191 0.000312595798222)
(-0.000161099227603 0.00116483433012 0.000200880488503)
(-0.000251341569867 0.00106291504091 -7.34399341919e-06)
(-0.000100530050964 0.000946999957736 -8.26884675543e-05)
(2.6455866265e-05 0.000804943520983 -7.10371165411e-05)
(0.000141443753228 0.000658787871988 -3.34808071504e-05)
(0.000236463030705 0.000533012992236 4.39147866994e-06)
(0.000327295021974 0.000446512966532 2.92539946629e-05)
(0.000429658649792 0.000405726658197 3.95334535703e-05)
(0.000561649484743 0.000410202245174 3.60437362785e-05)
(0.000728901829443 0.00045204776318 2.62815299128e-05)
(0.000918304294471 0.000521201332702 2.05995719822e-05)
(0.00110018337643 0.000613109378777 2.40989793951e-05)
(0.00124582666576 0.000728054433524 3.66263844122e-05)
(0.00133549642031 0.000866937536492 5.55117552909e-05)
(0.00135437661221 0.00102756941651 7.70500598232e-05)
(0.00129892347128 0.00120177723494 9.59173838683e-05)
(0.00117268687489 0.00137653531091 0.00011255646955)
(0.000979841263634 0.00153348081761 0.000140188772706)
(0.000778714548687 0.00165467361108 0.000224762755275)
(0.000339832953801 0.00175082333796 0.000393365351681)
(-0.000177579944704 0.0010450496602 0.000247687652771)
(-0.000315342218077 0.000975064512855 3.81119866557e-05)
(-0.000216075695068 0.000879074702486 -5.58033183264e-05)
(-0.00011552988297 0.000751561230787 -7.63905518241e-05)
(2.16912128994e-06 0.000612110766279 -7.1130507041e-05)
(0.000123442750769 0.000487533512512 -5.71405533345e-05)
(0.000254251442718 0.000396047349425 -4.46303239012e-05)
(0.000402822652704 0.000346548169205 -3.84565881179e-05)
(0.000578299800958 0.000340470316945 -3.67597019552e-05)
(0.000781591523215 0.000371546440886 -3.72903977569e-05)
(0.000999618839974 0.00043364521236 -3.3636620249e-05)
(0.0012067328281 0.000520592230917 -2.24165344072e-05)
(0.00137682333999 0.000631910623613 -7.05028744081e-07)
(0.0014888787259 0.000765891902633 2.93032729579e-05)
(0.00152352334028 0.000919551364141 6.56382610208e-05)
(0.00147323672596 0.00108456961098 0.000104892341674)
(0.00133533175099 0.00124764617745 0.000146934262319)
(0.0011080905426 0.00138985180615 0.00020056711382)
(0.000853047562285 0.00149398744133 0.000301457601117)
(0.000361641802957 0.00156151354908 0.000468138626267)
(-0.000177657178351 0.000849855094216 0.000286358348314)
(-0.000353138833778 0.000826984957928 9.41369658374e-05)
(-0.000308921650917 0.00076708341928 -8.60570731186e-06)
(-0.000239705166246 0.000674600841926 -5.65579210663e-05)
(-0.000128074099357 0.00056465893474 -8.2343402702e-05)
(1.0488985562e-05 0.000459637715138 -9.44792633614e-05)
(0.000174547511567 0.000377974050664 -9.95454252253e-05)
(0.000364018800442 0.000328391846028 -0.000100794542826)
(0.000580429309204 0.000314178262334 -9.96393434519e-05)
(0.000820769142614 0.000331769240758 -9.52258649635e-05)
(0.00107035471627 0.000378283390062 -8.42653471857e-05)
(0.00130446953868 0.000448947815578 -6.37181546065e-05)
(0.00149853385734 0.000541522705585 -3.12544644782e-05)
(0.0016301566662 0.000653087638627 1.24797934072e-05)
(0.00167780023274 0.000779721975734 6.61658909354e-05)
(0.00162905746132 0.000913519597517 0.000127180967867)
(0.00147625838986 0.0010414917765 0.000194704605258)
(0.00121466006773 0.00114853832365 0.000271662970226)
(0.000904443195697 0.00122005394076 0.000381702512162)
(0.000368891074546 0.00124610674806 0.000532348168491)
(-0.000157661414696 0.000590490770812 0.000316628066398)
(-0.000355934595878 0.000640462239859 0.000181548028928)
(-0.000366698804087 0.00063762274792 9.54836508551e-05)
(-0.000331336154049 0.000601749005811 3.88500721081e-05)
(-0.000234660508784 0.000542238682468 -5.1687111864e-06)
(-9.11704187002e-05 0.000475988755584 -3.79652708519e-05)
(9.38579279003e-05 0.000418108028104 -6.20846546654e-05)
(0.00031471291656 0.000377897103874 -7.69448199183e-05)
(0.000566575880957 0.000359055150296 -8.31300550554e-05)
(0.00084165508374 0.000363474538852 -8.01547977773e-05)
(0.00112299911606 0.000390398325312 -6.5582837976e-05)
(0.0013842420918 0.000436426040912 -3.70847651369e-05)
(0.00159980313387 0.000498530716667 6.62714255772e-06)
(0.00174681578451 0.000574069492405 6.47092705322e-05)
(0.00180081080143 0.000658225195541 0.000134215010557)
(0.00174754751321 0.000742068460434 0.000211784573569)
(0.00157759151966 0.00081476224503 0.000294045820246)
(0.00128438993047 0.000865046987097 0.000379062538739)
(0.000922665580762 0.000883317611168 0.000477940566024)
(0.000358576735483 0.000837285522698 0.00058202990467)
(-9.99348567225e-05 0.000199428047382 0.000324158722664)
(-0.000302446770827 0.000254211590433 0.00031952251072)
(-0.000387011049566 0.000275071239187 0.000290186086857)
(-0.000399731563179 0.000276561500148 0.000250506715484)
(-0.000333825093989 0.000261698337619 0.000204583466748)
(-0.00020082208149 0.000238719294131 0.000156037169704)
(-6.09415137464e-06 0.000214977208674 0.000109464711298)
(0.00023927336528 0.000196072776354 7.17696464448e-05)
(0.000526614302447 0.000184786604163 4.89506389238e-05)
(0.000842407055645 0.000184115893158 4.16280741876e-05)
(0.00116124390051 0.000193576451706 5.53766298839e-05)
(0.00145408636066 0.000210917580649 9.30144529164e-05)
(0.00169320205415 0.000236453489628 0.000149478944518)
(0.00185310463688 0.000267220577485 0.000221885176051)
(0.00190720981954 0.000299800664114 0.000303558853731)
(0.00183911219834 0.000329745816943 0.000387119526005)
(0.00164025835717 0.000350120753994 0.000464792959269)
(0.00130679758524 0.000356127153467 0.000531426235868)
(0.000875086959726 0.000345286615496 0.000582329044316)
(0.000304690302696 0.000291443160225 0.00059139782046)
(-1.68012048804e-05 -5.53005286351e-05 0.000436354089715)
(-9.48055996123e-05 -4.72798085244e-05 0.000385971465979)
(-8.78098263804e-05 -3.02069206457e-05 0.000290888319507)
(-3.35244169828e-05 -3.39458477413e-06 0.000181617652303)
(6.32422726221e-05 2.32131198613e-05 7.40127873501e-05)
(0.000188613216218 4.42653354046e-05 -2.15679198533e-05)
(0.000331620708389 5.77327985164e-05 -9.74896309961e-05)
(0.000487931357114 6.41252568418e-05 -0.000148809595494)
(0.000649552962541 6.14853383194e-05 -0.000168730005869)
(0.000807991813949 5.4570028849e-05 -0.000165191649622)
(0.000963176635405 4.79149326411e-05 -0.00012778256666)
(0.00110438636792 3.78321721551e-05 -5.75848397917e-05)
(0.0012164699609 2.45597481531e-05 4.26625929869e-05)
(0.00128685992521 8.20406222842e-06 0.000174440945243)
(0.00129998926947 -1.16182957413e-05 0.000330462666875)
(0.00124312023836 -3.40263182062e-05 0.000500605853935)
(0.00110479627933 -5.89941751613e-05 0.000673129441689)
(0.000879547361905 -8.31569683836e-05 0.000832380206148)
(0.000582669560308 -9.77023762124e-05 0.0009615205072)
(0.00018065538067 -0.000100109452705 0.00102574699458)
(2.39558369505e-06 -0.000211288384483 0.000378024756358)
(-5.71888631712e-05 -0.000193291459795 0.000151394389659)
(-2.33754195678e-05 -0.000145031073719 -6.82534064963e-06)
(4.56172114755e-05 -7.41555807379e-05 -0.000127530361444)
(0.000147689962363 2.40168072157e-07 -0.000221231791077)
(0.000271370027581 6.36095432404e-05 -0.000285977275209)
(0.000405245348398 0.000107573495598 -0.000322137456417)
(0.000541514246011 0.000130441868849 -0.000333969138595)
(0.000676885445364 0.000129881622831 -0.000327562285421)
(0.000811922599142 0.000113244093862 -0.000307500280706)
(0.000941594021395 9.83068123537e-05 -0.00026879678024)
(0.00105598811274 6.89081913363e-05 -0.000212603330797)
(0.0011467300705 3.14489037317e-05 -0.000137309694506)
(0.00120285574267 -1.89832691876e-05 -3.98235116191e-05)
(0.00121078422072 -8.0355219689e-05 8.1434687464e-05)
(0.00115546453756 -0.00015051224152 0.000224323435874)
(0.00102412604161 -0.000223859770074 0.000382808603225)
(0.000812647905035 -0.000290873292455 0.000549927875754)
(0.000547977841578 -0.000338535081169 0.000733203615065)
(0.000164961156393 -0.00035386697628 0.000959314747289)
(2.37111316936e-05 -0.000280803558122 0.000258116191043)
(-1.83053280135e-07 -0.000234898295588 -3.72009744155e-05)
(6.69182116722e-05 -0.000153423837997 -0.00019892356773)
(0.000147320595475 -4.57794006266e-05 -0.000285155229306)
(0.000244923835811 6.53240024632e-05 -0.000328226722)
(0.000352159811798 0.000159521391385 -0.000340208927127)
(0.000462612966303 0.000223273203156 -0.000330554966109)
(0.000572758572808 0.000254463282829 -0.000309802618051)
(0.000681258248949 0.000256068440637 -0.00028566883393)
(0.000799778017928 0.00023687883226 -0.000262741940604)
(0.000911523010373 0.000204093019211 -0.000224089018007)
(0.00100344504885 0.000159398410891 -0.000185423758826)
(0.00107785810186 0.000101119304238 -0.000135895885921)
(0.00111759310372 2.61657697013e-05 -7.37616490223e-05)
(0.00111285798293 -6.65559895557e-05 4.49651278133e-06)
(0.00105111163726 -0.000173679824595 0.000100616837538)
(0.000922134539279 -0.00028565737678 0.000214808995004)
(0.00072389596017 -0.000388853537173 0.000350673666028)
(0.000493236083496 -0.000468996321994 0.000533449085105)
(0.000147191857649 -0.000517170129708 0.000817588755566)
(5.16743503416e-05 -0.000273176571509 0.000113977814596)
(7.43709465013e-05 -0.00021144489272 -0.000202082654567)
(0.000179247413386 -0.000117363482502 -0.000332296161555)
(0.00027063990912 2.12883950085e-06 -0.00035444093436)
(0.000357220622682 0.000122848984703 -0.000325392877914)
(0.000437588546122 0.000223044923015 -0.000273616765238)
(0.000514581572467 0.000286991220286 -0.000217635355397)
(0.000592634689586 0.000313326627974 -0.000172825078567)
(0.000677036394924 0.000307094749663 -0.000140894721657)
(0.000772074148023 0.000281547917767 -0.000118330277223)
(0.000867735118242 0.000235925113219 -9.49623920954e-05)
(0.000948650922694 0.000186445187667 -7.05998750707e-05)
(0.00100385532798 0.000122050196468 -4.42285313905e-05)
(0.0010237279622 3.89181436447e-05 -1.59331234331e-05)
(0.00100077190345 -6.51459772851e-05 1.69360409037e-05)
(0.000927771429345 -0.000185762012453 5.68803578999e-05)
(0.000799593379148 -0.000312024849221 0.00011023944046)
(0.000617992123007 -0.000428874527821 0.00019201189376)
(0.000425659986445 -0.00052141900756 0.000345049388081)
(0.000124439323321 -0.000587693172896 0.00064019290971)
(7.91306189657e-05 -0.000191741074233 -2.87044041804e-05)
(0.000151740662963 -0.000120868845238 -0.00034051146344)
(0.000293938464651 -2.87774125287e-05 -0.000423294757573)
(0.000394074114921 8.16489030658e-05 -0.000373813797881)
(0.000466217579151 0.000189252411777 -0.000272610087731)
(0.000515533284199 0.000273901958689 -0.00016314478771)
(0.000554832377636 0.000324339107597 -7.34829557691e-05)
(0.000598470564387 0.000336437915888 -1.50549852481e-05)
(0.000657798163714 0.000317007461282 1.28724851404e-05)
(0.000737137132428 0.000279952960992 2.44138523583e-05)
(0.000822993023968 0.000234562654721 3.47563625525e-05)
(0.000893832873923 0.000185857587378 4.75782143124e-05)
(0.00093265322487 0.000128063448789 5.86754113396e-05)
(0.000931363463477 5.31571598342e-05 6.18541037717e-05)
(0.000888258091982 -4.29050327899e-05 5.55385725712e-05)
(0.000802564206539 -0.000155864016715 4.3010953534e-05)
(0.000674576991691 -0.000274694210224 3.59060395756e-05)
(0.000510585694252 -0.000386255380199 5.882631781e-05)
(0.000357353798337 -0.000478355998004 0.000169831275531)
(0.000102841755849 -0.000554683505535 0.000452648986285)
(0.000102340229064 -5.28596604362e-05 -0.000151663520862)
(0.000218352548361 2.01275465197e-05 -0.000440990492623)
(0.000391654114988 9.79151299782e-05 -0.000473570129166)
(0.000496714493754 0.000183446980791 -0.000361007520193)
(0.000551973508257 0.000262269253579 -0.000202519152251)
(0.000572314826248 0.000319260156114 -5.31122983054e-05)
(0.000577251932364 0.000346010403665 5.4768607987e-05)
(0.000587997092899 0.000338552871574 0.000109776144902)
(0.000625976940201 0.000304449405197 0.000119605909058)
(0.000696583213339 0.000259176929154 0.000111539585486)
(0.000780684635361 0.00021407094478 0.000108969832326)
(0.0008483392159 0.000173558576923 0.000117870547923)
(0.00087588756521 0.00013164328655 0.000127126251214)
(0.000855687189634 7.82909752627e-05 0.00012029552744)
(0.000792625629545 6.71818215214e-06 8.91066026767e-05)
(0.000694430165137 -8.08192000005e-05 3.69934709461e-05)
(0.000566529483344 -0.000175215760138 -1.83151648063e-05)
(0.000418001252409 -0.000266037260423 -4.62991188593e-05)