/*--------------------------------*- C++ -*----------------------------------*\
| =========                 |                                                 |
| \\      /  F ield         | OpenFOAM: The Open Source CFD Toolbox           |
|  \\    /   O peration     | Version:  3.0.1                                 |
|   \\  /    A nd           | Web:      www.OpenFOAM.org                      |
|    \\/     M anipulation  |                                                 |
\*---------------------------------------------------------------------------*/
FoamFile
{
    version     2.0;
    format      ascii;
    class       volScalarField;
    location    "1.4";
    object      k;
}
// * * * * * * * * * * * * * * * * * * * * * * * * * * * * * * * * * * * * * //

dimensions      [0 2 -2 0 0 0 0];

internalField   nonuniform List<scalar> 
7968
(
0.00479676947915
0.0050141881151
0.00515488287536
0.00521892295376
0.00524334772318
0.00525071424504
0.00525150538673
0.00525014104491
0.00524877615085
0.00524776296304
0.00524818007778
0.00524926392609
0.00525060743662
0.00525178326598
0.00525081789592
0.00524339862944
0.0052190405152
0.00515507743261
0.00501444772349
0.00479690069592
0.00501414271967
0.00618983546544
0.00689812398022
0.00724557328685
0.00739866239214
0.00745673031919
0.00747289391828
0.007473240325
0.00746959900533
0.00746710136471
0.00746772160735
0.00747095900141
0.00747458040993
0.00747370882856
0.00745692442938
0.0073985037812
0.00724543150566
0.00689824493825
0.00619025875014
0.00501437167379
0.00515482652125
0.00689812240918
0.00799138873825
0.0085600320871
0.00883058968453
0.00894446384239
0.00898327793052
0.00899100153833
0.00898903142641
0.00898721824744
0.00898793415682
0.00899123940328
0.00899346890958
0.00898503955809
0.008945045561
0.00883021881577
0.00855929421411
0.00799081746517
0.00689799404381
0.00515492385777
0.00521895451941
0.00724597699292
0.0085605437961
0.00927193921724
0.00962651650528
0.00978449737865
0.0098437248164
0.00986363502212
0.00986884191417
0.00986953940505
0.0098703856895
0.00987103213824
0.00986639513818
0.00984763949161
0.00978669269918
0.00962677078548
0.0092708882357
0.00855913785859
0.00724502470108
0.00521878980971
0.00524360541096
0.00739996283664
0.00883225780139
0.00962775827399
0.0100358811759
0.0102247439273
0.0103080123383
0.0103375599343
0.0103449976279
0.0103462117092
0.0103473942562
0.0103481191616
0.0103416282655
0.0103120022028
0.0102296835051
0.01003799811
0.00962722173849
0.00883037917305
0.00739827019351
0.00524313537757
0.00525131198428
0.00745927586045
0.00894774668547
0.00978745904209
0.0102263241349
0.0104433876481
0.0105374248453
0.0105703068594
0.010578087744
0.010579098771
0.0105806447302
0.0105822427833
0.0105759109195
0.0105430919041
0.0104480299657
0.0102311056121
0.00978837472012
0.00894605526995
0.0074572096094
0.00525060719049
0.00525244384307
0.00747661879242
0.00898804844507
0.00984806554118
0.0103088434159
0.010537752393
0.0106356963003
0.0106688468164
0.0106755514661
0.0106757679044
0.0106776339653
0.0106806145126
0.0106758380831
0.0106430477931
0.0105439986726
0.0103131253831
0.00985097508608
0.00898723320866
0.00747468644573
0.00525165214455
0.00525126493933
0.00747761565241
0.00899635883304
0.00986511799614
0.0103383124333
0.0105707018243
0.0106689340454
0.0107006610235
0.0107055986898
0.0107047859882
0.0107069287872
0.0107114011616
0.0107087660148
0.010677680088
0.0105784382684
0.0103439140992
0.00986933397993
0.00899685306372
0.00747627277722
0.00525056458909
0.00524951109969
0.00747382991734
0.00899389958467
0.0098696416453
0.0103452995436
0.0105780243245
0.0106752190536
0.0107052518852
0.0107086265895
0.0107070186608
0.0107094254705
0.0107150544525
0.010714230349
0.0106850634023
0.0105869698886
0.0103520543399
0.00987388058969
0.00899593773184
0.00747343105148
0.00524916842234
0.0052482221938
0.00747046206453
0.00899025693499
0.00986941386928
0.0103454891663
0.0105779111263
0.0106743449064
0.0107034904368
0.0107061810845
0.0107043188174
0.0107069229339
0.0107131315785
0.0107132472012
0.010685184329
0.0105879608348
0.0103533445251
0.00987467187866
0.00899405019253
0.00747130950038
0.00524836506029
0.00524824856402
0.00746983466776
0.00898937884276
0.00986910195438
0.0103452864673
0.0105778934956
0.0106746505799
0.0107042620096
0.0107074696625
0.0107059432896
0.0107086144454
0.0107148211928
0.0107148619232
0.0106866190631
0.0105891520892
0.0103542774283
0.0098754093217
0.00899500339394
0.00747202313899
0.00524879825125
0.00524921048392
0.00747201067947
0.0089913497052
0.00986873202404
0.0103447334485
0.0105779957545
0.0106761115181
0.0107074203967
0.0107121069103
0.010711381218
0.0107141246368
0.0107198301223
0.0107188024329
0.0106890981543
0.0105902669661
0.0103545885636
0.00987597489137
0.00899836204378
0.00747514556013
0.00524984218655
0.00525073198855
0.00747495365392
0.00899256844959
0.00986344393772
0.0103374576603
0.0105707068978
0.0106703335156
0.0107039234467
0.0107106814039
0.0107111188104
0.010713903118
0.0107185785329
0.0107156051038
0.010683606958
0.0105831233539
0.0103474203929
0.00987353953391
0.00899978042409
0.00747819768941
0.00525122586304
0.00525187109764
0.00747372555123
0.00898368203005
0.00984358842421
0.010307630301
0.0105377554922
0.0106373787633
0.0106727115398
0.0106815114492
0.0106831949069
0.0106858876075
0.0106891374777
0.0106838799417
0.0106498398241
0.0105491486772
0.0103169159387
0.00985503049678
0.00898972277743
0.00747624630235
0.00525214268553
0.00525087638952
0.00745681514675
0.00894378149739
0.00978304882459
0.0102232247453
0.010443212299
0.0105390459059
0.0105741286964
0.0105840208491
0.0105865459117
0.0105889656845
0.0105908207144
0.0105838980455
0.0105496729567
0.0104530336485
0.0102369474179
0.00979157961955
0.00894764745837
0.00745811147488
0.00525084808411
0.00524341055176
0.00739838647868
0.00882934745142
0.00962424011801
0.0100331535819
0.0102243937253
0.0103092492548
0.0103407027601
0.010350026353
0.0103526384123
0.0103546310136
0.0103555760787
0.010348627913
0.0103182690374
0.0102378680524
0.0100427098409
0.00962921355395
0.00883095116384
0.00739843696844
0.00524313119817
0.00521900406546
0.00724534353458
0.00855885732555
0.00926959108794
0.009624559513
0.00978429699274
0.00984624271628
0.00986597644484
0.00987256920683
0.00987443382568
0.00987599645603
0.00987713097318
0.00987571526797
0.00985715050765
0.00979307268576
0.00962986997463
0.00927166296858
0.00855876445606
0.00724452393351
0.00521858242417
0.00515501860868
0.00689817005924
0.00799067435501
0.00855870621708
0.00882935285058
0.00894429643119
0.00898498833825
0.00899482950534
0.00899484442103
0.0089941837272
0.00899614776062
0.00900016943904
0.00900192320073
0.0089917473654
0.00894917674312
0.0088318306673
0.00855909558837
0.00798976189437
0.00689702287454
0.00515458714571
0.00501439832853
0.00619023371868
0.00689801157442
0.00724500456529
0.0073980482923
0.00745665907829
0.00747384616929
0.0074754529464
0.00747306815554
0.00747167557932
0.00747301085809
0.00747652411963
0.0074797559069
0.00747771798508
0.00745927105468
0.00739918269061
0.00724489018848
0.00689713175606
0.00618931830708
0.00501410864914
0.0047968956251
0.00501437515299
0.00515496493693
0.00521886272686
0.00524320106409
0.00525061332181
0.00525157874792
0.00525043464706
0.00524903363646
0.00524841197582
0.00524903506409
0.00525020413089
0.00525170170818
0.00525257782507
0.00525118898464
0.00524336266248
0.00521870769047
0.00515463339537
0.00501411429054
0.00479688506883
0.00501146545136
0.00617452149331
0.00687829384524
0.00722582506733
0.00738158168409
0.00744363103366
0.00746406270007
0.00746810357796
0.00746656049112
0.00746492051217
0.00746555306905
0.00746775386939
0.0074691157273
0.00746472539847
0.00744390822231
0.00738157102433
0.00722569367299
0.00687816026538
0.00617449103678
0.0050116155422
0.00617469732353
0.0114750569691
0.0137051803324
0.0148254536512
0.0153699175845
0.0156122562236
0.0157063515955
0.0157355156983
0.015741008981
0.0157412231743
0.0157425024382
0.0157442768503
0.0157396349193
0.0157100802904
0.0156147961879
0.0153710707171
0.0148254666761
0.0137045074513
0.0114740939464
0.00617489589607
0.00687841426076
0.0137046707918
0.0166372164482
0.0181800896143
0.0189740738842
0.0193530000667
0.0195141661688
0.0195720569875
0.0195881684109
0.0195922649058
0.0195941932405
0.0195932273889
0.0195790264341
0.0195209198719
0.0193581487342
0.0189770428594
0.0181810025746
0.0166366694028
0.0137033996125
0.00687842618442
0.00722597619326
0.0148250210098
0.018180106017
0.0200041073102
0.0209784497828
0.0214637980119
0.0216808514065
0.0217647921084
0.0217899396714
0.0217962903228
0.0217993611547
0.0217982340258
0.0217761135393
0.0216924666747
0.0214734356499
0.0209849784828
0.0200072316872
0.0181805013784
0.0148239123466
0.00722568462914
0.00738201571812
0.015370132238
0.0189745871994
0.0209787432698
0.0220756182603
0.0226367908528
0.0228938203964
0.0229940331741
0.0230247990035
0.0230327274597
0.0230370343235
0.0230366487882
0.0230106829638
0.0229115875528
0.022651787613
0.0220869933519
0.0209852156427
0.0189767447988
0.0153697320073
0.0073814376493
0.0074445877331
0.0156134991777
0.0193542835493
0.0214643790384
0.0226363105744
0.0232433945037
0.0235233399096
0.0236317556944
0.0236635677191
0.0236710649567
0.0236764996888
0.0236787539855
0.0236536877971
0.0235477153492
0.0232656716738
0.0226532380282
0.021474926669
0.019358892317
0.0156143774001
0.00744387413647
0.00746557891369
0.0157085138384
0.0195160446719
0.0216815410924
0.0228936063418
0.0235228651115
0.0238120855071
0.0239209027562
0.0239495664628
0.0239546961617
0.0239609448996
0.0239672564217
0.0239470591266
0.0238420620486
0.0235513825802
0.0229162827824
0.0216963686817
0.0195235013061
0.0157111414697
0.00746495838788
0.0074700236772
0.0157379314286
0.0195737912655
0.0217649885551
0.0229928076253
0.0236299089905
0.023919455086
0.0240239131839
0.0240472973792
0.0240491921876
0.0240559292787
0.0240665796555
0.0240530013038
0.0239535819672
0.0236632625202
0.0230201643629
0.0217831028174
0.0195840604602
0.0157425276751
0.00746970268473
0.0074689251274
0.0157427129961
0.0195882801507
0.0217883329816
0.0230213030357
0.0236591466919
0.023945529297
0.0240448554293
0.0240635273614
0.0240627569168
0.0240698032232
0.0240838656856
0.0240760216425
0.0239827209528
0.0236961837162
0.0230525004193
0.0218104103388
0.019601367349
0.0157493188343
0.00746898255923
0.00746687563578
0.0157412996111
0.019589374688
0.0217917366698
0.0230257561172
0.0236628174378
0.023946893627
0.0240433911784
0.0240597850435
0.0240578750956
0.0240653067763
0.0240813472606
0.02407674114
0.0239870673361
0.0237032436189
0.0230603625223
0.0218170074084
0.019605094531
0.0157499310523
0.00746773138587
0.00746662837621
0.0157407260451
0.0195888844276
0.0217914903075
0.0230260033337
0.0236637270714
0.023948673315
0.024046227992
0.0240636652457
0.024062592235
0.024070691787
0.0240872156738
0.0240827267343
0.0239926659381
0.0237080354977
0.0230641181033
0.0218197483951
0.0196070335245
0.0157512872953
0.00746840851148
0.00746813981181
0.0157410361468
0.0195866767492
0.0217875853615
0.0230220057206
0.0236618086315
0.0239507778331
0.0240532233281
0.0240749366967
0.0240765832585
0.0240855332532
0.0241009107267
0.0240932558276
0.0239986631593
0.0237096255633
0.023062834738
0.021817767958
0.0196065590601
0.0157529285257
0.00747037123263
0.00746888600338
0.015735482559
0.0195713860929
0.0217638475669
0.0229938775805
0.0236340821973
0.0239277764978
0.0240371965668
0.024065369377
0.0240710227761
0.0240806116537
0.024093040509
0.0240793235249
0.0239774061148
0.0236827725266
0.0230346023762
0.0217926462105
0.0195908537145
0.0157473038689
0.00747111007339
0.00746439187527
0.0157058085482
0.0195132583691
0.0216802059894
0.0228948426698
0.0235278611419
0.0238223081801
0.0239373585958
0.0239720071196
0.0239818113373
0.0239914453168
0.0239995925068
0.0239786494909
0.0238699000286
0.0235733414331
0.022931845479
0.0217066453786
0.019530339197
0.0157160594108
0.00746612806502
0.00744361475473
0.0156111099766
0.01935155852
0.0214628737154
0.0226380681628
0.0232483179948
0.0235337937703
0.0236488840681
0.0236871114679
0.0236996209415
0.0237085139995
0.023712330333
0.0236858643281
0.0235752482793
0.0232864965615
0.0226672906129
0.0214836867823
0.0193645825205
0.0156187704347
0.00744468468967
0.00738140550774
0.0153684306314
0.0189722251621
0.0209769856291
0.0220759069853
0.022640515235
0.0229027835448
0.0230092881872
0.0230461045418
0.023058772051
0.0230662091247
0.0230669446521
0.0230390620547
0.0229351079367
0.0226689528808
0.0220979016344
0.0209916147978
0.0189808934538
0.0153733418684
0.00738187103572
0.00722567862165
0.0148240031852
0.0181781589194
0.0200021851593
0.020977811858
0.0214659148827
0.0216871934548
0.0217764248356
0.0218065976654
0.0218168466638
0.021822456833
0.0218220568874
0.0217972029841
0.0217104580872
0.0214860930723
0.0209925728539
0.0200114310322
0.0181832992905
0.0148267623375
0.0072257755087
0.00687827313997
0.013704052054
0.0166355089387
0.018177992917
0.0189726375538
0.0193535211132
0.0195178260791
0.0195795307095
0.0195989586537
0.0196051898247
0.0196091303678
0.0196098115844
0.0195944113686
0.0195334514853
0.0193667341439
0.0189820000136
0.0181836496111
0.0166385288772
0.0137055797676
0.00687827357854
0.00617465179092
0.0114743220123
0.013703349884
0.0148230814318
0.0153678251522
0.0156114549704
0.015707692374
0.0157394216126
0.0157473597921
0.0157494771695
0.0157520881583
0.0157545316504
0.0157492490351
0.0157178853432
0.0156201155533
0.0153740876446
0.0148270350941
0.0137056099176
0.0114755055466
0.00617466763768
0.00501161709718
0.00617492125984
0.00687847845898
0.00722569923842
0.00738131461749
0.00744353965283
0.00746443840362
0.00746916380148
0.00746872101184
0.00746797965896
0.00746910450579
0.00747124202416
0.00747194662149
0.0074668906915
0.00744526475489
0.00738222896639
0.00722595265608
0.00687834365004
0.00617468769301
0.00501162221713
0.00515012113813
0.00687160370179
0.00795683482877
0.00852549968718
0.0088006166422
0.0089212616769
0.00896713964596
0.00898066091569
0.00898242108144
0.00898177990755
0.00898269778818
0.0089844161585
0.00898289283773
0.00896902724838
0.00892249900987
0.00880115841453
0.00852544140853
0.00795636304791
0.00687110385465
0.00515028862226
0.00687192834314
0.0136816523105
0.0166092333897
0.0181505114912
0.0189449096596
0.0193252403054
0.0194880632293
0.0195473374801
0.0195644027772
0.0195686581183
0.0195712905767
0.0195714444631
0.0195569033683
0.0194978994971
0.0193335057795
0.0189504397045
0.0181528865714
0.0166087796941
0.0136793625833
0.00687179507381
0.00795704759459
0.0166082672802
0.0203416076873
0.0223761730308
0.0234765578079
0.0240355150201
0.0242931179698
0.024396670449
0.0244319165494
0.024442374573
0.0244463945368
0.024442888587
0.0244125541367
0.0243106795572
0.024052032735
0.0234896883815
0.0223844398954
0.0203446956378
0.0166072909271
0.00795688636171
0.00852557931566
0.0181488831614
0.0223749871264
0.024737817608
0.0260568854311
0.0267516213507
0.027084978205
0.0272244400637
0.02727317625
0.0272882523381
0.0272939683139
0.0272892353157
0.0272480202262
0.0271118096872
0.0267786221837
0.0260800334563
0.0247542499246
0.0223835398062
0.0181506583573
0.00852557245468
0.00880077596122
0.018942790582
0.0234736406657
0.0260542570775
0.0275245678842
0.0283150859879
0.0286993255378
0.0288605503122
0.0289154359857
0.028931579077
0.028938923752
0.0289363221738
0.0288919055379
0.0287367235638
0.0283530402084
0.0275584695981
0.026079744039
0.0234885927935
0.0189482472407
0.00880106010611
0.00892175922568
0.0193227377348
0.0240304005249
0.0267450307985
0.0283102081424
0.0291573080435
0.0295684947646
0.0297357855647
0.0297870503306
0.0297994634513
0.0298080289697
0.0298116026296
0.0297730311953
0.0296138824711
0.0292053987813
0.0283537009273
0.0267791565533
0.0240517918888
0.0193323132269
0.0089224920882
0.0089680461064
0.0194850477228
0.0242854963153
0.0270734122209
0.0286885553549
0.029561873396
0.0299784064381
0.0301373970057
0.0301766283439
0.0301813677224
0.0301908387184
0.0302039799849
0.030179136482
0.0300294717878
0.0296169886749
0.0287408266194
0.0271150082605
0.02431265585
0.0194987000899
0.00896940358029
0.00898177031201
0.0195433350221
0.0243865114832
0.0272091091646
0.0288439193012
0.0297222830347
0.0301301136051
0.0302727887558
0.0302960572247
0.0302915112237
0.0303015728281
0.0303253457421
0.0303178217998
0.0301853630178
0.0297821803721
0.0289019216753
0.0272563045546
0.0244182960558
0.0195605983328
0.00898385810537
0.00898332112408
0.0195586085185
0.0244184324371
0.0272537169532
0.0288933819449
0.0297673661471
0.0301626925686
0.0302892193859
0.030298384321
0.0302859619079
0.0302964014199
0.0303289926024
0.0303366562807
0.0302210948477
0.0298308868733
0.0289554893973
0.0273050210167
0.0244537840092
0.0195788893155
0.00898622353779
0.00898198412558
0.0195605603447
0.0244260200406
0.0272648821322
0.0289047045086
0.0297744630281
0.0301617805092
0.030278969097
0.0302804656429
0.0302640429037
0.0302750755491
0.03031289987
0.030329321142
0.0302236562181
0.0298416214164
0.0289704885558
0.0273195438337
0.0244642628025
0.019583465008
0.00898589438061
0.00898178462829
0.0195608094406
0.0244273388945
0.0272671665466
0.0289079733264
0.0297786454977
0.0301667110513
0.0302847073486
0.0302872373863
0.0302719867097
0.0302841995629
0.0303230134714
0.0303398233668
0.0302336748186
0.0298504348417
0.0289776873452
0.0273249024063
0.0244679719363
0.019586078904
0.00898686549004
0.00898269924206
0.0195591726147
0.0244216986858
0.0272600723949
0.028902606396
0.0297793002515
0.0301768937082
0.0303058989542
0.0303182137723
0.0303092898749
0.0303231175457
0.030358385199
0.0303668465537
0.0302495173546
0.0298555248798
0.0289753073726
0.0273195257288
0.0244639283251
0.0195859068239
0.0089884814656
0.00898085282288
0.0195440254927
0.024391099914
0.0272183663851
0.0288573059014
0.0297396774281
0.0301510787583
0.0302979468478
0.0303265990077
0.0303278474715
0.0303431764715
0.0303707034316
0.0303636804174
0.0302276387589
0.0298178786189
0.0289297150634
0.027275667273
0.0244316570678
0.0195699086661
0.00898649460235
0.00896707881352
0.019485721756
0.0242905333038
0.0270841320698
0.0287036731975
0.0295814512123
0.0300024463271
0.0301671276258
0.0302136741909
0.0302260398976
0.0302420067027
0.0302592265812
0.030234027847
0.0300788405007
0.0296572695211
0.0287706393088
0.0271349231811
0.0243258123035
0.0195081434592
0.0089718101778
0.00892094423832
0.0193232681961
0.024034766021
0.0267543732169
0.0283245144908
0.0291763719035
0.0295928558263
0.0297669142369
0.0298265706733
0.0298473365551
0.0298624994348
0.0298694967964
0.029829265668
0.0296629415668
0.0292435102225
0.0283798447511
0.0267954695774
0.024062254606
0.0193405047004
0.0089243644695
0.00880018729321
0.018943025302
0.0234765563531
0.0260609802828
0.0275354926583
0.0283309094584
0.0287213284251
0.0288902315671
0.028953556214
0.0289774970509
0.0289904397027
0.0289898661327
0.0289423386458
0.0287790135763
0.0283836010817
0.027577908526
0.0260908407733
0.0234956671197
0.0189548278906
0.00880234351264
0.00852509499261
0.018148572895
0.0223759347777
0.0247411202867
0.0260632593872
0.0267620758674
0.0271006843129
0.027248018612
0.0273044818238
0.0273262018782
0.0273362803547
0.0273324718413
0.0272871540517
0.0271437544764
0.0268006097494
0.0260927555268
0.0247608667772
0.0223880743402
0.0181560082165
0.00852638976919
0.00795653166217
0.0166072225483
0.0203404992342
0.0223760440232
0.0234783662414
0.0240405344188
0.0243027979244
0.0244123102838
0.0244531376636
0.0244686906045
0.024475886696
0.0244732223568
0.0244403677016
0.0243326603193
0.0240665754195
0.0234976880722
0.0223886276284
0.0203481421354
0.0166119188667
0.0079573972976
0.00687148097846
0.0136797216383
0.0166063700073
0.0181476467428
0.0189430806967
0.0193257310515
0.0194921061315
0.0195556977123
0.0195769391499
0.0195846405422
0.0195894714512
0.0195903388174
0.0195743469532
0.0195117651428
0.0193428315257
0.0189558971033
0.0181562532504
0.0166118544348
0.0136831131472
0.00687202537019
0.0051502789655
0.00687193656672
0.00795691635685
0.0085252876915
0.00880035344281
0.00892139949656
0.00896813658401
0.00898281319406
0.00898582563407
0.00898638631719
0.00898801603712
0.00898988937137
0.00898789717751
0.00897298343176
0.00892516265226
0.00880277923083
0.00852658334981
0.00795748834291
0.00687208099598
0.0051502737223
0.00521409823791
0.00721500403911
0.00852036660551
0.00923388041804
0.0095967342149
0.00976519500521
0.00983376391457
0.00985624456315
0.0098608251288
0.00986112287441
0.00986274640701
0.00986488878125
0.00986145645829
0.0098390032536
0.00976964347733
0.0095998489453
0.00923531109034
0.00852015572102
0.00721406649022
0.00521435827988
0.00721546760419
0.014790229742
0.0181413244149
0.0199686531888
0.0209497168808
0.0214418577949
0.0216640261111
0.021750222047
0.0217776224492
0.0217860498292
0.0217915911751
0.0217928636559
0.0217720216975
0.0216885540588
0.0214654041602
0.0209689931773
0.0199810306347
0.0181455890945
0.0147877311206
0.00721493896166
0.00852062329215
0.0181395165435
0.0223721404733
0.0247467353031
0.0260790550447
0.0267852613843
0.0271264654326
0.0272709302969
0.0273231645299
0.0273406669885
0.027348872201
0.0273464801363
0.0273061551667
0.0271691023442
0.0268301248108
0.0261203453199
0.0247786127687
0.0223903108791
0.0181437378889
0.00852084703643
0.00923358363387
0.0199640482651
0.0247419928125
0.0274800307348
0.0290597232895
0.0299239419911
0.0303558107902
0.0305431441689
0.0306105818652
0.0306326668496
0.0306432735153
0.0306412170332
0.0305907831387
0.0304161728978
0.0299913114797
0.0291251906812
0.0275340192784
0.0247770869399
0.0199780105307
0.00923548245957
0.00959577583901
0.0209409267008
0.0260658655063
0.029048664161
0.0307992337581
0.0317719678729
0.0322586919462
0.0324643899926
0.0325316404092
0.0325504552248
0.0325629725948
0.0325680609456
0.032521659426
0.0323328104479
0.0318574813206
0.0308864164523
0.0291239666767
0.0261178673181
0.0209656328559
0.00959966071855
0.00976368388174
0.0214280907825
0.0267612540436
0.0298973164359
0.0317538413593
0.0327836968669
0.0332870610131
0.033483176713
0.0335322422916
0.0335390251699
0.0335534081924
0.0335741916193
0.0335491049359
0.0333720183904
0.0328820483301
0.0318566498384
0.0299899451204
0.0268280186555
0.021463008156
0.00976952439804
0.00983183041451
0.0216453131816
0.0270915179896
0.0303123117157
0.0322200852829
0.033264757167
0.0337521064458
0.0339149489561
0.0339307691625
0.0339183926403
0.0339345285775
0.033977890021
0.0339886122962
0.0338456357908
0.0333716937803
0.032332426509
0.0304162951236
0.0271695343619
0.0216887723429
0.00983943500601
0.00985381946253
0.021727049105
0.02722695902
0.030486326791
0.0324084047571
0.0334406729744
0.0338931607001
0.0340109881421
0.0339874265495
0.0339532946268
0.0339706923237
0.0340384127979
0.0340905676319
0.0339927450542
0.0335527541069
0.0325258157083
0.0305971100783
0.0273123141536
0.0217767446535
0.00986287300411
0.00985759369297
0.0217504062643
0.0272723075426
0.030544509255
0.0324639749616
0.0334753642565
0.0338922443206
0.0339695139241
0.0339123858844
0.0338600493719
0.0338781722203
0.0339657506553
0.0340530312033
0.0339957983109
0.0335903613269
0.0325838722185
0.0306586810344
0.0273617641472
0.0218042129058
0.00986783293778
0.00985671442189
0.021755372418
0.0272859113915
0.0305616403126
0.032476787367
0.0334741286743
0.0338695664873
0.0339237096624
0.0338482527055
0.0337864075
0.0338055581386
0.0339046468094
0.0340116963716
0.0339773284859
0.0335918446829
0.0325982254999
0.0306774754223
0.0273776998167
0.0218120701293
0.00986817438694
0.00985691624732
0.0217581614468
0.0272919059209
0.0305705608674
0.032487789498
0.0334858554237
0.0338812959853
0.0339356688013
0.0338612313837
0.0338010793161
0.0338222615763
0.0339231338729
0.0340309083737
0.0339955792355
0.033607669155
0.0326109563443
0.0306872709561
0.0273848411548
0.0218171468546
0.00986986663469
0.00985810814514
0.0217580127444
0.0272890566425
0.0305695679284
0.0324949563575
0.0335083473064
0.0339252781568
0.0340035300349
0.0339498756639
0.0339028692009
0.0339269554807
0.034019369958
0.034108105023
0.0340473723833
0.0336343330887
0.0326185647741
0.0306848802589
0.0273806748995
0.0218175064461
0.00987198686819
0.00985453063699
0.0217377513524
0.0272509753354
0.0305224040908
0.0324528678705
0.033487844078
0.0339405215207
0.034060713877
0.0340438545916
0.0340191020076
0.0340460462742
0.0341206329309
0.034173675169
0.0340688516925
0.0336157666669
0.0325736909227
0.030631747994
0.0273362975426
0.0217934742589
0.00986778819699
0.00983266345552
0.0216570686135
0.0271185789505
0.0303527414568
0.0322688829479
0.0333161146045
0.0338038649004
0.0339708324404
0.033996640024
0.0339973450683
0.0340257730924
0.0340769921063
0.0340872622822
0.0339337522608
0.0334418784803
0.0323827469287
0.0304499793594
0.0271908869915
0.021703939651
0.0098436900653
0.00976447505661
0.0214388224204
0.0267866484762
0.0299350456664
0.0317992515502
0.0328316055073
0.0333362033779
0.0335382491648
0.0335997620712
0.033621758602
0.03364934936
0.0336774087994
0.0336497963837
0.0334590779072
0.0329477117736
0.0318992830463
0.0300147362508
0.0268415475703
0.0214737055698
0.0097724195476
0.00959625972217
0.0209489074163
0.0260858837911
0.0290791978621
0.0308366354315
0.0318130018225
0.0323027958695
0.0325161686091
0.0325967963083
0.0326305974194
0.0326548353988
0.0326647613615
0.0326130113437
0.032408101047
0.031909472571
0.0309162199636
0.0291366155828
0.0261227101321
0.0209717874343
0.00960124520988
0.00923344640552
0.0199681499239
0.0247543117118
0.0275000506026
0.0290856581083
0.0299551592846
0.0303933770504
0.0305900445605
0.0306700807325
0.030704749083
0.0307238349297
0.0307233009497
0.0306650215832
0.0304732465806
0.0300275954485
0.0291414270203
0.0275369003704
0.0247764181123
0.0199817023604
0.00923632046632
0.00851981701639
0.0181395815235
0.0223762939066
0.0247555066524
0.0260921132437
0.0268033710719
0.02715188207
0.0273062311219
0.0273691889892
0.027396588636
0.0274102691528
0.0274076033801
0.027360196105
0.0272089446662
0.0268527832508
0.0261280169365
0.0247779262682
0.022389196132
0.0181475392445
0.00852152994701
0.00721454039954
0.0147870615558
0.0181387379437
0.0199678728179
0.0209516217857
0.0214479690454
0.021676407619
0.0217705562888
0.0218061438535
0.0218213930938
0.0218308361452
0.0218323389022
0.0218069165593
0.0217142522864
0.0214801335395
0.0209747629168
0.0199824751524
0.018147457591
0.0147924452163
0.00721549074891
0.00521430579561
0.00721507730885
0.00852031642238
0.00923385661896
0.00959704010763
0.0097664395799
0.00983668749787
0.0098613916376
0.00986832225153
0.0098706904817
0.00987356687717
0.00987592284332
0.00987133226762
0.0098464078082
0.00977411943641
0.00960208087126
0.00923664286276
0.00852167318338
0.00721559284298
0.00521431097102
0.00524052503175
0.00737358400548
0.00880175094065
0.009607893413
0.0100337816266
0.0102399929619
0.0103275235089
0.0103573537078
0.0103638793311
0.0103650208992
0.0103683364491
0.0103727371168
0.0103697797814
0.0103416600763
0.0102542050767
0.0100463295205
0.00961672247093
0.00880545304211
0.00737335914942
0.00524106795253
0.00737414460063
0.0153494600897
0.0189706588018
0.0210057993546
0.0221372348395
0.0227266275134
0.0230025362558
0.0231127053293
0.023148538761
0.0231610293444
0.0231721856135
0.0231798533858
0.0231596601496
0.0230597831589
0.022788345003
0.0221963906577
0.0210535404016
0.0189985743564
0.0153552927782
0.00737439005104
0.00880177797215
0.0189663338219
0.0235457136152
0.02618890788
0.0277219191284
0.0285640256485
0.0289854530393
0.0291685214898
0.0292351772816
0.0292586741003
0.0292736286343
0.0292786734464
0.0292377454825
0.0290768913942
0.028671379914
0.0278333657977
0.0262880593037
0.0236153559214
0.0189961261604
0.00880625355971
0.00960583428963
0.0209912702448
0.0261729037763
0.029219729354
0.0310314722288
0.032054230289
0.0325779650233
0.032804841649
0.032881873474
0.0329058095348
0.0329232958427
0.0329335572354
0.0328893854602
0.032694588385
0.0321989640994
0.0311905964206
0.0293689462044
0.026285276412
0.0210490054235
0.00961671207923
0.0100282391678
0.0221062069441
0.0276777722614
0.0309970194534
0.032996088622
0.0341307275896
0.0346986103832
0.0349249004849
0.0349831650627
0.0349930797827
0.0350132886689
0.0350430873714
0.0350230792422
0.0348343551267
0.034301835723
0.0331903879555
0.0311870181992
0.0278279174596
0.0221904453674
0.0100455665248
0.0102305020434
0.0226762350228
0.0284854897063
0.031973657941
0.0340785173119
0.0352509869101
0.0358008302427
0.0359771919293
0.0359837418295
0.0359642094658
0.035988664789
0.0360559242731
0.0360932583936
0.0359559013437
0.0354412647844
0.0342947937152
0.0321910229309
0.0286644433387
0.0227826096078
0.0102532197967
0.0103145639508
0.0229343473591
0.0288743431882
0.0324514153785
0.0345914581188
0.0357409868474
0.0362203401611
0.0363054889326
0.0362329662571
0.0361711927672
0.036200868323
0.0363201182676
0.0364428755621
0.0363955901723
0.0359452357314
0.0348182727738
0.0326823049031
0.0290707327538
0.0230567828882
0.0103411985405
0.0103417387856
0.0230311655711
0.0290330155179
0.0326440427966
0.0347745448689
0.035865923119
0.0362488980437
0.0362255644332
0.0360638230739
0.0359553499118
0.0359892483574
0.0361634201072
0.0363812353781
0.0364409664421
0.0360791072477
0.0350039724684
0.0328783100806
0.0292371357108
0.0231628049071
0.0103706653117
0.010346203839
0.0230586261636
0.029085963402
0.0327030484405
0.0348082220906
0.0358390493877
0.036134686645
0.0360186370894
0.0357828221481
0.035635873839
0.0356720806591
0.0358895931273
0.036185614399
0.0363370589428
0.0360558267564
0.0350354015937
0.032934645986
0.0292912191319
0.0231936941334
0.0103761973568
0.0103456655727
0.0230671888961
0.0291065016123
0.0327238304209
0.0348117339405
0.0358058137212
0.0360510309004
0.0358835233571
0.035607986569
0.0354409306138
0.0354792785844
0.035720966985
0.0360593106066
0.0362602718
0.0360229716811
0.0350333941906
0.0329485649111
0.0293075794924
0.0232022964502
0.0103763974787
0.0103476638026
0.0230776508169
0.0291251508308
0.0327487841229