/*--------------------------------*- C++ -*----------------------------------*\
| =========                 |                                                 |
| \\      /  F ield         | OpenFOAM: The Open Source CFD Toolbox           |
|  \\    /   O peration     | Version:  3.0.1                                 |
|   \\  /    A nd           | Web:      www.OpenFOAM.org                      |
|    \\/     M anipulation  |                                                 |
\*---------------------------------------------------------------------------*/
FoamFile
{
    version     2.0;
    format      ascii;
    class       surfaceScalarField;
    location    "1.4";
    object      phi;
}
// * * * * * * * * * * * * * * * * * * * * * * * * * * * * * * * * * * * * * //

dimensions      [0 3 -1 0 0 0 0];

internalField   nonuniform List<scalar> 
22672
(
4.24897127912e-07
3.48819648973e-07
-7.7371888113e-07
1.10585361876e-06
2.87727466471e-07
-9.68686648198e-07
1.80894552043e-06
2.77001492922e-07
-9.80096759992e-07
2.34815831513e-06
3.12904841207e-07
-8.5212186506e-07
2.61478081407e-06
3.92036236764e-07
-6.58663984934e-07
2.55968191681e-06
4.92447021768e-07
-4.37354463173e-07
2.18999486469e-06
5.88509070397e-07
-2.18829411053e-07
1.55724739558e-06
6.64795022921e-07
-3.20558616045e-08
7.33443019934e-07
7.08042271739e-07
1.15753106155e-07
-1.73684830812e-07
7.192364587e-07
1.87881984319e-07
-1.05382395235e-06
6.98784056905e-07
1.81345551289e-07
-1.80758245841e-06
6.51598565276e-07
1.02150630483e-07
-2.35213149251e-06
5.82196494668e-07
-3.76562615314e-08
-2.63918206541e-06
4.94769127007e-07
-2.0772654382e-07
-2.63451562967e-06
4.02272722867e-07
-4.06946053231e-07
-2.3368142622e-06
3.15979937813e-07
-6.13686876946e-07
-1.78998288459e-06
2.55611282418e-07
-8.02446803142e-07
-1.09274297121e-06
2.3619916675e-07
-9.33441903912e-07
-4.16999356699e-07
2.55008898295e-07
-9.30754480202e-07
3.20251676717e-07
-7.37252239897e-07
3.64917895973e-07
9.54234375862e-07
-9.70335405808e-07
1.11172383751e-06
9.53895103082e-07
-1.4129771441e-06
1.91365685806e-06
1.01536292882e-06
-1.54029886608e-06
2.53504160054e-06
1.14784260382e-06
-1.45632794777e-06
2.8474214616e-06
1.33380383065e-06
-1.254154068e-06
2.79743301581e-06
1.53226231199e-06
-9.89834647326e-07
2.39424971391e-06
1.70386526713e-06
-7.12181779734e-07
1.69599338084e-06
1.82767646551e-06
-4.64634860828e-07
7.95430523297e-07
1.89240348506e-06
-2.83808688222e-07
-1.93125900444e-07
1.90045236424e-06
-1.92670085506e-07
-1.1505364465e-06
1.8547798876e-06
-1.98595858883e-07
-1.969930104e-06
1.76498072561e-06
-2.93998767858e-07
-2.56596487978e-06
1.64083015752e-06
-4.62608575832e-07
-2.87647714717e-06
1.49036600385e-06
-6.8509345573e-07
-2.86264748434e-06
1.32531217203e-06
-9.36876857234e-07
-2.51921782355e-06
1.15921909393e-06
-1.18667525171e-06
-1.88989572244e-06
1.01654111093e-06
-1.39025696778e-06
-1.09063761837e-06
9.23071125623e-07
-1.48613383846e-06
-3.49631404783e-07
8.84256227636e-07
-1.37025658206e-06
8.94850018568e-07
-9.24231831804e-07
3.52133784404e-07
1.59880456974e-06
-9.96707699275e-07
1.1750978465e-06
1.69049674968e-06
-1.55957042414e-06
2.06976612457e-06
1.83969130395e-06
-1.71900236668e-06
2.75526934071e-06
2.06716639215e-06
-1.60483387944e-06
3.08854423641e-06
2.33709124604e-06
-1.33657042989e-06
3.01838351789e-06
2.59514375246e-06
-9.9273001241e-07
2.56464829937e-06
2.79820470551e-06
-6.4061446721e-07
1.7981255568e-06
2.92965477321e-06
-3.35466464312e-07
8.25383187817e-07
2.98514205579e-06
-1.20007425137e-07
-2.35321023101e-07
2.97122759726e-06
-1.00822800303e-08
-1.25476401863e-06
2.90123938875e-06
-2.70275759714e-08
-2.12348910607e-06
2.78676927853e-06
-1.53074184136e-07
-2.75685963111e-06
2.63642823556e-06
-3.62237775597e-07
-3.08843594171e-06
2.45870249469e-06
-6.36769742295e-07
-3.07420205094e-06
2.26036659363e-06
-9.49297019044e-07
-2.70181583724e-06
2.04920705473e-06
-1.26238183888e-06
-2.012701309e-06
1.84660057824e-06
-1.51918051766e-06
-1.13294679026e-06
1.68217376519e-06
-1.63886264846e-06
-3.29902935971e-07
1.57111759381e-06
-1.48991019232e-06
1.49153008407e-06
-9.26586489603e-07
3.83381589108e-07
2.11171351143e-06
-8.96295511268e-07
1.30531090669e-06
2.28069218068e-06
-1.51213094866e-06
2.29931767619e-06
2.49078353229e-06
-1.64510633535e-06
3.03870201088e-06
2.76872428612e-06
-1.44095079808e-06
3.36925680088e-06
3.06469455856e-06
-1.0581678767e-06
3.25132263678e-06
3.31972917876e-06
-6.06662023207e-07
2.72509386617e-06
3.49710997844e-06
-1.72687890816e-07
1.87658324306e-06
3.58884407449e-06
1.89309708007e-07
8.24645632966e-07
3.60434863829e-06
4.32719530036e-07
-3.02797618454e-07
3.55983627781e-06
5.38823399035e-07
-1.37765283136e-06
3.47139031886e-06
5.04693500675e-07
-2.29129425219e-06
3.35267110436e-06
3.47729167532e-07
-2.95906520358e-06
3.2112277351e-06
9.29613266214e-08
-3.31406413837e-06
3.05111333362e-06
-2.3742172086e-07
-3.30886819644e-06
2.86988353457e-06
-6.14722294964e-07
-2.9203238035e-06
2.66655807463e-06
-1.00590426714e-06
-2.18094215313e-06
2.45327381619e-06
-1.34606305628e-06
-1.22166649944e-06
2.25674585049e-06
-1.53385527017e-06
-3.44511855125e-07
2.09923984605e-06
-1.40528422042e-06
1.94702221049e-06
-8.00009091248e-07
4.5682851871e-07
2.39413971682e-06
-7.39261211319e-07
1.4869358267e-06
2.60867952736e-06
-1.35810256864e-06
2.56867042845e-06
2.83988224655e-06
-1.43084245088e-06
3.33668975345e-06
3.11496221021e-06
-1.11426757523e-06
3.63519832007e-06
3.37844694993e-06
-6.12272279311e-07
3.44620053554e-06
3.57672789796e-06
-6.80128401956e-08
2.83389353615e-06
3.68364221587e-06
4.25762795885e-07
1.90517042457e-06
3.70620608294e-06
8.1134955967e-07
7.86838256401e-07
3.66405436361e-06
1.05861562729e-06
-3.90702164042e-07
3.58458013469e-06
1.15278653202e-06
-1.50237633466e-06
3.48811832485e-06
1.09493674344e-06
-2.44339827866e-06
3.38689165436e-06
9.06792277072e-07
-3.13359343157e-06
3.28379926539e-06
6.17614504389e-07
-3.51141025884e-06
3.17482358063e-06
2.54097269392e-07
-3.52393851828e-06
3.05020667551e-06
-1.67804412355e-07
-3.13730363773e-06
2.8969799115e-06
-6.1706635908e-07
-2.36855165819e-06
2.71845797009e-06
-1.03394572094e-06
-1.34579503975e-06
2.53271807868e-06
-1.29873833993e-06
-3.93754284287e-07
2.36355886464e-06
-1.21636944668e-06
2.17320953683e-06
-6.19948289792e-07
5.51021427123e-07
2.3994392159e-06
-5.56329039908e-07
1.68059545803e-06
2.62423167083e-06
-1.1451358665e-06
2.82517611655e-06
2.84025597502e-06
-1.1449652867e-06
3.59205205981e-06
3.07173210985e-06
-7.2365774166e-07
3.83473220292e-06
3.26727555957e-06
-1.31521237886e-07
3.56096907553e-06
3.38126863193e-06
4.692099493e-07
2.86538406138e-06
3.40407101391e-06
9.75144490418e-07
1.871163812e-06
3.35090908733e-06
1.3495067573e-06
7.1168371976e-07
3.25100713538e-06
1.57251827278e-06
-4.86607743936e-07
3.14193419698e-06
1.64092962445e-06
-1.6072728978e-06
3.04796135882e-06
1.56081514075e-06
-2.55280575896e-06
2.97801304127e-06
1.35440467317e-06
-3.25053420822e-06
2.92845079063e-06
1.05306971821e-06
-3.6438537891e-06
2.88496358725e-06
6.83171562749e-07
-3.68030589602e-06
2.830801026e-06
2.55848782365e-07
-3.31107886721e-06
2.74704067954e-06
-2.19297670031e-07
-2.53636188057e-06
2.62730149386e-06
-6.83571074849e-07
-1.47398663869e-06
2.48169765669e-06
-1.01136592333e-06
-4.5948787478e-07
2.33031704334e-06
-9.81268646707e-07
2.13698878771e-06
-4.23275129897e-07
6.44265222454e-07
2.12303252355e-06
-3.67868242988e-07
1.85148261911e-06
2.3261967354e-06
-9.09193821053e-07
3.0303597407e-06
2.50074209372e-06
-8.3937567948e-07
3.7720400423e-06
2.6679181692e-06
-3.37879454221e-07
3.94333479249e-06
2.78273935687e-06
3.13228354847e-07
3.58458799053e-06
2.81679204934e-06
9.23211115845e-07
2.81579822773e-06
2.76742043191e-06
1.40542969347e-06
1.77623214572e-06
2.65467617046e-06
1.73579045755e-06
6.05120515181e-07
2.51257324256e-06
1.90953912494e-06
-5.80614370426e-07
2.38620301972e-06
1.94146136239e-06
-1.67920900176e-06
2.30225536855e-06
1.84429682234e-06
-2.60587544875e-06
2.26636212723e-06
1.63831353015e-06
-3.29731930606e-06
2.26893485855e-06
1.35095508316e-06
-3.70074628591e-06
2.28592417668e-06
1.00246021828e-06
-3.76168668814e-06
2.29609922042e-06
5.95634298798e-07
-3.42092266544e-06
2.27733312202e-06
1.28933915884e-07
-2.65869926771e-06
2.22027434573e-06
-3.55207321512e-07
-1.58056308294e-06
2.12756206196e-06
-7.24012838306e-07
-5.2289788676e-07
2.01303722381e-06
-7.40398626105e-07
1.84717535987e-06
-2.33093447515e-07
7.2237300381e-07
1.59395557275e-06
-1.93307191872e-07
1.98079176724e-06
1.74969847632e-06
-6.81933267247e-07
3.16932188749e-06
1.86724243352e-06
-5.550440742e-07
3.86999263437e-06
1.96220677685e-06
5.02682972244e-09
3.96964546234e-06
2.00537729572e-06
6.7769608698e-07
3.53303904367e-06
1.97867757149e-06
1.27470941483e-06
2.70427645216e-06
1.88489728805e-06
1.71127675397e-06
1.63848475376e-06
1.74367400593e-06
1.9767877838e-06
4.80979373721e-07
1.58841786517e-06
2.08165740086e-06
-6.64891754395e-07
1.46354416425e-06
2.06852861855e-06
-1.71657043773e-06
1.3946863088e-06
1.95924727237e-06
-2.60604834389e-06
1.38456391864e-06
1.77127533862e-06
-3.28100314505e-06
1.42203950826e-06
1.52184801858e-06
-3.69071072924e-06
1.47939251951e-06
1.21623501829e-06
-3.77608649783e-06
1.53401253102e-06
8.47455792504e-07
-3.46754849927e-06
1.56501240717e-06
4.03773616584e-07
-2.72874731637e-06
1.56233629057e-06
-8.08743512774e-08
-1.65312817988e-06
1.52311859902e-06
-4.71188622241e-07
-5.72649336341e-07
1.45640201049e-06
-5.23857904159e-07
1.34376377783e-06
-6.92473734508e-08
7.74660368799e-07
8.73849409782e-07
-5.45664728286e-08
2.0587956587e-06
9.60199417438e-07
-4.94650020974e-07
3.23932941779e-06
1.01359340608e-06
-3.26899090113e-07
3.89851545527e-06
1.0404920735e-06
2.62514584449e-07
3.93478221038e-06
1.02552912256e-06
9.43568656568e-07
3.43476027412e-06
9.63018433863e-07
1.51567072161e-06
2.56121369823e-06
8.58116946703e-07
1.90031979077e-06
1.48424499685e-06
7.26661930236e-07
2.09397714374e-06
3.56731381004e-07
5.94875937798e-07
2.12105500553e-06
-7.33700486976e-07
4.94440869011e-07
2.0595367408e-06
-1.72473390905e-06
4.43106243164e-07
1.94261585099e-06
-2.567600181e-06
4.4225293248e-07
1.78517902192e-06
-3.22111611248e-06
4.85637460438e-07
1.58991796178e-06
-3.63395265827e-06
5.53484920533e-07
1.33874153106e-06
-3.74056187001e-06
6.27035396585e-07
1.0135807445e-06
-3.46172884251e-06
6.89506510691e-07
5.96664290162e-07
-2.75059617048e-06
7.29361171638e-07
1.21831255027e-07
-1.6875164348e-06
7.4184689805e-07
-2.81821336211e-07
-6.00540733839e-07
7.28629190935e-07
-3.5921771322e-07
6.83327409953e-07
5.98856993951e-08
7.97069420745e-07
4.12909433464e-08
3.5476034536e-08
2.08506837949e-06
4.93193675807e-08
-3.77133292441e-07
3.24941362523e-06
3.62540098001e-08
-1.87020525799e-07
3.87405108853e-06
-2.74950144745e-10
4.16115572126e-07
3.86693234192e-06
-6.07515946335e-08
1.09338730533e-06
3.32759454315e-06
-1.40509829144e-07
1.64285684358e-06
2.43036312747e-06
-2.32436442952e-07
1.98777927331e-06
1.35518359804e-06
-3.26831954394e-07
2.12867168971e-06
2.58579798959e-07
-4.08765060715e-07
2.1002463024e-06
-7.83672774635e-07
-4.68465098518e-07
2.00516212188e-06
-1.72323598527e-06
-5.00084858282e-07
1.88275850468e-06
-2.52379935577e-06
-5.03758851622e-07
1.74657848688e-06
-3.15264997901e-06
-4.7564854091e-07
1.59013786852e-06
-3.56060579398e-06
-4.17538105031e-07
1.37897716339e-06
-3.67761937256e-06
-3.41791104316e-07
1.0858350917e-06
-3.41853371832e-06
-2.5909472621e-07
6.89507317795e-07
-2.72934078989e-06
-1.82643897518e-07
2.22801011546e-07
-1.68311899027e-06
-1.21328978606e-07
-1.83059338545e-07
-6.03508455596e-07
-7.92019040269e-08
-2.71794450203e-07
-5.08982105016e-08
1.30707174909e-07
7.8949301704e-07
-8.04546462782e-07
5.6331062931e-08
2.06215771508e-06
-8.7469419125e-07
-3.48665671685e-07
3.20679052954e-06
-9.52831187232e-07
-1.55562233396e-07
3.81074098099e-06
-1.04917093531e-06
4.44931869765e-07
3.78592202187e-06
-1.14890181878e-06
1.11295763131e-06
3.23573864048e-06
-1.23821361829e-06
1.64787879927e-06
2.33785953564e-06
-1.30844577438e-06
1.97388389475e-06
1.27405769904e-06
-1.3561777302e-06
2.09314689916e-06
1.99654907959e-07
-1.37975643493e-06
2.04539658953e-06
-8.16450354857e-07
-1.3909320897e-06
1.93857658851e-06
-1.72659311782e-06
-1.39851361855e-06
1.80857627669e-06
-2.49587938605e-06
-1.40252629503e-06
1.66805742266e-06
-3.09748965119e-06
-1.38815490338e-06
1.5141181003e-06
-3.48683932593e-06
-1.34207057159e-06
1.31388058194e-06
-3.59731320705e-06
-1.26676670853e-06
1.03544454302e-06
-3.34312875122e-06
-1.16788142087e-06
6.54593985135e-07
-2.66760012308e-06
-1.05944667618e-06
2.01263036099e-07
-1.64144047467e-06
-9.53373875924e-07
-1.94128113011e-07
-5.8413635667e-07
-8.59892361845e-07
-2.7662854168e-07
-7.62611740684e-07
1.27567345399e-07
7.54241844871e-07
-1.55341370513e-06
-5.38780193258e-09
1.99296979215e-06
-1.70141546666e-06
-4.12020924101e-07
3.11546627599e-06
-1.84132012841e-06
-2.34021775793e-07
3.7143507866e-06
-1.99522197272e-06
3.47153317233e-07
3.69900943328e-06
-2.13473030382e-06
1.00115875718e-06
3.16795011814e-06
-2.2368352981e-06
1.52967302437e-06
2.29332046879e-06
-2.29149920413e-06
1.85767877052e-06
1.25075961409e-06
-2.3010375426e-06
1.9874199424e-06
1.87774200975e-07
-2.27560801581e-06
1.95883913339e-06
-8.25607061012e-07
-2.24168321819e-06
1.8641361938e-06
-1.73132231205e-06
-2.21875844343e-06
1.72596412409e-06
-2.48416910625e-06
-2.20641272223e-06
1.55673614891e-06
-3.05682360244e-06
-2.18609912884e-06
1.37059943054e-06
-3.41554687338e-06
-2.13636559261e-06
1.15301607426e-06
-3.5028742661e-06
-2.05262295529e-06
8.73178211728e-07
-3.23846882873e-06
-1.93583779376e-06
5.03542415896e-07
-2.56841318139e-06
-1.79843303498e-06
6.89195716451e-08
-1.5638475575e-06
-1.65334880408e-06
-3.04603850814e-07
-5.4197327664e-07
-1.51671293748e-06
-3.65068184036e-07
-1.3597236578e-06
5.51291694149e-08
6.88302593811e-07
-2.12968399438e-06
-1.12044943327e-07
1.87812212087e-06
-2.33461211118e-06
-5.56636448686e-07
2.97693257124e-06
-2.52759340307e-06
-4.1255073863e-07
3.58436887005e-06
-2.73704089213e-06
1.34369957279e-07
3.60281284093e-06
-2.92095326967e-06
7.67768222443e-07
3.11759524297e-06
-3.04734597635e-06
1.29572026437e-06
2.28776310002e-06
-3.10391029304e-06
1.6422384498e-06
1.27650761961e-06
-3.09665709099e-06
1.8068733759e-06
2.20397343429e-07
-3.04442307821e-06
1.82492614565e-06
-8.02747952269e-07
-2.97870786359e-06
1.7601721227e-06
-1.71858115254e-06
-2.92206535685e-06
1.61914240462e-06
-2.46489814187e-06
-2.87553712621e-06
1.41544259154e-06
-3.01200179672e-06
-2.82483728374e-06
1.18584096713e-06
-3.33663101618e-06
-2.75063547261e-06
9.38895630318e-07
-3.39261760499e-06
-2.64435773896e-06
6.47715081147e-07
-3.10877493545e-06
-2.50261185824e-06
2.8292244712e-07
-2.43779943113e-06
-2.33425681348e-06
-1.35162860252e-07
-1.45693452252e-06
-2.15451203479e-06
-4.79714445993e-07
-4.81180785814e-07
-1.98376149581e-06
-5.08718986761e-07
-1.78428551529e-06
-5.66278576202e-08
6.00000308103e-07
-2.45850431869e-06
-2.71191651598e-07
1.72254346218e-06
-2.69555611519e-06
-7.6161165071e-07
2.79054586037e-06
-2.92656911134e-06
-6.69039306169e-07
3.41460536085e-06
-3.18358230969e-06
-1.77530085609e-07
3.48414956105e-06
-3.41647921135e-06
4.25971188836e-07
3.06492457466e-06
-3.5806653055e-06
9.5253595734e-07
2.29623238961e-06
-3.65913558898e-06
1.32391172396e-06
1.32656961567e-06
-3.65860920592e-06
1.53161165728e-06
2.83123615451e-07
-3.60188512205e-06
1.60090678243e-06
-7.45327741329e-07
-3.51980308742e-06
1.56954638444e-06
-1.66953651051e-06
-3.43270125188e-06
1.43484448222e-06
-2.41194895099e-06
-3.34497700657e-06
1.21185116451e-06
-2.9384211544e-06
-3.25128043673e-06
9.52912466123e-07
-3.23235640555e-06
-3.13957389257e-06
6.8286860973e-07
-3.25628391129e-06
-2.99994133055e-06
3.79503768144e-07
-2.94986277538e-06
-2.826000533e-06
1.69581476052e-08
-2.27744351371e-06
-2.62353804411e-06
-3.83149043016e-07
-1.32490056868e-06
-2.41292289939e-06
-6.94144251149e-07
-4.04787882295e-07
-2.21877500386e-06
-6.85112058896e-07
-1.99916564778e-06
-1.89915972947e-07
4.98815556296e-07
-2.49728408627e-06
-4.60046124528e-07
1.53507704035e-06
-2.73203042317e-06
-9.99798277362e-07
2.55913469907e-06
-2.9758251575e-06
-9.74813017533e-07
3.19748716916e-06
-3.26170073029e-06
-5.60245233017e-07
3.32733741515e-06
-3.53567604116e-06
-1.0663721512e-08
2.98889232479e-06
-3.74211326636e-06
4.99884236991e-07
2.29581849418e-06
-3.85643740226e-06
8.90368680629e-07
1.38055104257e-06
-3.88175307516e-06
1.1384061901e-06
3.63519866839e-07
-3.83946683789e-06
1.25460919255e-06
-6.56641269174e-07
-3.75659382119e-06
1.25694892083e-06
-1.57876551772e-06
-3.64985485927e-06
1.13927485816e-06
-2.31495887432e-06
-3.52705543422e-06
9.18267995256e-07
-2.82510160127e-06
-3.39224915783e-06
6.51106321488e-07
-3.09281752775e-06
-3.24127851242e-06
3.69413807716e-07
-3.08660799595e-06
-3.06494720275e-06
5.87879923298e-08
-2.75723511516e-06
-2.85627305308e-06
-2.99110087302e-07
-2.08739358987e-06
-2.62407297155e-06
-6.69317316532e-07
-1.17365644699e-06
-2.39421612594e-06
-9.32455285538e-07
-3.22034519979e-07
-2.19382902605e-06
-8.76579648134e-07
-1.98096878419e-06
-3.40238783066e-07
3.97539241551e-07
-2.23787695773e-06
-6.56955106714e-07
1.33255669699e-06
-2.43034711084e-06
-1.23671022838e-06
2.29407375879e-06
-2.65038388527e-06
-1.28696831772e-06
2.93426628091e-06
-2.92842552179e-06
-9.73477927951e-07
3.12297715527e-06
-3.21381957009e-06
-5.10577288458e-07
2.87164183879e-06
-3.44763559253e-06
-4.31515649245e-08
2.26525500987e-06
-3.59630056715e-06
3.46241843764e-07
1.41860096977e-06
-3.65466696912e-06
6.19560896159e-07
4.45861204002e-07
-3.6388054873e-06
7.72072261446e-07
-5.4738597227e-07
-3.56892102397e-06
8.05568668544e-07
-1.45185016237e-06
-3.45937788839e-06
7.13981421274e-07
-2.17443757573e-06
-3.31907490918e-06
5.1460051919e-07
-2.66808665687e-06
-3.15889020886e-06
2.60282865693e-07
-2.91179381542e-06
-2.97984592929e-06
-1.77337019111e-08
-2.87763123769e-06
-2.77723916181e-06
-3.21879816611e-07
-2.53110819071e-06
-2.5480169785e-06
-6.54789003006e-07
-1.87458730134e-06
-2.30658584751e-06
-9.74018268003e-07
-1.01495137229e-06
-2.08355629316e-06
-1.17030618279e-06
-2.433835408e-07
-1.90397398389e-06
-1.06143336425e-06
-1.73031060198e-06
-4.94048253785e-07
3.19692201306e-07
-1.72133795083e-06
-8.36238238172e-07
1.14827786173e-06
-1.83225968629e-06
-1.4266808271e-06
2.0297132686e-06
-1.98907788131e-06
-1.5427498929e-06
2.65171655331e-06
-2.21134827596e-06
-1.33908964391e-06
2.88347460393e-06
-2.46133693769e-06
-9.84250138967e-07
2.71179986873e-06
-2.68506473001e-06
-5.90905567833e-07
2.19496589768e-06
-2.84387918779e-06
-2.35596542427e-07
1.42580333805e-06
-2.92596226448e-06
4.04491571281e-08
5.12929410163e-07
-2.93668776819e-06
2.10747889183e-07
-4.35140156268e-07
-2.88895411681e-06
2.68094510403e-07
-1.30624998324e-06
-2.79428551172e-06
2.06009199284e-07
-2.00555422487e-06
-2.66066067205e-06
4.08814131047e-08
-2.47813597146e-06
-2.50060632489e-06
-1.85711191835e-07
-2.6983501871e-06
-2.32038311333e-06
-4.39258090948e-07
-2.64179770556e-06
-2.12007571719e-06
-7.13725697392e-07
-2.28959657405e-06
-1.90380793745e-06
-9.96420000739e-07
-1.66285913213e-06
-1.6914688989e-06
-1.24186405178e-06
-8.72751666383e-07
-1.51388024223e-06
-1.3597929349e-06
-1.85714300092e-07
-1.38740073457e-06
-1.20361985882e-06
-1.28593907244e-06
-6.30091529077e-07
2.85023831056e-07
-1.04872962338e-06
-9.57637663775e-07
1.01850720429e-06
-1.05670891045e-06
-1.50904037596e-06
1.81115197433e-06
-1.12335794498e-06
-1.65837186892e-06
2.39386529172e-06
-1.2500655044e-06
-1.54400424321e-06
2.64322439557e-06
-1.41775679728e-06
-1.2929482499e-06
2.53021114831e-06
-1.5854101276e-06
-9.86650952761e-07
2.09021918032e-06
-1.7178227225e-06
-6.8607441455e-07
1.39849023983e-06
-1.79860155301e-06
-4.35641806356e-07
5.52923648718e-07
-1.82493899223e-06
-2.66192246093e-07
-3.38449272943e-07
-1.80087900835e-06
-1.96712280647e-07
-1.16473805517e-06
-1.73486947332e-06
-2.33137437623e-07
-1.83052676827e-06
-1.63229280113e-06
-3.62589462253e-07
-2.2781325594e-06
-1.50365140645e-06
-5.49359515647e-07
-2.47750399334e-06
-1.35720348455e-06
-7.6381853672e-07
-2.40902632223e-06
-1.19866045086e-06
-9.89903039772e-07
-2.06710010603e-06
-1.03801843678e-06
-1.20772538283e-06
-1.48625572419e-06
-8.959114524e-07
-1.37641091595e-06
-7.74790451075e-07
-7.97759295305e-07
-1.42759476143e-06
-1.64948198322e-07
-7.47561487823e-07
-1.24968969368e-06
-7.36684387338e-07
-7.14207999335e-07
2.94224917837e-07
-3.94844975429e-07
-9.48114178078e-07
9.57378240245e-07
-3.34670195969e-07
-1.38519737537e-06
1.66703163011e-06
-3.27282002331e-07
-1.50573576551e-06
2.19827802162e-06
-3.59671506016e-07
-1.4216480789e-06
2.43958743657e-06
-4.28760067523e-07
-1.23031503269e-06
2.35644982066e-06
-5.12612657587e-07
-9.89669728666e-07
1.970253683e-06
-5.87862153692e-07
-7.43775015292e-07
1.34251483902e-06
-6.41080300028e-07
-5.29793441143e-07
5.61141787186e-07
-6.6486176756e-07
-3.78715454446e-07
-2.70329317597e-07
-6.58482330256e-07
-3.10936976708e-07
-1.04587915113e-06
-6.2732396829e-07
-3.32007110185e-07
-1.67297662975e-06
-5.73749177239e-07
-4.31457526934e-07
-2.09467675681e-06
-5.00566576065e-07
-5.81395892166e-07
-2.27882227367e-06
-4.17535964845e-07
-7.5553281402e-07
-2.20991876785e-06
-3.31654416077e-07
-9.35919773209e-07
-1.89125017224e-06
-2.52766887898e-07
-1.10392963622e-06
-1.36332943028e-06
-1.95774164343e-07
-1.22806670477e-06
-7.26662010081e-07
-1.7546014354e-07
-1.25897453519e-06
-1.76581530712e-07
-1.86475977258e-07
-1.11117365433e-06
-2.35211353372e-07
-6.78059200852e-07
3.57376835671e-07
-7.5222472709e-07
9.63644121531e-07
-9.40940927057e-07
1.58103296502e-06
-9.44675075043e-07
2.03830649014e-06
-8.16950132164e-07
2.24302463954e-06
-6.33484132732e-07
2.16182059178e-06
-4.31415187821e-07
1.8110326706e-06
-2.37081282837e-07
1.24410679144e-06
-7.41617644195e-08
5.35735577796e-07
4.35019507983e-08
-2.22748091341e-07
9.99937933825e-08
-9.33166947643e-07
8.30873724713e-08
-1.50315129278e-06
-3.77223293649e-09
-1.89195868008e-06
-1.11766368719e-07
-2.06373041389e-06
-2.45771066712e-07
-2.00668743205e-06
-3.8870377381e-07
-1.72894821972e-06
-5.30511940404e-07
-1.27205372551e-06
-6.52673948619e-07
-7.22780340438e-07
-7.24738454084e-07
-2.28668872895e-07
-6.80592031913e-07
-4.63882105856e-07
6.04863549733e-07
5.28872485249e-07
-1.90745700334e-06
1.36877584998e-06
6.18276065356e-07
-2.35087748068e-06
2.10824385884e-06
7.10034265863e-07
-2.42960212068e-06
2.66591897937e-06
8.27885667619e-07
-2.23768652956e-06
2.93423744149e-06
9.55267870213e-07
-1.88225507021e-06
2.85777767227e-06
1.07326275289e-06
-1.43416307693e-06
2.43635755016e-06
1.16576808032e-06
-9.63183790296e-07
1.71891625115e-06
1.22532082709e-06
-5.39942438305e-07
8.06671459194e-07
1.2538511453e-06
-2.25860705624e-07
-1.88618441616e-07
1.25211893394e-06
-6.89546746178e-08
-1.15237003996e-06
1.22384722447e-06
-7.8757625724e-08
-1.98182985727e-06
1.17486166367e-06
-2.43258460794e-07
-2.59416803366e-06
1.10978129742e-06
-5.35106099353e-07
-2.92172978681e-06
1.03372320889e-06
-9.13893970052e-07
-2.93606618063e-06
9.4676307902e-07
-1.33937775771e-06
-2.64017159199e-06
8.51182899301e-07
-1.76076827765e-06
-2.07996404486e-06
7.54116296281e-07
-2.1167734069e-06
-1.3480813586e-06
6.63658776389e-07
-2.32898511712e-06
-5.92052805256e-07
5.8926775517e-07
-2.27605192065e-06
5.10996547578e-07
-1.84030214389e-06
7.14522176515e-07
1.20590129558e-06
-2.36188899674e-06
1.52045167005e-06
1.33469890294e-06
-2.93533257181e-06
2.27367890384e-06
1.50066115357e-06
-3.08415678722e-06
2.84397153662e-06
1.72452912154e-06
-2.92326868868e-06
3.11633266424e-06
1.96791183523e-06
-2.5391647182e-06
3.02805870179e-06
2.18907428046e-06
-2.01737861799e-06
2.57724534636e-06
2.3581576114e-06
-1.45376506076e-06
1.81899848866e-06
2.46304047298e-06
-9.44115241337e-07
8.51483732058e-07
2.50551361157e-06
-5.67964238667e-07
-2.04126602442e-07
2.49251561666e-06
-3.77464296292e-07
-1.22398023075e-06
2.43667733665e-06
-3.91580033102e-07
-2.09851505803e-06
2.34748569217e-06
-5.92095323317e-07
-2.73992930439e-06
2.23074687814e-06
-9.42166774232e-07
-3.08659515305e-06
2.0917374215e-06
-1.3964480295e-06
-3.1067965469e-06
1.93125717355e-06
-1.90117494185e-06
-2.80681192576e-06
1.75264356432e-06
-2.3881249547e-06
-2.23774357451e-06
1.56815492548e-06
-2.77336735169e-06
-1.49753371836e-06
1.39875679963e-06
-2.96144424356e-06
-7.05000178662e-07
1.26759893294e-06
-2.84112333064e-06
1.15307989052e-06
-2.27131660595e-06
8.12208596498e-07
1.87596026655e-06
-2.47897879164e-06
1.69629447299e-06
2.01877608969e-06
-3.12773761466e-06
2.4983928629e-06
2.23223875475e-06
-3.25268327672e-06
3.08597935358e-06
2.52179290568e-06
-2.98968998209e-06
3.34384527828e-06
2.82906534336e-06
-2.45559657788e-06
3.21553526624e-06
3.09698992398e-06
-1.77234309642e-06
2.70889917677e-06
3.2902113655e-06
-1.06604008154e-06
1.88965941881e-06
3.39694252741e-06
-4.5013693533e-07
8.61120943011e-07
3.42612814502e-06
-1.20916387836e-08
-2.47133815784e-07
3.39380719155e-06
1.9687293854e-07
-1.31194982221e-06
3.31316432268e-06
1.61293762246e-07
-2.22403324649e-06
3.19822344576e-06
-9.17358721584e-08
-2.89413570483e-06
3.05832013369e-06
-5.19715572231e-07
-3.26336652425e-06
2.89580874919e-06
-1.07161681846e-06
-3.29834278184e-06
2.70771533806e-06
-1.69078494605e-06
-3.00091219808e-06
2.49460492981e-06
-2.30177913739e-06
-2.41726121729e-06
2.2689569876e-06
-2.80363817694e-06
-1.6416290042e-06
2.05848605127e-06
-3.07422809515e-06
-7.87887381575e-07
1.89658583583e-06
-2.97264237826e-06
1.77020334475e-06
-2.33159967545e-06
9.30559868929e-07
2.40101489769e-06
-2.35191475183e-06
1.92369604992e-06
2.55700521211e-06
-3.04350169041e-06
2.79341754133e-06
2.78883255445e-06
-3.0714279146e-06
3.39483107788e-06
3.09288916307e-06
-2.61346777557e-06
3.61711872519e-06
3.39964980149e-06
-1.85104792344e-06
3.42121658416e-06
3.64793043775e-06
-9.6170881132e-07
2.83295768393e-06
3.8052278421e-06
-9.94540054405e-08
1.93679237544e-06
3.87207860055e-06
6.10330604544e-07
8.43180577787e-07
3.86128463695e-06
1.09116690782e-06
-3.19189816309e-07
3.79720198691e-06
1.29779154255e-06
-1.42519458514e-06
3.69984529338e-06
1.2240102457e-06
-2.36840166292e-06
3.5831873277e-06
9.05965572917e-07
-3.06589188943e-06
3.45363212555e-06
3.95132906639e-07
-3.46214803135e-06
3.30990382078e-06
-2.55267220396e-07
-3.52036985812e-06
3.14590050416e-06
-9.94692078533e-07
-3.23323478215e-06
2.95331009625e-06
-1.75175073171e-06
-2.63421129605e-06
2.73989728603e-06
-2.41603275538e-06
-1.80925401863e-06
2.53164838376e-06
-2.83198052325e-06
-8.75188600644e-07
2.36490547798e-06
-2.80767483172e-06
2.22920700635e-06
-2.1342049079e-06
1.05817449258e-06
2.68498502587e-06
-2.08141195617e-06
2.16944578935e-06
2.84839416815e-06
-2.76076969923e-06
3.10466961233e-06
3.06903502882e-06
-2.64627646022e-06
3.70494078108e-06
3.34056834104e-06
-1.96222639616e-06
3.87047197222e-06
3.59410442089e-06
-9.72267030799e-07
3.58774068706e-06
3.77255102029e-06
9.00888950594e-08
2.91157111127e-06
3.85746506177e-06
1.04968661446e-06
1.93799670621e-06
3.85491206984e-06
1.80208272432e-06
7.8829303251e-07
3.78862013791e-06
2.28097691877e-06
-4.11441299309e-07
3.69141388064e-06
2.45830286872e-06
-1.54115925887e-06
3.58725611697e-06
2.33723827028e-06
-2.50118518769e-06
3.48853040858e-06
1.96146965021e-06
-3.21636943538e-06
3.39678666351e-06
1.38963856097e-06
-3.63453917535e-06
3.30470683523e-06
6.77457976124e-07
-3.72025601527e-06
3.19854250309e-06
-1.34735998201e-07
-3.45175701707e-06
3.06612789351e-06
-9.983899236e-07
-2.84566668756e-06
2.90471212522e-06
-1.80485788733e-06
-1.97485133288e-06
2.73356004421e-06
-2.3714725336e-06
-9.59810342507e-07
2.58470278013e-06
-2.451215094e-06
2.44681761521e-06
-1.79737389679e-06
1.17770939916e-06
2.67627025278e-06
-1.72533121409e-06
2.39453263119e-06
2.83374215469e-06
-2.34731538107e-06
3.37771010455e-06
3.0195171078e-06
-2.07863385366e-06
3.95840986079e-06
3.227705047e-06
-1.19150370812e-06
4.05095134878e-06
3.39742371451e-06
-2.73915369829e-08
3.67820826838e-06
3.49003766962e-06
1.12445744212e-06
2.91675380511e-06
3.49025874366e-06
2.10379743892e-06
1.88073105431e-06
3.41492603141e-06
2.82550911387e-06
6.97689950395e-07
3.29436067688e-06
3.24981378119e-06
-5.12450754517e-07
3.17016427704e-06
3.37231592284e-06
-1.6398697301e-06
3.06909806255e-06
3.20638867502e-06
-2.59556286298e-06
3.00087853058e-06
2.7977461197e-06
-3.31317343393e-06
2.96053922604e-06
2.20692360178e-06
-3.74649439632e-06
2.93279254329e-06
1.48840181892e-06
-3.85700091496e-06
2.89823461755e-06
6.6665719735e-07
-3.61439569785e-06
2.83801624456e-06
-2.33798179195e-07
-3.01326539791e-06
2.7459951361e-06
-1.12599213293e-06
-2.11158239543e-06
2.6303087546e-06
-1.80980604402e-06
-1.03123167105e-06
2.51489124548e-06
-1.99181668942e-06
2.38691151733e-06
-1.39460623716e-06
1.27391425387e-06
2.36400001763e-06
-1.32952114462e-06
2.57018639213e-06
2.49965850229e-06
-1.87139186172e-06
3.57816251431e-06
2.63643941244e-06
-1.46428416541e-06
4.12209284829e-06
2.77014389172e-06
-4.24258791144e-07
4.14102690771e-06
2.85768829169e-06
8.3402011259e-07
3.679912928e-06
2.86835121603e-06
2.00600320549e-06
2.84591635303e-06
2.79842631271e-06
2.93125215738e-06
1.76788115498e-06
2.66801632291e-06
3.56073081882e-06
5.79182733854e-07
2.50966493579e-06
3.88293052432e-06
-6.10816986752e-07
2.37131136989e-06
3.93031244329e-06
-1.70785459379e-06
2.28054542793e-06
3.72988596641e-06
-2.63767567943e-06
2.24447724147e-06
3.32453447671e-06
-3.34371995067e-06
2.25269970432e-06
2.76483648095e-06
-3.784303753e-06
2.28281562604e-06
2.09301716751e-06
-3.91839840278e-06
2.31142636643e-06
1.31653188174e-06
-3.70318711839e-06
2.31758927767e-06
4.34142756911e-07
-3.11833237587e-06
2.29083890718e-06
-4.84914018942e-07
-2.20388544778e-06
2.23273380776e-06
-1.24089409946e-06
-1.0809728295e-06
2.15797654328e-06
-1.5064064963e-06
2.05395964559e-06
-9.81120556875e-07
1.33956669245e-06
1.77644511295e-06
-9.4532898959e-07
2.68538204811e-06
1.87625747905e-06
-1.40435814557e-06
3.69698680814e-06
1.95922604596e-06
-8.89446236054e-07
4.19936091681e-06
2.02389855755e-06