/*--------------------------------*- C++ -*----------------------------------*\
| =========                 |                                                 |
| \\      /  F ield         | OpenFOAM: The Open Source CFD Toolbox           |
|  \\    /   O peration     | Version:  3.0.1                                 |
|   \\  /    A nd           | Web:      www.OpenFOAM.org                      |
|    \\/     M anipulation  |                                                 |
\*---------------------------------------------------------------------------*/
FoamFile
{
    version     2.0;
    format      ascii;
    class       volScalarField;
    location    "8";
    object      epsilon_0;
}
// * * * * * * * * * * * * * * * * * * * * * * * * * * * * * * * * * * * * * //

dimensions      [0 2 -3 0 0 0 0];

internalField   nonuniform List<scalar> 
7968
(
6.40876631694e-05
8.44279016266e-05
0.000101534855921
0.000112587913358
0.000118605495939
0.000120772526355
0.000120537306742
0.000118720991195
0.000116439860342
0.000114545116833
0.000114173960563
0.000115779536256
0.000117952110317
0.000119746713188
0.000120037186846
0.000117951016794
0.000112089592037
0.000101203458369
8.42387278782e-05
6.40046501587e-05
8.44726832419e-05
0.000164675122264
0.000223767434992
0.00025803105039
0.000273017829095
0.000274786310274
0.000269656660112
0.000261531965608
0.000254069433427
0.000249507600313
0.000248955565734
0.000252703654755
0.000259622501317
0.000267483860601
0.000272579959674
0.000270874281063
0.000256208317095
0.000222429470485
0.000163913145225
8.41842105457e-05
0.000101627084656
0.000223709861938
0.000312402170924
0.000363338526612
0.000385273291828
0.000387598846881
0.000379545262469
0.000367934186044
0.000357752961157
0.000351732798647
0.000350993262961
0.00035587035822
0.0003652721986
0.000376489344249
0.000384430035716
0.000382193563262
0.000360651844372
0.000310397349964
0.000222549996611
0.000101144846417
0.000112687139096
0.000257926807924
0.000363278024222
0.000422935847571
0.00044736598184
0.000448429934324
0.00043765584503
0.000424041653162
0.000413080749763
0.000407318409887
0.000406557082368
0.000411087000448
0.000420835723021
0.000434022179598
0.000444633866915
0.000443654261319
0.000419645234837
0.00036077048308
0.000256425410124
0.000112021947938
0.000118703059787
0.00027289745349
0.00038521038021
0.000447356311842
0.000470423704432
0.00047241833795
0.000470856033956
0.000463685927518
0.000455369415404
0.000449796174402
0.000448934965897
0.000453238745533
0.000460832991316
0.000467824988804
0.000469329542076
0.000466420553366
0.000443677940576
0.000382318716847
0.000271083630062
0.000117867719475
0.000120881670817
0.000274725430662
0.000387593215162
0.000448423217504
0.000472311696455
0.000486978761792
0.000489471168663
0.000483577548047
0.000475204541567
0.000469108620653
0.000468078828028
0.000472724200797
0.000480403959341
0.000486285079586
0.000484079621818
0.000469454216648
0.000444654254418
0.00038449952638
0.000272716942639
0.000119929230845
0.00012064743821
0.000269669553109
0.000379628313845
0.000437671867322
0.000470722606904
0.000489431382866
0.000492601807141
0.00048565409506
0.000475633206648
0.000468232968211
0.000466973653556
0.000472647567854
0.000481904607701
0.000488963021172
0.00048634462157
0.000467991476687
0.000434030656519
0.000376475542069
0.000267558253844
0.000119641318434
0.000118844312968
0.000261708781894
0.000368244520036
0.000424300953313
0.000463715222297
0.00048374706092
0.000485916423629
0.000476571009414
0.000463745772574
0.000454435791468
0.000452913960741
0.000460174312311
0.000472110913743
0.000481661126728
0.000480271033073
0.000460850070099
0.0004206272206
0.000365041178419
0.000259543850455
0.000117835537504
0.000116602565861
0.000254528322074
0.000358495681816
0.000413603790583
0.000455861401861
0.00047595074257
0.000476595943243
0.000464531326949
0.000448776015739
0.000436903326857
0.000435046407181
0.000444557053685
0.000459389120572
0.000471699036823
0.00047201010675
0.000452808501468
0.000410733844781
0.000355187175737
0.000252315897741
0.000115607065883
0.000114809965192
0.000250337741108
0.00035304739734
0.000408296224495
0.000450954809278
0.000470713808865
0.000470253808164
0.000456459376571
0.000438304194498
0.000424077188089
0.000421899947298
0.000433552798647
0.000450811014461
0.000464905221151
0.000466437962065
0.000447744283542
0.000405569773979
0.000349620263392
0.000248069457489
0.000113804389943
0.000114730926205
0.000250234210469
0.000352945678177
0.000408203944687
0.00045087435236
0.000470648917169
0.000470202794058
0.00045641553797
0.000438255397275
0.0004240137476
0.000421833509214
0.0004335009622
0.000450766249254
0.000464853967023
0.000466371474804
0.000447656165985
0.000405457528234
0.000349483491503
0.000247927194103
0.000113699030114
0.000116439777765
0.000254250542704
0.00035820674214
0.000413353250719
0.000455635047646
0.000475764838358
0.000476448023185
0.000464405751002
0.000448653114383
0.000436764721841
0.000434903996054
0.000444431882174
0.000459265237076
0.000471554017089
0.000471824441761
0.000452567859222
0.000410433347208
0.000354826699258
0.000251957283699
0.000115395274674
0.000118634187646
0.00026128056635
0.000367762745003
0.0004238706631
0.000463321562949
0.000483412301772
0.000485634473436
0.000476322206099
0.000463514201556
0.0004542050453
0.000452681255598
0.000459945691164
0.000471864549214
0.000481385466181
0.000479941050584
0.000460448039015
0.000420162235789
0.000364484968685
0.000259023871291
0.000117569476931
0.000120420572281
0.000269136209928
0.000378980924547
0.000437035493726
0.000470160872071
0.000488940825714
0.000492170755559
0.000485265728934
0.000475268915258
0.000467876939557
0.000466615501495
0.000472280335154
0.000481515912686
0.000488537114049
0.000485859887498
0.000467423551334
0.000433369828512
0.000375759580468
0.000266935082244
0.00011935912881
0.000120669003807
0.000274142578548
0.000386836220284
0.000447624661843
0.000471600648681
0.000486355773886
0.000488908124048
0.000483060428571
0.000474717653448
0.000468636819266
0.000467604086951
0.000472229497867
0.000479876804464
0.000485716714861
0.000483451964149
0.000468726964058
0.000443823788742
0.000383670538366
0.000272047540331
0.00011966646462
0.000118522188195
0.000272312383918
0.000384424425616
0.000446492711626
0.000469528129409
0.000471685199712
0.00047017708782
0.000463049292385
0.000454771526019
0.000449222945811
0.0004483565533
0.000452626351527
0.000460165374019
0.000467115844892
0.000468563740966
0.000465492848438
0.000442749669022
0.000381442208074
0.000270406848671
0.000117642475454
0.000112559321097
0.000257431599574
0.000362575804069
0.000422135110436
0.000446509074502
0.000447539405208
0.000436764370033
0.000423178200945
0.000412365333282
0.00040665863635
0.000405888579092
0.000410353908833
0.000419902717393
0.00043305865969
0.000443663790917
0.0004427043809
0.000418737830582
0.000359957325988
0.000255834415688
0.000111860596974
0.000101551272699
0.000223355542157
0.000311878572154
0.000362714069063
0.000384578591991
0.000386859525021
0.000378785744641
0.00036716927196
0.000356974844151
0.000350932662629
0.000350166742257
0.00035502240874
0.000364403793129
0.000375616980635
0.000383573057013
0.000381374247642
0.000359905552972
0.000309761693115
0.000222109472316
0.000101048563542
8.44454013086e-05
0.000164499371565
0.000223492633574
0.000257676959749
0.000272578674367
0.000274284137643
0.000269118732122
0.000260969327656
0.000253472711344
0.000248873917371
0.0002482914571
0.000252031021925
0.000258953715416
0.000266834301105
0.000271968637177
0.000270325922611
0.000255754536078
0.000222068286428
0.000163680011239
8.41464771854e-05
6.40832613089e-05
8.44011813303e-05
0.000101478367079
0.000112494767239
0.000118465150812
0.000120585237618
0.000120314892593
0.000118468932975
0.000116158895802
0.000114236840818
0.000113841746165
0.000115448491506
0.000117634091863
0.000119454274668
0.000119783344941
0.000117749930554
0.000111947452539
0.000101108889768
8.41850079902e-05
6.3990262922e-05
8.18025227899e-05
0.000141342860392
0.000192014402105
0.000226664346688
0.000246909304312
0.000256078994713
0.000257948197488
0.000255708095968
0.000252338380837
0.00024988784309
0.000249470344898
0.000251305910295
0.00025430381578
0.000256403120761
0.000254584198377
0.000245583369592
0.000225641410963
0.000191344450934
0.000140977990463
8.16183152591e-05
0.000141530633351
0.000178347651913
0.000220284420546
0.000250686521114
0.00026931882549
0.000278535353494
0.000281366493856
0.000280492354554
0.000278354405565
0.000276693477732
0.000276436822791
0.000277708809497
0.000279599973046
0.000280363008076
0.000277521542002
0.000268334836767
0.000249776024339
0.000219436203888
0.000177509935467
0.000140742723484
0.000192296810102
0.000220485524297
0.000262898044503
0.000294624586155
0.000314272215286
0.000323965795158
0.000326835884395
0.000325835052288
0.000323470255106
0.000321619998011
0.000321350471276
0.000322789503803
0.000324901250255
0.000325789726834
0.000322884471883
0.0003131766611
0.000293510973467
0.000261730004675
0.000219204488204
0.000191031867762
0.000226965252526
0.000251022924815
0.000294767905242
0.000328199720892
0.000349350571044
0.00036034257911
0.000364349248007
0.000364536950333
0.000362912690319
0.000361395514386
0.000361136426294
0.000362258215717
0.000363616181336
0.000363315509293
0.000359210214405
0.000348171860909
0.000326936651721
0.000293355878009
0.000249395558126
0.000225326191944
0.000247211794384
0.00026974177914
0.000314500448189
0.000349421130599
0.000372551047719
0.00038691755978
0.000394761330156
0.000397133779686
0.000396422334451
0.00039511878751
0.000394835784462
0.000395720630571
0.000396201058541
0.000393779117782
0.000385957784508
0.000371400476844
0.000348101369601
0.000312935009231
0.000267863180405
0.000245272645349
0.000256397685564
0.000279013470145
0.000324231627289
0.000360419219886
0.000386902759228
0.000405837122992
0.000416504362548
0.000420247821687
0.000419926223208
0.000418591195707
0.000418268703846
0.000419134616086
0.00041919351608
0.000415407583737
0.000404863781023
0.000385974426501
0.00035913386854
0.000322601788093
0.000276988051703
0.00025425706394
0.000258292458704
0.000281876992873
0.00032711486809
0.000364395713131
0.000394731122083
0.000416502546246
0.000428724114665
0.000432846248511
0.000432206547302
0.000430479865268
0.000430108485592
0.000431301501751
0.00043162333566
0.000427434989513
0.000415393920583
0.00039380213248
0.000363263516589
0.000325483687389
0.000279789917952
0.000256050047652
0.000256131584765
0.000281056728371
0.000326160662222
0.000364616685835
0.000397151370537
0.000420331863788
0.000432961137199
0.000436529571993
0.000434897276562
0.0004325791704
0.000432167654348
0.000433872772014
0.000435121563713
0.000431472078462
0.000419062137056
0.000396150254104
0.000363508434233
0.00032452642921
0.000278957361748
0.000253859815178
0.000252926227292
0.000279024627047
0.000323915304734
0.000363090145023
0.000396578301701
0.000420196271921
0.000432551058597
0.000435145944784
0.000432681343653
0.000429424887116
0.000428920906378
0.000431523159173
0.000433579529303
0.000430882292155
0.000418787627369
0.000395500782001
0.000362021837181
0.000322250638549
0.000276916599583
0.000250645363238
0.000250724853368
0.00027751749822
0.000322246961684
0.000361740547856
0.000395481244058
0.000419116676156
0.000431126065799
0.000433138652762
0.000429795552935
0.00042561760225
0.000425016432354
0.000428480004786
0.000431477768438
0.000429333989728
0.000417617796597
0.000394348834143
0.000360653958538
0.000320541315361
0.000275385090195
0.000248415038627
0.000250625093698
0.000277446665166
0.000322185755232
0.000361685722095
0.00039543037411
0.000419067134322
0.000431074559074
0.000433080925942
0.000429726950786
0.000425536553556
0.000424931342109
0.000428401433562
0.000431408120922
0.000429271945523
0.000417561436831
0.00039429297886
0.000360592569424
0.000320466999531
0.000275291241802
0.000248281256223
0.000252655117642
0.000278826984563
0.000323743048257
0.000362937837695
0.000396438082375
0.000420061950565
0.000432414687571
0.0004349981213
0.000432515096224
0.000429237040988
0.000428722914058
0.000431332344758
0.000433401261789
0.000430719333633
0.000418636918897
0.000395349397452
0.000361855110578
0.000322050696696
0.000276669693174
0.000250304135947
0.000255725933995
0.000280754365049
0.000325891136511
0.00036437941549
0.000396938204316
0.000420136103668
0.000432771589488
0.000436331818052
0.000434683779191
0.000432349471914
0.000431925106415
0.000433630352113
0.000434880858807
0.000431247830864
0.000418845592914
0.000395924286061
0.000363257213055
0.000324226901245
0.000278598203579
0.000253375836083
0.000257810052692
0.00028150641814
0.000326771751194
0.00036408700402
0.000394464053967
0.000416271495071
0.000428516049765
0.000432643746314
0.000431994686428
0.000430252126364
0.00042986764226
0.000431056920785
0.000431381483001
0.000427194838246
0.000415142031044
0.000393522134192
0.000362942938676
0.000325112846606
0.000279364040736
0.000255492598485
0.000255901052162
0.000278615447729
0.000323842483508
0.000360052327122
0.000386588550442
0.000405576579786
0.000416283125562
0.00042004804031
0.000419730219335
0.000418388278399
0.000418056572422
0.000418915901226
0.000418966472973
0.000415161749585
0.000404584291897
0.000385647457991
0.000358755407848
0.000322184073783
0.000276535867127
0.000253689875691
0.000246754498201
0.000269351292912
0.000314093482932
0.000349016521941
0.000372173882776
0.000386606282073
0.000394496393336
0.000396899990483
0.000396202513512
0.000394899600142
0.000394609773008
0.000395484102463
0.000395945503872
0.000393493133992
0.000385627962026
0.000371009719
0.000347676427775
0.000312491647752
0.000267414909631
0.000244746420923
0.000226600497199
0.000250676792805
0.000294372753334
0.000327781296391
0.000348933248784
0.00035994357684
0.000363990362216
0.000364208040181
0.000362605760098
0.000361091283623
0.000360824920177
0.000361933330316
0.000363261291126
0.000362930426899
0.000358783739842
0.000347724267033
0.000326481144671
0.000292912593246
0.000248987987242
0.000224898267003
0.000192050513631
0.000220199315679
0.00026253182958
0.000294206617266
0.000313826860937
0.000323509318453
0.000326378035876
0.000325377214841
0.000323004362128
0.000321140571286
0.00032085863981
0.000322291158296
0.000324397447149
0.000325281815873
0.000322376308507
0.000312677968278
0.000293037503607
0.000261305517107
0.000218857701864
0.000190734702303
0.000141411349538
0.000178127103495
0.000219956306546
0.000250276461598
0.000268846793901
0.000278018937006
0.000280819336836
0.000279920621313
0.000277753560261
0.000276064132486
0.000275788006064
0.000277057448877
0.000278955760472
0.000279736483463
0.000276925983084
0.000267785722838
0.000249293613928
0.000219042534784
0.000177232650261
0.000140589024661
8.1786004709e-05
0.000141179063832
0.000191732163735
0.000226293481939
0.000246462033725
0.000255568738617
0.000257390004528
0.000255107423818
0.000251689619953
0.000249194492867
0.000248748446078
0.000250584600592
0.000253601587083
0.000255737551641
0.000253971805609
0.000245042292218
0.000225189396663
0.000190995763736
0.000140765060636
8.15864159357e-05
9.85357912465e-05
0.000189486708666
0.000267778804476
0.000322248740961
0.000355273601201
0.000371917014603
0.000377822108407
0.000377969265644
0.00037637391163
0.000375130914204
0.00037472861764
0.000375259324529
0.000376296434906
0.00037582213723
0.000369859620269
0.000353384427134
0.00032073506959
0.000266761583599
0.000188926059069
9.82599750646e-05
0.000189860932265
0.000222026314075
0.000269748994903
0.000307135701921
0.000332260357076
0.000346807165292
0.000353627375798
0.000355635217864
0.000355471633536
0.00035490059185
0.00035467854212
0.000354868408611
0.000354753463645
0.000352585867997
0.000345717809975
0.000331185117484
0.000306093028578
0.000268689117829
0.000220817873498
0.00018843453223
0.000268347023441
0.000270122002868
0.000306572326968
0.000337875671475
0.000359827573926
0.000373023900557
0.000379573147947
0.000381637388506
0.000381453812114
0.00038077630878
0.000380559085732
0.000380874973163
0.000380820479773
0.00037863349253
0.000372016734375
0.000358738277205
0.000336637990671
0.000305078738639
0.000268223124306
0.000266049814371
0.000322907783458
0.000307762144816
0.000338155828294
0.000366432307607
0.000387353728384
0.000400868148255
0.000408825005135
0.00041187874093
0.000412215242347
0.000411710285255
0.000411488863355
0.000411624406355
0.000411042775696
0.000407881108192
0.000399865421134
0.000386204485526
0.000365012290106
0.000336308218572
0.000305329077247
0.000319938211078
0.000356029248271
0.000333058586448
0.000360294078727
0.000387527709608
0.000409387427094
0.000424876388371
0.000434055034482
0.000438022911215
0.000438774981314
0.000438381971853
0.000438142473273
0.000438114667035
0.00043701353697
0.000432893707256
0.000423765714769
0.000408280994853
0.000386007005489
0.000358199850309
0.000330231413594
0.00035249298
0.000372804911589
0.000347722957359
0.000373594700648
0.00040112244835
0.000424961194697
0.000442248870287
0.000452752458515
0.000457361616223
0.000458266031227
0.000457852419792
0.000457602944621
0.000457528080004
0.000456056634857
0.000451083063823
0.000440729419594
0.00042365496863
0.00039957719077
0.00037135339506
0.000344632264084
0.000368831425793
0.000378867443386
0.000354622984309
0.000380197317648
0.000409127933156
0.000434240922548
0.000452971228703
0.000464348542961
0.00046913267987
0.000469823884155
0.000469205885066
0.000468979754268
0.000469069888818
0.000467549887581
0.000462079199176
0.000450838681687
0.000432642394551
0.000407490456432
0.00037787806583
0.000351394457786
0.000374618250361
0.000379219318507
0.00035671206594
0.000382324192834
0.000412276858676
0.000438428431203
0.000458023045393
0.000469691114232
0.000474146712082
0.000474213398486
0.000473146768484
0.000472963487504
0.00047351507677
0.000472429450439
0.000467003209438
0.000455370314855
0.000436514668136
0.000410514770597
0.000379954403131
0.0003534446479
0.000374864236175
0.000377870385803
0.000356656661457
0.00038225228084
0.000412762803319
0.000439447088527
0.000459347584655
0.000470898177227
0.000474733057588
0.000473897644617
0.000472159329927
0.000471986629709
0.000473190602895
0.000472943578985
0.000468018295991
0.000456441520722
0.000437336098212
0.000410903878534
0.00037983703421
0.000353389632502
0.000373515946508
0.000376895302427
0.000356218983402
0.000381727854999
0.000412438722955
0.000439288523257
0.000459221300462
0.000470577325781
0.00047393166094
0.000472419521412
0.000470145101721
0.000469963301217
0.000471671080278
0.000472071434453
0.000467621180083
0.000456230926758
0.000437101716473
0.000410525750025
0.000379277121976
0.000352935587878
0.000372535573544
0.000376789571218
0.000356147509992
0.000381673849879
0.000412398338886
0.000439257292953
0.000459193427415
0.000470545033259
0.000473885713692
0.000472357026384
0.000470068422645
0.000469882139746
0.000471595250777
0.000472007895013
0.000467573902601
0.000456195393736
0.000437066468889
0.000410479155972
0.000379208606663
0.000352833747344
0.000372379681071
0.000377547659225
0.000356442576993
0.000382093761622
0.000412647090246
0.000439361173895
0.000459278321402
0.000470828315683
0.000474640178637
0.000473774288581
0.000472007798264
0.000471821232432
0.000473027297617
0.000472800756336
0.000467909207018
0.000456353759986
0.00043724170007
0.000410775289994
0.000379647649995
0.000353110304844
0.000373090926423
0.00037869958491
0.000356374570224
0.00038207453604
0.000412097940089
0.000438306849071
0.000457949734055
0.000469650280562
0.000474105546638
0.000474144475318
0.000473043727963
0.000472839432166
0.00047338703738
0.000472315607405
0.000466910286519
0.00045527397737
0.000436383199604
0.000410322427542
0.000379671354289
0.000353031869394
0.000374234342321
0.000378221853543
0.000354207625141
0.000379881885794
0.000408898782639
0.00043408960033
0.000452903149088
0.000464357018812
0.000469181789681
0.000469871645917
0.000469232925207
0.000468986801781
0.000469064791343
0.00046753757097
0.00046204427649
0.000450749494688
0.000432480523938
0.000407248834502
0.000377531959231
0.000350904724881
0.000373870827944
0.000372125106719
0.000347284443263
0.00037323937801
0.000400842731402
0.000424762844602
0.000442137789318
0.000452730760022
0.000457403128197
0.000458328229257
0.000457909323737
0.000457647484072
0.000457560017626
0.000456064467095
0.000451034229012
0.000440599361708
0.00042344526273
0.000399288676402
0.000370966589976
0.0003441180369
0.000368052897259
0.000355396849961
0.000332639989174
0.00035991726407
0.000387195071572
0.000409124442386
0.00042467283276
0.000433914254768
0.000437930820498
0.000438705048831
0.000438313775466
0.000438066406495
0.000438026083762
0.000436898119099
0.000432729263289
0.000423543075081
0.000408000761545
0.000385656914105
0.00035778241808
0.000329731808752
0.00035175869476
0.000322391720745
0.000307389853124
0.000337767838537
0.000366041178801
0.000386983932823
0.000400533802149
0.000408530921464
0.000411606260318
0.000411951775282
0.000411445361281
0.000411215427507
0.000411339115387
0.000410739710234
0.000407553903069
0.000399510097876
0.000385805648113
0.000364584428007
0.000335864316346
0.000304871527822
0.000319320517295
0.000267988601278
0.000269797459944
0.00030616791558
0.000337414225956
0.000359337004973
0.00037252295995
0.000379066592288
0.000381122476516
0.000380925151369
0.000380232370137
0.000380001393034
0.0003803088969
0.000380250582428
0.000378065653426
0.000371454033365
0.000358185079007
0.000336111132891
0.000304602434052
0.000267814454266
0.000265601508232
0.000189680460011
0.000221730799076
0.000269308807625
0.000306583204012
0.000331623515855
0.000346107156492
0.000352878342948
0.000354845656855
0.000354639132159
0.000354030902815
0.000353784163016
0.000353970523805
0.000353865921819
0.000351727592317
0.000344908053269
0.000330443080481
0.00030544338209
0.000268161392705
0.000220443153115
0.000188186583798
9.85313807833e-05
0.000189185919901
0.000267276578027
0.000321611765008
0.00035452722845
0.000371081662323
0.000376915000519
0.000377000323358
0.000375336012516
0.000374034233936
0.000373593184359
0.000374118903272
0.000375177922788
0.000374758224827
0.000368876393582
0.000352502802786
0.000319979234072
0.000266161774902
0.000188554707397
9.82356088687e-05
0.000114423554926
0.000238602127496
0.000344094689565
0.000417384481633
0.000463401815277
0.000489104957556
0.000501733553622
0.000507348493549
0.0005101533087
0.000511563053953
0.000511277552827
0.000509265568027
0.000505859377308
0.0004997247677
0.000486826723382
0.000461182426047
0.000415562722552
0.000342913832004
0.000238061028088
0.000114095165461
0.000239289194994
0.000266729910393
0.0003223408357
0.000367617919577
0.000399556029604
0.000419657805463
0.000430846031093
0.000436205885288
0.000438459400681
0.000439238218055
0.000439073163354
0.000437970879706
0.000435442258268
0.000429880299417
0.000418603112281
0.000398491091069
0.000366561688689
0.000321220271912
0.000265293231961
0.000237088171497
0.000345097600112
0.000322895887674
0.000358151297192
0.000391316059599
0.000415935355456
0.000431932636465
0.000440974154987
0.000445102984407
0.000446452756081
0.000446641194805
0.000446441844774
0.000445874845303
0.00044427276541
0.000440013772776
0.000430913836234
0.000414806918582
0.000389975693157
0.000356435789192
0.000320514112778
0.000341547958431
0.000418613843355
0.000368527784327
0.000391711292697
0.000417736434389
0.000438645127627
0.000453647408309
0.000462586130745
0.000466587261849
0.000467657970751
0.000467563795384
0.000467288799188
0.000466883977412
0.000465386453668
0.000461179479381
0.000452397219286
0.00043732712198
0.00041610131973
0.000389507736068
0.00036543083177
0.000413931676607
0.000464930515196
0.000400716094534
0.000416604648862
0.000438905273503
0.000459218245516
0.00047403358721
0.000482902698953
0.000486708084532
0.000487503684065
0.00048720979675
0.000486876170657
0.000486483844748
0.000484866604663
0.000480449357519
0.000471728520191
0.000457402482331
0.00043702060137
0.00041402089234
0.000397066184149
0.000459206619184
0.000491011471136
0.000420999554254
0.000432764057405
0.000454041448543
0.000474323855446
0.00048943775319
0.000498240855752
0.000501686145296
0.000502096896126
0.000501589729045
0.000501239251467
0.000500889826619
0.000499149581072
0.000494428888533
0.000485519149223
0.000471399837121
0.00045188263186
0.000429906500872
0.000416942792658
0.000484419872165
0.000504018969941
0.000432310813067
0.00044188855354
0.000463235666524
0.000483828162113
0.000499128333598
0.000507699055483
0.00051064680289
0.000510575315254
0.000509849448852
0.000509550277573
0.000509353769786
0.000507606773105
0.000502698504686
0.000493606082348
0.000479492247429
0.000460363431279
0.000438827508273
0.00042801705906
0.000496872711778
0.000509934745951
0.000437755474503
0.000446087988042
0.000467628371613
0.000488483548069
0.000503797793893
0.000512019738539
0.000514323774177
0.000513660166768
0.000512656982735
0.0005124750656
0.000512648925346
0.000511191469529
0.000506342077175
0.000497213439612
0.000483109964202
0.000464144180287
0.000442916006232
0.000433408816422
0.000502652546873
0.000512914236237
0.000440070917308
0.000447553215722
0.000469050225138
0.000489941545823
0.00050512228419
0.000512949148856
0.000514554662447
0.000513172056951
0.000511766801286
0.000511677322334
0.000512370347634
0.000511564772053
0.000507092893868
0.000498112203406
0.000484090031317
0.000465242764466
0.000444347797796
0.00043577284537
0.000505784560465
0.000514450145277
0.000440916456785
0.000447872349025
0.000469232448346
0.000490060774509
0.000505104693572
0.000512652142562
0.00051380004772
0.000511936498634
0.00051023936104
0.000510194452582
0.000511222031865
0.000510894422404
0.000506780717223
0.00049798485947
0.000484060989574
0.000465311304049
0.000444704149629
0.000436642585537
0.000507438275976
0.000514361481273
0.000440850889272
0.000447829328651
0.000469209989418
0.000490054301506
0.000505106299012
0.00051264902765
0.000513775399049
0.000511888948416
0.000510175519805
0.000510126942229
0.000511161820411
0.000510853515383
0.000506763756496
0.000497982371285
0.000484056077642
0.000465286648535
0.000444644493493
0.000436535156448
0.000507273816402
0.000512610041936
0.000439862437777
0.0004474201146
0.000468984077883
0.000489931122831
0.000505151728325
0.000512987826318
0.000514559018994
0.000513130656353
0.00051169007297
0.000511585651299
0.000512282322294
0.000511514294349
0.000507091624252
0.000498131509136
0.000484086982136
0.000465175355807
0.00044417967657
0.000435470611899
0.000505320918941
0.000509417912029
0.000437422937656
0.000445873404524
0.000467533653896
0.000488505253791
0.000503922132918
0.000512215465553
0.000514522202814
0.000513806764587
0.0005127554927
0.000512552672584
0.000512729745468
0.000511305139869
0.00050648079336
0.000497326892998
0.000483143028857
0.000464050450644
0.000442662022258
0.000432962025199
0.0005019592617
0.000503371261097
0.000431911233494
0.000441618196772
0.000463117712391
0.00048388282842
0.000499362834505
0.000508084790464
0.00051111102325
0.000511040089949
0.000510288365018
0.000509967717189
0.000509757374906
0.00050799798759
0.00050304030075
0.000493833881358
0.000479555381899
0.000460242153679
0.000438517108095
0.000427497497979
0.000496056463946
0.000490348883643
0.000420601408537
0.000432468125879
0.000453875917549
0.000474328105098
0.00048965914377
0.000498656414804
0.000502227077622
0.000502682319844
0.000502176115479
0.00050181437893
0.0005014465466
0.000499660438999
0.000494825046247
0.000485731066377
0.000471401456603
0.000451699134714
0.000429561869184
0.000416415776646
0.000483583069419
0.000464347676355
0.000400364274111
0.000416294413224
0.000438654179926
0.000459079914811
0.000474062674125
0.000483107341299
0.000487037499627
0.000487886878134
0.000487607060495
0.000487269111311
0.000486858215573
0.000485184168034
0.000480637899751
0.000471742186692
0.000457249318219
0.000436744016554
0.00041364494624
0.00039657755082
0.000458440397413
0.000418174113658
0.0003682375444
0.000391388238761
0.000417406558709
0.000438344440634
0.000453427509571
0.000462426218432
0.000466488751174
0.000467591165152
0.000467505608613
0.000467224526711
0.000466801719158
0.000465262504809
0.000460985707517
0.000452128539449
0.000436985067263
0.000415715446814
0.000389097050938
0.00036500387671
0.000413311619484
0.00034483100361
0.000322649208979
0.000357795846087
0.000390884924598
0.00041546282541
0.000431440340872
0.000440456682514
0.000444568255794
0.000445905447232
0.000446098427872
0.000445885273239
0.000445290870464
0.000443670803178
0.000439417044585
0.000430333459622
0.000414242021754
0.000389447067742
0.000355972950919
0.000320141743307
0.000341128745484
0.000239200537384
0.000266472953414
0.000321905972631
0.000367042650259
0.000398861775677
0.000418860338511
0.000429959111962
0.000435248659223
0.000437436804227
0.000438166833508
0.000437968471315
0.000436860201206
0.000434348367096
0.000428836994629
0.000417643826101
0.000397639633476
0.000365843022173
0.00032066047622
0.000264926657106
0.000236893707652
0.000114484008009
0.00023824415328
0.00034349058993
0.000416602760738
0.000462457688735
0.000488023628042
0.000500546386538
0.000506084698445
0.000508805855667
0.000510144464452
0.000509802598024
0.000507768230971
0.000504370224085
0.000498297534796
0.000485514329956
0.000460024208203
0.000414593612128
0.000342161614198
0.000237602430762
0.000114129992977
0.000131789433477
0.000295221592053
0.000430457518721
0.000524681945481
0.000586924385747
0.000625877120917
0.000649576047463
0.000664233220231
0.00067366427945
0.000678673102993
0.000678591846832
0.000673381616301
0.000663583350247
0.000648373536492
0.000624142512091
0.000584941003283
0.000522997976755
0.000429496227028
0.000295146201322
0.000131490853654
0.000296418391263
0.000314598987092
0.000377649459256
0.000430454006715
0.000468805893955
0.000494368575653
0.000510151028633
0.000519195320706
0.000524045636921