/*--------------------------------*- C++ -*----------------------------------*\
| =========                 |                                                 |
| \\      /  F ield         | OpenFOAM: The Open Source CFD Toolbox           |
|  \\    /   O peration     | Version:  3.0.1                                 |
|   \\  /    A nd           | Web:      www.OpenFOAM.org                      |
|    \\/     M anipulation  |                                                 |
\*---------------------------------------------------------------------------*/
FoamFile
{
    version     2.0;
    format      ascii;
    class       volScalarField;
    location    "8";
    object      nut;
}
// * * * * * * * * * * * * * * * * * * * * * * * * * * * * * * * * * * * * * //

dimensions      [0 2 -1 0 0 0 0];

internalField   nonuniform List<scalar> 
7968
(
8.81394671965e-05
9.66788235661e-05
0.000102842622737
0.000106459723553
0.000108323686965
0.000108970179999
0.0001088859483
0.000108318403158
0.000107601358184
0.000106999088193
0.000106876690396
0.000107385920577
0.000108070867216
0.000108634227524
0.00010873661113
0.000108113160965
0.000106293883584
0.000102724342006
9.66021971998e-05
8.80985291633e-05
9.66966493126e-05
0.000120833162105
0.000133836269627
0.000140332434535
0.000142973792454
0.000143249497478
0.000142318434668
0.000140838858254
0.000139453677382
0.000138591674075
0.000138483641385
0.000139189876245
0.000140477334428
0.000141915714281
0.000142846086634
0.000142580307395
0.000139985734966
0.000133556812411
0.000120637867456
9.65804292817e-05
0.00010287450995
0.000133823525116
0.000149561637101
0.000157258737697
0.000160327039098
0.000160608155009
0.000159446428402
0.000157762597911
0.000156257648381
0.000155352287291
0.000155237556091
0.000155969043687
0.000157361956877
0.000158996136818
0.000160147988114
0.000159878566101
0.000156852901469
0.000149227465699
0.000133582173632
0.000102703591306
0.000106491312822
0.000140311094045
0.000157248678047
0.000165393316304
0.000168482020634
0.000168575873158
0.000167177075316
0.000165389014774
0.000163937913885
0.000163159293469
0.000163053422289
0.000163664562898
0.000164951371822
0.000166691373749
0.000168075960503
0.000167993237594
0.000164944902608
0.000156871662128
0.00014002786202
0.000106272128464
0.000108353139923
0.000142949699403
0.00016031628864
0.000168480078019
0.000171296131643
0.000171529685319
0.000171316999742
0.000170417168265
0.00016936883413
0.000168659328392
0.000168547094065
0.00016909352562
0.000170051465103
0.000170932162815
0.000171137813132
0.000170786080433
0.000167997329934
0.000159898626013
0.00014262067007
0.000108087987334
0.000109002715263
0.000143236244977
0.000160605565826
0.000168574388157
0.000171516150399
0.000173264137567
0.000173543949802
0.000172824528766
0.000171799638481
0.000171045346114
0.00017091497677
0.000171488195408
0.000172430002069
0.000173150474572
0.000172904362267
0.000171153876267
0.000168079923005
0.000160160328153
0.000142873422767
0.000108704427279
0.000108918710126
0.000142318674925
0.000159457040693
0.000167179128941
0.000171300311962
0.000173539313072
0.000173903682432
0.000173064807356
0.000171844812798
0.00017093110423
0.000170771685143
0.00017147055177
0.000172600573237
0.000173456569709
0.000173157740747
0.000170953553467
0.000166693323552
0.000158996382122
0.000141932079628
0.00010860323126
0.000108355868009
0.000140870307243
0.000157808022426
0.000165425274567
0.000170421759798
0.000172846316991
0.000173097711946
0.000171963442963
0.000170382777649
0.000169213933985
0.000169017418016
0.000169927246739
0.00017140421641
0.000172570039337
0.00017241304033
0.000170053445056
0.000164922649111
0.000157329172595
0.000140465157419
0.000108036227818
0.000107652506014
0.000139540572354
0.000156370503041
0.000164005186775
0.000169432738033
0.000171894309192
0.000171966189332
0.000170483112555
0.000168505663213
0.000166980800174
0.000166734365581
0.000167955252899
0.000169826632499
0.00017135079442
0.000171397869845
0.000169038097888
0.000163618044495
0.000155866280876
0.000139117961419
0.000107332823058
0.000107084920486
0.00013875268958
0.000155555444612
0.000163293943898
0.000168810830461
0.000171249451868
0.000171187454864
0.000169475077365
0.000167166396359
0.000165307162077
0.000165011917257
0.000166536027168
0.000168745297696
0.000170509031675
0.000170706763159
0.000168392176069
0.000162917542319
0.000155027199649
0.00013831407311
0.000106758473845
0.000107060080978
0.000138733448743
0.000155540531231
0.000163281616591
0.00016880090961
0.000171241814585
0.000171181610433
0.000169470131672
0.000167160849822
0.00016529975054
0.000165004131693
0.000166530146168
0.000168740309676
0.000170503230412
0.000170698993701
0.000168381348137
0.000162902602909
0.000155006986317
0.000138287400016
0.000106725094422
0.000107601799524
0.000139489531743
0.000156328539401
0.000163971774916
0.000169405022311
0.000171872530135
0.000171949271355
0.000170468932532
0.000168491821145
0.000166965024377
0.000166718152053
0.000167941266003
0.000169812818734
0.000171334400337
0.000171376285691
0.00016900875978
0.000163578465179
0.000155813693105
0.000139051629489
0.000107266381169
0.000108291136585
0.000140793024029
0.000157739150893
0.000165369832402
0.000170374014307
0.000172807231255
0.000173065404211
0.000171935121924
0.000170356419476
0.00016918767844
0.000168990976271
0.000169901400178
0.000171376351896
0.000172538694627
0.000172374771134
0.000170004919158
0.000164862942782
0.000157249542674
0.000140370881871
0.00010795375909
0.000108849446081
0.000142224197656
0.000159366164275
0.000167098513079
0.000171232592473
0.000173482133092
0.000173854210951
0.000173020422873
0.000171803155987
0.00017089034656
0.00017073070263
0.00017142862619
0.00017255629249
0.00017340792774
0.000173101523637
0.000170885370767
0.000166609912877
0.000158895869928
0.000141821386976
0.000108516614649
0.000108937784689
0.000143134066228
0.000160500489324
0.000168474463646
0.000171430394891
0.000173190992611
0.000173478636379
0.000172764647127
0.000171743199177
0.000170990598122
0.000170859892159
0.000171430873395
0.000172369026964
0.00017308471637
0.000172830889738
0.000171066406118
0.00016797626646
0.000160045281091
0.000142755891819
0.00010862385588
0.0001082970705
0.000142846371784
0.000160206383053
0.000168371422867
0.000171187949896
0.000171441630372
0.00017123591744
0.000170340880401
0.000169297240465
0.000168590476328
0.000168477579812
0.000169020109929
0.000169971402109
0.00017084750597
0.000171045929138
0.000170674226909
0.000167880639665
0.000159776048716
0.000142501014887
0.000108017973358
0.000106450127133
0.000140219987649
0.000157146190361
0.000165288311752
0.000168374539199
0.000168465165297
0.000167065376462
0.000165278967585
0.000163847175886
0.000163074448754
0.000162967270246
0.000163570901258
0.000164832101462
0.000166570373784
0.000167955303986
0.000167874068086
0.000164825918033
0.000156753005022
0.000139919131106
0.00010622014824
0.000102848151715
0.000133751455282
0.000149476680802
0.000157167676951
0.000160230283786
0.000160506284852
0.000159340955204
0.00015765465575
0.000156146162844
0.000155236483938
0.000155117725171
0.000155847061626
0.000157238846375
0.000158874571965
0.000160029653718
0.000159764339417
0.000156744099271
0.00014912446284
0.00013349275916
0.000102670272186
9.6685693299e-05
0.000120788900514
0.000133780084148
0.000140267057444
0.000142896266118
0.000143161717785
0.000142223680544
0.000140738113796
0.00013934497165
0.000138474877766
0.000138360960371
0.000139066716186
0.000140356857441
0.000141800743505
0.000142738929795
0.000142483398105
0.00013990207692
0.000133483276711
0.000120579491832
9.65654838536e-05
8.81372070325e-05
9.66680569343e-05
0.000102822698289
0.000106429323432
0.000108279801175
0.000108912652491
0.00010881779246
0.00010824059766
0.000107513643911
0.000106901876853
0.000106771651499
0.000107282072276
0.000107972164505
0.000108544179894
0.000108658394897
0.00010805025626
0.000106247674784
0.000102691284185
9.65808690074e-05
8.80915434498e-05
9.5678733173e-05
0.000114806849611
0.000127157092186
0.000134388292834
0.000138268663053
0.000139945612477
0.000140267662687
0.00013984096981
0.000139206405354
0.000138742378916
0.00013866102816
0.000139006618163
0.000139571767239
0.000139973508067
0.000139660062654
0.000138009486854
0.000134177059996
0.000127002864194
0.000114703520547
9.56020012386e-05
0.000114860069319
0.000350503453093
0.000459222331327
0.000508181250556
0.000525386311761
0.000525663174546
0.000518254097394
0.000508524125736
0.000500126929508
0.000495171236435
0.000494635044072
0.000498723871353
0.0005065200852
0.000515908735804
0.000523156150286
0.000522787656259
0.000505778131413
0.000457397628933
0.000349766691461
0.000114637047862
0.000127222035125
0.000458698616147
0.000632230629916
0.000717919377782
0.000754534776072
0.000763392663712
0.00075819186575
0.000748039343966
0.000738263125525
0.000732074664001
0.000731232324507
0.000736058207355
0.000744976828273
0.000754680260268
0.000759716353339
0.000750983031479
0.000714856902808
0.00063018288367
0.000458180356471
0.000126930738792
0.000134449826236
0.0005073884699
0.000717545152479
0.000826351919211
0.000876603084162
0.000892881683989
0.000891188194852
0.000884775696356
0.000876404587483
0.000869954432447
0.000868807949695
0.00087346534034
0.000881286406559
0.000887292098609
0.000888520852021
0.000872605474667
0.000823049035043
0.000715471343909
0.000506997583408
0.000134112242174
0.000138326715372
0.000524545080469
0.000754020672572
0.000876420494935
0.000935054389394
0.000955160934149
0.000945884382977
0.000929764512911
0.000915795622267
0.000907391579455
0.000905866815908
0.000911777034865
0.000924307038477
0.000939962691033
0.000949527080933
0.000930645002661
0.000872971963468
0.000751903896513
0.000524152968896
0.000137949649056
0.000140005318237
0.000524911678799
0.000762897698759
0.000892655340387
0.000955174304338
0.000961803630331
0.000944145637596
0.000921256778995
0.000902733195443
0.00089210071891
0.000890133330221
0.000897528915152
0.000914208519776
0.000936778103853
0.000955093291686
0.000949618860101
0.000889060703525
0.000760722765824
0.000524471271008
0.000139598927984
0.000140332123091
0.000517645790297
0.00075783371591
0.000890965211755
0.000946121239607
0.000944475757182
0.000920000653708
0.000891321350596
0.000868486134907
0.00085545733141
0.000853028567286
0.000862033404227
0.000882582379718
0.000911000095305
0.000936580286418
0.000939929959363
0.000887920371697
0.000755617077648
0.000517107518503
0.000139908034298
0.000139921374478
0.000508175677944
0.00074803609084
0.000885006631224
0.000930778045231
0.000922592712389
0.000892486094844
0.000858503363769
0.000831430485763
0.000816650190403
0.000813866244654
0.000823857635984
0.000848024154584
0.000881635435756
0.000913194013996
0.000923621099053
0.000881487413529
0.00074558754545
0.000507469825932
0.000139488712992
0.000139319898248
0.000500179878909
0.000738900036257
0.000877884598219
0.000918210619092
0.000905832243066
0.000871734551249
0.000833674713516
0.000804779882011
0.000788017440174
0.000784857490451
0.000796308881856
0.000821886253999
0.000859212957485
0.000894911514486
0.00090976044529
0.000872323923105
0.000735995921229
0.000499252105004
0.00013888121079
0.000138905810018
0.000495708612633
0.0007335315016
0.000872787186509
0.000911523586066
0.000897360792629
0.000861299357191
0.000821721021917
0.000791068801838
0.000772908493359
0.000769528323091
0.00078198585107
0.000809202502537
0.0008477814732
0.000885483978682
0.000902223943502
0.000866375038643
0.000730292343771
0.000494610556103
0.000138458520111
0.000138887283453
0.000495650147441
0.000733466513105
0.000872757771327
0.000911549716394
0.000897446719726
0.000861440303856
0.000821910991771
0.000791293052923
0.000773150199462
0.000769774875322
0.000782228133905
0.000809428079668
0.000847965730681
0.000885612540737
0.000902285491669
0.000866368913096
0.000730241988338
0.000494559835209
0.000138433412575
0.00013926976966
0.000499997701888
0.000738691785686
0.000877762180679
0.000918244853952
0.000906030897984
0.00087208693214
0.000834164006462
0.000805378176177
0.000788673943065
0.000785531238577
0.000796969608992
0.000822482352141
0.000859686750112
0.000895230257319
0.000909898964612
0.00087228269623
0.000735840684319
0.000499102602447
0.00013881759424
0.000139846890309
0.000507845873033
0.000747649808226
0.000884722380498
0.000930706657283
0.000922735107671
0.000892841980352
0.000859054671892
0.000832155482954
0.00081749948799
0.000814750842095
0.000824705922365
0.000848730361014
0.000882171701357
0.000913515782733
0.00092370603739
0.000881317568353
0.000745295691795
0.000507205915517
0.000139399266808
0.000140243978876
0.000517156717787
0.000757251974172
0.000890507217902
0.000945835494343
0.00094438121345
0.000920126809711
0.000891671587677
0.000869029791679
0.000856131009168
0.000853743965034
0.000862692394013
0.000883103044352
0.000911332590752
0.000936701451257
0.000939836912117
0.000887605638423
0.000755163614481
0.000516714245207
0.000139805624051
0.000139914081507
0.000524273925367
0.000762138650396
0.000892008310355
0.000954670756435
0.000961426938806
0.000943947759651
0.00092126506266
0.00090292826007
0.000892420784553
0.000890491619638
0.000897824132982
0.000914367570862
0.000936773051692
0.00095492785908
0.000949308228335
0.000888576395735
0.000760099807769
0.000523939595045
0.00013949422728
0.000138240553546
0.000523783134812
0.000753149792485
0.000875670712822
0.000934474365127
0.000954658141137
0.000945528678695
0.000929577615538
0.000915732595366
0.000907408249098
0.000905909583648
0.00091178165199
0.000924234533624
0.00093975922045
0.000949188668967
0.000930221346016
0.000872357831295
0.000751144012703
0.000523479299303
0.00013785007141
0.000134376967973
0.000506599359682
0.000716679471163
0.000825615870311
0.000876044450697
0.000892498224098
0.000891085446897
0.000884843697867
0.000876413439965
0.000869970693216
0.00086883296592
0.000873495146212
0.000881429695134
0.000887298844063
0.000888262109976
0.000872159801964
0.000822402975942
0.000714674944861
0.000506264484931
0.00013402645895
0.000127166968418
0.000458001838392
0.000631520982171
0.000717347452686
0.000754127922624
0.00076314833134
0.000758106751387
0.000748085323221
0.000738383584797
0.000732230528095
0.000731398037595
0.000736205968324
0.000745075539889
0.000754671326083
0.000759556194821
0.00075065177049
0.000714339913073
0.000629508954234
0.000457508361746
0.000126864127297
0.000114827206757
0.000350076864673
0.000458844084541
0.000507919450668
0.000525240080759
0.000525623452071
0.000518305753037
0.000508648083544
0.000500295082653
0.000495360577754
0.000494831347021
0.000498912987213
0.000506679909062
0.00051601505633
0.000523182198336
0.000522701347183
0.00050555899026
0.000457040965663
0.000349341210837
0.000114594634147
9.56720526749e-05
0.000114761685698
0.000127093679465
0.000134313794665
0.000138184009183
0.00013985162001
0.000140165573819
0.000139730665464
0.000139086299182
0.000138613186763
0.00013852629454
0.00013887254788
0.000139442140718
0.000139851158355
0.000139546771561
0.000137906764726
0.000134086092716
0.000126924445867
0.000114644739582
9.55891065283e-05
0.000101879349551
0.000126660641441
0.000142128130696
0.0001511670636
0.000156149660091
0.000158533576589
0.000159351446963
0.000159359036225
0.000159127129241
0.000158948724297
0.000158889597275
0.000158963429573
0.000159113698031
0.000159057875756
0.000158228466138
0.000155861164852
0.00015092092885
0.000141941633672
0.000126531298075
0.000101777983575
0.000126748079292
0.000438408845109
0.000591861946532
0.000662247274599
0.000688114384988
0.000690521884101
0.000682231261767
0.000670886143144
0.000661229620299
0.000655574892636
0.00065477426787
0.000659083247457
0.000667790521591
0.000678587965248
0.000686622732122
0.000684135707718
0.000658546093876
0.000589051216763
0.000437247546229
0.000126416517123
0.000142233249483
0.000591003590464
0.000856688667248
0.000995869835888
0.00105992184061
0.0010803462117
0.00107814335116
0.00106635397539
0.00105400068225
0.00104601529628
0.00104459420536
0.00105018195292
0.0010609555705
0.00107202848635
0.00107417744241
0.00105415372154
0.00099107279131
0.000853649198747
0.000590322539872
0.000141809699942
0.000151274538024
0.000660993633926
0.000995215321163
0.00118314866241
0.00127846215974
0.00131705315373
0.00132541628025
0.00131627401778
0.00130362682304
0.00129462677318
0.0012926229795
0.00129822313301
0.00130870755945
0.00131708395708
0.00130929343931
0.00127161861909
0.00117781548495
0.000992118520023
0.000660461029468
0.00015079049122
0.000156265056214
0.000686881763215
0.00105905991573
0.00127813717031
0.00139556948289
0.00144416876075
0.00145068035953
0.00143804592769
0.00142186665019
0.00141064688425
0.00140797315408
0.00141456856451
0.00142754972071
0.00143916835334
0.00143385031208
0.00138783263868
0.00127223600954
0.00105566780405
0.000686158198537
0.000155724666446
0.000158665430742
0.000689546132892
0.00107961972344
0.00131677610882
0.00144431292727
0.00149109630733
0.00149154376321
0.00147152393926
0.00144931855605
0.00143473107707
0.00143136554421
0.00143999853063
0.00145746342994
0.00147540909109
0.00147686374511
0.00143384976676
0.00131008657134
0.00107571020647
0.000688454264788
0.000158075823339
0.000159505694304
0.000681627019336
0.00107786241449
0.00132578387592
0.00145185391098
0.00149342979734
0.00148540318919
0.00145607768725
0.00142662637844
0.00140806313509
0.0014041351478
0.00141549656527
0.00143844140824
0.00146379645028
0.00147375449218
0.00143820552826
0.00131721821148
0.00107316498775
0.000680063054812
0.000158880914646
0.000159544072499
0.000670810127305
0.00106691007863
0.00131800333821
0.00144158011174
0.00147730024881
0.00146071823162
0.0014223437931
0.00138572104207
0.00136317183271
0.00135877252836
0.00137300034228
0.00140155857354
0.00143427657546
0.00145227751414
0.00142435663977
0.00130750107558
0.00106125121133
0.000668715235827
0.00015890315597
0.000159349782539
0.000661861836964
0.00105580053446
0.0013073398622
0.0014284871195
0.00145943795104
0.00143639517902
0.0013910942782
0.00134879274658
0.00132287076889
0.00131802920139
0.0013346115888
0.0013677769242
0.00140641930327
0.00143066006238
0.00140834890427
0.001294986122
0.00104917834802
0.000659242756869
0.000158706615371
0.000159212090539
0.000657006008638
0.0010492732555
0.00130056977734
0.00142037013179
0.00144881998153
0.00142241648583
0.00137347803271
0.0013280004578
0.00130011986823
0.00129499524935
0.00131291918267
0.00134866560682
0.00139056149072
0.0014181463641
0.00139869231141
0.00128713038951
0.00104205346509
0.000654037038026
0.000158566518308
0.000159197332044
0.000656953386219
0.00104921678526
0.00130056197762
0.00142044325711
0.00144898025143
0.00142264676906
0.00137376509353
0.00132833580676
0.00130048650849
0.00129537059443
0.00131328606759
0.00134901347803
0.00139087418989
0.00141839623682
0.00139884712766
0.0012871864074
0.00104204251649
0.000654009764102
0.000158544352204
0.000159304602571
0.000661675345567
0.00105560049318
0.00130728406318
0.00142866806539
0.00145988506503
0.00143707774469
0.00139197926463
0.00134985260115
0.00132404107194
0.00131923180992
0.00133577793624
0.00136885033135
0.00140734600386
0.00143136708767
0.00140876573963
0.00129511999625
0.0010491239788
0.000659148393902
0.000158646275628
0.000159471264299
0.000670430118364
0.00106649207041
0.00131780958333
0.00144175765518
0.00147793763242
0.00146181579687
0.00142384049627
0.00138753912523
0.001365190036
0.00136085022465
0.00137500082276
0.0014033497021
0.00143574589535
0.00145330570349
0.0014248885423
0.00130760106547
0.00106108092852
0.00066850668213
0.000158813960322
0.000159415108261
0.000681016316217
0.00107717544154
0.00132536474154
0.00145185721585
0.00149402333875
0.00148668017832
0.0014579560846
0.00142894991114
0.00141065361436
0.00140680258254
0.0014180412345
0.00144066532252
0.00146550616615
0.00147480415024
0.00143862799909
0.00131715859047
0.00107279884346
0.000679686831249
0.000158775092046
0.000158569046961
0.000688714159159
0.00107867658724
0.00131610935711
0.00144405167812
0.00149135128368
0.00149248574447
0.00147313350204
0.00145140804939
0.00143709901242
0.00143381279426
0.00144230896558
0.00145941085878
0.00147677051024
0.00147756606342
0.00143400461053
0.00130979946457
0.00107510338478
0.000687875021057
0.00015796448655
0.000156172681241
0.000685870122818
0.00105794698958
0.00127731350109
0.00139519833748
0.00144415320739
0.00145111839258
0.0014389691151
0.00142317652205
0.00141218861267
0.00140958446979
0.00141607005198
0.00142876176307
0.00143996059709
0.00143421524096
0.00138780243443
0.00127174024574
0.00105484119803
0.000685365188
0.000155616459904
0.000151194180925
0.000659909661226
0.000994096296442
0.00118233282503
0.0012780430561
0.00131703224407
0.00132577094167
0.00131697558206
0.00130459321572
0.00129575895829
0.00129380584716
0.00129932778488
0.00130962280266
0.00131770918378
0.00130961515885
0.00127148964555
0.00117724532227
0.000991198461702
0.000659528445779
0.000150693405753
0.000142170269023
0.000590021614289
0.000855781939107
0.000995275379274
0.00105967797851
0.0010804463887
0.00107854780805
0.00106701378145
0.00105485489621
0.00104699110805
0.00104560780145
0.0010511378321
0.00106177093592
0.00107263804298
0.00107451031632
0.0010541249535
0.000990646762455
0.000852863112287
0.00058942298641
0.000141730092762
0.000126708362278
0.00043778776005
0.00059139952046
0.000662016247654
0.00068810648064
0.00069072026533
0.000682603456419
0.000671398871513
0.000661842123745
0.00065624509292
0.00065546566284
0.000659756868949
0.000668397920783
0.000679092704309
0.000686976870231
0.000684276841199
0.000658428318593
0.000588654789568
0.000436649701437
0.000126361182467
0.000101878209518
0.000126593130137
0.000142038511786
0.000151066592278
0.00015603948421
0.000158414172525
0.00015922332124
0.000159222353499
0.000158980330595
0.000158793226456
0.000158728398776
0.000158801571415
0.000158955102475
0.000158906758172
0.000158087157416
0.000155730381973
0.000150801196594
0.000141834197748
0.000126447598827
0.000101769692471
0.000107173320119
0.000136884003279
0.000154630034803
0.000164889406076
0.000170720299743
0.000173804652311
0.000175278957039
0.000175929843102
0.000176258659254
0.000176425822046
0.000176392000574
0.000176153027091
0.000175751428987
0.000175035997233
0.000173523927544
0.000170436420667
0.000164639737501
0.000154446447789
0.000136777589937
0.000107063768121
0.000137021865303
0.000515823464822
0.000700283967724
0.00078516003098
0.000818471700937
0.000824693126028
0.000818739416418
0.000809619112382
0.00080222419908
0.000798094496137
0.000797133463456
0.000799557320799
0.000805688293789
0.000814019776057
0.000819574161997
0.000813238929036
0.000780242335225
0.000696450250588
0.000514170917542
0.000136582582167
0.000154786824367
0.000699237983786
0.00102578933671
0.00119840729194
0.00128104014567
0.00131169986725
0.00131479264449
0.00130632528715
0.00129630888797
0.00128957337719
0.00128767142803
0.00129099048836
0.00129866127098
0.00130602423464
0.00130289320412
0.00127284601536
0.00119154910779
0.0010212459834
0.000697931229486
0.000154232787278
0.000165058195276
0.000783864168437
0.00119783440074
0.00143445039969
0.00155940021461
0.00161688709915
0.00163293050987
0.00162786433794
0.0016168441736
0.00160818120384
0.00160528664609
0.00160877700479
0.0016157363798
0.00161880748337
0.00160399494603
0.00154855651001
0.00142596754138
0.00119244127258
0.00078213394988
0.000164415389891
0.000170916229596
0.00081757220137
0.00128058996278
0.00155931651804
0.0017156979471
0.00178789862863
0.00180755579321
0.00180028501029
0.00178551768166
0.00177407985013
0.00177033816349
0.00177479442261
0.00178323235618
0.00178617661762
0.00176721413609
0.00170013812267
0.00154877884206
0.00127377398896
0.000814794472026
0.000170182926159
0.000174040968654
0.000824511327904
0.0013118701582
0.00161738438467
0.00178975225121
0.00186651011251
0.00188174348817
0.00186682887976
0.00184539320818
0.00183030763081
0.00182602392261
0.00183280758664
0.00184531958088
0.00185209942922
0.00183486917032
0.00176540118838
0.00160349492019
0.00130320800149
0.000820416109401
0.000173225583824
0.000175558231222
0.000819373830168
0.00131599901486
0.00163603544596
0.00181499490595
0.00188861998007
0.00189433650668
0.00186856962421
0.00183922524427
0.00182005039184
0.00181563826779
0.00182587575798
0.00184427713164
0.0018575031764
0.00184560917724
0.00177903504485
0.00161570495198
0.00130513597326
0.000813943480083
0.000174688470624
0.000176243819849
0.00081113700967
0.00130899914919
0.00163520096177
0.00181488496674
0.00188224291711
0.00187744727852
0.00184069718366
0.00180348903524
0.0017802779814
0.0017758983368
0.00178987645272
0.00181468848438
0.0018352853675
0.00183030810557
0.0017690768426
0.00160835991334
0.00129602460751
0.000804550966403
0.000175363434266
0.00017659309705
0.0008047339313
0.00130092175977
0.00162817014567
0.00180607350313
0.00186778773958
0.00185474881845
0.00180954358217
0.00176592847256
0.00173929655082
0.00173476754462
0.00175166944742
0.00178185330725
0.00180890079909
0.00181027592983
0.00175439648377
0.00159715151365
0.00128627242816
0.000797230528254
0.000175733590442
0.000176775348629
0.000801636057494
0.00129622589744
0.00162293257409
0.00179929107346
0.00185786235862
0.00184044784182
0.00179069328653
0.00174354255088
0.00171495129092
0.00171026462716
0.001728741296
0.00176190249989
0.00179266072374
0.00179776220736
0.00174508140647
0.00159007328478
0.00128077607143
0.00079359403025
0.000175931095286
0.000176765480064
0.000801619368669
0.00129624364605
0.00162302418563
0.00179947428622
0.00185811210109
0.00184070645638
0.00179094162519
0.00174380157908
0.00171522929789
0.00171055505965
0.00172904586391
0.00176223977522
0.00179304939763
0.00179817156085
0.00174543442229
0.00159030918653
0.00128088829512
0.000793615079863
0.000175912186869
0.000176558862669
0.000804615040665
0.00130091274105
0.00162840675527
0.0018066172587
0.00186860539824
0.00185570383987
0.00181057766097
0.00176707594478
0.00174054571686
0.00173606856065
0.00175298686495
0.00178319046774
0.00181026945958
0.00181157825623
0.00175543959806
0.00159780940677
0.00128655972289
0.000797259411119
0.000175680134829
0.000176185132243
0.000810815025633
0.00130883479033
0.0016355126014
0.00181579286326
0.00188375646609
0.00187941596288
0.00184299667071
0.00180609144805
0.00178310559878
0.00177882454054
0.00179278180309
0.00181748962155
0.00183791103768
0.00183257321572
0.00177073496427
0.00160930451447
0.0012963469856
0.000804514625423
0.000175283222203
0.000175484070499
0.000818803406909
0.00131558122554
0.00163627976572
0.00181613848033
0.00189082537513
0.00189751017066
0.00187250906846
0.00184372958002
0.00182491000505
0.00182062690001
0.00183075882047
0.00184882587369
0.00186147692205
0.00184871654711
0.00178105224305
0.00161668011928
0.00130531944716
0.00081376062003
0.000174593452363
0.000173964012999
0.000823713334221
0.00131118718519
0.00161734592268
0.00179071603365
0.00186885908208
0.00188553230919
0.00187178626051
0.00185114153799
0.00183650336411
0.00183236397397
0.00183896979641
0.00185093050238
0.00185672202297
0.00183813107576
0.0017672175214
0.00160414656823
0.00130311551278
0.000820017055985
0.00017312661628
0.000170846367815
0.00081659386023
0.00127969418444
0.00155894345603
0.00171616191741
0.00178959967593
0.00181074340535
0.00180474507792
0.00179080183931
0.00177981819053
0.00177622295711
0.00178049534172
0.00178832023677
0.00179012602802
0.00176970781908
0.00170132464921
0.00154900709542
0.00127335337587
0.000814141382196
0.000170089119824
0.000165002161541
0.000782788192725
0.00119687627797
0.00143397798555
0.00155954245766
0.00161784626078
0.00163478312965
0.00163065017153
0.00162028505123
0.00161199333554
0.00160921981182
0.00161255409175
0.00161901520718
0.00162124408011
0.00160551014098
0.0015492386555
0.00142591505715
0.00119178475735
0.000781265630898
0.00016433424188
0.000154748969505
0.000698219565852
0.00102497843102
0.00119803261833
0.00128116144742
0.001312354306
0.00131592959566
0.00130791864111
0.00129829036145
0.00129186455571
0.00129004614459
0.00129321502455
0.00130057347258
0.00130755977968
0.00130395677886
0.00127332583746
0.00119142893997
0.00102059066071
0.000697012369489
0.000154170901227
0.000137007229714
0.000515156280484
0.000699868364599
0.00078501666239
0.000818591359709
0.000825082725877
0.000819375900949
0.000810480190966
0.000803256988154
0.000799232038645
0.00079830081287
0.00080067717153
0.000806680301919
0.000814849317419
0.000820189386176
0.00081356650376
0.000780246461439
0.000696110962893
0.000513529282545
0.000136546886299
0.000107193704498
0.000136815833246
0.000154539632384
0.000164786317765
0.000170604150908
0.000173676475885
0.000175140789532
0.000175783982376
0.000176103717926
0.000176262900935
0.000176222408055
0.000175980264545
0.000175578614978
0.000174868785039
0.000173367197206
0.000170292769926
0.000164510828868
0.00015433290128
0.000136689526459
0.000107075704427
0.000112438163736
0.00014706787715
0.000166728266249
0.00017807324204
0.000184837409314
0.000188833107638
0.00019119047719
0.000192627772313
0.000193547324511
0.000194034309501
0.000194025947157
0.000193518844717
0.000192561339481
0.00019106598114
0.000188652294292
0.000184618693772
0.000177872344154
0.000166595830532
0.000147052552611
0.000112346474491
0.00014727535425
0.000600343146202
0.000814866308606
0.000915342313877
0.000959281573162
0.000973481301442
0.000974221630338
0.000971108980706
0.000968648159789
0.000967307695048
0.000966279117212
0.000965787214227
0.000966872679287
0.000969043059918
0.000967716174481
0.000953303859077
0.000909723538371
0.000810424302796
0.000598340031224
0.000146748339186
0.000166942504269
0.000813947196988
0.00119331427599
0.00139296810753
0.00149185278045
0.00153346445189
0.00154448385686
0.00154213008068
0.00153723877895
0.00153295000925
0.00153046350445
0.00153036981875
0.0015316193593
0.00153175003127
0.00152106355031
0.00148083026189
0.00138368379647