/*--------------------------------*- C++ -*----------------------------------*\
| =========                 |                                                 |
| \\      /  F ield         | OpenFOAM: The Open Source CFD Toolbox           |
|  \\    /   O peration     | Version:  3.0.1                                 |
|   \\  /    A nd           | Web:      www.OpenFOAM.org                      |
|    \\/     M anipulation  |                                                 |
\*---------------------------------------------------------------------------*/
FoamFile
{
    version     2.0;
    format      ascii;
    class       volVectorField;
    location    "8";
    object      U;
}
// * * * * * * * * * * * * * * * * * * * * * * * * * * * * * * * * * * * * * //

dimensions      [0 1 -1 0 0 0 0];

internalField   nonuniform List<vector> 
7968
(
(0.000777438198737 0.000714420249447 -0.00122759208213)
(0.00299564815775 0.000168933651157 -0.00142170214324)
(0.00600091623218 -6.36915302798e-05 -0.00133944343943)
(0.00838886866071 -5.34171654156e-05 -0.0010052346715)
(0.00995493584571 0.000208560465667 -0.000632679514126)
(0.0100844211345 0.000659591682913 -0.000288104928122)
(0.00930640686055 0.00099143938244 -0.000106462443769)
(0.00756162511777 0.00137433590836 4.46088984969e-05)
(0.00508619884312 0.00167153561669 0.000115403821074)
(0.00222868534015 0.00182821959191 0.000133814304782)
(-0.000757169202211 0.00183674405301 0.000138313667123)
(-0.00365531808715 0.00169565675745 0.000129654139085)
(-0.00621576284715 0.00140998666392 7.19149087948e-05)
(-0.00808709074825 0.00103205377602 -6.43491802727e-05)
(-0.00900504464759 0.000681952898667 -0.000246005618622)
(-0.0090456792065 0.000259903267381 -0.00056155027083)
(-0.00768799201626 -1.41818369733e-05 -0.000936507954919)
(-0.00550820084202 -2.24057528509e-05 -0.00126784408705)
(-0.00271242134691 0.000208436580772 -0.00135291771767)
(-0.000681808064238 0.000745864672056 -0.00116274059425)
(0.000235469686574 0.00281090570202 -0.00141763952192)
(0.00273640008784 0.00254742962499 -0.00370225849889)
(0.00630799758188 0.00273155772463 -0.00439541281588)
(0.00900760985899 0.00334649802628 -0.00427786468114)
(0.0105768692139 0.00431667611243 -0.00390773400456)
(0.0107352873306 0.0053929319018 -0.00349651421477)
(0.00977724923683 0.00627335309859 -0.00317611596435)
(0.00786161669722 0.00703494825277 -0.00292712994131)
(0.00525413816351 0.00759092706929 -0.00278432127175)
(0.00229503478191 0.00788509004731 -0.0027311435064)
(-0.0007809538573 0.00789916121272 -0.00272176252037)
(-0.0037836168982 0.00762976786683 -0.00275533806493)
(-0.0064792114155 0.00709055427078 -0.00287796207215)
(-0.00852272913527 0.00633597232219 -0.00311061168876)
(-0.00962433070409 0.00545887426165 -0.00342153916652)
(-0.00964546719004 0.00440800565382 -0.00381632087503)
(-0.00828221797297 0.00344587121879 -0.00418365966494)
(-0.00580356292597 0.00283728309427 -0.00430413501387)
(-0.00244791252893 0.00264932709884 -0.00362369175323)
(-0.000135879419247 0.0028963463487 -0.00135468447638)
(6.14014243946e-06 0.00569476944124 -0.00134470804764)
(0.00292500861907 0.00599337435425 -0.00439699634739)
(0.00698583387496 0.00666719313516 -0.00510394454825)
(0.00997163116564 0.00783767767395 -0.0047441244642)
(0.0115935571854 0.00937338308795 -0.00409488078651)
(0.0116839068884 0.0109732930226 -0.00346542078616)
(0.0105184362581 0.0123326841528 -0.00300106207468)
(0.00836687657824 0.0134536786896 -0.00270045455206)
(0.00554644775403 0.0142630628868 -0.00255048437289)
(0.00240037129426 0.0146869604034 -0.00249891099469)
(-0.000855029494407 0.0147103969399 -0.00248841169857)
(-0.00405169424702 0.0143274797568 -0.00251912613931)
(-0.00696939839515 0.0135436112224 -0.00264971302527)
(-0.00925179441637 0.0124310083932 -0.00293461723718)
(-0.0105627042229 0.0110787079617 -0.00338443899884)
(-0.0106485145688 0.00950440317022 -0.00399468696694)
(-0.00923220576821 0.00797960175902 -0.004633266225)
(-0.00647087010995 0.00681706684556 -0.00499418458255)
(-0.00263085880959 0.00614133633242 -0.00430462391162)
(9.48273473575e-05 0.00582424350523 -0.00127567683129)
(1.62821242742e-05 0.00797399038292 -0.00101492067019)
(0.00353920310337 0.00857655921575 -0.00428740873623)
(0.00815732837523 0.00953542596641 -0.00475330254319)
(0.0114747468457 0.0110369041664 -0.00401394666888)
(0.0131607102667 0.0128971834406 -0.00296886285486)
(0.0131088389471 0.0147879027606 -0.00202481908426)
(0.0116583341841 0.0164219950093 -0.00135134190302)
(0.00916437779654 0.0177636354944 -0.000952179783075)
(0.0060119694502 0.0187298102335 -0.000775302846654)
(0.00256346969901 0.0192424346419 -0.000726182049768)
(-0.000980447655215 0.0192738964373 -0.000712802309835)
(-0.00449032145482 0.0188154930394 -0.000736235615575)
(-0.00775442309177 0.0178805954845 -0.000892685714225)
(-0.0103861066058 0.016544493929 -0.00127767344501)
(-0.011980966163 0.0149126761016 -0.00193430019333)
(-0.0122015117962 0.0130446267879 -0.0028541992714)
(-0.0107200610336 0.0111984529671 -0.00388443354594)
(-0.00762934804054 0.00970728271308 -0.00462269671135)
(-0.00323666713052 0.0087495614607 -0.00417695293709)
(8.8583985156e-05 0.00812815361396 -0.000935037504034)
(0.000283829584518 0.00944149124361 -0.000645768706174)
(0.00450773742546 0.0100470409024 -0.00392466436734)
(0.00969238546443 0.0110590483185 -0.00411665924572)
(0.0133340270259 0.0126251884807 -0.00298304052211)
(0.0150932385137 0.0145590828903 -0.00151961298913)
(0.0148735584825 0.0165184785286 -0.000215575660031)
(0.0131130124032 0.0182067806523 0.000767651184051)
(0.0102292270934 0.0196001732587 0.00140816809055)
(0.00666411184315 0.0206138501298 0.00173680668887)
(0.00280042606698 0.0211628895065 0.00185727909408)
(-0.00116398893437 0.0212032271316 0.00187766875972)
(-0.005108244443 0.0207213911579 0.00179313096146)
(-0.00880946475156 0.0197403794368 0.00148578450655)
(-0.0118437958088 0.0183441562134 0.000853412546879)
(-0.0137456916701 0.0166472457142 -0.00011856317714)
(-0.0141249281723 0.0147050969688 -0.00139493299455)
(-0.0125662656581 0.0127829890718 -0.0028350620494)
(-0.00915298567542 0.0112281380424 -0.00396559337658)
(-0.00419907224446 0.0102195306812 -0.00379338948733)
(-0.000177047998479 0.00959719334346 -0.000551821917541)
(0.000725811290073 0.00949882308183 -0.000316602096975)
(0.00557590324546 0.0101290595985 -0.0035270910104)
(0.0112858559113 0.0110730277923 -0.00350149562322)
(0.0152186188698 0.0124971834061 -0.0020514463199)
(0.0170475357822 0.0142640612482 -0.000225854815605)
(0.0166053175321 0.0160026050674 0.00142005510674)
(0.0145365838129 0.0175212559582 0.00263136296101)
(0.0112675094514 0.0187951923252 0.00342863171229)
(0.00729477823238 0.0197381009775 0.00384098870692)
(0.00303091396329 0.0202628542638 0.00399326913315)
(-0.00133586107096 0.0203100180831 0.00402451980579)
(-0.00570558751059 0.0198633874813 0.0039233469492)
(-0.00984785570192 0.0189574548514 0.00352833318204)
(-0.0132844920896 0.0176755740027 0.00272104295435)
(-0.0154888858339 0.0161353442011 0.00150751574524)
(-0.0160714411495 0.0143998116977 -0.000105001467513)
(-0.0144404965773 0.0126391663428 -0.00190047063498)
(-0.010734534921 0.0112207452753 -0.00333988921181)
(-0.00525994666866 0.010276781168 -0.00338493016302)
(-0.000612926889502 0.00963162461197 -0.000216796142308)
(0.00106408167019 0.00866675032004 -0.000137921859429)
(0.00645549936474 0.00911575230503 -0.00321537703949)
(0.0126435931279 0.00984835468355 -0.00304624956953)
(0.0168507302226 0.0109817810262 -0.0013842427778)
(0.0187351744916 0.0124326382752 0.000755333111656)
(0.0181228590181 0.0138586761289 0.00263498976468)
(0.0158047221553 0.0151226429039 0.00401657539038)
(0.0122024487438 0.0162115765685 0.0049492655124)
(0.00787029668774 0.0170445738698 0.00544665910349)
(0.00324743517479 0.017500424157 0.0056532408599)
(-0.00148400516766 0.017548211548 0.00569621077411)
(-0.00623918572277 0.0171768590536 0.00555483076211)
(-0.0107774666012 0.016386889435 0.00506833903227)
(-0.0145702486068 0.0152903862735 0.0041114842388)
(-0.0170265141931 0.0140003789061 0.00271683275338)
(-0.0177645073548 0.0125661660314 0.000869891435857)
(-0.0160718964709 0.0111106964295 -0.00123662282996)
(-0.0120877362358 0.0099738275516 -0.00288144879368)
(-0.00613754181512 0.00923708851887 -0.00306822743629)
(-0.000953676805798 0.00877612447288 -3.59125138911e-05)
(0.00144207580405 0.00687952222112 5.64852121056e-06)
(0.00721067748546 0.00715690574942 -0.00297736941902)
(0.013755630844 0.00764820331912 -0.00275589318728)
(0.0181811608158 0.00842933861329 -0.00099634993484)
(0.0201190868835 0.00947768625269 0.00138735063823)
(0.0193875904846 0.01050624614 0.00343087457025)
(0.0168903431191 0.0114246713432 0.00495112631623)
(0.0130257256364 0.0122382586687 0.00603474104558)
(0.00834595339518 0.0128061355794 0.0066949491052)
(0.00342348959581 0.0132200774106 0.00667194545404)
(-0.00160379639332 0.0132730028871 0.0066881282519)
(-0.00666820129536 0.0129268366408 0.00680815327244)
(-0.011582888951 0.01239701679 0.00618428667879)
(-0.0156675978221 0.011586321805 0.00506135919165)
(-0.0183120275985 0.0106449770724 0.00352044448396)
(-0.0191635849456 0.00960379563544 0.00150689424791)
(-0.0174142260679 0.00854253714889 -0.000842346817622)
(-0.0132074345405 0.007748680577 -0.00258912571911)
(-0.00689790558365 0.00724815677014 -0.00282892316738)
(-0.00133579389046 0.00696135855456 0.000104810649443)
(0.00173025944027 0.00438524898241 7.04059902492e-05)
(0.00775292082808 0.00453021141257 -0.00284603517415)
(0.0145438411837 0.00480254499895 -0.00261863603961)
(0.019120581533 0.00524267711424 -0.000837846478004)
(0.0211049006057 0.00586444930965 0.00169369707316)
(0.0203012954065 0.00646884815033 0.00382063853424)
(0.0176991076099 0.00701153742189 0.00542460741488)
(0.0135831332602 0.00746433669161 0.00667087555267)
(0.00875332698635 0.00787244668725 0.00673769858487)
(0.00355155481023 0.00811613594162 0.00674164425147)
(-0.00170334879973 0.00814867065556 0.00677445020811)
(-0.00705590034639 0.00795624092 0.00681166131925)
(-0.012131576453 0.00757959453325 0.00679424273111)
(-0.0164736524839 0.00712979891722 0.00556418506137)
(-0.0192401625395 0.00657384683049 0.00393236327541)
(-0.0201655190615 0.00595999166398 0.00183110997371)
(-0.0183696883399 0.00532490770119 -0.000671005973268)
(-0.0140098546377 0.00487184206184 -0.0024495108674)
(-0.00744893990531 0.00459080900191 -0.00269897752533)
(-0.00162993366849 0.00443992333141 0.00016616359974)
(0.00187678968779 0.00153415475707 8.43016765977e-05)
(0.00802986508759 0.00157846958077 -0.00280262824811)
(0.0149401662712 0.0016621923322 -0.00257964962224)
(0.0195976979282 0.00179764178322 -0.000807908607122)
(0.0216124389183 0.00199837433127 0.001786290762)
(0.0207796546426 0.00219204530415 0.00393627118332)
(0.0181142643657 0.00236595238799 0.00558535348461)
(0.0139454939679 0.00250833442477 0.00665480138988)
(0.00897716666556 0.00262833483968 0.00671083247548)
(0.00363579983478 0.00271019831808 0.00678872264639)
(-0.00177180503843 0.00272098280015 0.00682813472814)
(-0.00726767174888 0.00265374221064 0.00679979626561)
(-0.0125114949599 0.00255120545765 0.00669356363171)
(-0.0168787522747 0.0024075138863 0.00574472305992)
(-0.01972539783 0.00223024059963 0.00406531737729)
(-0.0206814236369 0.002034814779 0.00193808984171)
(-0.0188561326256 0.00183112837886 -0.000632064719468)
(-0.014414578049 0.00169249025348 -0.00240819721034)
(-0.00773148134837 0.00160694677974 -0.00265617955965)
(-0.00178011124471 0.00156114591367 0.000178794108671)
(0.00187627671796 -0.00142444942173 8.46370769099e-05)
(0.00802771168166 -0.00146743891547 -0.00280183968099)
(0.0149374820831 -0.00155901698622 -0.00258020993181)
(0.0195947866263 -0.00170596506264 -0.000809799806137)
(0.0216093975512 -0.00191902126522 0.0017835086402)
(0.0207762446039 -0.00212424851929 0.00393221166627)
(0.018110618989 -0.0023097824419 0.00558028846051)
(0.0139418767821 -0.00246365013032 0.0066487626076)
(0.0089745178328 -0.00259297268977 0.0067045960291)
(0.00363422307805 -0.00268188044537 0.00678294985804)
(-0.00177260575758 -0.00269473535965 0.00682232559537)
(-0.00726690728686 -0.00262468825284 0.00679315847955)
(-0.0125084555764 -0.00251405116786 0.00668605942186)
(-0.0168741509696 -0.00235858367318 0.00573811207614)
(-0.0197199852594 -0.00216644372218 0.00406012825634)
(-0.0206755738432 -0.00195382267677 0.00193478092261)
(-0.0188501006371 -0.00172963140423 -0.000633158360235)
(-0.0144091817051 -0.00157264400121 -0.0024071914323)
(-0.00772770448237 -0.00147349280665 -0.00265342326492)
(-0.00177924487211 -0.0014272723367 0.000179908281505)
(0.0017289811981 -0.00427545594156 7.22118837745e-05)
(0.00774693327073 -0.004418610774 -0.00284265271469)
(0.0145365748979 -0.00469667562523 -0.00261908490794)
(0.0191126530632 -0.00514531256311 -0.000842059915948)
(0.0210967351245 -0.00577596781447 0.00168695926825)
(0.0202921103838 -0.00638813567057 0.00381053935667)
(0.0176894066983 -0.00693856079266 0.00541194181602)
(0.0135733179599 -0.007399496129 0.00665543380017)
(0.00874556313978 -0.00781495424542 0.0067198101391)
(0.0035466905343 -0.00806462799154 0.00672373154553)
(-0.00170542664959 -0.00809898661536 0.00675629449063)
(-0.00705342116767 -0.00790423290174 0.00679114168447)
(-0.0121229800968 -0.00752013438023 0.0067738187305)
(-0.0164612099861 -0.00706144007774 0.00554753486777)
(-0.0192254581801 -0.00649498307679 0.00391916137347)
(-0.0201497365549 -0.00586869656978 0.00182266961711)
(-0.0183534462432 -0.00521837583812 -0.000673861641234)
(-0.0139953795595 -0.00475127528212 -0.00244667676658)
(-0.00743862308509 -0.0044595725791 -0.00269129480879)
(-0.00162768778872 -0.00430826514076 0.000169857639759)
(0.00144071170039 -0.00677352184823 9.89704378833e-06)
(0.0072026981478 -0.00704765441992 -0.00297102883107)
(0.0137467492767 -0.00754084859379 -0.0027546305105)
(0.0181713558942 -0.008325169656 -0.00100007088884)
(0.0201094050482 -0.00937628439849 0.001381013392)
(0.0193764219227 -0.0104061778768 0.00342127614614)
(0.0168783174667 -0.0113261215773 0.00493932116815)
(0.0130128506438 -0.0121420280315 0.00602200352933)
(0.00833410099575 -0.01271362935 0.00667773430443)
(0.00341627355479 -0.0131322777217 0.00664432170275)
(-0.00160626757282 -0.0131855182092 0.00665925572968)
(-0.00666425153357 -0.0128378140148 0.0067794060583)
(-0.0115708525407 -0.0123010398172 0.00616570259868)
(-0.015651579129 -0.0114874657718 0.00504378866256)
(-0.0182928010717 -0.0105428411325 0.00350647382426)
(-0.0191428947175 -0.00949706099737 0.00149783353193)
(-0.0173925169838 -0.00842889311975 -0.000845134058441)
(-0.0131883708655 -0.0076279583384 -0.00258454908356)
(-0.00688370124737 -0.00712206010653 -0.00281754903091)
(-0.00133311268857 -0.00683620639534 0.000111616586747)
(0.00106309563849 -0.00856995209012 -0.000131217441674)
(0.00644813758446 -0.0090139693769 -0.00320695850285)
(0.0126362342103 -0.00974451252998 -0.00304275191704)
(0.0168434855863 -0.0108755128982 -0.00138490333257)
(0.0187290812398 -0.0123234190276 0.0007537137704)
(0.0181149659441 -0.0137451431554 0.00263259103459)
(0.0157948181323 -0.0150049765143 0.00401318081704)
(0.0121911166073 -0.0160916334774 0.00494485163385)
(0.00785961076454 -0.0169234913634 0.00544035086425)
(0.00324035741677 -0.0173779613648 0.00564449091184)
(-0.00148471634658 -0.0174244789251 0.00568588753334)
(-0.00623355006433 -0.0170521197922 0.0055446428867)
(-0.0107668088135 -0.0162616163847 0.00505832416051)
(-0.0145556623221 -0.0151662864758 0.00410220669403)
(-0.017009365132 -0.0138794639939 0.00270915327)
(-0.0177454842805 -0.0124476650064 0.000864936685935)
(-0.0160507095835 -0.010993194825 -0.00123695321407)
(-0.0120683883441 -0.00985681568176 -0.00287469787399)
(-0.00612298548811 -0.00912054805118 -0.00305448157853)
(-0.000951292142448 -0.00866279744618 -2.64537103985e-05)
(0.000722346137161 -0.00941274412223 -0.00031030657711)
(0.00557207271891 -0.0100378814449 -0.00351788862858)
(0.0112846657435 -0.0109773054996 -0.00349554613738)
(0.0152187448152 -0.012395359393 -0.00204767354643)
(0.0170494845152 -0.0141558735395 -0.000220917362614)
(0.0166053845077 -0.0158876458815 0.00142664608973)
(0.0145334066522 -0.0173990726273 0.00263836040021)
(0.0112611013579 -0.0186675986651 0.00343499081245)
(0.00728758308105 -0.0196069173881 0.00384499246877)
(0.0030262458792 -0.0201290791591 0.00399467919492)
(-0.0013355101907 -0.0201741354481 0.00402468145654)
(-0.00570028963006 -0.0197261665994 0.00392461055992)
(-0.00983995759231 -0.0188202339118 0.00353122622153)
(-0.0132757934951 -0.0175417639712 0.00272360405564)
(-0.0154790049454 -0.0160074811867 0.00150944552309)
(-0.0160598473256 -0.0142780316205 -0.000102782766486)
(-0.0144264292409 -0.0125235136383 -0.00189614095889)
(-0.0107213083901 -0.0111112139829 -0.00333044007568)
(-0.00524912577453 -0.0101719381269 -0.0033705616332)
(-0.000607791982696 -0.00953091623942 -0.000208640564552)
(0.000287280217462 -0.00937247654279 -0.000635958833602)
(0.00451245951141 -0.00997380517909 -0.0039148728713)
(0.00970149874774 -0.0109785457939 -0.00410844251724)
(0.013344856988 -0.0125356534825 -0.00297478939876)
(0.015105214553 -0.0144614535857 -0.00150899516278)
(0.014883471585 -0.016413161348 -0.00020142630916)
(0.0131193835404 -0.0180934284675 0.000783761421982)
(0.0102311959119 -0.019480031338 0.00142528393791)
(0.00666353797454 -0.0204881541376 0.00175311458376)
(0.002800146395 -0.021032820238 0.00187194636951)
(-0.0011619911602 -0.0210704239092 0.0018916404636)
(-0.00510413441747 -0.0205878648771 0.00180805024927)
(-0.00880579194415 -0.0196080287866 0.00150154265859)
(-0.0118420291974 -0.0182155028602 0.000867610591333)
(-0.0137445973495 -0.0165249885547 -0.000106243950181)
(-0.0141238417705 -0.0145907234621 -0.00138447014541)
(-0.0125641595074 -0.012677828096 -0.00282455611702)
(-0.0091519014024 -0.0111336371964 -0.00395311061443)
(-0.00419877974051 -0.0101337721222 -0.00377857338269)
(-0.000181000936645 -0.00951577202667 -0.000540058152566)
(1.85726958416e-05 -0.00792581390304 -0.00100635475426)
(0.0035490286348 -0.00852262056205 -0.00428034138883)
(0.00817378745189 -0.00947360099468 -0.00474492487112)
(0.0114936269982 -0.0109653754113 -0.00400322012758)
(0.0131797358189 -0.0128169320769 -0.00295421858244)
(0.0131247228972 -0.0147004716336 -0.00200759323791)
(0.0116700220964 -0.0163281391111 -0.00133291784254)
(0.00917181453319 -0.0176647248234 -0.000933464952871)
(0.00601680874263 -0.0186260407948 -0.000756722217526)
(0.00256800884832 -0.0191344016892 -0.000707923341534)
(-0.000974935802486 -0.0191629614402 -0.000694322060677)
(-0.00448442594044 -0.0187034954559 -0.000716633431115)
(-0.00775091479871 -0.0177691417639 -0.000872014974238)
(-0.0103866994856 -0.0164349980782 -0.00125713664135)
(-0.0119848825239 -0.0148081942825 -0.00191476658332)
(-0.0122082881246 -0.0129478554936 -0.00283587759012)
(-0.0107279917104 -0.0111120533684 -0.00386901206003)
(-0.00763794922243 -0.00963298160459 -0.00460904112846)
(-0.00324371418902 -0.00868518714846 -0.00416483571202)
(8.50056588778e-05 -0.00807087996833 -0.000926691663633)
(9.47795663384e-06 -0.00566545670712 -0.0013364070243)
(0.00293832445522 -0.00595941101793 -0.00439233699807)
(0.00700790776596 -0.00662623399402 -0.00509696663122)
(0.00999720459172 -0.00778781996537 -0.00473263180235)
(0.0116190390356 -0.00931493688683 -0.00407812728872)
(0.011705024609 -0.010907282983 -0.00344544954909)
(0.0105353466871 -0.0122598414158 -0.00298000180027)
(0.0083798231665 -0.0133754726832 -0.00267932904903)
(0.00555667981834 -0.0141800852709 -0.00252912020237)
(0.00240923775717 -0.0146002266401 -0.00247719349599)
(-0.000847007633076 -0.0146212166029 -0.00246596324994)
(-0.00404520098327 -0.014237586694 -0.00249560275911)
(-0.0069666431425 -0.0134549328529 -0.00262491464415)
(-0.00925459257276 -0.0123452226233 -0.00290927484473)
(-0.0105707060253 -0.0109987750772 -0.00335954744737)
(-0.0106624566027 -0.00943315722858 -0.0039719950267)
(-0.00924883381978 -0.00791848429517 -0.00461599871816)
(-0.00648735264103 -0.00676683842145 -0.00498170339247)
(-0.0026435949563 -0.00609990536542 -0.00429575183159)
(8.90041000768e-05 -0.00578779848428 -0.00126975403293)
(0.000238797238921 -0.00279817364558 -0.00141339857799)
(0.00274936593834 -0.00253216373131 -0.00370029284675)
(0.00633066145147 -0.00271161648528 -0.00439205993914)
(0.00903567959277 -0.00332067063291 -0.00427027571461)
(0.0106061969227 -0.00428507735492 -0.0038924267241)
(0.0107592197369 -0.00535611231606 -0.00347680806092)
(0.0097966621067 -0.00623153933492 -0.0031553539251)
(0.00787726082008 -0.00698925999819 -0.0029063597941)
(0.00526753874484 -0.00754195861834 -0.00276274610696)
(0.00230711933365 -0.00783368941918 -0.00270860173476)
(-0.000770149782898 -0.00784618155282 -0.00269804944535)
(-0.00377506895967 -0.00757621507428 -0.00273057106421)
(-0.00647535060554 -0.00703776596387 -0.00285218311174)
(-0.00852585118471 -0.00628549863182 -0.00308459035745)
(-0.00963445554817 -0.00541273689758 -0.00339660196278)
(-0.00966371652043 -0.00436839791223 -0.00379538919739)
(-0.00830255227573 -0.00341291225819 -0.00417096004542)
(-0.00582216516872 -0.00281100006802 -0.00429616988081)
(-0.00246142207988 -0.00262763905512 -0.00361977716708)
(-0.000141612968252 -0.00287580805988 -0.00135290317149)
(0.000775895846063 -0.000710385514655 -0.00122398166833)
(0.00300033603262 -0.000164366483608 -0.00142211814942)
(0.00601529474148 6.95837466237e-05 -0.0013391319741)
(0.00840848068573 6.10836755978e-05 -0.00100287598507)
(0.00997707333474 -0.000199124562571 -0.000626803186383)
(0.0101027515292 -0.000648018756694 -0.00027958008049)
(0.00932251251829 -0.000978170214976 -9.78148382481e-05)
(0.0075760743679 -0.00135961076456 5.3180321667e-05)
(0.00509969371196 -0.00165604395381 0.000124079490538)
(0.00224175252298 -0.00181225127405 0.00014253078034)
(-0.000744395974266 -0.00182030646994 0.000147605851797)
(-0.00364372870005 -0.00167869057905 0.000140043484093)
(-0.00620755772452 -0.00139286569342 8.37586319382e-05)
(-0.00808418137742 -0.00101568519926 -5.15632603071e-05)
(-0.00900752584541 -0.000666322303193 -0.000233841027268)
(-0.0090552353425 -0.000248284255703 -0.000551021723975)
(-0.00769910444773 2.44426992e-05 -0.000930833564144)
(-0.00551663574729 3.09519852548e-05 -0.00126443544002)
(-0.0027147572661 -0.000199973973339 -0.00134921908772)
(-0.000680572067785 -0.000736249351691 -0.00115384413634)
(0.00162644811279 0.00156463380989 -0.00598808728593)
(0.00474177637549 0.00226082734635 -0.00677914264461)
(0.00765725449241 0.00285185211552 -0.00676789269661)
(0.00975922438694 0.00350378620885 -0.00626416592018)
(0.0108919687526 0.00420298252871 -0.00557925267299)
(0.0107793009882 0.00482062358513 -0.00493930658152)
(0.00974485820384 0.00526626138074 -0.00444564939663)
(0.00781428753686 0.00563716109885 -0.00406250338669)
(0.00522152246972 0.00589886882594 -0.00386726301216)
(0.00228478985141 0.00603516736869 -0.00381120106941)
(-0.000767431655174 0.00604189193689 -0.00379507339575)
(-0.00374671253358 0.00591681100595 -0.00381604236294)
(-0.00642624591892 0.00566211625707 -0.00396968340586)
(-0.00848521073422 0.00529320482007 -0.00431274975398)
(-0.00966779544265 0.00484219682215 -0.00478133987048)
(-0.00995034755966 0.00425062994881 -0.00538372072691)
(-0.0090321158169 0.00355410407467 -0.00605667525782)
(-0.0071478321535 0.00290757190365 -0.00655644532416)
(-0.00445487388932 0.0023124682758 -0.00657273019873)
(-0.00153810682729 0.00159819287101 -0.00579529792411)
(0.00233917536128 0.00455592498352 -0.00677928258174)
(0.00552309718286 0.00530497658787 -0.00895705026437)
(0.00811070727378 0.00616445737097 -0.00917624831151)
(0.00986446121649 0.00725867037816 -0.00855044272724)
(0.0106765889898 0.00847860120864 -0.00764105362783)
(0.0104743125722 0.00964419333481 -0.00673480047476)
(0.00935589692463 0.0106146127765 -0.00599733940245)
(0.00745626417712 0.0113983307058 -0.00546143058354)
(0.00499402362145 0.0119569739283 -0.0051488263311)
(0.00221654105755 0.0122526578467 -0.00501917580853)
(-0.000675780682606 0.012272075323 -0.00499880298294)
(-0.00350107810727 0.012009775128 -0.00508650102618)
(-0.00605327633359 0.0114710587431 -0.00535703370547)
(-0.00807671924599 0.0106926792244 -0.00585513325374)
(-0.00934123473269 0.00972556404215 -0.0065585781634)
(-0.00971242255446 0.00857742083453 -0.00742933214478)
(-0.00909360110282 0.00737220272361 -0.00831601559557)
(-0.00755090097543 0.00628863711652 -0.00893332011172)
(-0.00518019935413 0.0054271888221 -0.00872009202447)
(-0.00222023797961 0.00464906768839 -0.00656341789412)
(0.00293777169229 0.00733708777964 -0.00678757713891)
(0.00639437188601 0.00776371481227 -0.00919158762804)
(0.00903667204146 0.00867982696957 -0.00910494370233)
(0.0106989715173 0.00997397402897 -0.00795154350365)
(0.0113419816334 0.0114513796228 -0.00646221123389)
(0.0109644450376 0.0128955772907 -0.00502997997388)
(0.00966595739642 0.0141424906615 -0.00389294503786)
(0.00763017202646 0.0151384582207 -0.00310688514349)
(0.00508544589133 0.0158478489638 -0.00265502654527)
(0.00225139625992 0.0162318687209 -0.00245948220176)
(-0.000693689336758 0.0162624427463 -0.00243290345634)
(-0.00358390898013 0.0159311084133 -0.0025773559052)
(-0.00622788031443 0.0152529164789 -0.00298526791702)
(-0.00838894788384 0.0142651663283 -0.0037345123395)
(-0.00982927329508 0.0130226057514 -0.00483385769017)
(-0.0103680005816 0.0115914349174 -0.0062252606445)
(-0.00990728448709 0.0101283870885 -0.00768203898188)
(-0.00844979848089 0.00884682591714 -0.0088208711071)
(-0.00602268609005 0.00793370960177 -0.00891436651031)
(-0.00280092974003 0.00748945402011 -0.00653866061134)
(0.00359333678857 0.00931680852926 -0.00630606040639)
(0.0074919599827 0.00940124339493 -0.00858986370169)
(0.0103337379493 0.0102305199284 -0.00797634007935)
(0.0119657567196 0.011498092927 -0.00616646709667)
(0.0124431605386 0.0129629923751 -0.00402525039788)
(0.0118175541646 0.0143945163867 -0.00204028212602)
(0.010261914372 0.015645470313 -0.000501755841872)
(0.00800825330781 0.0166479282235 0.000531294510902)
(0.00529932866177 0.0173651963933 0.00111323979443)
(0.0023299306775 0.0177593070062 0.00136708538156)
(-0.00074759826134 0.0177997379938 0.00140237276975)
(-0.00378649974918 0.01747459574 0.00121246975962)
(-0.00661188696714 0.0167955549512 0.000676907530501)
(-0.00899782605345 0.015799845675 -0.00032479192316)
(-0.0106897109932 0.0145454642031 -0.00182830280337)
(-0.0114656323341 0.0131192597318 -0.00376815234087)
(-0.0111605117733 0.011665556233 -0.00586555251402)
(-0.00972694381974 0.0104120900063 -0.00765257844329)
(-0.00710130219795 0.00959121950047 -0.00826865465266)
(-0.00344328604617 0.00949806828228 -0.00601092679648)
(0.00429541837209 0.0103458965074 -0.00564747468109)
(0.00871009525296 0.0101179377169 -0.00770925721842)
(0.0118106373853 0.0107829738968 -0.00651654628833)
(0.0134281356969 0.0118890494012 -0.00405246417702)
(0.0137151882289 0.0131667178603 -0.00127395055065)
(0.0128503270939 0.0144570971133 0.00122767604047)
(0.011060931777 0.0156187970861 0.00311697605425)
(0.00858072722907 0.0165704885933 0.00435720494232)
(0.00565082473125 0.0172621866063 0.00505174704741)
(0.00246259544236 0.0176502175816 0.00535989858942)
(-0.000840186769666 0.0177008072349 0.00540684269237)
(-0.00411778559689 0.0173988040327 0.00517824287178)
(-0.0071928724751 0.0167524354534 0.00452467839968)
(-0.00982321492251 0.0158023221727 0.0032943677249)
(-0.0117446308875 0.014624093032 0.00142849313316)
(-0.0127426671058 0.013325469489 -0.0010184808002)
(-0.0126144893568 0.0120518083928 -0.00373739476244)
(-0.0111892714008 0.0109592902962 -0.00616230484557)
(-0.00830747875973 0.0103037130077 -0.0073476088637)
(-0.00413576916551 0.0105259772975 -0.00530595282627)
(0.00490669404487 0.010162074382 -0.0050398168228)
(0.00987165995095 0.00984297099794 -0.00683257378874)
(0.0132520875901 0.010333334518 -0.00511083013191)
(0.0148556141255 0.0111920774439 -0.00208663873501)
(0.0149981224441 0.0122305575344 0.00121541444497)
(0.0139505507028 0.0133377625747 0.00411130194187)
(0.0119478749848 0.0143601019275 0.00626491286244)
(0.0092418691134 0.0152152234125 0.00767645297529)
(0.00607281433013 0.015852319398 0.00847332154425)
(0.00262932767027 0.0162222187664 0.0088352465571)
(-0.000944228107125 0.016282313519 0.00890136668223)
(-0.00450313117385 0.0160150244285 0.00864735267322)
(-0.00785788657352 0.0154320635632 0.00788920260704)
(-0.010743436878 0.0145760607037 0.00645241322241)
(-0.0128795509458 0.0135251120352 0.00428667483319)
(-0.0140436422719 0.0123938613866 0.00144352117479)
(-0.0140407615802 0.0113443806378 -0.00177670831254)
(-0.0126218695163 0.0104922895354 -0.00474394675811)
(-0.00946082240327 0.0100068712663 -0.00644761595909)
(-0.00473719135666 0.0103190345051 -0.00467243287805)
(0.00535568919561 0.009073680327 -0.00456593724276)
(0.0108402638482 0.00866927118351 -0.00611796677259)
(0.0144935916115 0.0089765115818 -0.00399276972251)
(0.0160973542393 0.00957115296536 -0.000559892468567)
(0.0161476106373 0.0103691906672 0.00310256132336)
(0.0149636305367 0.0112551285156 0.00626742544304)
(0.0127933467768 0.0120992632157 0.00860782642432)
(0.00989331298608 0.0128242744361 0.0101625677971)
(0.00650378241906 0.0133897956078 0.0110650481551)
(0.00280995992061 0.0137380266953 0.0114936683244)
(-0.00103785905272 0.0138027546916 0.0115869775397)
(-0.0048751755817 0.013563679461 0.0113098682576)
(-0.00849454685411 0.013057123376 0.0104585262748)
(-0.0116129209599 0.012335244167 0.00884882289424)
(-0.0139317676347 0.0114614763624 0.00644733674774)
(-0.0152245992129 0.0105410702656 0.00331104422151)
(-0.0152966977299 0.00971829098969 -0.000261983428412)
(-0.0138662481999 0.00911448863074 -0.00362687660277)
(-0.010429902556 0.0088043990121 -0.00572641897217)
(-0.00518530682177 0.00920075266875 -0.00419148781626)
(0.00572374790789 0.00710345085319 -0.00420334920591)
(0.0116155824625 0.00672988887965 -0.00560434140592)
(0.0154732086386 0.00689530941777 -0.00322690705962)
(0.0170778446237 0.00726026802074 0.000453690526416)