/*--------------------------------*- C++ -*----------------------------------*\
| =========                 |                                                 |
| \\      /  F ield         | OpenFOAM: The Open Source CFD Toolbox           |
|  \\    /   O peration     | Version:  3.0.1                                 |
|   \\  /    A nd           | Web:      www.OpenFOAM.org                      |
|    \\/     M anipulation  |                                                 |
\*---------------------------------------------------------------------------*/
FoamFile
{
    version     2.0;
    format      ascii;
    class       volScalarField;
    location    "7.6";
    object      ddt0(k);
}
// * * * * * * * * * * * * * * * * * * * * * * * * * * * * * * * * * * * * * //

dimensions      [0 2 -3 0 0 0 0];

internalField   nonuniform List<scalar> 
7968
(
-6.3050721765e-05
-7.12599193443e-05
-7.78949092455e-05
-8.22221581355e-05
-8.49827808883e-05
-8.66693511401e-05
-8.75755854102e-05
-8.80771677988e-05
-8.83930095412e-05
-8.86105607532e-05
-8.88880416555e-05
-8.88746344425e-05
-8.86303213737e-05
-8.81371247749e-05
-8.71892542418e-05
-8.54662872153e-05
-8.2604825882e-05
-7.81761031223e-05
-7.14491013965e-05
-6.31651475129e-05
-7.12388535166e-05
-0.000106558222913
-0.000130333208709
-0.000144577667232
-0.000152727278985
-0.000156897443175
-0.000158631721502
-0.000159230116085
-0.000159583302772
-0.000159921266952
-0.000160204139995
-0.000160242827399
-0.000160123111347
-0.000159625731392
-0.000157892895344
-0.000153709546873
-0.000145401351156
-0.000130960754821
-0.00010696755673
-7.14761845308e-05
-7.78892923132e-05
-0.000130424564838
-0.000164661008169
-0.000185070477828
-0.000196676273473
-0.000202522628989
-0.00020484140439
-0.000205575785379
-0.000206007974776
-0.000206397757076
-0.000206692858318
-0.000206723841311
-0.000206591336066
-0.00020600269292
-0.000203726255779
-0.00019783100132
-0.000186042178969
-0.000165384831373
-0.000130891984915
-7.82059831271e-05
-8.22425763368e-05
-0.000144760926398
-0.000185176700228
-0.000208727592207
-0.000221459447387
-0.00022709266301
-0.000228600727417
-0.000228366625603
-0.000227629412066
-0.000226311300521
-0.000226424116676
-0.000227503777665
-0.000229392885212
-0.000229744402611
-0.000228416684935
-0.000222712552241
-0.000209759461837
-0.000185925005563
-0.000145237976186
-8.25995817373e-05
-8.50350731389e-05
-0.000152952031406
-0.000196837200433
-0.000221513171763
-0.000233400943418
-0.000235485585265
-0.000238266289527
-0.00023928750443
-0.000239665770598
-0.00023973351978
-0.00023993328758
-0.00024015160814
-0.000240058104785
-0.000239127682725
-0.000236435587094
-0.000234731772191
-0.000222611315265
-0.00019761427972
-0.000153453658126
-8.54174795665e-05
-8.67268682909e-05
-0.000157095296742
-0.000202657008867
-0.00022710690088
-0.000235499540862
-0.000241905553585
-0.000244964312768
-0.00024578856439
-0.000245865271387
-0.000245930553319
-0.000246159418684
-0.000246401224761
-0.000246522210124
-0.00024577928177
-0.000242721812544
-0.000236380392626
-0.000228294767192
-0.000203491995646
-0.000157640177817
-8.71236962812e-05
-8.76361853594e-05
-0.000158778073001
-0.000204894792043
-0.000228523088248
-0.000238230531367
-0.000244922954649
-0.00024747963684
-0.000247642464082
-0.000247157682855
-0.000246944168586
-0.00024720055437
-0.000247742880494
-0.000248439454444
-0.000248364276483
-0.000245777123175
-0.00023906450956
-0.00022965532582
-0.000205796543014
-0.00015937714833
-8.8045348913e-05
-8.81154618025e-05
-0.000159261036082
-0.000205478174818
-0.000228069635802
-0.000239126634768
-0.000245623603232
-0.000247505119907
-0.000246860213523
-0.000245741131515
-0.000245209972216
-0.000245515191991
-0.000246443677103
-0.000247787833763
-0.000248524543159
-0.000246593543853
-0.000240074364326
-0.000229476248537
-0.000206488160317
-0.000159929806809
-8.85299006424e-05
-8.8376858543e-05
-0.000159427302933
-0.000205685854041
-0.000227805718617
-0.000239330368535
-0.000245508570651
-0.000246811131489
-0.000245514999301
-0.000243784039477
-0.000242851233523
-0.000243249147257
-0.000244628460562
-0.000246615204002
-0.000247987334309
-0.000246602582367
-0.000240199872931
-0.000227066154981
-0.000206782078084
-0.00016017003694
-8.87968136746e-05
-8.84853189037e-05
-0.000159522949477
-0.000205808847381
-0.000226433851208
-0.000239315965716
-0.000245363394708
-0.000246353856436
-0.000244710954132
-0.000242519731771
-0.000241297123
-0.000241810077437
-0.000243519689387
-0.000245917582117
-0.00024763909888
-0.000246522461065
-0.000240120269328
-0.000226309757582
-0.000206971353897
-0.000160318453522
-8.89169002938e-05
-8.84737164053e-05
-0.00015950080155
-0.000205776530099
-0.000226418904038
-0.00023927958028
-0.00024531909736
-0.000246300969681
-0.000244645189338
-0.000242433429463
-0.000241189218793
-0.000241697563969
-0.000243423921957
-0.000245840793673
-0.000247574843384
-0.000246467273314
-0.000240072203232
-0.000226268145596
-0.000206930936115
-0.000160293733225
-8.89051791659e-05
-8.83559548535e-05
-0.000159364261572
-0.000205594696026
-0.000227688194824
-0.000239219948038
-0.00024538688455
-0.000246669574932
-0.000245345307306
-0.000243575134107
-0.000242602435746
-0.000242990745249
-0.000244397334838
-0.000246420482882
-0.000247818297327
-0.000246452563766
-0.000240065182135
-0.000226951123046
-0.00020666143793
-0.000160092591667
-8.87735584324e-05
-8.80952967932e-05
-0.0001591660589
-0.000205340790373
-0.000227889992878
-0.000238959006393
-0.000245437454019
-0.000247288861002
-0.000246603045225
-0.000245445397395
-0.000244872275869
-0.000245166001225
-0.000246119726959
-0.000247499367892
-0.000248270799317
-0.000246365760931
-0.000239859917884
-0.000229227135031
-0.000206297279922
-0.000159805873145
-8.8504580755e-05
-8.76206678044e-05
-0.000158669725584
-0.000204729980942
-0.000228291866322
-0.000238022004738
-0.000244689388747
-0.00024720940181
-0.000247325522577
-0.000246794427249
-0.0002465455179
-0.000246791142827
-0.000247353868193
-0.000248086593652
-0.000248049209498
-0.000245493231063
-0.000238797035534
-0.000229336049757
-0.000205562243536
-0.000159226629637
-8.8022286652e-05
-8.67199666702e-05
-0.000156999075891
-0.000202496974998
-0.000226868930801
-0.000235260108685
-0.00024163775595
-0.000244658612873
-0.000245436346577
-0.000245466389297
-0.000245493314437
-0.000245710827608
-0.000245973470175
-0.00024613130814
-0.000245424544594
-0.000242400470132
-0.000236075316958
-0.000227960976996
-0.000203254538016
-0.000157493121748
-8.71074279174e-05
-8.50438170369e-05
-0.000152888744199
-0.000196713910111
-0.000221305938009
-0.00023309256472
-0.000235193545195
-0.000237925057502
-0.000238902953499
-0.000239200492521
-0.000239217744376
-0.000239406576265
-0.000239642589558
-0.00023963009725
-0.000238728310295
-0.00023608228598
-0.00023432424477
-0.000222311380779
-0.000197414862099
-0.00015334162656
-8.54165124284e-05
-8.22630248627e-05
-0.000144738467326
-0.00018510949746
-0.000208582639266
-0.000221212596554
-0.000226735723629
-0.000228113829989
-0.000227847153782
-0.00022663681973
-0.000225587467148
-0.000225707895994
-0.000226618455587
-0.000228805128914
-0.000229175445316
-0.00022796932966
-0.000222374727202
-0.000209529409768
-0.00018578729389
-0.000145169372365
-8.26081426919e-05
-7.7916798703e-05
-0.000130447591066
-0.000164658153704
-0.000185002817939
-0.000196521889808
-0.000202275366969
-0.000204508111613
-0.000205176495148
-0.000205555239059
-0.000205913172955
-0.000206197807701
-0.000206238534006
-0.000206141267453
-0.000205601072474
-0.000203404693807
-0.000197599120964
-0.00018590222511
-0.00016532151062
-0.000130872424937
-7.8220953072e-05
-7.12664182493e-05
-0.000106607339596
-0.000130379175598
-0.000144584148212
-0.000152675796179
-0.000156785294485
-0.00015846064935
-0.000159005969037
-0.000159320756116
-0.000159636434017
-0.000159915349331
-0.000159966699991
-0.000159873067279
-0.000159415218494
-0.000157731446948
-0.000153606059422
-0.000145359532894
-0.000130963261467
-0.000106986556979
-7.1496317523e-05
-6.30646032811e-05
-7.12882931325e-05
-7.79341680006e-05
-8.22625369209e-05
-8.50139557932e-05
-8.66836712566e-05
-8.75718568396e-05
-8.80547381599e-05
-8.83553606027e-05
-8.85610004763e-05
-8.88379184588e-05
-8.88365988987e-05
-8.86079416221e-05
-8.81327383365e-05
-8.72008103973e-05
-8.54932472533e-05
-8.26407466418e-05
-7.82121396957e-05
-7.14781960326e-05
-6.31809373607e-05
-6.92602493318e-05
-9.95320036181e-05
-0.000121072596499
-0.000134749399035
-0.000143183808736
-0.000148040061607
-0.000150533986414
-0.000151659023423
-0.000152122556561
-0.000152341628784
-0.000152537737234
-0.000152586662081
-0.000152274420129
-0.000151191340634
-0.000148653441934
-0.000143717305312
-0.000135146579541
-0.000121331826041
-9.97119623846e-05
-6.94650629525e-05
-9.94360102998e-05
-0.000206097481796
-0.000261884264622
-0.000295657221333
-0.00031562523557
-0.000326269321258
-0.000331087056649
-0.000332672614151
-0.000333031972152
-0.000333189299865
-0.000333459398705
-0.000333676136866
-0.000333550094248
-0.000332076375379
-0.00032727215288
-0.000316584569856
-0.000296452232997
-0.000262452093006
-0.000206445674568
-9.98003174469e-05
-0.000120969400113
-0.00026198769884
-0.000335437740242
-0.0003809571896
-0.000408555054748
-0.000423896269145
-0.000431185675388
-0.000434078920176
-0.00043531677533
-0.000436092662453
-0.000436445155338
-0.000436179522308
-0.000435156963472
-0.000432331224992
-0.00042513675548
-0.000409701486677
-0.000381896722874
-0.000336106935239
-0.000262389854511
-0.000121443794122
-0.0001346800154
-0.000295848397627
-0.000381069093464
-0.000433958917089
-0.000465697324757
-0.000482953922684
-0.000489410699599
-0.000491993593338
-0.000494195921769
-0.000496182102566
-0.000496631204351
-0.000495634130132
-0.000492925437944
-0.000489975379668
-0.000484261882173
-0.000466909088461
-0.000434939718225
-0.000381772659581
-0.000296295218962
-0.000135226268634
-0.000143148497276
-0.00031583421056
-0.000408717940667
-0.000465770928367
-0.000499005763688
-0.000516805301121
-0.000523931544583
-0.000526055859728
-0.000526777019241
-0.000527408111425
-0.00052779371014
-0.000527772054977
-0.000527334187323
-0.000525323882565
-0.00051828754257
-0.000500274807771
-0.000466782661023
-0.000409476804874
-0.00031636363702
-0.000143747648661
-0.000147999059445
-0.000326400534989
-0.000424031841316
-0.000483038074295
-0.000516771390834
-0.000532774690282
-0.000538615471003
-0.000539793110382
-0.000539663684962
-0.000539651561101
-0.000540050290929
-0.000540693827104
-0.000541319620022
-0.000540435145416
-0.000534579800729
-0.000518261814474
-0.000484070073256
-0.000424877554878
-0.000327055504813
-0.000148655400827
-0.000150459707685
-0.000331107654012
-0.000431255148535
-0.000489761873768
-0.000523777352001
-0.00053841703474
-0.000542825322807
-0.000542769577318
-0.000541744055193
-0.000541294992166
-0.000541741427854
-0.000542915977986
-0.000544539673987
-0.000545005195283
-0.000540591729804
-0.000525391118897
-0.000489705188521
-0.000432089412792
-0.000331897362435
-0.0001511774141
-0.000151507309056
-0.000332528281009
-0.000433957959538
-0.000491869855727
-0.000525561712234
-0.000539213630657
-0.000542354771214
-0.000541051993599
-0.000539274515466
-0.000538611114354
-0.000539081966378
-0.000540715966205
-0.000543100134307
-0.000544893162498
-0.000541806147598
-0.000527709764881
-0.000492920349452
-0.000435055284506
-0.000333464870917
-0.000152278045868
-0.000151838404535
-0.000332647213575
-0.000434887355237
-0.000492995377073
-0.000525832265167
-0.000538626147264
-0.00054083641287
-0.000538788855698
-0.000536496179929
-0.000535231655447
-0.000535771096579
-0.000537887555514
-0.000541132383293
-0.000543699015865
-0.000541589730831
-0.000528620241627
-0.000496427868051
-0.000436367820878
-0.000333742191054
-0.000152657219421
-0.000151877312597
-0.000332500987114
-0.000435202056214
-0.000494598762099
-0.000525888546187
-0.000538128289946
-0.00053989747575
-0.000537711632945
-0.000534709625828
-0.000533205825059
-0.00053385181137
-0.000536227408309
-0.000539932327641
-0.000542933434529
-0.000541322936739
-0.00052898855311
-0.00049761870606
-0.000436912647644
-0.000333723456516
-0.00015273675114
-0.000151856369865
-0.000332441209152
-0.000435127695369
-0.00049450661979
-0.000525797086158
-0.000538028856625
-0.000539785232248
-0.00053758528363
-0.000534554447985
-0.000533025740308
-0.000533666604378
-0.00053605698038
-0.000539781825335
-0.000542793073564
-0.000541194221716
-0.000528871090492
-0.00049751363929
-0.000436820201924
-0.000333653130305
-0.000152717281015
-0.00015178533408
-0.000332481536572
-0.000434683961942
-0.000492783593149
-0.000525579931428
-0.000538342550846
-0.000540515876307
-0.000538430500659
-0.00053608399171
-0.00053475732145
-0.000535281214386
-0.000537429280655
-0.000540718552641
-0.000543306266574
-0.000541224384839
-0.000528284677749
-0.000496125720938
-0.000436101090489
-0.000333538592793
-0.000152601109013
-0.000151435698453
-0.000332279995139
-0.00043364512353
-0.000491532074387
-0.000525157708346
-0.000538756290415
-0.000541835773837
-0.000540460723566
-0.000538642671013
-0.000537908324038
-0.000538352725661
-0.000540016254645
-0.00054243093331
-0.000544269404808
-0.000541227125631
-0.000527186333123
-0.000492487810986
-0.000434642910299
-0.000333150513735
-0.00015219566267
-0.000150380307345
-0.000330810383296
-0.00043086310444
-0.000489263427366
-0.000523238933322
-0.000537809215531
-0.000542138069243
-0.00054198876188
-0.000540879240194
-0.000540368247629
-0.000540788946927
-0.000541987339104
-0.000543659934545
-0.000544183917977
-0.00053983487343
-0.000524705235048
-0.000489130398898
-0.000431569021802
-0.000331510663842
-0.000151080608872
-0.00014792253193
-0.000326088060599
-0.000423611123565
-0.000482512414374
-0.000516146156428
-0.000532056240221
-0.000537799057564
-0.000538881847373
-0.00053866892921
-0.000538600760433
-0.000538974377835
-0.000539632885828
-0.000540295226228
-0.000539471669304
-0.000533702100742
-0.000517476005206
-0.000483384095979
-0.000424313137643
-0.000326643470985
-0.000148558075248
-0.000143087814669
-0.00031553826276
-0.000408317658357
-0.000465254454623
-0.000498361481064
-0.000516029114458
-0.000523020147409
-0.00052509918789
-0.000525797652685
-0.0005263651358
-0.000526727475212
-0.00052673504188
-0.000526269234098
-0.000524276876571
-0.000517356854086
-0.000499468843078
-0.000466104282814
-0.000408934331824
-0.000315967219466
-0.000143665813872
-0.00013464327241
-0.000295607318448
-0.000380732250991
-0.000433505321976
-0.000465104001965
-0.000482200080873
-0.000488370125839
-0.000491169293636
-0.000493708857957
-0.000495361523126
-0.000495778691312
-0.000494937825975
-0.00049203016402
-0.000488965816653
-0.000483358419045
-0.000466157289145
-0.000434334916458
-0.000381306052035
-0.000295962723165
-0.000135168635404
-0.000120956990438
-0.000261823958004
-0.000335196389876
-0.000380606141632
-0.000408078126338
-0.000423286917141
-0.000430442860425
-0.000433278631351
-0.000434481735389
-0.000435213476661
-0.000435547202155
-0.000435297154071
-0.000434265268665
-0.000431471376757
-0.000424391452762
-0.000409088689876
-0.000381418803401
-0.000335756224081
-0.00026214691632
-0.000121412444653
-9.94453863057e-05
-0.000206022970123
-0.000261758687912
-0.000295452886081
-0.00031532545932
-0.000325870556714
-0.000330601205923
-0.000332117086928
-0.000332420079721
-0.000332544395369
-0.000332802101826
-0.000333028606161
-0.00033293494026
-0.000331512787841
-0.000326784831913
-0.000316190840028
-0.000296158494789
-0.00026224926767
-0.000206316238537
-9.97991515883e-05
-6.92744571122e-05
-9.95352986787e-05
-0.000121071119114
-0.000134736247761
-0.000143145441197
-0.000147969131789
-0.000150431200068
-0.000151526874471
-0.000151968207683
-0.000152173642311
-0.000152369381493
-0.000152430301826
-0.000152137781296
-0.000151079921522
-0.000148569875143
-0.000143662884172
-0.000135117142882
-0.000121316069494
-9.97086972284e-05
-6.94832539024e-05
-7.27909488584e-05
-0.000114791109771
-0.000144860928736
-0.000164446125806
-0.000176835707192
-0.000184162847127
-0.000188011133746
-0.000189627538522
-0.000190024410046
-0.000190007181448
-0.00019011072813
-0.000190320388553
-0.00019009593126
-0.000188591136764
-0.000184754478877
-0.000177355943277
-0.000164826400448
-0.000145075935651
-0.000114921542665
-7.30704593179e-05
-0.000114599687514
-0.000248235228307
-0.000319324394365
-0.000364161338728
-0.000391860139721
-0.000407742477221
-0.00041591287065
-0.000419522694248
-0.000420761788942
-0.000421118106391
-0.000421388357216
-0.000421462131287
-0.000420527556699
-0.000417079144642
-0.000408907767689
-0.000392922644205
-0.000365022760199
-0.000319896155088
-0.000248550367294
-0.000115131625219
-0.000144629441865
-0.000319407041609
-0.000411332895738
-0.00047006943895
-0.000507400874149
-0.000529498446031
-0.000541415227959
-0.000547470514628
-0.000550160959743
-0.000551303656121
-0.000551677359978
-0.000551119824694
-0.000548803633098
-0.000542959112005
-0.000530950979808
-0.00050869464163
-0.000471145312365
-0.000412116183148
-0.000319886401792
-0.000145341960117
-0.000164222720969
-0.000364297112218
-0.000470134787021
-0.000537858293436
-0.000580192911894
-0.000604948690947
-0.00061791989211
-0.000625185291101
-0.000628576411593
-0.000630138705799
-0.000630572365515
-0.000629732238942
-0.000626828599805
-0.000620046178076
-0.00060672107881
-0.000581623256416
-0.000539065223656
-0.000471105621391
-0.000364980503825
-0.000165089549957
-0.000176598030474
-0.000391955673571
-0.000507467777849
-0.000580225984746
-0.000623627225422
-0.000651360398754
-0.000664905348116
-0.000671969196774
-0.000675467731504
-0.000676834033356
-0.000677311225355
-0.000676742257643
-0.000674567369723
-0.000668072487189
-0.000653428049349
-0.000625087510774
-0.000581587827301
-0.000508636614368
-0.00039288603601
-0.00017761179433
-0.00018385223546
-0.000407684890199
-0.000529497820227
-0.000604910072335
-0.000651284212679
-0.000676698625883
-0.000689127145466
-0.000696731536622
-0.00070054368068
-0.000701504678306
-0.00070201752127
-0.000701912391071
-0.00070150250777
-0.000697044214067
-0.000682026568333
-0.000653540013316
-0.000606776169254
-0.000530957116102
-0.000408960698601
-0.000185032704016
-0.000187580222017
-0.00041565530917
-0.000541256243111
-0.000617473246762
-0.000664516490017
-0.000687005915854
-0.000698813106611
-0.000707180562542
-0.000711061803119
-0.000711508038525
-0.000712029915111
-0.000712474778892
-0.00071407338183
-0.000712803426402
-0.000699060056502
-0.000668556086978
-0.000620392166966
-0.000543137982607
-0.000417286847761
-0.000188922359374
-0.000189038464339
-0.00041901479488
-0.000547079865181
-0.000624591984138
-0.000670202257271
-0.000690410107753
-0.000701878250559
-0.000710011021695
-0.00071347883493
-0.000713390664315
-0.000713869710523
-0.000714854011629
-0.00071803443472
-0.000719108391081
-0.000707473061735
-0.000676365936974
-0.00062749897664
-0.000549214209504
-0.000420936667823
-0.000190498623983
-0.000189264544708
-0.000419931478072
-0.000549383520505
-0.000627528867872
-0.000672425689291
-0.000691744490057
-0.000702459163556
-0.000710035073317
-0.00071285533302
-0.000712411268605
-0.000712948446284
-0.000714291876563
-0.000718299435084
-0.000720611975093
-0.000710247590885
-0.000679740867478
-0.000630878517368
-0.000551868031525
-0.00042211339332
-0.000190798426715
-0.000189087084862
-0.00041991896806
-0.000550040431851
-0.000628515192471
-0.00067322338396
-0.000692167803082
-0.000702415112989
-0.000709532991431
-0.000711952850976
-0.000711365357094
-0.000711989515863
-0.000713562983834
-0.000717876225528
-0.00072066660448
-0.000710846861551
-0.000680798023829
-0.000632140213529
-0.000552789761446
-0.000422287680337
-0.000190668519246
-0.000189046638384
-0.000419818567756
-0.000549923855067
-0.000628400490411
-0.000673108663231
-0.000692045392209
-0.000702283927692
-0.000709389559022
-0.000711778414286
-0.000711163333856
-0.000711788805254
-0.000713382847609
-0.000717709923133
-0.000720507229534
-0.000710687595531
-0.000680638226559
-0.000631986080928
-0.000552639559951
-0.00042217028123
-0.000190632386571
-0.000189159645109
-0.000419658919044
-0.00054905706742
-0.0006272057704
-0.000672095970819
-0.000691393918829
-0.000702074211319
-0.000709615468808
-0.000712368378901
-0.000711860520986
-0.000712395491163
-0.000713779578191
-0.000717817123642
-0.000720148397294
-0.000709786177188
-0.00067928168994
-0.000630437943466
-0.000551441085063
-0.000421782580564
-0.000190697630435
-0.000188888698738
-0.000418612087381
-0.00054658905759
-0.000624092846314
-0.00066963788802
-0.000689713925493
-0.000701011886658
-0.000709022625048
-0.000712425529871
-0.000712287475539
-0.000712745561327
-0.000713720736412
-0.000716943621434
-0.00071808927484
-0.000706577750748
-0.000675605745542
-0.000626824516638
-0.000548568791559
-0.000420434780146
-0.000190344656306
-0.000187402170131
-0.000415160338384
-0.000540658705779
-0.000616873162108
-0.000663779036481
-0.000685976538649
-0.000697421971159
-0.000705512309423
-0.000709254138262
-0.000709631835288
-0.000710112385181
-0.000710571162508
-0.000712241639942
-0.000711164738837
-0.000697786430895
-0.000667586191074
-0.000619550293717
-0.000542350287664
-0.000416662933907
-0.000188731511262
-0.00018366091974
-0.000407130970874
-0.000528829556372
-0.000604164267532
-0.000650464297151
-0.000675647996593
-0.000687666329099
-0.000694901496478
-0.000698527425688
-0.000699402038062
-0.000699874791511
-0.000699781682704
-0.000699472447965
-0.000695339279017
-0.000680743594927
-0.000652501733206
-0.00060582041638
-0.000530096715207
-0.00040827200331
-0.000184825682557
-0.000176411443574
-0.00039138950912
-0.000506797545986
-0.000579460745877
-0.000622792472484
-0.000650373711927
-0.000663785375482
-0.000670588888331
-0.000673925097508
-0.000675206796452
-0.00067564265358
-0.00067508348134
-0.000673016167804
-0.000666732595196
-0.000652233685825
-0.000624070983437
-0.000580625290597
-0.000507789931188
-0.000392196308297
-0.000177410877374
-0.000164060276836
-0.000363786504468
-0.000469522452946
-0.000537139813184
-0.000579345822455
-0.00060398777126
-0.000617010991693
-0.000623975263737
-0.000627223588163
-0.000628685817469
-0.00062908346737
-0.000628284798762
-0.000625456097122
-0.000618834239932
-0.000605562123326
-0.000580587638859
-0.000538169261733
-0.00047034644913
-0.000364366082638
-0.00016491481019
-0.000144500067689
-0.000318989366646
-0.000410823268996
-0.000469456660474
-0.000506650827856
-0.000528604353387
-0.000540424597752
-0.000546317807915
-0.00054887470474
-0.000549929828805
-0.000550269716376
-0.000549742137385
-0.000547516435039
-0.000541795945337
-0.000529891623353
-0.000507783984294
-0.000470389934264
-0.000411489836728
-0.000319386556855
-0.000145202269261
-0.000114517351805
-0.000247955846202
-0.000318970187695
-0.000363721416993
-0.000391298355021
-0.000407061950235
-0.000415133448215
-0.000418651766646
-0.000419811343223
-0.00042011280507
-0.000420363152755
-0.00042045591072
-0.000419577908217
-0.000416202781502
-0.000408121123729
-0.000392252562219
-0.000364484742597
-0.000319461118883
-0.000248213964161
-0.000115045428298
-7.27775090106e-05
-0.000114733229964
-0.000144778283372
-0.000164343888186
-0.000176702005508
-0.000183991378719
-0.000187804217192
-0.000189389645377
-0.000189765411804
-0.000189736958413
-0.000189841022323
-0.000190062454824
-0.000189858653985
-0.000188380423694
-0.000184575297374
-0.000177210717624
-0.000164711208035
-0.000144980446267
-0.000114857362062
-7.30634283246e-05
-7.35194172504e-05
-0.000122655432015
-0.000158094493313
-0.00018168927084
-0.000196824398554
-0.000205845612495
-0.000210502042754
-0.000212230944969
-0.000212436582918
-0.000212233179186
-0.000212256180993
-0.000212538493604
-0.000212463048984
-0.000210899043551
-0.000206379190263
-0.000197361281751
-0.000182112014383
-0.000158313502953
-0.000122662218725
-7.38518355414e-05
-0.000122293685118
-0.000272951681588
-0.000354221415467
-0.000406746530175
-0.000440141282696
-0.000460049868745
-0.000470783851835
-0.000475563789301
-0.000477120870755
-0.000477472075397
-0.000477721261765
-0.000477806309144
-0.000476571754286
-0.000472009540562
-0.000461346891074
-0.000441359609405
-0.000407765725244
-0.000354906740152
-0.000273312395002
-0.000123110054241
-0.000157711885496
-0.000354217568203
-0.000459077698311
-0.000527534103091
-0.000572046811128
-0.000599164024632
-0.000615060107061
-0.000623251346656
-0.000626832692989
-0.000628205848903
-0.000628639904989
-0.000628009867092
-0.000624920332839
-0.000616943829356
-0.000601017858711
-0.000573771607153
-0.000529038174982
-0.000460276272244
-0.000355052939917
-0.00015877273424
-0.000181273594599
-0.000406706414463
-0.00052748765711
-0.000605797045154
-0.000655792346738
-0.00068300712441
-0.000701248117755
-0.000712201827256
-0.000717770720197
-0.000719729099162
-0.000720259158266
-0.000719237860752
-0.000716150737918
-0.000707678219911
-0.000687134093193
-0.000658013317143
-0.000607736771562
-0.000529179399365
-0.000408049182931
-0.000182610174222
-0.000196311275708
-0.000439894778224
-0.000571868964715
-0.000655712801823
-0.000706384784074
-0.000734532701157
-0.000752451403358
-0.00076692167479
-0.000775122074233
-0.000777053334127
-0.000777605082699
-0.000776620971023
-0.000776102490941
-0.000770945545766
-0.000750617738166
-0.000713559595995
-0.000658206797789
-0.000574124991592
-0.0004418678741
-0.00019793140332
-0.000205151284339
-0.000459501455447
-0.000598830363068
-0.000682764053527
-0.00073186749678
-0.000758504685003
-0.000778526137076
-0.000797728247831
-0.000808482187363
-0.000809965519027
-0.000810478320351
-0.000809839623814
-0.00081324924385
-0.000814323762602
-0.00079597090788
-0.000753474100478
-0.000687743529556
-0.000601694441783
-0.000462189346406
-0.000207074824245
-0.000209584099559
-0.000469927275559
-0.000614551284658
-0.000698772899375
-0.000742393596872
-0.00076760587943
-0.000789370371309
-0.000812159230221
-0.000824476846606
-0.000825359076922
-0.000825843244685
-0.000825729041138
-0.000832836134549
-0.000840711732287
-0.000826108190696
-0.000781590587719
-0.000710694705539
-0.000618070587296
-0.000473265824382
-0.000211764286929
-0.000211107254983
-0.000474402809143
-0.000622410513139
-0.000705236803459
-0.000746801003884
-0.000770813348018
-0.000793404714082
-0.000817272838306
-0.000829865821053
-0.000830135060391
-0.000830457452566
-0.000830791240145
-0.000840413587934
-0.000852524800252
-0.00084184675794
-0.00079702539228
-0.000723673192162
-0.000626574311015
-0.000478253002397
-0.000213428277231
-0.000211191494375
-0.000475614851142
-0.000625472456547
-0.000708395169134
-0.000749394951672
-0.000772919732451
-0.000795023335128
-0.000818757415025
-0.000830721189494
-0.000830511540415
-0.000830942665785
-0.000831596238406
-0.000841984108357
-0.000855915813088
-0.000847181292493
-0.000803159919284
-0.000729301426906
-0.000630267949016
-0.000479892354346
-0.000213562857976
-0.000210897800629
-0.000475562107175
-0.000626231861163
-0.000709746135789
-0.000750783929877
-0.000773950028057
-0.00079573292547
-0.000819059516042
-0.000830503356368
-0.000830103503568
-0.000830605806438
-0.000831532717009
-0.000842110637521
-0.000856531797017
-0.00084844750295
-0.000804878051276
-0.000731005986157
-0.000631096793069
-0.000480146304538
-0.000213299030236
-0.000210843522652
-0.000475417911053
-0.000626079573103
-0.000709607463887
-0.000750654949797
-0.000773815529901
-0.000795599566268
-0.00081891196626
-0.000830307733664
-0.000829868002023
-0.000830384721531
-0.000831339237206
-0.000841931201827
-0.000856363687932
-0.000848274588371
-0.000804683667699
-0.000730792945073
-0.000630871661248
-0.000479968490337
-0.0002132511455
-0.000211039631406
-0.000475208212664
-0.000625033958487
-0.000707991694948
-0.000749020206015
-0.000772536715991
-0.000794635816903
-0.000818343839547
-0.000830212551561
-0.000829923676754
-0.000830362396667
-0.00083105854827
-0.000841467636191
-0.000855425181922
-0.000846673312275
-0.000802592489369
-0.00072869030737
-0.000629650853803
-0.000479391499356
-0.000213427749663
-0.000210878285212
-0.000473793011051
-0.000621746818515
-0.000704510571135
-0.000745871136864
-0.000769635823663
-0.00079186075554
-0.000815496066023
-0.000827950217928
-0.000828155101934
-0.00082844265378
-0.000828689879411
-0.000838259508601
-0.000850460744719
-0.000840089675002
-0.000795671008465
-0.000722626158035
-0.000625656579314
-0.000477494325869
-0.00021321233975
-0.000209294921626
-0.000469169796553
-0.000613739649538
-0.000697753335547
-0.000740831528329
-0.00076529305175
-0.000786252924315
-0.000808290946154
-0.000820243634731
-0.000821014296585
-0.000821387125476
-0.000821249634629
-0.000828353166588
-0.000836477607683
-0.000822815891423
-0.000779441756871
-0.000709302477316
-0.000616967830739
-0.000472331240065
-0.000211482372561
-0.000204830585963
-0.000458648442853
-0.000597930209722
-0.000681754299818
-0.000730225729698
-0.000755845989979
-0.000774790114763
-0.000793052638095
-0.000803320061279
-0.000804642227441
-0.000805060160913
-0.000804414226386
-0.000807884826749
-0.000809567123406
-0.000792498923456
-0.000751361487161
-0.000686419318136
-0.00060053318034
-0.000461179602285
-0.000206765910999
-0.000195983890227
-0.000439012956009
-0.000570954065501
-0.000654740765366
-0.000705089854854
-0.000732413775786
-0.000749357691009
-0.000763083990819
-0.00077090718788
-0.000772659704734
-0.000773109605726
-0.000772087604628
-0.000771756179012
-0.000767264338692
-0.000748036037958
-0.000711925133603
-0.000656970974188
-0.000573015679174
-0.000440876918651
-0.000197624012996
-0.000180964148395
-0.000405877598984
-0.000526626036133
-0.000604868291495
-0.000654734253514
-0.000681717332224
-0.000699441927426
-0.000709834047095
-0.000715055218722
-0.000716833420228
-0.000717284674139
-0.000716307379794
-0.000713492410484
-0.000705539905549
-0.000685566284449
-0.000656704053164
-0.000606620189774
-0.000528194569222
-0.000407155331842
-0.000182324656534
-0.000157432116831
-0.000353502333074