/*--------------------------------*- C++ -*----------------------------------*\
| =========                 |                                                 |
| \\      /  F ield         | OpenFOAM: The Open Source CFD Toolbox           |
|  \\    /   O peration     | Version:  3.0.1                                 |
|   \\  /    A nd           | Web:      www.OpenFOAM.org                      |
|    \\/     M anipulation  |                                                 |
\*---------------------------------------------------------------------------*/
FoamFile
{
    version     2.0;
    format      ascii;
    class       volVectorField;
    location    "7.6";
    object      U;
}
// * * * * * * * * * * * * * * * * * * * * * * * * * * * * * * * * * * * * * //

dimensions      [0 1 -1 0 0 0 0];

internalField   nonuniform List<vector> 
7968
(
(0.000752093709954 0.000696272543631 -0.00120742718902)
(0.00290240795706 0.000143703245221 -0.0013876094343)
(0.00584908773351 -9.04492101732e-05 -0.0013041278516)
(0.00820064345373 -7.47688461523e-05 -0.000983787805912)
(0.00974290582007 0.000194382603244 -0.000630983166212)
(0.0098849170582 0.000652319479967 -0.000307872784696)
(0.00911638562635 0.000993528329584 -0.000135946605947)
(0.00738624054595 0.00138343207766 4.17988308968e-06)
(0.00493639955691 0.00168245135655 6.68833297323e-05)
(0.0021103367524 0.00183865689214 8.18301404912e-05)
(-0.000841316615429 0.00184579743734 8.55485687811e-05)
(-0.00370172735344 0.00170254632458 7.87552749875e-05)
(-0.00622258130967 0.00141291420206 2.72213017793e-05)
(-0.0080587235154 0.0010270982444 -9.96740320765e-05)
(-0.0089459382119 0.000671145860032 -0.000269668106117)
(-0.00895002492841 0.000235607187201 -0.000570273388786)
(-0.00758486409743 -4.1765753047e-05 -0.000923179442485)
(-0.00541472334613 -5.51145052775e-05 -0.00124078184731)
(-0.00265108151343 0.000178064978043 -0.00132628443204)
(-0.000666554767566 0.000724757059466 -0.00114926453483)
(0.000201914509503 0.00274058099063 -0.00138478799269)
(0.00261487047226 0.00245077960517 -0.00362918350136)
(0.00613713259648 0.00262833211257 -0.00432748652071)
(0.00881237816169 0.00325672902124 -0.00423277042008)
(0.0103756796812 0.00425452630935 -0.0038964212221)
(0.0105527190192 0.00536693102962 -0.00351936094172)
(0.0096075462088 0.00629141543252 -0.00322385243426)
(0.00770599054113 0.00708692146932 -0.00299857405176)
(0.00511724692276 0.0076622497875 -0.00287412762845)
(0.00217898962639 0.00796342065531 -0.00283042250987)
(-0.000874115077976 0.00797554468076 -0.00282271889452)
(-0.00384953563193 0.00769558985817 -0.00285027468646)
(-0.00651282133529 0.00713430084832 -0.00295790497124)
(-0.00852206413456 0.00634434158589 -0.00316915984318)
(-0.00958878262591 0.00542326051806 -0.00345597428298)
(-0.00956513414311 0.00433184183108 -0.00382018234036)
(-0.00817800661381 0.00334237346433 -0.00415319780552)
(-0.00569431917041 0.00272072652521 -0.00424989894372)
(-0.00235973087508 0.0025406719494 -0.00356142229072)
(-0.000112700166896 0.0028169561796 -0.00132778003083)
(-2.93667163535e-05 0.00558378924956 -0.00131089562021)
(0.00279591612165 0.00586614920724 -0.00432983139414)
(0.00682264265191 0.00654893701007 -0.00505985401601)
(0.00980089375664 0.00775719673316 -0.0047345467704)
(0.0114330255832 0.00935065845979 -0.00412142670222)
(0.0115462303449 0.0110219146055 -0.00352251940912)
(0.0103921625294 0.0124578207485 -0.00307888843908)
(0.00824611019217 0.0136390077162 -0.00279721124376)
(0.00543075740836 0.0144864437014 -0.00266325861024)
(0.00228993935144 0.0149264522925 -0.00262036779728)
(-0.000958252686523 0.0149467442235 -0.00261155652948)
(-0.00414284251012 0.0145418050854 -0.0026369128334)
(-0.00704114651627 0.0137153955919 -0.00275467784185)
(-0.00929733300934 0.0125402950461 -0.00302307235222)
(-0.0105740815994 0.0111104426515 -0.00345407986384)
(-0.0106103829754 0.00946106845392 -0.00403715121884)
(-0.00915395885637 0.00787947916798 -0.00464051952031)
(-0.00637046059798 0.0066803489214 -0.00496601116523)
(-0.00253582622812 0.00599720852587 -0.00424979718495)
(0.000119929130455 0.0056991781395 -0.00124815961929)
(-1.41365149659e-05 0.0078438624561 -0.00099423744376)
(0.00342312704884 0.00844348361222 -0.00424280538072)
(0.00803117123231 0.00942812327114 -0.00474332058133)
(0.0113670242431 0.010993465779 -0.00403543897129)
(0.0130830967329 0.0129434670832 -0.00301881585638)
(0.0130588523392 0.0149379662304 -0.0020881749382)
(0.0116135539565 0.0166751981085 -0.00141623760825)
(0.00910782158665 0.0180970719258 -0.00102170123221)
(0.00593564690378 0.0191129868877 -0.00085121911004)
(0.00246477438507 0.0196472484487 -0.000806128824423)
(-0.00109995696534 0.0196747176106 -0.000794264266791)
(-0.00462527569436 0.0191872030495 -0.000816946220607)
(-0.00789409658668 0.0181962096979 -0.000970364038752)
(-0.0105158134648 0.0167769270694 -0.00135363151536)
(-0.0120813006172 0.0150409879883 -0.00201127123633)
(-0.0122469723124 0.0130660798304 -0.00292143867126)
(-0.0107050308925 0.0111313622375 -0.00392405144342)
(-0.0075662380892 0.00957807061926 -0.00462993339561)
(-0.00315489494964 0.00859604995665 -0.00414576307958)
(0.000108397447666 0.00798034827199 -0.000920928140858)
(0.000258875064439 0.00930488371414 -0.000645073795441)
(0.00441920106119 0.00992505025842 -0.00391301283628)
(0.00962374905957 0.0109789989748 -0.00414144241267)
(0.0133159476616 0.0126293107705 -0.00303125612854)
(0.0151239906713 0.0146722674729 -0.0015757667036)
(0.0149367934635 0.0167562658576 -0.000263391372062)
(0.0131691504933 0.0185637707532 0.000735424099864)
(0.0102512634256 0.0200498217678 0.0013851894086)
(0.00663524554221 0.0211206273415 0.00171741355448)
(0.00271547907496 0.0216939271613 0.00183900460118)
(-0.00130350523012 0.0217290578058 0.00185766416123)
(-0.00529618738403 0.0212135644566 0.00176817125826)
(-0.0090321363006 0.0201681181687 0.00145299771404)
(-0.0120771239824 0.0186759449295 0.0008082058162)
(-0.0139602004954 0.0168594228909 -0.000182104940381)
(-0.0142785600459 0.0147901888784 -0.00147038238762)
(-0.0126397693811 0.0127610373687 -0.00290357312543)
(-0.00914642481784 0.0111245427861 -0.00400887785783)
(-0.00414414486152 0.0100756222812 -0.00379631067893)
(-0.000162606703515 0.00944148297632 -0.000558830125818)
(0.00071020993219 0.00938766474402 -0.00033420944844)
(0.0055256893856 0.0100394113412 -0.00354760845674)
(0.0112908609095 0.0110298388058 -0.00355475514303)
(0.0153069501665 0.0125434824765 -0.00211076297571)
(0.0172045586903 0.0144250322261 -0.000270992491105)
(0.0167962201339 0.0162900970734 0.00141130144835)
(0.014705226048 0.0179231833237 0.00266017209962)
(0.0113742355735 0.0192835024464 0.00348198561885)
(0.00731605075199 0.0202782313394 0.0039056747139)
(0.00296017266274 0.0208233187609 0.00406132911645)
(-0.00149661878478 0.0208643045266 0.00409024473903)
(-0.00594995872402 0.0203866524349 0.00398060800826)
(-0.0101599009663 0.0194204506589 0.00356895719543)
(-0.013632110753 0.0180480812367 0.00273370426767)
(-0.0158302693892 0.0163936587027 0.00148133888838)
(-0.0163505426571 0.0145311106664 -0.000171188692779)
(-0.0146178192278 0.012658864927 -0.0019807077033)
(-0.0108000164634 0.0111543930742 -0.00341223108515)
(-0.00524257220271 0.0101663371454 -0.00342047076536)
(-0.000608316769677 0.00950244937574 -0.000242087862322)
(0.00105621317689 0.00857514981207 -0.000165567428674)
(0.00644958886439 0.00904928275394 -0.00326004786092)
(0.0127264320514 0.00982757635925 -0.00311910701937)
(0.0170443708365 0.0110452966411 -0.00144322828585)
(0.0190126726702 0.0126001103327 0.000727927926473)
(0.0184288332316 0.0141392960845 0.0026655116276)
(0.0160716954559 0.0155028987928 0.00409843930869)
(0.0123811696649 0.0166682163055 0.00506478726493)
(0.00793212350471 0.0175457098283 0.00557821068842)
(0.003186349952 0.0180175354311 0.00578835528438)
(-0.00166347718548 0.0180584967965 0.00582807399905)
(-0.00653193655676 0.017658970955 0.00567710399223)
(-0.0111677817934 0.0168162238324 0.00516770888224)
(-0.0150186051956 0.0156391595982 0.00417274651699)
(-0.0174814750212 0.0142500809971 0.00272630707272)
(-0.0181611703116 0.0127033384021 0.000819184691875)
(-0.0163501678412 0.0111485664016 -0.00131795179389)
(-0.0122282480143 0.0099316535047 -0.00297361228524)
(-0.00616283389353 0.00915229557896 -0.00312800723363)
(-0.000956162097258 0.00866875171096 -7.17100791122e-05)
(0.00144191627803 0.00681143407233 -3.17538143551e-05)
(0.00723973682313 0.00711313839992 -0.00304413439698)
(0.0139008196412 0.00764201895363 -0.00284621498339)
(0.0184586408182 0.00849067248069 -0.00105747579309)
(0.0204926877784 0.00962238159759 0.00137261442962)
(0.0197830794618 0.0107383117019 0.00348972874118)
(0.0172348879961 0.0117323839954 0.00507132705237)
(0.0132595016797 0.0126030510552 0.00619781737378)
(0.00843859021875 0.0132074425615 0.00687083560929)
(0.0033707859309 0.0136385570077 0.00683692775058)
(-0.00180132813693 0.0136837757895 0.006853658348)
(-0.00700314170777 0.0133147011247 0.00696202511985)
(-0.0120340957503 0.0127361276903 0.0063264015616)
(-0.0161958918529 0.0118654683549 0.00515515338089)
(-0.0188547361158 0.0108490924779 0.0035529391363)
(-0.019652237206 0.00972137900756 0.00146417008184)
(-0.0177709225667 0.00858232710986 -0.000928188449609)
(-0.0134069222952 0.00772497892572 -0.00269910732695)
(-0.00695627512022 0.00719008964025 -0.0029109631005)
(-0.00134508300478 0.00688116247081 5.93097924099e-05)
(0.00173344558528 0.00434723364076 2.61258963263e-05)
(0.0078032808474 0.0045093082291 -0.0029289279544)
(0.0147307626234 0.00480590261358 -0.00272290462964)
(0.0194527091288 0.0052891216039 -0.000901410028718)
(0.0215414250907 0.00596354033898 0.00168692976043)
(0.0207543911406 0.00662185865596 0.00389583482026)
(0.0180929916727 0.00721040319194 0.00556717914011)
(0.0138553878364 0.00769784243751 0.00685474890592)
(0.00887182160758 0.00813164970067 0.00693094177387)
(0.00350662255975 0.00838393840488 0.00694811585278)
(-0.00191236683155 0.00841211365123 0.00697980926671)
(-0.00741955562859 0.00820520383134 0.00699960102901)
(-0.0126297043831 0.00779801059577 0.00694518499419)
(-0.0170522381842 0.00730852884267 0.00567508792965)
(-0.0198386455243 0.0067079241623 0.00397653846191)
(-0.0207134480755 0.0060407226233 0.00179177510716)
(-0.0187772213505 0.00535742987423 -0.000762726606956)
(-0.0142471756364 0.00486420846946 -0.0025737744426)
(-0.00752675530202 0.00456110232649 -0.00279728187821)
(-0.00164143620796 0.00439463814869 0.000113959912915)
(0.0018811658225 0.00152710262691 3.76470362915e-05)
(0.00808958917475 0.00157757465985 -0.00289289286032)
(0.0151476639264 0.00166989792467 -0.00269070231046)
(0.0199568035771 0.00182065465768 -0.000873794947859)
(0.0220791517288 0.00203955159661 0.00178390348565)
(0.0212602180656 0.00225172695556 0.00401869757232)
(0.0185306544847 0.00244115907832 0.0057365995792)
(0.0142456770741 0.00259748611768 0.00682074155188)
(0.0091085878282 0.00272536184935 0.00692092992921)
(0.00359492095166 0.00281059759739 0.00701259683155)
(-0.00198410330753 0.00282022540909 0.00704940681455)
(-0.00764291143624 0.00274878796921 0.00700403404463)
(-0.0130270198512 0.00263443721751 0.00685825291503)
(-0.0174812300345 0.00247640618345 0.00586130773067)
(-0.0203495089641 0.00228450821717 0.00411453839892)
(-0.0212578560386 0.00207078330978 0.00190086662758)
(-0.0192880644811 0.00185024363327 -0.000726250561379)
(-0.0146701549942 0.00169749804889 -0.00253910858329)
(-0.00781759728793 0.0016040567241 -0.00276188578492)
(-0.0017921518312 0.00155259366256 0.000124224439796)
(0.00188077216248 -0.00140145652914 3.81356584712e-05)
(0.0080877164742 -0.00145011335667 -0.00289196712651)
(0.0151454844919 -0.00154936316785 -0.00269109849245)
(0.0199545572111 -0.00171025503081 -0.000875461904509)
(0.0220769099564 -0.0019395616236 0.0017814216735)
(0.0212576632556 -0.00216159177861 0.00401495499124)
(0.0185279244461 -0.00236093500466 0.00573190547384)
(0.0142431268819 -0.00252699003786 0.00681481046418)
(0.00910676564407 -0.00266290231714 0.00691513013603)
(0.00359388420705 -0.00275385469318 0.00700734082356)
(-0.00198469657696 -0.00276484992386 0.00704417111145)
(-0.00764230572327 -0.00269055324619 0.00699800143106)
(-0.0130245478945 -0.00256831300049 0.00685113341471)
(-0.0174773058694 -0.002399265922 0.00585540840726)
(-0.0203449407693 -0.00219394623395 0.00410992207702)
(-0.0212529045427 -0.00196472721035 0.00189801016638)
(-0.0192829004131 -0.00172586461245 -0.000727087066973)
(-0.0146654889783 -0.00155652978544 -0.0025379742819)
(-0.00781427687847 -0.00145078535028 -0.00275907828386)
(-0.00179147088401 -0.00139948686184 0.000125446421454)
(0.00173252750419 -0.0042224001257 2.82852329086e-05)
(0.00779819471585 -0.00438221451104 -0.00292524905142)
(0.0147250434523 -0.00468367652395 -0.00272296827623)
(0.0194468783359 -0.00517399211393 -0.000905009691362)
(0.0215357515587 -0.00585546970446 0.0016810450911)
(0.0207477715901 -0.00651985675639 0.00388673622742)
(0.0180859928206 -0.00711447392345 0.00555567735324)
(0.0138483593069 -0.00760838681033 0.00684048624096)
(0.00886656058363 -0.00804841081081 0.00691415789735)
(0.00350340061735 -0.00830529782987 0.00693183408716)
(-0.00191390911103 -0.00833467860298 0.0069634546785)
(-0.00741764331741 -0.00812549014895 0.00698075484901)
(-0.0126229698347 -0.00771131143995 0.00692549442205)
(-0.0170418144955 -0.00721362276328 0.00566046595176)
(-0.0198264317293 -0.00660387199205 0.00396504279906)
(-0.0207003456748 -0.00592582447646 0.00178469954656)
(-0.0187635696942 -0.00522925141991 -0.000764769300637)
(-0.0142348611907 -0.00472363351865 -0.00257052393676)
(-0.00751781082569 -0.00441099769496 -0.00278943042084)
(-0.00163973005761 -0.0042446315828 0.00011789982208)
(0.00144113368752 -0.00669175759352 -2.70779338527e-05)
(0.00723334581832 -0.00699000569677 -0.00303741854882)
(0.0138945379712 -0.00752011664437 -0.00284451812586)
(0.0184524482365 -0.00837063136072 -0.00106041750784)
(0.0204871872642 -0.00950353612348 0.00136760474829)
(0.0197762068589 -0.0106192393569 0.00348185729189)
(0.0172273218675 -0.0116133094332 0.00506152053134)
(0.0132509927631 -0.0124848041548 0.00618769820768)
(0.00843079816153 -0.0130920764131 0.00685579896857)
(0.00336622193708 -0.0135270606976 0.00681171705029)
(-0.00180300762608 -0.0135721800006 0.00682745677484)
(-0.00700085681756 -0.0132026105043 0.00693326942976)
(-0.0120242698527 -0.0126160888791 0.00631153034863)
(-0.0161832625221 -0.0117434961645 0.00514078786848)
(-0.0188395200967 -0.01072496321 0.00354171176038)
(-0.0196359069678 -0.00959399392732 0.00145724771715)
(-0.0177534497002 -0.00844957916515 -0.00092967521223)
(-0.0133912590316 -0.00758651143146 -0.00269385727078)
(-0.00694433696626 -0.00704697724914 -0.0028993033259)
(-0.00134323112131 -0.00673920982882 6.64639202204e-05)
(0.00105596301723 -0.00846651965366 -0.000158309773371)
(0.00644433624824 -0.00893568522382 -0.00325134079935)
(0.012722731056 -0.00971146194744 -0.00311514780751)
(0.0170421262548 -0.0109257989104 -0.00144292119619)
(0.0190123194391 -0.0124765416249 0.000727947092606)
(0.0184268201631 -0.0140101929776 0.00266537833184)
(0.0160676653324 -0.0153684740397 0.0040976892972)
(0.0123754495668 -0.016530561119 0.0050635950922)
(0.00792606536327 -0.0174062037591 0.00557593567982)
(0.00318228267829 -0.0178761882891 0.0057841034385)
(-0.00166306386064 -0.0179156506885 0.00582250423544)
(-0.00652724511994 -0.0175151895067 0.00567155637918)
(-0.0111599988204 -0.0166722342255 0.00516203463727)
(-0.0150083205031 -0.0154968293578 0.00416739926636)
(-0.0174695666385 -0.0141117139136 0.00272201130472)
(-0.0181478978263 -0.0125683408353 0.000816876083746)
(-0.0163345861577 -0.0110155086951 -0.00131656750263)
(-0.0122134468965 -0.00979991391203 -0.00296601589446)
(-0.00615117895481 -0.00902133779333 -0.00311389373572)
(-0.000954834397651 -0.00854090049459 -6.17092675905e-05)
(0.00070744987142 -0.00929178418337 -0.000327187215266)
(0.005524385277 -0.00993861175058 -0.00353825236452)
(0.0112941127996 -0.0109244563409 -0.00354848195438)
(0.0153131089703 -0.0124315003994 -0.00210593963921)
(0.0172134328482 -0.0143059950327 -0.000264295242714)
(0.0168033437578 -0.0161635145449 0.00142033394015)
(0.0147088884291 -0.0177885379508 0.00267011747678)
(0.0113741082385 -0.0191428803219 0.00349174940538)
(0.0073139550141 -0.0201337986689 0.00391360208782)
(0.00295880241836 -0.0206761930228 0.00406710543905)
(-0.00149509414945 -0.0207150485866 0.00409497784759)
(-0.00594571876502 -0.0202361107697 0.00398640008775)
(-0.0101551367067 -0.0192699424314 0.00357621540495)
(-0.0136282628627 -0.0179012491372 0.00274034047547)
(-0.0158264637558 -0.016253300838 0.00148680639443)
(-0.0163456866162 -0.0143973688821 -0.000166105939435)
(-0.014610276637 -0.0125317450302 -0.00197453093547)
(-0.0107920890667 -0.0110336359414 -0.00340194068823)
(-0.00523507279836 -0.0100500292471 -0.00340568713055)
(-0.000604189593808 -0.00938982054397 -0.0002330736307)
(0.000262722857695 -0.00922828826555 -0.000634968562383)
(0.00442632022404 -0.00984459933108 -0.00390342651333)
(0.00963747792544 -0.0108915578142 -0.00413325837802)
(0.0133333578736 -0.0125328776092 -0.00302235194375)
(0.0151435792572 -0.0145675573802 -0.00156357701484)
(0.0149546988233 -0.0166436115583 -0.000246979299849)
(0.0131833214673 -0.0184426041628 0.000754534321384)
(0.0102602715852 -0.0199215420223 0.0014059862843)
(0.00664027365319 -0.0209866907532 0.00173811041729)
(0.0027186785596 -0.0215555887355 0.00185856154726)
(-0.00130052600238 -0.0215880476614 0.00187667019553)
(-0.0052935862643 -0.0210719577873 0.00178791554578)
(-0.0090321985104 -0.0200278268681 0.00147313739383)
(-0.0120809389487 -0.0185395840084 0.000826368406259)
(-0.0139658839883 -0.016729763508 -0.000166357963192)
(-0.014284765676 -0.0146685537974 -0.00145743030048)
(-0.0126446264511 -0.0126485621257 -0.00289170402802)
(-0.00915071406048 -0.0110224222558 -0.00399595797826)
(-0.00414694515464 -0.0099816398038 -0.00378152909989)
(-0.000167132623021 -0.00935106901578 -0.000546607908539)
(-1.13739059092e-05 -0.00778968043101 -0.000985273693803)
(0.00343508520842 -0.00838432326386 -0.00423600026836)
(0.00805207264286 -0.00936167945244 -0.00473533895143)
(0.0113924473008 -0.0109178075989 -0.00402453108376)
(0.0131098234238 -0.0128594161546 -0.00300335812042)
(0.0130828537163 -0.014846825519 -0.00206923307028)
(0.0116329731202 -0.0165776085731 -0.00139552364089)
(0.00912209180353 -0.0179944800172 -0.00100033380123)
(0.00594585049413 -0.0190058033674 -0.000829691287275)
(0.00247261405397 -0.0195359454387 -0.000784645643276)
(-0.0010935160981 -0.0195606273951 -0.0007724476935)
(-0.00462084420537 -0.0190721435396 -0.000794080495374)
(-0.00789418634982 -0.0180816515532 -0.000946556055007)
(-0.0105217843536 -0.0166643682861 -0.00133017248187)
(-0.0120919390653 -0.0149334258654 -0.00198928161082)
(-0.0122609194518 -0.0129660396109 -0.00290161830619)
(-0.0107196702735 -0.0110411627947 -0.00390787403668)
(-0.00757981215038 -0.00949914423405 -0.00461626049472)
(-0.00316456689936 -0.0085260772709 -0.00413371802934)
(0.000104251775743 -0.00791624353344 -0.00091174650157)
(-2.56795768383e-05 -0.00555031783611 -0.0013022008846)
(0.00281099696895 -0.00582864519489 -0.00432560864718)
(0.0068487364486 -0.00650511294202 -0.00505363215937)
(0.00983258635442 -0.00770517840387 -0.00472343184872)
(0.0114659069137 -0.00929063260524 -0.00410453869369)
(0.0115752236077 -0.0109547882125 -0.00350183697427)
(0.0104166291658 -0.0123840168472 -0.00305658552861)
(0.00826572585202 -0.013559959902 -0.00277436624582)
(0.00544612716748 -0.0144027252016 -0.00263982768647)
(0.00230192431642 -0.0148391227892 -0.00259635169114)
(-0.000949383377939 -0.0148571293051 -0.00258672800151)
(-0.00413782687906 -0.014451666492 -0.00261108678417)
(-0.00704197007765 -0.0136266397134 -0.00272780517455)
(-0.00930531285909 -0.0124545273132 -0.00299600838256)
(-0.0105883830339 -0.0110304502694 -0.00342795676616)
(-0.0106309816012 -0.00938917429573 -0.00401380429983)
(-0.00917656693225 -0.00781694492559 -0.00462316494981)
(-0.00639121286657 -0.00662773233237 -0.00495394124643)
(-0.00255060082783 -0.00595244065727 -0.0042410256081)
(0.000113745697857 -0.00565850306927 -0.00124125476758)
(0.000205618284702 -0.00272520873 -0.00138014042889)
(0.00262940794648 -0.00243307056615 -0.00362751593415)
(0.0061634001757 -0.00260645662347 -0.00432478730595)
(0.00884597401537 -0.00322962847143 -0.00422569859411)
(0.0104117899333 -0.00422219790695 -0.00388134770493)
(0.0105840176989 -0.00532983706403 -0.00349960816485)
(0.00963414650067 -0.00624947653974 -0.00320257802277)
(0.00772795971185 -0.00704131782542 -0.00297678837082)
(0.00513543079602 -0.00761358954027 -0.00285125350878)
(0.00219392384733 -0.00791248883001 -0.00280642754974)
(-0.000862596658314 -0.00792319139141 -0.0027975543818)
(-0.00384244178399 -0.00764281745749 -0.00282418665875)
(-0.00651235006969 -0.00708238993374 -0.00293109800024)
(-0.00852994297554 -0.00629475409482 -0.00314247725681)
(-0.00960444287709 -0.00537797469722 -0.00343068526589)
(-0.00958915278973 -0.00429252034875 -0.00379923834217)
(-0.00820341099099 -0.0033090530202 -0.00414079171591)
(-0.0057165173123 -0.00269330316131 -0.00424230052528)
(-0.00237495980428 -0.00251728607383 -0.00355751371286)
(-0.00011883924735 -0.00279439851816 -0.00132520437735)
(0.000751341539791 -0.000691247591879 -0.00120361835539)
(0.0029090837259 -0.00013799291862 -0.00138782816507)
(0.00586712452113 9.73406105734e-05 -0.00130376752656)
(0.00822558271724 8.31627234041e-05 -0.000981359336284)
(0.00977160546641 -0.000184479188603 -0.000624915463441)
(0.00991019010648 -0.000640579093363 -0.000298846465486)
(0.0091392623242 -0.000980167427341 -0.000126574237959)
(0.00740660213652 -0.00136881604172 1.37178898593e-05)
(0.00495435160249 -0.00166723815998 7.66400811958e-05)
(0.00212607829076 -0.00182306326793 9.17246207e-05)
(-0.00082786032567 -0.00182980747273 9.60225495246e-05)
(-0.0036914564181 -0.00168608206427 9.02100939153e-05)
(-0.00621747886286 -0.0013962886768 3.99202306186e-05)
(-0.00806017951446 -0.00101119031126 -8.62967917959e-05)
(-0.00895339669989 -0.000656001461729 -0.000257000479231)
(-0.00896491123899 -0.000224001129009 -0.00055968360589)
(-0.00760054205261 5.22096758959e-05 -0.00091739711617)
(-0.00542668921419 6.40923553223e-05 -0.00123735975009)
(-0.00265554608045 -0.000169123306239 -0.00132262549137)
(-0.00066620062978 -0.000714818234362 -0.00114056051815)
(0.00158152291253 0.00152649187588 -0.00580928713222)
(0.00460098581145 0.00219216613525 -0.00656915611978)
(0.00747979239851 0.0027703498709 -0.00658105929562)
(0.00957781417581 0.00342154518192 -0.00612335341254)
(0.01072797292 0.00413053399275 -0.00549830059137)
(0.0106399114921 0.00477116989216 -0.00491273611164)
(0.00962176347708 0.00523929798338 -0.00446333526477)
(0.00770043144626 0.00563326855762 -0.00412105814328)
(0.00511355741638 0.00591088869663 -0.00395529980725)
(0.00217971317457 0.00605468757296 -0.0039128134451)
(-0.000869549456299 0.00606090171012 -0.00389963839642)
(-0.0038392475577 0.00592754134573 -0.00391337568207)
(-0.00649880097876 0.00565628039344 -0.00404441392224)
(-0.008528041492 0.00526414298286 -0.00435154429172)
(-0.00967144535558 0.00479114270864 -0.00477758267108)
(-0.00990644722112 0.00417320160148 -0.00533060790134)
(-0.00894062001715 0.00346678434987 -0.00594409436544)
(-0.00703228245597 0.00282059743701 -0.00639685856687)
(-0.0043481662708 0.00223884484903 -0.00638835622273)
(-0.00150276005122 0.00155762152279 -0.0056390907913)
(0.00225954182389 0.00443879291795 -0.00657031821674)
(0.00535919663972 0.00517208922831 -0.00879187722293)
(0.00793774717186 0.00602856793303 -0.00907904955756)
(0.00970610585356 0.00714417676916 -0.00851639046466)
(0.0105428851406 0.00839455059254 -0.00767040714767)
(0.0103654940148 0.0096039321881 -0.00681874536515)
(0.00926212565598 0.0106235528449 -0.00612388626708)
(0.00736652966542 0.0114499868373 -0.00562287754241)
(0.00490042805918 0.0120372480142 -0.00533651027089)
(0.00211527604607 0.0123456889335 -0.00522124693157)
(-0.000783724799507 0.0123630220173 -0.00520412722403)
(-0.00360944362251 0.0120843264047 -0.00528404976285)
(-0.00615166331428 0.0115143450733 -0.0055345703009)
(-0.00815183448342 0.0106921185868 -0.00600257072164)
(-0.00937917051559 0.00967559145615 -0.00666746280298)
(-0.00970179446723 0.00848172911388 -0.00748821155571)
(-0.00903275690493 0.00724513263851 -0.0083137727146)
(-0.00744929822094 0.00613997956824 -0.00886822627115)
(-0.00506079313944 0.00528181998201 -0.00858587751723)
(-0.00215624473351 0.00452342371892 -0.00638005656994)
(0.00284351041746 0.00720319101219 -0.00660116612324)
(0.0062249652223 0.00764100767787 -0.00909341965049)
(0.00886947359905 0.00856516569399 -0.00910127948175)
(0.0105627679458 0.00989376308063 -0.00802231286093)
(0.0112426949283 0.0114277661799 -0.00659096735772)
(0.0108938109508 0.0129430229578 -0.00520042473094)
(0.00960750191831 0.0142636125115 -0.00409035467207)
(0.00756736132778 0.0153191530242 -0.00332492793003)
(0.00500775725342 0.0160670592183 -0.00289055373033)
(0.00215453299804 0.0164682013582 -0.00270626545884)
(-0.000808451132557 0.0164950054366 -0.00268360062037)
(-0.0037098042952 0.0161396736191 -0.00282444718509)
(-0.00635387091224 0.0154175024519 -0.00322143130288)
(-0.00849968246634 0.0143672411698 -0.00395481499485)
(-0.00990561113145 0.0130503713707 -0.00503158812668)
(-0.0103922135765 0.0115475527134 -0.00638575556478)
(-0.00987067215207 0.0100281801212 -0.00778749457429)
(-0.00835744289425 0.00871249407666 -0.00885290121828)
(-0.00590190567016 0.00779175981324 -0.00885055603738)
(-0.00272534101124 0.00733936894722 -0.00638090636398)
(0.00349762097314 0.00919805250219 -0.00616352327558)
(0.00734323010654 0.00931070932695 -0.00855255326016)
(0.0101999580596 0.0101633760479 -0.00804505701379)
(0.011883461795 0.0114851836516 -0.00630181737191)
(0.012414851993 0.0130319474026 -0.00419258065675)
(0.0118264838415 0.0145602160607 -0.0022178225864)
(0.0102755720803 0.0159044010181 -0.000674526572254)
(0.00799859946346 0.0169815278316 0.000364325795512)
(0.00525258475686 0.0177459288049 0.000944844451703)
(0.00224212426091 0.018160015795 0.00119493507244)
(-0.000874243557966 0.0181954381531 0.00122617258928)
(-0.00394576824471 0.0178410566623 0.00103209313268)
(-0.00679288778762 0.0171075894262 0.000489876036013)
(-0.00918102576985 0.016033135 -0.000523473989943)
(-0.0108446329539 0.0146844651619 -0.00203640069127)
(-0.0115600993425 0.0131618846843 -0.00396979679504)
(-0.0111776367274 0.0116278570899 -0.00603787174708)
(-0.00966920522555 0.0103211203072 -0.00775915484069)
(-0.00700207339717 0.00947712196039 -0.00826892017747)
(-0.00336787799235 0.00935772779132 -0.00590068721439)
(0.00420865766356 0.0102630947383 -0.00556199243479)
(0.00859169934611 0.0100676095244 -0.00773204082366)
(0.0117333743567 0.0107671587491 -0.0066400520995)
(0.0134277835036 0.011944092207 -0.00421692285677)
(0.0137853457991 0.0133200124507 -0.00143265024703)
(0.0129551836295 0.0147161602873 0.00110609671137)
(0.0111563680376 0.0159748772963 0.00304291933555)
(0.00863153297393 0.0170034253985 0.00431812836637)
(0.00563906686175 0.0177429673482 0.00502809424965)
(0.00238436467 0.0181504273394 0.00533986287168)
(-0.000982038618302 0.0181947587996 0.00538253636)
(-0.00431712699906 0.0178617263944 0.00514162708898)
(-0.00743745329802 0.017158253689 0.00446356828032)
(-0.0100888122251 0.0161262422365 0.00319174672242)
(-0.0119944287215 0.0148502718018 0.00127401805778)
(-0.0129335296327 0.0134481472262 -0.00121369207082)
(-0.0127119225014 0.0120791773365 -0.00394062292287)
(-0.0111872141337 0.0109172825093 -0.00632568333595)
(-0.00823867293277 0.0102278271703 -0.00741036304601)
(-0.00407032387276 0.0104186452028 -0.00525631148259)
(0.00484457427906 0.0101169884434 -0.00500384464983)
(0.00979786685438 0.0098304185201 -0.00690610787184)
(0.0132468688677 0.0103587884425 -0.00527293021644)
(0.0149530321396 0.0112974388469 -0.0022582210553)
(0.0151749266831 0.0124320820487 0.00109647290785)
(0.0141567995978 0.0136407122774 0.00407898467642)
(0.0121279432819 0.0147548256712 0.00631944617043)
(0.00935326972655 0.0156802533261 0.00779006340347)
(0.00609520163158 0.0163602180243 0.00861515504765)
(0.00255928419416 0.0167464995414 0.00898524381588)
(-0.00110314685834 0.0167991395119 0.00904637975209)
(-0.0047448256964 0.0165016656271 0.00877402629876)
(-0.00816920264838 0.0158645933476 0.00797634140462)
(-0.0110954879204 0.0149318895578 0.00647219104865)
(-0.013228118341 0.0137889893816 0.00421685121762)
(-0.0143371581272 0.012560753084 0.00128565021009)
(-0.0142326876981 0.0114193831958 -0.00198875334152)
(-0.0126892127705 0.0104910040892 -0.00494684471429)
(-0.00943548248502 0.00996876858368 -0.00656257904341)
(-0.00469615133576 0.0102490961011 -0.00467440809585)
(0.0053156119321 0.00905558186906 -0.00457179967705)
(0.0108160315075 0.00868218064104 -0.00623127277771)
(0.0145641408018 0.00902485860564 -0.00417933932099)
(0.0162906115204 0.00969303434995 -0.000723501982383)
(0.0164237911604 0.0105749976669 0.00303484984066)
(0.0152631126286 0.0115479071952 0.00632605958771)
(0.0130503262702 0.012469874732 0.00878072350753)
(0.010059583578 0.0132551595675 0.0104112414381)
(0.00655658213219 0.0138570533138 0.0113497777002)
(0.00274588510236 0.0142179225958 0.0117887439647)
(-0.00121446631517 0.0142742886839 0.0118755976554)
(-0.00515806157604 0.0140075061647 0.0115748227076)
(-0.00886898647479 0.013452718527 0.0106720191625)
(-0.0120449448158 0.0126642576659 0.00897549912714)
(-0.0143705976054 0.0117121682892 0.00645782977381)
(-0.0156119090727 0.0107098860465 0.00319809208908)
(-0.0155786778782 0.00981010328896 -0.000469396456739)
(-0.0140041880175 0.0091377500868 -0.00385510767099)
(-0.0104517033547 0.00879402846131 -0.00588141683364)
(-0.00516564049776 0.00916026591875 -0.00423609593088)
(0.00570690339818 0.00710290202215 -0.00424656526709)
(0.0116353883022 0.00675467170564 -0.00574972844441)
(0.0156067445609 0.00694786330787 -0.00343101309127)