/*--------------------------------*- C++ -*----------------------------------*\
| =========                 |                                                 |
| \\      /  F ield         | OpenFOAM: The Open Source CFD Toolbox           |
|  \\    /   O peration     | Version:  3.0.1                                 |
|   \\  /    A nd           | Web:      www.OpenFOAM.org                      |
|    \\/     M anipulation  |                                                 |
\*---------------------------------------------------------------------------*/
FoamFile
{
    version     2.0;
    format      ascii;
    class       surfaceVectorField;
    location    "7.6";
    object      Uf;
}
// * * * * * * * * * * * * * * * * * * * * * * * * * * * * * * * * * * * * * //

dimensions      [0 1 -1 0 0 0 0];

internalField   nonuniform List<vector> 
22672
(
(0.00177550653619 0.000419987894426 -0.00129751831166)
(0.000477004109729 0.00166907233831 -0.00129610759085)
(0.00116680831124 0.00111138220976 -0.00344459650704)
(0.00443219990932 2.66270175239e-05 -0.00134586864295)
(0.00275863921466 0.00123741588666 -0.00250839646783)
(0.00375169688425 0.00116793469023 -0.00389412640905)
(0.00707614480825 -8.26090281627e-05 -0.00114395782876)
(0.005993110165 0.00120204522908 -0.00281580718616)
(0.00666444006601 0.00133995033036 -0.0038460100392)
(0.00901984331381 5.98068785459e-05 -0.000807385486062)
(0.00850651080771 0.00150998617956 -0.00260827911299)
(0.00888922881477 0.00167338816788 -0.00345370709343)
(0.00986647151622 0.000423351041605 -0.000469427975454)
(0.0100592927506 0.0021244146582 -0.00226370219416)
(0.0102354393701 0.002162458298 -0.00297106857872)
(0.00950703494587 0.000822923904775 -0.000221909695321)
(0.0102188180387 0.00288868098013 -0.00191361686321)
(0.0102624142751 0.00271174468606 -0.00252927390421)
(0.00822675285469 0.00118848020362 -6.58833614285e-05)
(0.00936196591758 0.00350732668688 -0.0016798995201)
(0.00936907455171 0.00311641315648 -0.00222707775176)
(0.00613492689851 0.0015329417171 3.5531606411e-05)
(0.00754611554354 0.00408559306082 -0.00149719708433)
(0.0075433359961 0.00350835031764 -0.00199380328518)
(0.00350903042147 0.00176055412434 7.43567351117e-05)
(0.00502682323983 0.00451158114718 -0.00140362214936)
(0.00502497848665 0.00379667002659 -0.00188572274962)
(0.000634699607798 0.00184222716474 8.36893546361e-05)
(0.00214466318939 0.00473439475239 -0.00137429618469)
(0.00214502496348 0.00394667223255 -0.00186010251716)
(-0.00225723845922 0.00177417188096 8.21519218843e-05)
(-0.000857715846702 0.0047438186432 -0.00136858516287)
(-0.000855433035864 0.00395334957373 -0.00185191823353)
(-0.00493536496292 0.00155773026332 5.29882883834e-05)
(-0.00377563149269 0.00453769882667 -0.00138575970574)
(-0.00377048745557 0.00381504383516 -0.00185960784655)
(-0.00711330628886 0.00122000622323 -3.62263651486e-05)
(-0.00636770132248 0.00412314828525 -0.00146534183473)
(-0.00636069114421 0.00353459729775 -0.00194523950331)
(-0.00850869271406 0.000849122052218 -0.000184671069097)
(-0.00829039382498 0.00354983566866 -0.00163441693763)
(-0.0082933825037 0.00314562061363 -0.00215447846053)
(-0.00899118308864 0.000453376523617 -0.000419970747452)
(-0.0092673604189 0.00292646380461 -0.00186282119455)
(-0.00930869178374 0.00273114428434 -0.00244399963446)
(-0.00831417500427 9.69207170772e-05 -0.000746726415636)
(-0.00925757953576 0.00218266524518 -0.00219522786457)
(-0.00942823607477 0.00220440439434 -0.00285969758489)
(-0.00654646563629 -4.84401291622e-05 -0.0010819806449)
(-0.00788143535562 0.00156832867723 -0.002538188624)
(-0.00826274205729 0.00171250929841 -0.00333606192021)
(-0.00408707920125 6.14752363827e-05 -0.00128353313968)
(-0.00555452125827 0.00126477033597 -0.00274534039551)
(-0.00622350290105 0.00138274146587 -0.00372418251946)
(-0.00161097341922 0.000451411018754 -0.00123777448344)
(-0.00250540619425 0.00129856579049 -0.00244385336138)
(-0.00349962389211 0.00120845491354 -0.00377470226944)
(-0.000389627467231 0.00172078671399 -0.00123852228283)
(-0.00108465740939 0.00114118929113 -0.00333178322409)
(0.00134554563657 0.0025956802979 -0.00250698574703)
(8.62738965747e-05 0.00421644241701 -0.00134784180645)
(0.0012307281667 0.00358968695429 -0.00389293161994)
(0.00443767938921 0.00253955585887 -0.00397833501104)
(0.00270539329696 0.00421826877914 -0.00397950744775)
(0.00398703355599 0.00381143441674 -0.00607300311608)
(0.00752413059168 0.00294253056691 -0.0042801284704)
(0.0064798876242 0.0046517982008 -0.00469367026836)
(0.00703743988417 0.0043284500228 -0.00653622334489)
(0.00965269097187 0.00375562766529 -0.00406459582109)
(0.00930663595916 0.00558131092834 -0.00448365859524)
(0.00925924200763 0.0052004528952 -0.00619990702392)
(0.0105011724423 0.00481072866949 -0.00370789108191)
(0.0109043526322 0.00689663330024 -0.00400892396216)
(0.0104592824109 0.00632453845094 -0.0056207255793)
(0.0100993745054 0.00582917323107 -0.00337160668799)
(0.011049474682 0.00831563729708 -0.00352094017542)
(0.010459106517 0.00748543160886 -0.00502518781977)
(0.00863337314503 0.00668916845092 -0.00311121324301)
(0.00999985436908 0.00952049880043 -0.00315137043667)
(0.00943483593239 0.00845748413869 -0.00454720394387)
(0.0063838190021 0.00737458562841 -0.0029363508401)
(0.00797605036665 0.0105335303797 -0.00289789264776)
(0.00753626010328 0.0092684541533 -0.00419841932424)
(0.00363440498792 0.0078128352214 -0.00285227506916)
(0.00527400216556 0.0112639640097 -0.00276869311935)
(0.00500883749097 0.00984974890084 -0.00400300672589)
(0.00065269907805 0.00796948266804 -0.0028265707022)
(0.00223446448892 0.011644578995 -0.00272539515358)
(0.00214713283623 0.0101545547944 -0.0039285165003)
(-0.00234816955949 0.00783556726946 -0.00283649679049)
(-0.00091618388225 0.0116612211494 -0.002717137712)
(-0.000828919938742 0.010169283349 -0.00391657091306)
(-0.00515383306324 0.00741494535324 -0.00290408982885)
(-0.00399618907103 0.0113095589967 -0.00274359375993)
(-0.00372948962722 0.00988995813142 -0.00396623137935)
(-0.00749186427434 0.0067393212171 -0.00306353240721)
(-0.00677698392578 0.0105971879524 -0.00285629140655)
(-0.00633224232479 0.00932432296082 -0.00413603998587)
(-0.009070070758 0.00588380105197 -0.00331256706308)
(-0.00890969857195 0.00958981136494 -0.0030961160977)
(-0.00833694930899 0.00851823008635 -0.00446179726624)
(-0.00961143591066 0.00487755117457 -0.00363807831167)
(-0.0100814321126 0.00838882315433 -0.00345502707341)
(-0.00948397657075 0.0075494259871 -0.00492101926971)
(-0.00892564420032 0.00383710764771 -0.00398669007294)
(-0.0100877585593 0.00699234184466 -0.0039286667796)
(-0.00963346430517 0.00640678547248 -0.0054954917692)
(-0.00698133233761 0.00303154999477 -0.00420154837462)
(-0.00866598273509 0.00568667251617 -0.00439685866292)
(-0.00860538175937 0.00529375305142 -0.00606267954186)
(-0.00408622045838 0.0026306992373 -0.00390566061722)
(-0.00603238988419 0.00476498769627 -0.00460795505447)
(-0.00657180869567 0.00443035304672 -0.00639535588436)
(-0.00117866997952 0.0026788140645 -0.00244460116077)
(-0.0024477785516 0.00433002749262 -0.00390560973784)
(-0.00371026200726 0.0039112459657 -0.00593904394018)
(3.61448177944e-06 0.00431369632147 -0.00128796982506)
(-0.0011344724502 0.00367018994926 -0.0037716031278)
(0.00131298577902 0.0057249692284 -0.00282036350718)
(-2.17516156597e-05 0.00676254183326 -0.00115256653199)
(0.00140707185055 0.00639349013087 -0.00385910054433)
(0.0048742054386 0.00620754310865 -0.00469484270508)
(0.00310952158525 0.0072013180745 -0.00428631838743)
(0.00451044067198 0.00675357844255 -0.00654428446084)
(0.00836662686796 0.00715306687162 -0.00489720039321)
(0.00742690694211 0.00804035460801 -0.00490158729867)
(0.00784605812548 0.00755705135203 -0.00688099591908)
(0.0106868255224 0.00855392759648 -0.00442798673631)
(0.0105839589998 0.00944280405904 -0.00438499287085)
(0.0101818308512 0.0088254799069 -0.00618171261629)
(0.0115341876926 0.0101862865326 -0.00382197305567)
(0.0122580611581 0.011235855258 -0.0035701212793)
(0.0113378602558 0.0103892123199 -0.00518660848993)
(0.01098703605 0.011739867677 -0.0033007039241)
(0.0123025413421 0.0130881721601 -0.00280534717366)
(0.0112200206479 0.0119824687817 -0.00422541140999)
(0.00929841265925 0.0130484142323 -0.00293804984142)
(0.0110028582429 0.0146869939021 -0.00224756302366)
(0.00999983222383 0.01336071663 -0.0034779033954)
(0.00681148868426 0.0140627257088 -0.002730234927)
(0.00867696588941 0.0159979494868 -0.00190945623799)
(0.00790673575998 0.0144790803702 -0.00297752945337)
(0.00384728385429 0.014706447997 -0.00264181320376)
(0.00568320215607 0.0169365757604 -0.00175723886014)
(0.00521925733089 0.0152767514599 -0.00270844266435)
(0.000666354863214 0.014936598258 -0.00261596216338)
(0.00237735686826 0.0174277705101 -0.00171324831085)
(0.00222223617474 0.0156973268254 -0.00260229835308)
(-0.00253708573519 0.0147442746545 -0.00262423468144)
(-0.00102910482593 0.0174518796109 -0.00170291039814)
(-0.00088335190954 0.0157208748301 -0.00258725249474)
(-0.00556515602664 0.0141286003386 -0.00269579533763)
(-0.00438405910224 0.0170018424519 -0.00172692952701)
(-0.00392632340266 0.0153407393522 -0.00266424546537)
(-0.00814657812821 0.013127845319 -0.00288887509703)
(-0.00746762155147 0.0160861945125 -0.0018625209403)
(-0.00669750871426 0.0145664490219 -0.00290761359454)
(-0.0099499722796 0.0118253688488 -0.00323857610803)
(-0.00990657323709 0.0147792605539 -0.00218835193379)
(-0.00889850773784 0.0134537681079 -0.00338608075689)
(-0.0106339947582 0.0102857555527 -0.00374561554134)
(-0.0113276911083 0.0131840042792 -0.00273267555008)
(-0.0102398463654 0.0120804070111 -0.00411118161448)
(-0.00994762024584 0.00867027381095 -0.00433883536958)
(-0.0114286776439 0.0113529106244 -0.00347929494505)
(-0.010501298276 0.0105043105836 -0.00504696519142)
(-0.0078123895612 0.00727991404469 -0.00480326534277)
(-0.00992949487442 0.00957398961387 -0.00428228548187)
(-0.00951231550422 0.00895382964461 -0.00602257095352)
(-0.00451552615784 0.00633877872363 -0.00460790417509)
(-0.00696834934359 0.00818263733683 -0.00479797228042)
(-0.00736395174612 0.00769642149903 -0.0067145401233)
(-0.00114369624253 0.00584819333268 -0.00274897840212)
(-0.00284536058888 0.0073448678063 -0.00419778013227)
(-0.00421886594914 0.00689448416955 -0.00638670329714)
(0.00011416328906 0.00689030419549 -0.00108454388008)
(-0.00130270594039 0.00651927354336 -0.00372032868499)
(0.00162008083133 0.00814367303416 -0.00261852141224)
(0.000122369274737 0.0086208919302 -0.000819655619601)
(0.00174174222909 0.00852095747914 -0.0034784439798)
(0.00580339468646 0.00893580344168 -0.00449306298102)
(0.00392116405502 0.00924056127633 -0.0040779091085)
(0.00538317857769 0.00887709646959 -0.0062225700447)
(0.0097697089106 0.0102107945251 -0.00438937977631)
(0.00882746014594 0.0102712297843 -0.004442381497)
(0.00911556464595 0.00979574965953 -0.00619720493237)
(0.0123096195368 0.0119684664311 -0.00352712741384)
(0.0123414859523 0.0118938774939 -0.00353334754992)
(0.011625243019 0.0112393247153 -0.00499100236001)
(0.0131204953548 0.0139407166568 -0.00255349539729)
(0.0141035437021 0.0139001392802 -0.00229729127999)
(0.012748974363 0.0129877072429 -0.00347518161829)
(0.0123436695324 0.0158065821694 -0.00175220627322)
(0.0139978229014 0.0159374503644 -0.00117578315513)
(0.0124426680904 0.0147490911456 -0.00207247780582)
(0.0103302691758 0.0173861350171 -0.00121896942023)
(0.0123913522249 0.0177045619417 -0.000340406754193)
(0.0109445630184 0.0162897995633 -0.00100419629293)
(0.00748977863231 0.0186050294067 -0.000936460171125)
(0.0096795425061 0.0191550386744 0.000181744088195)
(0.00855321052506 0.0175392998787 -0.000316629504912)
(0.00418684443867 0.0193801176682 -0.000828673967231)
(0.00628544622299 0.0201954896279 0.000433097222219)
(0.00559411583032 0.0184294578463 4.39883814699e-05)
(0.000683134775822 0.0196609830297 -0.000800196545607)
(0.00259012673002 0.0207470430071 0.000516437888378)
(0.00235344932299 0.0189036321219 0.000184405314066)
(-0.00284849466757 0.0194309603301 -0.000805605243699)
(-0.00120173109773 0.0207783543704 0.00053169994722)
(-0.000987100261654 0.0189350778819 0.000205124026255)
(-0.00622784852162 0.0186917063737 -0.00089365512968)
(-0.0049607315392 0.0202790901059 0.000475612518829)
(-0.00428552196954 0.0185141298559 0.000102077756562)
(-0.00917360882034 0.0174865683836 -0.00116199777706)
(-0.00846311644364 0.0192634190889 0.000241316837645)
(-0.00734349218715 0.017651899562 -0.000231489697706)
(-0.0113033921721 0.0159089575288 -0.00168245137584)
(-0.0112964687236 0.0178107177536 -0.000272712849582)
(-0.00984841961734 0.0164050310347 -0.00090169605083)
(-0.0122104415667 0.0140535339094 -0.00246635495379)
(-0.0130207505563 0.0160392215218 -0.00109668808835)
(-0.0114629667856 0.0148627265751 -0.00194818766381)
(-0.0115560403176 0.012098721034 -0.00342274505734)
(-0.0132627661792 0.0140193997012 -0.00219591052944)
(-0.0119035358274 0.0131139822574 -0.00332090971443)
(-0.00920086721997 0.0103547164284 -0.00427699241952)
(-0.0116724001368 0.0120285172622 -0.00341381228442)
(-0.01094133381 0.0113796096637 -0.00480972232471)
(-0.00543408646902 0.00908706028796 -0.00438784823759)
(-0.00835633145352 0.0104192668793 -0.00431940562672)
(-0.00861772165737 0.00994959546325 -0.00600343685651)
(-0.00144513547855 0.00828819911432 -0.00253334561022)
(-0.00364951990558 0.00939292593008 -0.00397103687926)
(-0.0050784841734 0.00903658595852 -0.00603704252444)
(-2.71046279247e-05 0.00875886297768 -0.000739879133338)
(-0.00162974027234 0.00866903803166 -0.00331371916072)
(0.00223563503306 0.00961496698628 -0.00227904331586)
(0.000484542498314 0.00939449919732 -0.000489641621941)
(0.002233766364 0.0097839892262 -0.00300925301804)
(0.00711774104676 0.0104520246166 -0.00402722762447)
(0.0049724452234 0.010017438152 -0.00373031064651)
(0.00650545020365 0.00999632989143 -0.00565899343305)
(0.0115618358018 0.0118041548726 -0.00358634927061)
(0.0104573049845 0.0110475105294 -0.00384809877785)
(0.0106785617082 0.010873078862 -0.00522038872923)
(0.0143140482326 0.0136507891217 -0.00230351141607)
(0.014311448914 0.0126347214418 -0.00257100955213)
(0.0133718655826 0.0122867014887 -0.0034930726346)
(0.015069316101 0.0157142666653 -0.000919579037832)
(0.0161642746808 0.0145866266576 -0.000923379597354)
(0.0144546682352 0.0139961399618 -0.00144177518306)
(0.0140411326581 0.0176600183054 0.000236016363901)
(0.0158665067987 0.016543859216 0.000573955038142)
(0.0139459885465 0.0157362130724 0.000421750960401)
(0.0116658082783 0.0193067962605 0.00106030675423)
(0.0139371882706 0.0182526892986 0.00169779809974)
(0.0121627592654 0.0172693240247 0.00182717035161)
(0.00840546794387 0.0205852245546 0.00155130148154)
(0.0108127494995 0.0196646117623 0.00243358751373)
(0.00944139819974 0.0185266235831 0.00275073861066)
(0.00466126299688 0.0214072772514 0.00177820907783)
(0.0069756481471 0.020689777458 0.00281154413419)
(0.00613715620198 0.0194317973449 0.00324988768136)
(0.000706403699477 0.0217114924836 0.00184833438121)
(0.00283782586885 0.021244998878 0.00295016685881)
(0.00254992187248 0.0199221772504 0.00345687424654)
(-0.00328497455884 0.0214713111312 0.00181291770975)
(-0.00140006200745 0.0212831560042 0.00297395445013)
(-0.00114277192421 0.0199619083027 0.00348654864396)
(-0.00712621213393 0.0206908413126 0.00161058448615)
(-0.00562307305403 0.0207908273359 0.00287438963326)
(-0.00480665719155 0.0195376454255 0.00332947449427)
(-0.0105098575093 0.0194220315491 0.00113060176512)
(-0.00959601863345 0.0197926441376 0.00251097745474)
(-0.00823479479931 0.0186631859288 0.00285439738737)
(-0.0130055813811 0.0177676839102 0.00031305043791)
(-0.0128546173677 0.0183709358961 0.00177095504193)
(-0.0110829681037 0.017401093583 0.00193548586103)
(-0.0141554497991 0.0158248058846 -0.000826243664001)
(-0.0148952349423 0.016646478066 0.000649616973999)
(-0.0129773146084 0.0158548473464 0.000542594131746)
(-0.0135484733871 0.0137756131235 -0.00218697775652)
(-0.0153145513515 0.014697271661 -0.0008207855402)
(-0.0136060448393 0.0141191680523 -0.00128486615633)
(-0.0109790780366 0.0119427900774 -0.00345622549163)
(-0.0136287943044 0.012757138491 -0.00244214041436)
(-0.0126758459413 0.0124201073526 -0.0032980372232)
(-0.00673832468763 0.0106000825337 -0.00390259426838)
(-0.0099732206406 0.0111822076577 -0.00371055447149)
(-0.0101668194758 0.0110209126477 -0.00500372053906)
(-0.00205624880697 0.00975855262878 -0.00217757040238)
(-0.00469335853211 0.0101563266294 -0.00360839072215)
(-0.00619140889714 0.0101517247258 -0.00544551040892)
(-0.000385461736596 0.00951989025522 -0.00040045899407)
(-0.00211646528814 0.00993006408955 -0.00281730123382)
(0.00299410710741 0.00971353804262 -0.00194090895259)
(0.000883211554537 0.00898694920626 -0.000249888438557)
(0.00277739210562 0.00975232659372 -0.00258656551509)
(0.00853161853047 0.0105346250735 -0.00355118179988)
(0.00598763912499 0.00956146751094 -0.00340382815883)
(0.00766177811999 0.00993491493067 -0.00508154897811)
(0.0134105397251 0.0117866606412 -0.00283275905937)
(0.0120086464804 0.010444992604 -0.0033369310812)
(0.0122688648886 0.0106943136241 -0.00427641452089)
(0.0163475533547 0.0134842573513 -0.00119087773341)
(0.0161756605015 0.0118007548094 -0.00177699563078)
(0.0151299911531 0.0119204606617 -0.00210306186904)
(0.0170216955098 0.0153575646498 0.000570154478621)
(0.0181086156802 0.013499818097 0.000228467717684)
(0.0161897426867 0.0134285571374 0.000412647255193)
(0.0157245696557 0.0171066401986 0.00203573677398)
(0.0176125266827 0.0151878680144 0.00203840653797)
(0.0154765098658 0.0149654046754 0.0026530937622)
(0.0129796143459 0.018603342885 0.00307107885924)
(0.015388460752 0.0166708566834 0.00337930570415)
(0.0134165846649 0.0163390044974 0.00432676136977)
(0.00930072735495 0.0197808668929 0.00369383016638)
(0.0118777026192 0.0179205670332 0.00427338644189)
(0.01036375265 0.0174818778863 0.00542290315913)
(0.00512363933159 0.0205507750501 0.00398350191518)
(0.00762408712835 0.0188485980394 0.00474194270116)
(0.00670562619179 0.0183192246818 0.00601823812317)
(0.0007314272556 0.0208438116437 0.00407578692774)
(0.00307326130737 0.0193692042761 0.00492484220042)
(0.00275972842845 0.0187849091512 0.00626797763142)
(-0.00370844347007 0.0206254784807 0.00403542637364)
(-0.00158004798513 0.0194116901866 0.00495915936904)
(-0.00129988282156 0.0188317220192 0.00631130865879)
(-0.00800961141657 0.0199035515469 0.00377478260184)
(-0.00624094764039 0.0189610160001 0.00482885600024)
(-0.00534739221021 0.018444159031 0.00613095347561)
(-0.0118354859135 0.0187342659478 0.00315133073155)
(-0.0106638413798 0.0180631355594 0.00436833303883)
(-0.00916455180734 0.0176425220033 0.00555536017337)
(-0.0147046738789 0.0172208699697 0.00210752157802)
(-0.0143253579743 0.0168021211636 0.00345322539233)
(-0.0123637993367 0.0164899853973 0.0044379829024)
(-0.0161101693543 0.0154623846846 0.0006550750978)
(-0.0166558722052 0.0152956538182 0.00210382298055)
(-0.0145291938651 0.0150913240421 0.0027563021094)
(-0.0155715554328 0.0135949877967 -0.00107594819804)
(-0.0172558564844 0.0136046739484 0.000323997999548)
(-0.0153438503922 0.0135459318752 0.000553966097129)
(-0.0128135828438 0.0119066290006 -0.00269646939423)
(-0.0154839935345 0.0119093851163 -0.00164932974859)
(-0.0144252534629 0.0120391240614 -0.00191024000136)
(-0.00814069042421 0.0106603651098 -0.00341635092525)
(-0.0115141322388 0.0105587417143 -0.0031929216852)
(-0.0117446146169 0.0108226985817 -0.00404945336401)
(-0.00280803118195 0.00983439326058 -0.00183127931384)
(-0.00570270304812 0.00967605301948 -0.0032742389995)
(-0.00733902734387 0.0100675528645 -0.00485242012436)
(-0.000782239433468 0.00909169689185 -0.000156898970717)
(-0.00265223405272 0.00987577273842 -0.00237986327652)
(0.00361449358073 0.00881221628301 -0.0017128076448)
(0.00124906472746 0.00766712685002 -9.86606215145e-05)
(0.00318591255449 0.00881536584057 -0.00229467693223)
(0.00973667766181 0.0094384295566 -0.00318957744014)
(0.00684466284376 0.00805647660871 -0.00315209112895)
(0.00863281018594 0.00886573169749 -0.00461719868114)
(0.0150095726606 0.0104364365002 -0.00228116765261)
(0.0133136258463 0.00871280144759 -0.00298266100138)
(0.0136452864266 0.00942621748245 -0.00354071291873)
(0.0181148330418 0.0118227034869 -0.000357650179688)
(0.0177515058273 0.00973642236896 -0.00125035203947)
(0.0166674911785 0.0103691654955 -0.00104094151779)
(0.018730135813 0.0133697032086 0.00169671977704)
(0.0197526802243 0.0110658392241 0.00105027117805)
(0.0177182319153 0.0115875539998 0.00181865728236)
(0.017208453882 0.0148210974386 0.00338197546814)
(0.0191059563467 0.0123778603296 0.00307762018439)
(0.0168459729301 0.0128436016399 0.00433166578144)
(0.0141489091632 0.0160855575491 0.00458161328681)
(0.016653291726 0.0135393278129 0.00458488318053)
(0.014561010863 0.0139863867624 0.0061910457954)
(0.010101901773 0.0171069630669 0.00532149897667)
(0.0128203356723 0.0145391249844 0.00563130231935)
(0.0112203766214 0.0149616879365 0.0074284191453)
(0.00554377438868 0.0177816226297 0.0056832829864)
(0.00818535686173 0.0152885934783 0.00622452314886)
(0.00724435281845 0.015701381571 0.00811810055225)
(0.000760164326129 0.0180380161138 0.00580821464172)
(0.00327856794145 0.0157268138964 0.00631264151748)
(0.00296611752718 0.0161177290135 0.00842596909744)
(-0.00408302039805 0.0178587338757 0.00575258899564)
(-0.00173240266121 0.0157683383021 0.00634086617353)
(-0.00143897175033 0.0161663927402 0.00848650627022)
(-0.00879361320172 0.0172375973937 0.00542240643723)
(-0.00676753913226 0.0153984107635 0.00631956455604)
(-0.0058449990664 0.0158332385599 0.00827316973277)
(-0.0130143710906 0.0162276917153 0.00467022769961)
(-0.0116009387718 0.0146809513497 0.00574705522192)
(-0.0100183841341 0.0151344711797 0.00760291679801)
(-0.0162084213946 0.0149446202976 0.00344952679485)
(-0.0156072485243 0.0136741613904 0.00466394994894)
(-0.0135317750057 0.014151708632 0.00632198815877)
(-0.0178305240872 0.0134767096996 0.00177274588229)
(-0.0181681055685 0.0124896272042 0.00313962310451)
(-0.0159260363133 0.0129811246431 0.0044281099581)
(-0.0173385991067 0.0119259524018 -0.000249383551006)
(-0.0189067037588 0.0111680446362 0.00114167738686)
(-0.0168865396921 0.0117066122243 0.00194468527518)
(-0.0144057734811 0.0105401099531 -0.00214578203956)
(-0.0170605452039 0.00983460465042 -0.00112307012175)
(-0.0159644228597 0.0104793348453 -0.000858067076581)
(-0.00933983986035 0.00954197454183 -0.00305080975944)
(-0.0128175851547 0.00880619953653 -0.00283635980609)
(-0.0131162180159 0.00953470179575 -0.00331341935039)
(-0.00342741725674 0.00891052364496 -0.00159985865637)
(-0.00655955450688 0.00814613306379 -0.00301948516707)
(-0.00830726862411 0.00897316202013 -0.00438253802727)
(-0.00115062255102 0.00774819785086 -6.20014335115e-06)
(-0.00306090129751 0.00891450881486 -0.00208394408487)
(0.00418794957417 0.00696228623613 -0.00153794410567)
(0.00158768093165 0.00555223642566 -2.81395901444e-06)
(0.0035744098381 0.00695716804724 -0.00207306135566)
(0.010743926812 0.00737757867677 -0.00294517469018)
(0.00752150883526 0.00578309801544 -0.00298653117569)
(0.00943756256269 0.00693390505278 -0.00428260063245)
(0.0163133278916 0.00806634571716 -0.00195184538824)
(0.0143157911323 0.00619637526152 -0.00278455980651)
(0.0147537821011 0.00729494113075 -0.0030529809962)
(0.0195583749565 0.00905652703914 0.000157569318267)
(0.0189556749735 0.00685688237104 -0.000979442910903)
(0.0179047241426 0.0079297763388 -0.000365518617453)
(0.0201355133674 0.0101803466497 0.0024311715854)
(0.0210170564345 0.00775427514783 0.00152977209502)
(0.0189634621286 0.0088073211756 0.00273440772154)
(0.0184538250451 0.0112353478486 0.00428052789678)
(0.0202687353012 0.00863466973872 0.00369278178072)
(0.0179778141036 0.00972023838863 0.00542485478681)
(0.015151594371 0.0121677175253 0.00563457221308)
(0.0176639398344 0.00941583868656 0.00531925309624)
(0.0155318019659 0.0105622570587 0.00742569062923)
(0.0107918056534 0.0129052468084 0.00653432649154)
(0.013557444758 0.0100907889249 0.00652628313985)
(0.0119699697906 0.0113023939793 0.00880809218391)
(0.00586448734063 0.0134229997846 0.00685388167994)
(0.00865520591317 0.0105702646099 0.00690088869158)
(0.00771230165588 0.0118543954197 0.00964561277656)
(0.000780211411221 0.0136611663986 0.00684529304929)
(0.00343870424532 0.0108920663482 0.00689252180168)
(0.00315025136808 0.0122094878872 0.0099189885779)
(-0.00436562198985 0.0134992384571 0.00690784173393)
(-0.00185684748424 0.0109279214528 0.00691673380736)
(-0.00155637197204 0.0122557006543 0.00998621604992)
(-0.00945667160278 0.0130254144075 0.00664421334073)
(-0.00721134866818 0.0106577126383 0.00698081307443)
(-0.0062656726735 0.0119752535327 0.00983171552767)
(-0.0140180689256 0.0123007980226 0.00574077747124)
(-0.0123319000667 0.0102052740225 0.00663579327789)
(-0.0107506535615 0.0114578654589 0.00903704564539)
(-0.0174701035843 0.0113572804164 0.00435404625859)
(-0.0166240650186 0.00953154530295 0.00541512065527)
(-0.0145154135195 0.0107182819549 0.00759462552268)
(-0.0192527083526 0.0102852357427 0.00250855460907)
(-0.01934669082 0.00873405286513 0.0037647387991)
(-0.0170819648037 0.00985423289897 0.0055381570251)
(-0.0187917122071 0.00915185305871 0.000267990816117)
(-0.0201828426407 0.00784376112569 0.0016279725945)
(-0.0181508153009 0.00892169605264 0.00286326616554)
(-0.0157149524182 0.00815365301779 -0.00181364788828)
(-0.0182740719586 0.00693829421393 -0.000845457528283)
(-0.017214613335 0.00803009493996 -0.000180472911943)
(-0.0103505212562 0.00745753428298 -0.00280503521372)
(-0.0138270489658 0.00626772134774 -0.00263644088477)
(-0.0142336010415 0.00738262998751 -0.0028259821366)
(-0.00400410596819 0.00703562605553 -0.00142582665404)
(-0.00724151521112 0.00584775701714 -0.00285412248935)
(-0.00911761889382 0.00701475192349 -0.0040480755407)
(-0.00149325960637 0.00561087051066 8.66348526625e-05)
(-0.0034525251382 0.00702977144243 -0.00186680491469)
(0.00460446226174 0.00442827093493 -0.00145140102903)
(0.00180730570389 0.0029222230847 3.18864663089e-05)
(0.0038555504119 0.004425662282 -0.00197444670839)
(0.0114595614496 0.00465760542134 -0.00282591629202)
(0.00794643501108 0.00302923968926 -0.00291091040736)
(0.0100051509337 0.00439216700922 -0.00410123835099)
(0.0172320058129 0.00504751210874 -0.00181215732918)
(0.0149392132749 0.00322409185583 -0.00270680347005)
(0.0155305813245 0.00458742488963 -0.00280016295734)
(0.0205769813563 0.00562633097144 0.000392759865855)
(0.0197047563529 0.00354097635627 -0.000887602488288)
(0.0187682423722 0.00494180200396 -2.9077794202e-05)
(0.0211372239931 0.00629269949747 0.00279138229034)
(0.0218102884097 0.00398673931765 0.00173541662304)
(0.0198399537307 0.00546149061416 0.00320727747786)
(0.0193603575279 0.00691613092395 0.00473150698018)
(0.0210073046031 0.0044219518956 0.00395726619629)
(0.0187857694974 0.00600496636677 0.00598956119087)
(0.0158880131104 0.00745412281472 0.00621096402302)
(0.0183118230787 0.00481034993269 0.00565188935965)
(0.0162480294822 0.00651281461429 0.00807780377219)
(0.0112655581064 0.00791474606909 0.0068928453399)
(0.0140505324552 0.00511094421857 0.0068377452289)
(0.0125131863756 0.00695457197368 0.00960226576337)
(0.00613790522749 0.00825779405278 0.00693952881333)
(0.00899020471789 0.00538127163566 0.00692593585154)
(0.00808905922923 0.00732469932506 0.0103166091064)
(0.000791898511958 0.00839802602805 0.00696396255975)
(0.00355077175571 0.00555568095916 0.00698035634217)
(0.0032859660124 0.00754142100201 0.0106823541804)
(-0.00462215706107 0.00830865874129 0.00698970514786)
(-0.00194823506954 0.00557496076519 0.00701460804063)
(-0.0016426571778 0.00757173321471 0.0107669786247)
(-0.00992359026577 0.00800160721356 0.0069723930116)
(-0.00753123353242 0.00542921022799 0.00700181753682)
(-0.00660343468471 0.00740674498901 0.0105298997763)
(-0.0147481726587 0.00755326971922 0.00631013646192)
(-0.0128283621172 0.0051764231503 0.00690171895461)
(-0.0112778081672 0.00706617233539 0.00985340080101)
(-0.018384661753 0.00700822650249 0.00482581319578)
(-0.0172667341093 0.00487689229012 0.00576819783016)
(-0.015230294746 0.00662456708602 0.00829111385253)
(-0.0202682258621 0.0063743233928 0.00288415678453)
(-0.0200940772442 0.00448130322461 0.00404553843042)
(-0.0179048658015 0.00610539724665 0.00613628913451)
(-0.019823256436 0.00569907624876 0.0005145242501)
(-0.0209856520571 0.00404117974257 0.00184632086737)
(-0.0190453841636 0.0055486614173 0.00335758877316)
(-0.016645005887 0.00511081917184 -0.00166825052478)
(-0.0190326429158 0.00359007818982 -0.000744488584168)
(-0.0180952737077 0.00501642322523 0.000169940430596)
(-0.0110746451765 0.00471265539798 -0.0026855281604)
(-0.0144586653153 0.00326748240811 -0.00255644151294)
(-0.0150238466424 0.00464921924758 -0.00257015199308)
(-0.00442646302632 0.00447787023759 -0.00134166098265)
(-0.00767217629498 0.0030686176624 -0.00277958383156)
(-0.00969472734218 0.00444668147634 -0.00386907980033)
(-0.00171679401958 0.00295893612563 0.000119092176355)
(-0.00373932543012 0.0044741024453 -0.00177455523203)
(0.00481583825063 0.00155233864338 -0.00142762291202)
(0.00188096899249 6.23695970808e-05 3.78913473813e-05)
(0.00399708507847 0.00155280897658 -0.00195597758055)
(0.0118207444887 0.00162373629226 -0.00279179758539)
(0.00808865282447 6.33370888106e-05 -0.00289242999342)
(0.010292344603 0.0015377695251 -0.00403899599895)
(0.0176966699026 0.00174527629118 -0.00178224862916)
(0.0151465742091 5.98630210891e-05 -0.00269090040146)
(0.0159240696102 0.00159573429587 -0.00271169357442)
(0.021095152649 0.00193010312715 0.000455054268895)
(0.0199556803941 5.48262753656e-05 -0.000874628426184)
(0.0192070815071 0.00170410421753 8.76635895164e-05)
(0.0216548591613 0.00214563927609 0.00290130052898)
(0.0220780308426 4.9709236302e-05 0.00178266257957)
(0.0202888591028 0.00187142255503 0.00337731163041)
(0.0198422699165 0.00234644301694 0.00487764857576)
(0.0212589406606 4.49082228852e-05 0.00401682628178)