/*--------------------------------*- C++ -*----------------------------------*\
| =========                 |                                                 |
| \\      /  F ield         | OpenFOAM: The Open Source CFD Toolbox           |
|  \\    /   O peration     | Version:  3.0.1                                 |
|   \\  /    A nd           | Web:      www.OpenFOAM.org                      |
|    \\/     M anipulation  |                                                 |
\*---------------------------------------------------------------------------*/
FoamFile
{
    version     2.0;
    format      ascii;
    class       surfaceVectorField;
    location    "5.5";
    object      Uf;
}
// * * * * * * * * * * * * * * * * * * * * * * * * * * * * * * * * * * * * * //

dimensions      [0 1 -1 0 0 0 0];

internalField   nonuniform List<vector> 
22672
(
(0.000297715272954 -1.82902677025e-05 -0.000192478850453)
(-1.79437137462e-06 0.000258449017957 -0.000188234745547)
(0.000205864923423 0.000193667482022 -0.000556137008026)
(0.00090874398153 -0.000157438979536 -0.000210323512181)
(0.000460792024385 9.02828968439e-05 -0.000540939832019)
(0.000754606535075 0.000157888636371 -0.000701280302387)
(0.0015805738233 -0.00022277604348 -0.000151973022222)
(0.00130801725464 2.71424052845e-05 -0.000638066803881)
(0.00149854538397 0.000159680611697 -0.000698938923875)
(0.00211897339277 -0.00022646450367 -5.30454685617e-05)
(0.00200441849003 3.66900146149e-05 -0.000580598795563)
(0.00209764186765 0.000190306986629 -0.000575054996596)
(0.00240970350502 -0.000177608624515 5.12983670381e-05)
(0.00248057262117 0.000116340637698 -0.000470411979757)
(0.00248892933052 0.000246877106836 -0.000407035464069)
(0.00240463464008 -0.000106122714336 0.000141552755299)
(0.00263324040693 0.000237490683468 -0.000342677494378)
(0.00258758551345 0.00031479485173 -0.000232386499331)
(0.00213182454996 -3.34756957464e-05 0.000211467452246)
(0.00247583272296 0.000354649701816 -0.000229629132517)
(0.00240494194237 0.000372751844955 -8.18050191034e-05)
(0.00163221171846 2.84503816821e-05 0.000259060857102)
(0.00204217685352 0.000456335075735 -0.000131661221558)
(0.00196909660076 0.000419849206472 4.33108401665e-05)
(0.000978638825814 6.75607094805e-05 0.000281514946975)
(0.00140083055456 0.000524242425643 -6.72041136487e-05)
(0.00134600807915 0.000449475045796 0.00012936138382)
(0.000258992290567 7.90969854064e-05 0.000285040837387)
(0.000643805300811 0.000554580864166 -3.82909250082e-05)
(0.000619783162466 0.000461639272804 0.00016509410706)
(-0.000444175027368 6.26135407855e-05 0.000273054441033)
(-0.000137844433443 0.000547047061318 -4.31521272985e-05)
(-0.000127842376909 0.000456844455161 0.000156146416894)
(-0.00105487261183 2.19451602451e-05 0.000245536550713)
(-0.000856872855076 0.00050376150558 -7.83673153873e-05)
(-0.000818152316736 0.000436054018576 0.000106960703706)
(-0.00150337719275 -3.64578500919e-05 0.000199073050765)
(-0.00143509701249 0.000429401436443 -0.000140331212479)
(-0.00138099017455 0.000400403206944 1.91272831527e-05)
(-0.00174628444686 -0.00010085663044 0.000136664654317)
(-0.00180893424435 0.000331268848759 -0.00022464537769)
(-0.00175778815664 0.000351837415424 -8.83370242351e-05)
(-0.00175963414055 -0.000159480742501 5.95863629719e-05)
(-0.00194514231762 0.000226144375628 -0.000317493607946)
(-0.00191579337906 0.000297028882549 -0.000212769374002)
(-0.00153383179645 -0.000194008480566 -2.79835978045e-05)
(-0.00181928980881 0.000126708593113 -0.000418411174467)
(-0.00183758467949 0.000238501546566 -0.000352485474255)
(-0.00111798216013 -0.000181608809164 -0.000110786750008)
(-0.00144467588707 6.7778864255e-05 -0.000503669521439)
(-0.00153601117716 0.000193560957576 -0.000483604180217)
(-0.000609419203473 -0.000118853961933 -0.000159133766869)
(-0.000907100407265 7.02134321779e-05 -0.000545354927026)
(-0.00108227708043 0.000171051852635 -0.00057875423464)
(-0.000166439074268 3.53726669729e-06 -0.000141699075864)
(-0.000257038381995 0.000129979567396 -0.000455882120587)
(-0.000523084530766 0.000167117483981 -0.000572939282081)
(5.42654236182e-05 0.000274800044801 -0.00014351984514)
(-0.000133748588994 0.0001895111491 -0.000441226468016)
(0.000138269406669 0.000387504736932 -0.000536695727113)
(-0.000137376511917 0.00081022118906 -0.000201632341331)
(0.000183443833995 0.000687701224101 -0.000690010346514)
(0.000879308479145 0.000290704332826 -0.000968683123719)
(0.000375861381539 0.000762024822325 -0.000972195505861)
(0.000768199138397 0.00067770333427 -0.0014127458968)
(0.00172633026617 0.000300384983374 -0.00106669257722)
(0.00140503492233 0.000797023118721 -0.0012164933486)
(0.00160603930347 0.000726287563589 -0.00161686544404)
(0.00238088931588 0.000400069591256 -0.000997965306758)
(0.00221693858299 0.000921555939005 -0.00117334429964)
(0.00225642845913 0.000835010179821 -0.00153938675076)
(0.00272132560125 0.000562618246342 -0.000864387841173)
(0.00274916444651 0.0011217410287 -0.00102668228408)
(0.00266293497191 0.000987028099171 -0.00134579792301)
(0.00271517696768 0.000738108260157 -0.000713859382194)
(0.00291078468529 0.00135229441828 -0.000842772479333)
(0.00275875801959 0.00115079108506 -0.00110861656594)
(0.00239339543719 0.000890615792 -0.000572757806321)
(0.00271933686677 0.00155537623886 -0.000668296595915)
(0.00255276370541 0.00129024033076 -0.000878907540165)
(0.0018158914939 0.00100261875343 -0.000457926192309)
(0.00222588203691 0.00171556368038 -0.000517246777508)
(0.00208318151451 0.00139615744267 -0.00068168911421)
(0.00106908783174 0.00106391658098 -0.000387009985632)
(0.00150922774308 0.0018149148905 -0.000411557276025)
(0.00141795356766 0.00145944560206 -0.000543835837394)
(0.000250351282738 0.00107549555949 -0.000366483889694)
(0.000671552113336 0.00185234218708 -0.000361848034439)
(0.0006447431461 0.00148291410376 -0.000478994619078)
(-0.000546339638273 0.00103977932689 -0.000394573883719)
(-0.000189079563856 0.00183226873312 -0.00036926409257)
(-0.000149782346328 0.00147025565426 -0.00048850303273)
(-0.00123507752537 0.000959772560017 -0.000464235078579)
(-0.000979077331789 0.00175790462394 -0.000428040478416)
(-0.000882321100517 0.00142308650523 -0.00056537901111)
(-0.00174246840824 0.000840879634283 -0.000564049640934)
(-0.00161509617075 0.0016335667928 -0.000528116043028)
(-0.00147934970372 0.0013423098106 -0.000696748560742)
(-0.00201410694438 0.00069577754181 -0.000678803639953)
(-0.00202899392061 0.00146772646232 -0.00065679301454)
(-0.00188113832011 0.00122990464643 -0.000864792550866)
(-0.00201674961223 0.000542300546527 -0.000795491145385)
(-0.00218006342962 0.00127703978455 -0.000797105418082)
(-0.00205201339862 0.00109591541873 -0.00104822545386)
(-0.00174145385371 0.000410784633077 -0.000894097098102)
(-0.00203679333086 0.00107883788513 -0.000936584400372)
(-0.00197191526749 0.000951304463814 -0.00122739783451)
(-0.00122582303854 0.00033791286339 -0.000938237698457)
(-0.00160862604742 0.000917212109757 -0.00104199599435)
(-0.00165336247 0.00082422168498 -0.00136503841425)
(-0.000571657891084 0.00033866293274 -0.000842103280744)
(-0.000974607060514 0.000822709123261 -0.00106223016116)
(-0.0011567532292 0.000735663612468 -0.00140663792846)
(-2.49176332872e-05 0.00042256386209 -0.000457702889863)
(-0.000174365927974 0.000797447027173 -0.000840944708312)
(-0.000519569318589 0.000690974891872 -0.00121418733449)
(0.000174238773981 0.000829074764355 -0.000162620627005)
(-0.000109320536697 0.000684826336273 -0.000579180194558)
(7.86666851878e-05 0.00116632630095 -0.000637132120078)
(-0.000203079480987 0.00142442615944 -0.000145815445485)
(0.000192406829797 0.00136420661192 -0.000692838612527)
(0.000924716651409 0.00124553672484 -0.00122000573074)
(0.000390506637203 0.00154504524722 -0.00108277432643)
(0.000828719585058 0.00144844076413 -0.00162903357854)
(0.00188425739583 0.00139306873568 -0.00132314507102)
(0.00156098626292 0.00169062306858 -0.00133377774943)
(0.00174005242732 0.00157153540517 -0.00185310210424)
(0.00260215234625 0.00161645080078 -0.00120206127696)
(0.00245424800434 0.00191761894832 -0.00122601705779)
(0.00241837525498 0.0017592338961 -0.00171391842296)
(0.00295655782304 0.00188273808761 -0.00100506692224)
(0.00301242206928 0.00220547852703 -0.00100096844104)
(0.00282203977514 0.00198909784902 -0.00143810315303)
(0.00292814892307 0.00213861314192 -0.000797209693053)
(0.00315653336041 0.00250493707891 -0.000748225028883)
(0.00289736427145 0.00222355429975 -0.00112419441867)
(0.00255941871019 0.00234680721209 -0.000612785567101)
(0.00291763499461 0.00275742790128 -0.000521812277362)
(0.0026593794118 0.00242159464809 -0.000833283462142)
(0.00192398964338 0.00249199817289 -0.000470877861224)
(0.00236285980852 0.00294750250303 -0.000340067325174)
(0.00215583143501 0.00256996740698 -0.000596473995161)
(0.00111503345468 0.00256617909415 -0.000386395324833)
(0.00158159834083 0.00306156588121 -0.00022032177771)
(0.00145811971362 0.00265917125082 -0.000437661928108)
(0.000234916910239 0.00257173050559 -0.000364628237316)
(0.000681921426371 0.00309933684244 -0.000167880868441)
(0.000654757933765 0.00269048488298 -0.000366848308356)
(-0.00061811495372 0.00251399560397 -0.000402730687267)
(-0.000236050880567 0.00306788241746 -0.000181887558755)
(-0.000167918218196 0.00266874928488 -0.000382554624602)
(-0.00135670984131 0.00239743635745 -0.000491921442865)
(-0.00107920825753 0.00297349264888 -0.00025536333552)
(-0.000927164424451 0.00259742695492 -0.000476967493801)
(-0.00190443082895 0.00222897605267 -0.000620859416635)
(-0.00176276826869 0.00281886659426 -0.000376869463517)
(-0.00154986249207 0.00247926110128 -0.000637553435636)
(-0.00220347414994 0.00202035546662 -0.00077509479267)
(-0.00221648167186 0.00261490435407 -0.000541225826822)
(-0.00197656659863 0.00231842147227 -0.00084810850482)
(-0.00221295678573 0.00178737355043 -0.000938198673069)
(-0.00239311951213 0.00237331139697 -0.000728677132465)
(-0.00216814000239 0.00212569489361 -0.0010867621267)
(-0.0019171460624 0.0015610981453 -0.00108448329662)
(-0.00225243274771 0.00211127788516 -0.000924026776765)
(-0.00209977918179 0.00191510411463 -0.0013282240224)
(-0.00134449984127 0.00137935780279 -0.00116598845705)
(-0.00179442058606 0.00187293647685 -0.00108972045197)
(-0.0017785435195 0.00171806371827 -0.00152834562052)
(-0.000596881459089 0.00126006696173 -0.00106107158873)
(-0.00109118952354 0.00168925699596 -0.00115880604847)
(-0.00125673292865 0.00155959701136 -0.00161414422328)
(3.44427090011e-05 0.0011865843296 -0.000545862445454)
(-0.000177369702432 0.00156661588985 -0.000930051971556)
(-0.000560218064325 0.00144982344485 -0.00140047379459)
(0.000232425983419 0.00144590134928 -0.000112040946162)
(-0.000114049532778 0.00135756571965 -0.000582372730747)
(8.75800350942e-05 0.00181081178619 -0.000591457651834)
(-0.000210503271774 0.00192215120972 -5.4103671126e-05)
(0.000225235872709 0.00191345218257 -0.000585271111235)
(0.00105201734946 0.00200368993093 -0.00119654634511)
(0.000489370280418 0.00215875074398 -0.00103429939252)
(0.000941634571355 0.00205136250806 -0.0015781052202)
(0.00211598673117 0.00223228935503 -0.00123664973619)
(0.00178719681126 0.00236928266814 -0.00123613931952)
(0.00193215334877 0.00220442574734 -0.00174258986093)
(0.00288327532344 0.00252443244554 -0.00102492422187)
(0.00274989927088 0.00264627243176 -0.0010376963923)
(0.00264274666656 0.00242496136608 -0.00149590230815)
(0.00323272241608 0.00284386050601 -0.000744126547684)
(0.00331836813965 0.00296741530603 -0.000721012014821)
(0.00304020335814 0.00268791182617 -0.00111134413271)
(0.00316162268841 0.00313774480305 -0.000472827613192)
(0.00342698496746 0.00328473337345 -0.00039541488455)
(0.00308301596425 0.00295264330369 -0.00070865761641)
(0.00272981055014 0.00337031292065 -0.000249094035435)
(0.00312594487576 0.00354617661971 -0.00012295310516)
(0.00279921940377 0.00317663869232 -0.000356899283093)
(0.00202664633935 0.0035270072979 -8.95112416592e-05)
(0.00249768772857 0.00373727880802 8.38158437788e-05)
(0.00224706076595 0.00334475619914 -8.65773156464e-05)
(0.00115211490026 0.00360263114399 -1.80732131756e-06)
(0.00164638720917 0.00384594115447 0.000210828444561)
(0.00150519430133 0.00344592411005 9.01877775e-05)
(0.000213541242621 0.00360254948715 1.48598101197e-05)
(0.000685054032117 0.00387778797295 0.000259688441726)
(0.000663836937416 0.00348107555581 0.000160150815029)
(-0.000693582877712 0.00353406830861 -3.45202070079e-05)
(-0.000287503009237 0.00384096903226 0.000236451449701)
(-0.000192694688382 0.00345541949878 0.000134062983911)
(-0.001484567386 0.00340258976413 -0.000140311356171)
(-0.00118196367293 0.00374229866402 0.000148897913375)
(-0.000985103554151 0.00337384623037 2.22022806941e-05)
(-0.0020786713515 0.00321410397265 -0.000297235873704)
(-0.00191606727849 0.00358676419915 5.76961446658e-06)
(-0.00164305498527 0.00323987171772 -0.000173770198497)
(-0.00241678510181 0.00297852440827 -0.000494808166617)
(-0.00241727698625 0.00337879656768 -0.000191213358691)
(-0.00210573713002 0.00305978350759 -0.000425754387349)
(-0.00244773049359 0.00270967139277 -0.000714505236162)
(-0.00263010482952 0.00312950007824 -0.000423943605851)
(-0.00232853874484 0.00284418529593 -0.000725218490638)
(-0.00214466234869 0.00243658479857 -0.000929263932115)
(-0.00250492097235 0.00285230688753 -0.000680600074145)
(-0.00228014689896 0.00260781224246 -0.00104407258014)
(-0.00152544497194 0.00219554025646 -0.00108253804339)
(-0.00202927725228 0.00258674486545 -0.000918558227656)
(-0.0019583445228 0.00238290058704 -0.00133300300935)
(-0.000692245472751 0.00200534056455 -0.0010277864313)
(-0.00126672121917 0.00236015312767 -0.00105855994728)
(-0.00140714104856 0.00219561411713 -0.00150407586695)
(3.18936756192e-05 0.00182982721452 -0.000496230472264)
(-0.000251686739753 0.00217991146094 -0.000870025339561)
(-0.000646018241874 0.00205839278517 -0.00133741783832)
(0.000240476197519 0.0019535040673 -2.38046500102e-05)
(-0.000138039511004 0.00191502478576 -0.000475699623003)
(0.000164696175184 0.00225867403924 -0.000496945411808)
(-0.000166709904585 0.00219623688972 4.15321489519e-05)
(0.000282102172218 0.00227740315651 -0.000438747601922)
(0.00125154881475 0.00251091410851 -0.00107389236693)
(0.000649057327449 0.00248814344958 -0.000922328733367)
(0.00109493900677 0.00243538334041 -0.0014162077042)
(0.00240521104966 0.00276790414086 -0.00103718597563)
(0.00205502403209 0.00271604535827 -0.00106353768099)
(0.00216428944327 0.00258795110638 -0.00150038605383)
(0.00320571961646 0.00307188601331 -0.000733784185257)
(0.00307239162785 0.00299040475894 -0.000780670570817)
(0.00290800768801 0.00280308728847 -0.00114460172438)
(0.00353495687997 0.00339019584154 -0.000372300351688)
(0.00363896749754 0.0032932825527 -0.000382440921761)
(0.00329646747428 0.00305731598609 -0.000655065726705)
(0.00340926483906 0.0036745838785 -4.55403765181e-05)
(0.0037000783022 0.00358387355644 1.33897136346e-06)
(0.00330056233975 0.00331255523515 -0.000173410477478)
(0.00290365001532 0.00389342032929 0.000209956774054)
(0.0033299605326 0.00381551334921 0.000308242969113)
(0.0029639847017 0.00352890884212 0.000236313812657)
(0.00212458800875 0.00403614225377 0.000384155529999)
(0.00262462785289 0.00398137344179 0.000530690642999)
(0.00235492923153 0.0036912355408 0.000535000309887)
(0.00118368246305 0.00410085624747 0.000472324207605)
(0.00170355941678 0.0040719560706 0.000657974202501)
(0.00156067711101 0.00378861561602 0.000714920150673)
(0.00018693480167 0.00409539351267 0.000481280081308)
(0.000684240312967 0.00409390133603 0.00069887433182)
(0.000674063527949 0.00382196466943 0.000780660248352)
(-0.00077265920127 0.0040280920671 0.000419869570084)
(-0.000337990961023 0.00405739012744 0.000666011262243)
(-0.000222614888099 0.00379677296767 0.000743195803572)
(-0.0016134407013 0.00390472628245 0.000294978884013)
(-0.00127913012939 0.00396987546699 0.000568045157719)
(-0.00105398955334 0.00371855726202 0.000613225667172)
(-0.00225971587356 0.00372926169167 0.000111792129479)
(-0.00206185307395 0.0038347496904 0.000408283294707)
(-0.00175206118048 0.0035914932536 0.000398310084954)
(-0.00264300852334 0.00350793908462 -0.000120348797925)
(-0.00261214935534 0.00365514457621 0.00018996565151)
(-0.00225533111887 0.00342198980709 0.000106965473248)
(-0.00270468213702 0.00325089533132 -0.000390038443834)
(-0.00286666043551 0.00343821330057 -7.63546433314e-05)
(-0.00251460003199 0.00321902814647 -0.000247018245868)
(-0.00240621262726 0.00298239686725 -0.000669894369686)
(-0.00276631702928 0.00319084378778 -0.000382358123022)
(-0.00249091424516 0.00299623524191 -0.00063698542872)
(-0.00175414314159 0.00273312263539 -0.000894580131549)
(-0.00228451707271 0.00294563409838 -0.000682545467988)
(-0.00217119960793 0.00278261716674 -0.00101093960844)
(-0.000849016851895 0.00251851420095 -0.000900798855543)
(-0.00147600487312 0.00272339139861 -0.000887077736168)
(-0.00159036389122 0.00260140776456 -0.00126834841816)
(-3.17674303819e-05 0.00228810324321 -0.000397599517307)
(-0.000378120329947 0.00252882517844 -0.0007485567807)
(-0.000764986333523 0.00246395741987 -0.00116614987518)
(0.000203184983994 0.00224772806968 7.20130765768e-05)
(-0.000181310646412 0.00229767842873 -0.000325984501716)
(0.000282307571623 0.00241298672046 -0.000383851172607)
(-9.9555185404e-05 0.00219721620773 0.000124245006992)
(0.000349856379814 0.00237575112706 -0.000283253016094)
(0.00148170141472 0.00267974850944 -0.000911974047427)
(0.000822601734686 0.00249713490988 -0.000789953155899)
(0.00125974482487 0.00253551205428 -0.00120834833976)
(0.00270751253631 0.00292254159202 -0.000807022276176)
(0.00231434225102 0.00270731225334 -0.000875495958896)
(0.0024018271059 0.00266902973313 -0.00121704015804)
(0.00352701448576 0.00319373308013 -0.000429327307321)
(0.00337229089843 0.00294209969403 -0.00052753540153)
(0.00317673562675 0.0028521982342 -0.000771159103051)
(0.00382833492766 0.00346684709835 -8.80159871006e-06)
(0.0039290897104 0.00319340068802 -7.18456245418e-05)
(0.00355585547113 0.00306833543268 -0.000201401547349)
(0.00364000166609 0.00370299226263 0.000355122316994)
(0.00393992164319 0.00342372201515 0.000349462130781)
(0.00352033474965 0.00328431853002 0.000348520402203)
(0.00306201693355 0.00388069041422 0.000628976838057)
(0.00350536471323 0.00360537191955 0.000676346039051)
(0.00313121306493 0.00346810256742 0.000788159571647)
(0.00221120505386 0.00399294889496 0.000804509315501)
(0.00273060328209 0.00373154084459 0.000901960767561)
(0.00246457861622 0.00360624100827 0.0011006749058)
(0.00120917704084 0.0040396281421 0.000884524326716)
(0.00174852546519 0.00379558572998 0.0010203541437)
(0.00161739437383 0.00368828192207 0.00127842516658)
(0.000162135429094 0.00403005580888 0.000883605512755)
(0.000681323856073 0.00380609983664 0.00104908002374)
(0.000685765304028 0.00371563663277 0.0013348661176)
(-0.000841993595585 0.00397332095536 0.000814186849877)
(-0.000379527602015 0.00377438115855 0.00100775394153)
(-0.000250076618865 0.00369419624876 0.00128715766395)
(-0.00172731578801 0.00387452045139 0.000681349568412)
(-0.00135695989936 0.00370772724947 0.000905635802585)
(-0.00111910514371 0.00362980578525 0.00114748783466)
(-0.00242061564078 0.00373600989659 0.000486456816737)
(-0.00217916604243 0.00360869808855 0.000741432854371)
(-0.00185640650855 0.00352673339035 0.000919367972222)
(-0.00284920992188 0.00356131390617 0.000233959806104)
(-0.00277194521051 0.00347738504543 0.000514686619574)
(-0.00239993647617 0.00338971303281 0.00060637041567)
(-0.00294721607884 0.00335479338291 -6.86743225194e-05)
(-0.00306561362451 0.00331679917885 0.000231245489784)
(-0.00269568498184 0.00322630946073 0.000219437105394)
(-0.00266239233828 0.00313215880666 -0.000395009221325)
(-0.00299416286323 0.00312901393311 -0.000105143781102)
(-0.00269768941576 0.0030459195429 -0.000222977658702)
(-0.00199111242113 0.00291611198305 -0.000675043072607)
(-0.00251489529682 0.00293594721734 -0.000446562419097)
(-0.00238214892657 0.002872191101 -0.000661578742341)
(-0.00103035056541 0.00271572494319 -0.000734835661325)
(-0.00167533111191 0.00275108863419 -0.00069889774845)
(-0.0017748820203 0.00272203645305 -0.00098844769922)
(-0.000126325749586 0.00247139789069 -0.000278944186816)
(-0.00051713200717 0.00257252841995 -0.000606872767231)
(-0.000893129793259 0.00260199802339 -0.00094771949201)
(0.000144513507718 0.00228386776084 0.000157929105093)
(-0.000234411322558 0.00243080780209 -0.000162461630527)
(0.00039745877944 0.00227518369404 -0.0002818569763)
(-2.9235185939e-05 0.00194704804466 0.000189311424999)
(0.000407898166278 0.00221040102515 -0.00014725773937)
(0.00168686806548 0.0025159557944 -0.000753475067367)
(0.000975660015635 0.00220904295572 -0.000661506361139)
(0.00140122342693 0.00235208930142 -0.00100128172133)
(0.0029661101127 0.00271557351819 -0.00059600908425)
(0.00252872992068 0.00237693477898 -0.000704103249309)
(0.00260501866716 0.00245505058842 -0.000948828432941)
(0.00379611667662 0.0029279613793 -0.00017005371875)
(0.00361433659006 0.0025516027313 -0.000313500743514)
(0.00340754336718 0.00259308522732 -0.000439473925432)
(0.00406635764967 0.00313509788512 0.00028641810495)
(0.00415734092119 0.00273201229863 0.000176246323023)
(0.00377901077976 0.00275700046243 0.000191181990126)
(0.00382533530666 0.00330991789144 0.000670685852838)
(0.00412517381927 0.00289304495096 0.000617313131772)
(0.00371010055173 0.00292132576652 0.000771732285245)
(0.00318587787444 0.00343846153267 0.000949329968555)
(0.00363799557572 0.00301632322984 0.000949903994467)
(0.00327646044211 0.00306196694418 0.00122853663577)
(0.00227622023375 0.00351505252233 0.00111780559576)
(0.00280703044102 0.00309819047388 0.00116894849182)
(0.00256019157287 0.00316773898118 0.00154303541373)
(0.00122596290106 0.00354210313816 0.00118490984073)
(0.00177786838547 0.00313406536994 0.00126775195441)
(0.0016671298221 0.00322898559779 0.00171180133003)
(0.000142074568824 0.00353022672363 0.00117322845252)
(0.000675987516272 0.00313426679312 0.00128107201979)
(0.000697408253574 0.00324871056449 0.00175574099558)
(-0.000892438466159 0.00348879597056 0.00109920289424)
(-0.000409684339952 0.00311008657667 0.00123265730845)
(-0.00027020557468 0.00323265945946 0.00169882361589)
(-0.0018090319357 0.0034224561668 0.000965719088544)
(-0.0014083241756 0.00306933683943 0.00113511394831)
(-0.00116876104661 0.00318747728046 0.00155499728605)
(-0.00253741581364 0.00333102572508 0.000769662657207)
(-0.00225609234599 0.0030128880177 0.000976808998343)
(-0.00193708423097 0.00311672722683 0.00132420605956)
(-0.0030026460007 0.00321443339365 0.000511972303255)
(-0.00288030464391 0.00293789465756 0.000752726158664)
(-0.00251345537288 0.00302286880162 0.00100473237278)
(-0.0031323519824 0.00307329042269 0.000194776031202)
(-0.0032045990998 0.00284331807712 0.000467781872137)
(-0.00283915701505 0.00291068612896 0.000603198743533)
(-0.00286496753969 0.00291594912779 -0.000156696978874)
(-0.00315984949307 0.00272721652942 0.000118843842228)
(-0.00286381150846 0.00278582105701 0.000134423778072)
(-0.00218600743169 0.00275563449549 -0.00047041709494)
(-0.00268898600514 0.00260167719258 -0.000243329732576)
(-0.00255293094174 0.00266479408784 -0.000344681263332)
(-0.0011889692245 0.00259449715063 -0.000570934854356)
(-0.00183298430508 0.00247229437933 -0.000525163981546)
(-0.00192575129021 0.00255808953065 -0.000718237956784)
(-0.000220505643452 0.00237388756755 -0.000169999475322)
(-0.000637257325509 0.00233181023555 -0.000469956138726)
(-0.00100033389188 0.00246563798408 -0.000727742151808)
(8.45723134338e-05 0.00208116003437 0.000224837865616)
(-0.00027927000559 0.00230888609651 -1.77975475016e-05)
(0.000499707778249 0.00187884668165 -0.000190337959841)
(3.28661305527e-05 0.00148183174591 0.00023570751503)
(0.000455517296468 0.00180768238655 -3.44601048963e-05)
(0.00185177242495 0.00206697249304 -0.000612134543081)
(0.00109153786697 0.0016749784818 -0.000552348501521)
(0.00151040205397 0.00191921276156 -0.000817966458673)
(0.00316492844867 0.00220889954993 -0.000421594908573)
(0.00268352860476 0.00178872044085 -0.00056749955871)
(0.0027603796212 0.00198864759321 -0.000724907830641)
(0.00399831847255 0.00235036765984 3.27992982595e-05)
(0.00378422292396 0.00189894892586 -0.00015635856507)
(0.00358457519405 0.00207804046487 -0.000180703218114)
(0.00424251229201 0.00248297003612 0.000507141349846)
(0.00431316235241 0.00200369250143 0.000352678185741)
(0.00395026017424 0.00218539375203 0.000484157546801)
(0.00395910016627 0.00259149613895 0.000896531273401)
(0.00424925786262 0.0020953619846 0.000798340877375)
(0.00385652121686 0.00229333905402 0.00108112474352)
(0.00327165384261 0.0026674123444 0.00116952251773)
(0.00372299485441 0.00216239216384 0.00112649600904)
(0.00338865781299 0.00238575702553 0.00154140454965)
(0.00231708720391 0.00270867983541 0.00131889485046)
(0.00285250318989 0.00220335798525 0.00132749107579)
(0.00263367528909 0.0024549926573 0.00184942308691)
(0.0012335968472 0.00271830779892 0.00136391413347)
(0.00179043510348 0.00221666423109 0.00140476584678)
(0.00170518616547 0.00249367196881 0.00200091158055)
(0.000126686546439 0.00270580572326 0.00134050087572)
(0.000668827324624 0.002211115468 0.00140228850859)
(0.000707001607294 0.00250480200953 0.00203007752779)
(-0.000923381704833 0.00268096496199 0.00126856836251)
(-0.000426470313744 0.00219655101531 0.00134644331464)
(-0.000282167020029 0.00249552508855 0.00196361586737)
(-0.00185619671935 0.00264912488603 0.0011462038581)
(-0.00143169920188 0.0021810220345 0.00125361732918)
(-0.00119864828862 0.00247220590009 0.0018211390018)
(-0.00260643437636 0.0026089698752 0.0009598724998)
(-0.00228909242597 0.00216591289868 0.00111230958646)
(-0.00198651635717 0.00243796377458 0.00159722034252)
(-0.00309751879622 0.0025559106294 0.000708535727546)
(-0.00293209583137 0.00214553298581 0.000900452751344)
(-0.00258573504099 0.00239261712217 0.00128345300152)
(-0.00325251888759 0.0024865123925 0.000391849683162)
(-0.00327762321149 0.00211484078272 0.000624914918919)
(-0.00293320527837 0.00233696156867 0.000883483848235)
(-0.0030025375362 0.00240292921853 3.22110885259e-05)
(-0.00325438820008 0.00207047110606 0.000277879118969)
(-0.00297566583052 0.00227291864814 0.000406769486148)
(-0.00232468717736 0.00230904967571 -0.000298076619182)
(-0.00279575789799 0.00201528827191 -9.14300536592e-05)
(-0.0026702520962 0.00220879598299 -9.14580590118e-05)
(-0.00131003447285 0.00220091571805 -0.000424185265916)
(-0.00193651331985 0.00194585505086 -0.000384938092001)
(-0.00203097065443 0.00214911734062 -0.000488212730943)
(-0.000300805105785 0.00202917678946 -7.51187977877e-05)
(-0.000724028913593 0.0018543441697 -0.000353990440938)
(-0.00107748085724 0.002088250871 -0.000531765311907)
(3.30260452402e-05 0.00166552673798 0.000271861226928)
(-0.000314340157382 0.00195969270161 0.000114825270055)
(0.000571158334081 0.001278965448 -0.00012630302665)
(7.44714227614e-05 0.000864607295271 0.000259104584788)
(0.000486421757329 0.0012212609137 4.6095657961e-05)
(0.00195973008185 0.00139714279541 -0.000507713517149)
(0.0011592000247 0.000969421248497 -0.000479315975547)
(0.00157829171727 0.00129335589136 -0.000682983024583)
(0.00329289326106 0.00147670404977 -0.000302263215207)
(0.00276993678133 0.00102295297056 -0.000479518904923)
(0.0028581288548 0.00133056556896 -0.000567364471786)
(0.00412131747936 0.00154910343284 0.000163520322411)
(0.0038755134629 0.00106652223072 -6.24868353012e-05)
(0.00369686780104 0.00137521359304 4.03247373808e-06)
(0.0043476728026 0.00161311337603 0.000643877713271)
(0.00439350566204 0.00110583198945 0.000452790656835)
(0.00405909409737 0.00142976763315 0.00067153344132)
(0.00403536794015 0.00166252206225 0.00102830561301)
(0.00431017431023 0.00113695531199 0.000894547262109)
(0.00394928615077 0.00148511971012 0.00127073766317)
(0.00331605603374 0.00169435338534 0.0012844645671)
(0.00376126740559 0.00115639057899 0.00121261564084)
(0.00345892870774 0.00153242162209 0.00172533700503)
(0.00233446985209 0.00170695656407 0.00141336207211)
(0.00286929226119 0.00116624929338 0.00139415165463)
(0.0026789469175 0.00156832569145 0.00201871510066)
(0.00123257095708 0.00170373745292 0.0014431402219)
(0.0017901732531 0.00116462312241 0.00145717603949)
(0.00172671535307 0.00158618157448 0.00215395626937)
(0.00011847399571 0.0016952134213 0.00140823094751)
(0.000664062647514 0.00115969692256 0.00144100249594)
(0.000714049245831 0.00159199604927 0.00216552749656)
(-0.00093263626854 0.0016898387631 0.00133149228131)
(-0.000427242642023 0.00115912637525 0.00137776609298)
(-0.000282455654071 0.00159217886333 0.00208854294796)
(-0.00186551779027 0.0016907828976 0.00121972305754)
(-0.00142672841487 0.00116841765052 0.0012852121424)
(-0.00120417506578 0.00159224041884 0.00194549096375)
(-0.00262304646511 0.00169555111597 0.001052889838)
(-0.00228131521407 0.00118803950538 0.00115854275014)
(-0.00199836519675 0.0015930637769 0.00173540536696)
(-0.00312814379647 0.00169816901811 0.000816831942716)
(-0.00292882659694 0.00121380416339 0.000964615851338)
(-0.00260900392484 0.00159299140091 0.00143682862756)
(-0.00330059449509 0.00169303555906 0.000510944354725)
(-0.00328519112077 0.00123730852787 0.000702955726816)
(-0.00296959045332 0.00158935578093 0.00104998482147)
(-0.00306616235705 0.00167727965969 0.000154237976784)
(-0.00327662608731 0.00125578811923 0.000365800545376)
(-0.00302488412828 0.00158160164364 0.000580251584388)
(-0.00239816684149 0.00164714379127 -0.000178291526478)
(-0.00283149091444 0.00126249165409 -6.35544048635e-07)
(-0.00272614467055 0.00156985344525 8.4799848817e-05)
(-0.00138106891226 0.00159531959245 -0.000314743267023)
(-0.00198008255431 0.00125149199876 -0.000293513208105)
(-0.0020838094421 0.00155314313139 -0.000322738728693)
(-0.000355325860213 0.00148669747145 -7.01041622287e-06)
(-0.000769676736435 0.00121354378218 -0.000275804015247)
(-0.00111868102912 0.00152318764834 -0.00038494901903)
(-1.30524203947e-06 0.0011045955324 0.000297577639732)