/*--------------------------------*- C++ -*----------------------------------*\
| =========                 |                                                 |
| \\      /  F ield         | OpenFOAM: The Open Source CFD Toolbox           |
|  \\    /   O peration     | Version:  3.0.1                                 |
|   \\  /    A nd           | Web:      www.OpenFOAM.org                      |
|    \\/     M anipulation  |                                                 |
\*---------------------------------------------------------------------------*/
FoamFile
{
    version     2.0;
    format      ascii;
    class       volScalarField;
    location    "2.4";
    object      k;
}
// * * * * * * * * * * * * * * * * * * * * * * * * * * * * * * * * * * * * * //

dimensions      [0 2 -2 0 0 0 0];

internalField   nonuniform List<scalar> 
7968
(
0.00201532584943
0.00216369389761
0.002271733452
0.00233081635781
0.00235925447293
0.00237068335189
0.0023733851994
0.0023721829007
0.00237028135901
0.00236887172366
0.0023691055017
0.00237060620774
0.0023724766221
0.00237328328065
0.00237011307694
0.00235833364011
0.00232977721099
0.00227081034838
0.00216309050092
0.00201512667792
0.00216365783978
0.00285613977405
0.00330788726466
0.00356466968184
0.00370271965626
0.00376980413648
0.00379652379203
0.00380278590595
0.0038012614932
0.00379933058732
0.00380041518392
0.00380395072859
0.0038059169372
0.00379891844737
0.00377075629332
0.0037021541848
0.00356301181348
0.00330579911989
0.00285437941091
0.00216302889277
0.00227172048071
0.00330795213268
0.00398865151082
0.00438733976256
0.00461193238802
0.00472881630578
0.00478154646735
0.00479988825445
0.00480337981684
0.00480361380662
0.00480554114823
0.00480849979867
0.00480645232086
0.00478762441136
0.0047328520284
0.00461337413471
0.00438650764854
0.00398641377862
0.00330552127527
0.00227063905558
0.00233101954128
0.00356541549422
0.00438807539096
0.0048804481874
0.00516547097215
0.00531927193494
0.00539333979425
0.00542590301006
0.00544071422097
0.00544606319363
0.00544833791968
0.00544698691852
0.00543492853921
0.00540482233638
0.00532850186175
0.00517082380154
0.00488182601683
0.00438648017886
0.00356265653103
0.00232950678049
0.00235986959072
0.00370458056554
0.00461378227853
0.00516645485266
0.0054919612811
0.00567247942952
0.0057725467296
0.00582048057739
0.00583961507205
0.00584660992837
0.00584959146179
0.00584791150034
0.00583246728201
0.00578624845931
0.00568815980794
0.00550292616607
0.00517143706791
0.00461374875871
0.00370199163243
0.00235802407848
0.0023718180471
0.00377289246347
0.00473176801506
0.00532101359269
0.00567279750115
0.00588289280847
0.00599697534719
0.0060498692369
0.00607036833255
0.00607778139248
0.00608148784896
0.00608074930605
0.00606505714316
0.00601445864085
0.00590028280318
0.005690012308
0.00533063460412
0.00473416912526
0.00377107557629
0.00236982765675
0.002374999834
0.00380056488649
0.0047851437973
0.00539496582156
0.00577027012785
0.00599530571931
0.00611439457348
0.00616817921298
0.00618794605989
0.00619482526276
0.00619921398258
0.0062002769449
0.00618637283828
0.00613557885484
0.00601649601937
0.00578897912209
0.0054094302803
0.00479053900195
0.00380005737964
0.00237309123764
0.00237407741589
0.00380715508731
0.00480315194362
0.00542365848315
0.00581614460879
0.00604600959406
0.00616584647216
0.00621822341849
0.00623609577288
0.00624196210753
0.00624699255129
0.00625020106488
0.00623908114079
0.00619026136393
0.00607063927481
0.00583814191704
0.00544250099898
0.00481165299763
0.00380829208437
0.00237247349913
0.00237173049976
0.00380506700454
0.00480529776715
0.00543546030809
0.00583301469069
0.00606390455066
0.00618277235377
0.00623316807743
0.00624916497523
0.00625416096407
0.00625983126846
0.00626491419461
0.00625634798812
0.00620988377584
0.0060913376339
0.00585765623697
0.00545506394379
0.00481669360874
0.00380800689411
0.00237080519346
0.00236971726085
0.00380170348291
0.00480314754439
0.00543873901111
0.00583754271058
0.00606843788016
0.0061865265134
0.00623582487494
0.00625093966938
0.0062556893792
0.0062619390395
0.00626811947313
0.00626094848331
0.00621581793717
0.00609805776327
0.00586422109114
0.00546017776886
0.00481713273519
0.00380644525058
0.00236965780258
0.00236925950678
0.0038008568911
0.00480238211179
0.00543899909683
0.00583811525906
0.00606935478523
0.00618791829736
0.00623784420748
0.0062536936442
0.00625907906816
0.00626559249426
0.00627176017852
0.0062643477705
0.00621878007201
0.00610047705785
0.00586609950149
0.00546161131348
0.00481835086856
0.00380713609881
0.00236969445414
0.00237058497613
0.00380269332936
0.00480305448523
0.00543612993959
0.00583462542179
0.00606649908293
0.0061867183926
0.00623886648277
0.00625681549332
0.00626346978204
0.00627000017755
0.00627513597935
0.00626589412849
0.00621815620087
0.00609802139328
0.00586276955609
0.00545897925406
0.00481970217455
0.00380962778679
0.00237090295776
0.0023725255008
0.00380361633754
0.0047996056759
0.00542328776749
0.00581843887028
0.00604987150501
0.00617176157244
0.00622674859662
0.00624742008618
0.00625563105609
0.00626199759849
0.00626534094783
0.00625315527054
0.00620229445051
0.00608014131137
0.00584522387282
0.00544853683217
0.0048149245282
0.0038097665255
0.00237237088317
0.00237326014602
0.00379630371108
0.00478052920026
0.0053919399236
0.00577254676167
0.00599977094143
0.00612136034001
0.00617826189951
0.00620129819606
0.0062108928556
0.00621686462621
0.00621807412565
0.00620278314933
0.00614934514522
0.00602702544193
0.00579652243319
0.00541460621287
0.00479241977749
0.00380034418167
0.00237251767523
0.00237011190714
0.0037684725631
0.00472673119369
0.00531716329089
0.00567220217237
0.00588706520112
0.0060039885813
0.00606015896709
0.00608405714441
0.00609428071177
0.00609961640522
0.00609896426431
0.00608166412937
0.00602809625059
0.00591048980013
0.0056981361694
0.00533347059108
0.00473372062044
0.0037696449354
0.00236869005244
0.00235841010966
0.00370060198641
0.00460897602731
0.00516237036427
0.00549029255586
0.00567492540596
0.0057786661395
0.00582980734432
0.00585218386257
0.00586185473643
0.00586636655994
0.00586470447839
0.0058477776564
0.00579925511208
0.005699919398
0.00550816218841
0.00517143584705
0.00461097235021
0.00369895832631
0.00235641391084
0.00232993400194
0.00356229008873
0.00438401149889
0.00487662274658
0.00516326186362
0.00532022060207
0.00539859977655
0.00543377446601
0.0054511999309
0.00545894343706
0.00546260175576
0.00546185445491
0.00545292546861
0.00541896141825
0.00533664947163
0.00517291414407
0.0048795097939
0.00438209422259
0.00355861166766
0.00232764718496
0.00227100596869
0.00330574524381
0.0039854960047
0.00438403859459
0.00460951434919
0.00472849214919
0.00478439985007
0.00480646569386
0.00481360813816
0.00481670674107
0.00482040744596
0.00482355404364
0.00481966005763
0.00479698501415
0.00473725792075
0.00461307793782
0.00438290476517
0.00398144550726
0.00330124284039
0.00226882716774
0.00216326710158
0.00285471755334
0.00330561323598
0.00356205969308
0.0037004628172
0.00376871534277
0.00379733212921
0.00380593098361
0.00380674916979
0.00380679359914
0.00380907584492
0.00381269275818
0.0038133474528
0.00380377185886
0.0037723746232
0.00370071363967
0.00355945634531
0.00330147662671
0.00285080117621
0.00216165022535
0.00201520006713
0.00216324236056
0.00227092418155
0.00232975318072
0.00235812456568
0.0023697294687
0.00237282745688
0.00237215337681
0.00237054544785
0.00236958585943
0.00237013898605
0.00237178187005
0.00237350109779
0.00237357637584
0.00236952547394
0.0023569603474
0.00232792342399
0.00226891655795
0.00216165876524
0.00201458241375
0.00215975896313
0.00283555972713
0.00328134852245
0.00353805501828
0.00367939875103
0.00375171879623
0.00378423474345
0.00379569341226
0.00379741908031
0.00379671061517
0.00379774213289
0.00379992674757
0.00379864259657
0.00378693561597
0.00375364730129
0.00368040034159
0.00353826368985
0.00328106280952
0.00283513412948
0.00215939480094
0.00283575155783
0.00554278218851
0.00681818464831
0.00755470972409
0.00798006481839
0.00821368975468
0.00833107432075
0.00838282958636
0.00840217256474
0.00840913330997
0.00841252875364
0.00841156142855
0.00839607314369
0.00834553922167
0.00822702578841
0.00799069368871
0.00756193834338
0.00682215927458
0.00554440919989
0.00283529738503
0.0032814580976
0.00681718594983
0.00849645521021
0.00949596839764
0.0100940308185
0.0104362620384
0.010617347144
0.0107033298457
0.0107389572737
0.0107528637578
0.0107576934385
0.0107525952562
0.0107230495753
0.0106396498207
0.0104578213314
0.0101123559524
0.0095095868511
0.00850496118475
0.00682124278477
0.00328102069213
0.0035381803358
0.00755295909432
0.00949474879975
0.0106760658229
0.0113996060569
0.0118243064659
0.0120557459082
0.0121709064671
0.0122199984289
0.012239414769
0.0122458693632
0.0122381850866
0.0121975669718
0.0120869911794
0.0118555346134
0.0114273187836
0.0106977368236
0.00950927248014
0.00756069112769
0.00353800460245
0.00367970314508
0.00797749698873
0.0100909967786
0.0113971746336
0.0122096555004
0.0126943835526
0.012961993948
0.0130938225033
0.0131509205952
0.0131737690484
0.0131819579382
0.0131741347277
0.0131284114534
0.0130027996965
0.0127356016149
0.0122477821125
0.0114280579508
0.0101126346438
0.00798988509764
0.00368009569465
0.0037522859319
0.00821002123878
0.0104306719934
0.0118180792522
0.01268953061
0.0132126398876
0.0135001304189
0.0136406204928
0.0137003651357
0.0137241129113
0.0137339888472
0.0137285301255
0.0136830950006
0.0135509860119
0.0132652680586
0.0127382200573
0.0118585822974
0.0104599714727
0.00822765842034
0.00375355620559
0.0037849973347
0.00832591405569
0.0106085343688
0.0120447377548
0.0129518849727
0.0134938292523
0.0137897692169
0.0139313267238
0.0139890823171
0.0140115066707
0.0140229022669
0.0140217227163
0.0139809913549
0.0138498684838
0.0135567896819
0.0130106986185
0.0120943256131
0.0106453062132
0.00834885248925
0.00378738943406
0.00379642922083
0.0083756846743
0.0106907258507
0.0121542111621
0.0130769927212
0.0136266461201
0.013923224082
0.0140610293081
0.0141142385322
0.014134213107
0.0141469241628
0.0141507383517
0.0141168744455
0.0139911771911
0.0136983249833
0.0131443741415
0.0122103634064
0.0107339571017
0.0084034343184
0.00380004591442
0.00379813170931
0.00839251066603
0.0107221636319
0.0121980305587
0.013126965743
0.0136781108223
0.0139720373794
0.0141050405527
0.0141538904165
0.0141717455709
0.0141855887824
0.0141936763441
0.0141660546357
0.014046359528
0.0137566956499
0.0132012636888
0.0122612848944
0.0107708584172
0.00842427140603
0.00380282296471
0.00379675777746
0.00839645774059
0.0107314695965
0.0122117534006
0.0131428254625
0.0136938324184
0.0139858157343
0.0141161615188
0.014162941391
0.0141800505843
0.0141948523277
0.014205465245
0.0141813447367
0.0140650692427
0.0137775194527
0.0132220055155
0.0122795314711
0.0107840421899
0.00843123144768
0.00380237745673
0.00379632521885
0.00839697849045
0.0107324922584
0.0122133296033
0.0131450629083
0.0136968765785
0.0139898887286
0.0141214841495
0.0141695952165
0.0141878543777
0.0142034082379
0.0142142349362
0.0141897268295
0.0140725287042
0.0137837327538
0.0132269166306
0.0122833268203
0.0107870542904
0.00843355251533
0.00380301527174
0.00379723853853
0.00839395465276
0.0107249856352
0.0122024791033
0.0131332555534
0.0136867193081
0.0139836206563
0.0141202285274
0.0141728924946
0.0141940274371
0.0142100106245
0.0142186708624
0.0141898560255
0.0140673989104
0.0137740289678
0.0132147441711
0.0122714636444
0.0107788619304
0.00843043974456
0.00380433736376
0.00379521264991
0.00837771007186
0.0106947909587
0.0121611014882
0.013086282585
0.0136394795865
0.0139406915681
0.0140840924588
0.0141431544303
0.0141681136114
0.0141840175617
0.0141885453771
0.0141525769109
0.0140222848531
0.0137233742
0.0131632365952
0.012224210819
0.0107443969225
0.00841148882077
0.00380168712309
0.00378358206781
0.00832804206705
0.010612876381
0.012052111459
0.0129626355289
0.0135089319715
0.0138106431441
0.0139591541562
0.0140240960676
0.0140525890264
0.0140677900208
0.0140672672372
0.0140235633986
0.0138862569064
0.0135851682771
0.0130310870866
0.0121085705554
0.0106553951848
0.00835667441586
0.00378849290064
0.00375082709447
0.00821189329346
0.0104345584188
0.0118250427012
0.0127010429554
0.0132280996876
0.0135217658585
0.0136698347885
0.0137373838844
0.0137676797337
0.0137815559796
0.013776537367
0.013727399274
0.0135879735595
0.0132930447818
0.0127571703829
0.0118704719567
0.0104676590545
0.00823381979666
0.00375376791066
0.00367839166144
0.00797894861454
0.0100939363687
0.0114026368937
0.0122188182301
0.0127083203423
0.0129820666163
0.0131214330361
0.0131863207332
0.0132156523404
0.0132276935935
0.0132199828433
0.0131699927077
0.0130364874114
0.0127602183288
0.0122631540981
0.0114364198509
0.0101173533769
0.00799409074812
0.00367950081676
0.00353712854006
0.00755394055743
0.00949654187325
0.0106796474294
0.0114061412052
0.0118352341873
0.0120724883058
0.012194416651
0.0122509425653
0.0122762978006
0.0122861987793
0.0122780058049
0.0122323877722
0.0121160139174
0.0118756233404
0.0114387274996
0.0107029370081
0.00951173963522
0.00756354539687
0.00353698435659
0.00328065994002
0.00681761305424
0.00849699653369
0.00949754516202
0.0100977682417
0.0104435967313
0.0106297500787
0.0107218436452
0.0107636375044
0.0107824542335
0.0107903748963
0.0107854341106
0.0107522735378
0.0106627646131
0.0104731715918
0.0101204960027
0.00951286621212
0.00850648885071
0.00682365215236
0.00328001651055
0.00283519316006
0.00554257557715
0.00681749327236
0.00755439949017
0.00798115938196
0.00821742543527
0.00833867295208
0.00839510177567
0.00841914895809
0.00842993768105
0.00843568813333
0.00843492415573
0.008417006276
0.00836195572169
0.00823788137691
0.00799652103366
0.00756455066193
0.00682382930981
0.00554691198673
0.00283454834311
0.00215952074069
0.00283523085962
0.00328064307191
0.00353711032471
0.00367858061756
0.00375153590195
0.00378520708112
0.00379818999834
0.00380182363698
0.00380270436071
0.00380468859091
0.00380657016694
0.00380405241543
0.00379066351234
0.00375542508263
0.00368052789407
0.00353747551837
0.00328018727481
0.0028345980275
0.00215857626007
0.00226458266085
0.00327157191473
0.00394358842874
0.00434443644828
0.00457675238158
0.00470393615921
0.00476702329322
0.00479382618031
0.00480282879363
0.00480544613394
0.0048073854041
0.00480794149472
0.00480082810836
0.00477455813986
0.00471091327704
0.00458247192359
0.00434848485925
0.00394580494459
0.00327214549189
0.00226416764128
0.00327198732226
0.00679109100933
0.00847008083983
0.00947319199507
0.0100762378315
0.0104234610208
0.0106088071998
0.0106979286934
0.0107361093141
0.0107516739699
0.0107574199186
0.0107523133064
0.0107218390002
0.0106367602346
0.0104518706035
0.0101020658933
0.00949412010288
0.00848461072977
0.00679889261899
0.00327247888433
0.00394356518766
0.00846741936332
0.0106171758269
0.0119307300991
0.0127442713548
0.0132285136968
0.0134971243059
0.0136323957202
0.0136933738436
0.0137189421482
0.0137260400694
0.0137140582057
0.013663769499
0.0135350858063
0.0132689402561
0.0127831567578
0.0119645153779
0.0106429384232
0.00848328799734
0.00394585935479
0.00434360336943
0.00946703233821
0.0119261311257
0.0134526171336
0.0144159832709
0.0150008611087
0.0153319622525
0.0155021020903
0.0155790771044
0.0156103400904
0.015618911261
0.0156037777987
0.0155400688526
0.0153789195395
0.0150528152038
0.0144679287391
0.0134996630298
0.0119639534815
0.00949228356419
0.00434822379629
0.00457489589622
0.010065471469
0.0127329491733
0.0144081830003
0.0154779400254
0.0161344063059
0.0165064218866
0.0166955737554
0.0167795812153
0.0168128277352
0.0168226619983
0.0168080508062
0.0167397159229
0.0165622746913
0.0161966570242
0.015542467121
0.0144684799012
0.0127831602213
0.0101008118126
0.00458215597855
0.00470094002479
0.0104072139287
0.0132088464418
0.0149827343188
0.0161232097043
0.0168222291825
0.0172155855351
0.0174098585887
0.017491423783
0.0175220672442
0.0175329606587
0.0175229953942
0.0174586161127
0.0172777657661
0.0168944795461
0.0161986456332
0.0150555367714
0.0132711255821
0.0104526913246
0.00471098102459
0.00476285289427
0.0105867373137
0.0134684085122
0.0153020383571
0.0164824408424
0.0172023926117
0.0175995290002
0.0177862548909
0.0178576400468
0.0178821548996
0.0178941943861
0.0178924489846
0.0178393295599
0.0176663738645
0.01728137107
0.0165689260971
0.0153860948224
0.0135415983478
0.0106415458848
0.00477561133907
0.00478845315753
0.010670179154
0.0135950531732
0.0154616282275
0.0166590362647
0.0173834394776
0.0177726901496
0.0179449932986
0.0180026642935
0.0180196499041
0.018032975003
0.018041060459
0.0180029557708
0.0178445619561
0.0174679030963
0.0167533348891
0.0155541735074
0.0136770729451
0.0107326889682
0.00480361594274
0.0047961353101
0.0107030256481
0.0136481126758
0.0155289856532
0.0167318583272
0.0174529101141
0.0178312533528
0.0179893495427
0.018034792709
0.0180453473389
0.0180598536507
0.0180764998447
0.0180520043926
0.017908124564
0.0175424650391
0.0168320186171
0.0156281993659
0.0137365319521
0.0107711487193
0.00481322736869
0.0047972340212
0.0107139322928
0.0136668309195
0.015552659535
0.0167563651234
0.0174739638624
0.0178453270477
0.0179951882559
0.018033943844
0.0180412150468
0.0180566484851
0.0180782175854
0.0180614059552
0.0179258818936
0.0175670387368
0.0168600999963
0.015655463287
0.0137588075211
0.0107854160258
0.00481575374521
0.004797518951
0.0107164879886
0.0136702379751
0.0155565951706
0.0167607516008
0.0174788742577
0.0178507842628
0.018001369625
0.0180411084351
0.0180493709807
0.0180654584669
0.0180871242258
0.0180697490925
0.0179331715052
0.0175731835996
0.0168652650264
0.0156597918178
0.0137626585213
0.0107888923519
0.00481695548692
0.0047970087041
0.0107101520045
0.0136576001467
0.0155400566601
0.0167442226088
0.0174667555151
0.0178466001521
0.018006719138
0.018054973239
0.0180683953077
0.0180848052922
0.0181017370819
0.0180755885583
0.0179286029707
0.0175595420941
0.0168461484431
0.0156397788461
0.0137467516853
0.0107803997189
0.00481623873201
0.00478978860913
0.0106805714189
0.0136089498778
0.0154780347874
0.0166771238233
0.0174033884227
0.0177945714512
0.0179698585874
0.0180319482169
0.0180535158027
0.0180699109211
0.0180785109761
0.0180378455776
0.0178745779154
0.0174924816071
0.0167729990365
0.015569252802
0.0136902590012
0.0107447789173
0.00480716764659
0.00476435728727
0.0105986865307
0.0134845097978
0.0153214835419
0.0165035996886
0.017225287921
0.0176244287983
0.0178148167013
0.0178918795206
0.0179223301778
0.0179383677723
0.0179373483937
0.0178810219317
0.0177018525143
0.0173096466598
0.0165902638436
0.0154017036498
0.0135540980583
0.0106532565434
0.00477847106775
0.00470231299461
0.0104190246453
0.0132247842471
0.0150019249654
0.0161449768975
0.0168462952045
0.017242447058
0.0174411992647
0.0175293255625
0.0175666414531
0.0175818985298
0.0175725054182
0.0175041875869
0.0173158467963
0.0169233109388
0.0162183109106
0.0150680783263
0.0132802013109
0.0104618794923
0.00471248951692
0.00457596818605
0.0100758698165
0.012747016507
0.014425237013
0.0154977622427
0.0161575056565
0.0165340854522
0.0167293289017
0.0168205547469
0.0168605607646
0.0168745582937
0.0168599420329
0.0167866150229
0.0166002813366
0.0162233779466
0.0155585585487
0.0144767680318
0.0127881909012
0.0101071185124
0.00458244019902
0.00434423129395
0.00947514995702
0.0119371601123
0.0134661747521
0.0144322139522
0.0150207114575
0.0153567446266
0.0155341664899
0.0156188291226
0.0156567097436
0.0156692363938
0.0156537426491
0.0155838535415
0.0154142155154
0.0150764012457
0.0144804332118
0.0135045145765
0.0119662428259
0.00949685297049
0.00434794889291
0.00394362108362
0.00847263538927
0.0106243536785
0.0119398857661
0.0127558762974
0.0132438354828
0.013517911901
0.0136602583877
0.0137285299473
0.0137597598182
0.013770781302
0.0137591997669
0.0137039078475
0.0135663182554
0.0132891157432
0.0127931968961
0.0119680071829
0.0106448153672
0.0084878567425
0.00394574764113
0.00327156032455
0.00679307606456
0.00847293976466
0.00947742117408
0.0100825859787
0.010433255196
0.0106236847851
0.0107191553063
0.0107638470255
0.010784762039
0.0107937462222
0.0107887717791
0.0107544306876
0.0106621505434
0.010468520443
0.0101109542925
0.00949832126016
0.00848801901945
0.00680445630668
0.0032726342307
0.00226428647439
0.00327165005545
0.0039437760891
0.00434478436932
0.00457757180318
0.00470582126969
0.00477072305042
0.00479992682457
0.00481151466743
0.00481640519279
0.00481965591611
0.00482011572281
0.00481134733976
0.00478220376921
0.00471524748641
0.00458408511958
0.00434870554444
0.00394602646032
0.00327276345156
0.00226315087849
0.00232344970116
0.00352646767688
0.00434637927827
0.00485097139247
0.00515414201206
0.00532661501463
0.00541583076647
0.00545583353708
0.00547071823634
0.00547594011528
0.00547914240552
0.00547944315166
0.00546840577708
0.00543038590908
0.00534155771877
0.00516816222993
0.00486269631721
0.00435434938049
0.00352978256808
0.00232323333962
0.0035272427235
0.00753717878383
0.00949911960898
0.010704894293
0.0114502101314
0.0118907460651
0.0121317758084
0.0122504342558
0.0123026294608
0.0123242919646
0.0123326724793
0.0123264484712
0.0122866246274
0.0121760087839
0.0119386869707
0.0114977189362
0.0107477994815
0.00953293344693
0.00755782649441
0.00353032498395
0.00434591574925
0.0094934778047
0.0119818082022
0.0135360968639
0.0145213891843
0.015120631071
0.0154592716882
0.0156319829161
0.0157107664912
0.0157428344035
0.0157519529877
0.0157370434132
0.0156739335681
0.0155129943587
0.015182277995
0.0145863020871
0.0135988013703
0.0120356983911
0.00953123299262
0.00435453463395
0.00484790368998
0.01069089359
0.0135258038543
0.0153146490345
0.0164648493787
0.0171754066803
0.0175836304204
0.0177921669107
0.0178846874198
0.0179204353309
0.0179295683719
0.0179115252038
0.0178351050938
0.0176407327711
0.017246603215
0.0165441774733
0.0153945656525
0.01359798883
0.0107454783875
0.00486246320662
0.00514749250747
0.0114251107934
0.0144965601798
0.0164488105472
0.017714910226
0.0185027520362
0.0189502560044
0.019171738899
0.0192633375659
0.0192954416922
0.0193040342097
0.0192886025649
0.0192119286596
0.0190053151559
0.0185754805584
0.0178041129261
0.0165442167647
0.0145858320692
0.0114961435778
0.00516785848581
0.00531591664131
0.0118528849799
0.0150786596742
0.0171397779481
0.0184826816376
0.0193105153245
0.0197674182007
0.0199786812376
0.0200543783716
0.0200757726177
0.0200842937251
0.0200788533266
0.0200159907314
0.0198169737877
0.0193784644198
0.0185740787309
0.0172475074134
0.0151837595063
0.0119397107688
0.00534177013647
0.005401200111
0.0120811006763
0.0153998000868
0.0175278174198
0.0189102700868
0.0197475951443
0.0201891128247
0.0203718126498
0.0204200364172
0.0204259601727
0.0204355530783
0.0204467409608
0.0204096810011
0.0202351898884
0.0198098274223
0.0189997011867
0.0176425711884
0.0155185908511
0.0121820080839
0.00543195119875
0.00543777419468
0.0121882731992
0.0155569643929
0.017719695386
0.0191147006239
0.0199414598533
0.0203536793298
0.0204992250992
0.02051589898
0.02050518184
0.0205167287343
0.020547472033
0.0205418827877
0.0204008332014
0.0200013822215
0.0192027989085
0.0178395343478
0.0156863754294
0.0123002660519
0.00547240704164
0.00544976806788
0.012231049412
0.0156229687739
0.0177990781275
0.0191930994815
0.0200031041176
0.0203861721915
0.0204986942169
0.0204886491555
0.0204641228304
0.0204774587821
0.0205249162244
0.0205469226208
0.0204366955797
0.0200636486136
0.0192816895483
0.0179223655262
0.0157589003893
0.0123502420762
0.00548701672775
0.00545266035936
0.0122463397342
0.0156473413484
0.017826953655
0.0192175244155
0.0200160180436
0.0203815102667
0.0204751528412
0.0204503144562
0.0204182989507
0.0204327483119
0.0204894668472
0.0205266943368
0.0204337861296
0.0200763043787
0.0193053145578
0.0179507156106
0.0157851425309
0.0123685815984
0.00549129430419
0.00545413334955
0.012251715284
0.0156538621559
0.017833921635
0.0192247861031
0.0200230323029
0.0203881183662
0.0204817132167
0.0204574009333
0.0204261060093
0.0204409738431
0.0204974396576
0.0205336111071
0.0204391550324
0.0200803680215
0.0193087699746
0.0179542590392
0.0157890449586
0.0123728469972
0.00549304924917
0.005453879017
0.0122460238608
0.0156409319622
0.0178186558501
0.0192134155418
0.0200223356499
0.0204037885563
0.0205159078162
0.0205073742998
0.0204850738185
0.0204998047173
0.0205467119267
0.0205658183741
0.0204512311731
0.0200744402273
0.0192906275067
0.017931410846
0.0157688880963
0.0123612229302
0.00549126858025
0.00544380829872
0.0122101746727
0.0155832709226
0.0177480201849
0.0191432492482
0.0199672703549
0.0203760056126
0.0205204658593
0.0205396496976
0.0205328825896
0.0205471623501
0.0205776363164
0.0205681013858
0.0204207669658
0.0200156813423
0.0192139385812
0.017850258707
0.0156979495706
0.0123134572102
0.00547699403846
0.00540813153303
0.0121065914374
0.0154305817133
0.0175604855925
0.0189414123372
0.0197738166129
0.0202097887119
0.0203907901607
0.020442494946
0.020454190063
0.0204681298411
0.0204799769476
0.0204389855029
0.0202575000233
0.0198251689743
0.0190102350325
0.0176512339272
0.015526663721
0.0121924573915
0.00543478329248
0.00532269823168
0.0118786752241
0.0151098557301
0.017172638027
0.0185135361075
0.019335773833
0.0197866478476
0.0199964245893
0.0200767390353
0.0201053777295
0.0201194693453
0.0201154424936
0.0200487507345
0.0198420132185
0.0193946277263
0.0185822666197
0.0172509702577
0.0151849287421
0.0119443685847
0.0053418118671
0.0051533745199
0.0114486655575
0.0145252332172
0.0164793152483
0.0177447018561
0.0185292574995
0.0189729450152
0.019194804715
0.0192923735902
0.0193324595371
0.0193468628808
0.0193325702595
0.019251094267
0.0190349472052
0.0185927165545
0.017810440134
0.0165414277151
0.0145797897732
0.0114949674448
0.00516553219334
0.00485226432158
0.010710380564
0.0135498577436
0.0153404020471
0.0164911496233
0.0172024552699
0.0176120905154
0.01782476068
0.0179245772809
0.0179682914246
0.0179825816897
0.0179645502544
0.017881289523
0.0176749940323
0.0172657010878
0.0165478894469
0.0153871299272
0.0135875076096
0.0107411683687
0.00485926635603
0.0043482196516
0.00950726840352
0.0119994621438
0.013555443219
0.0145418256964
0.0151434590586
0.0154870822839
0.0156673919558
0.0157544710864
0.0157943195818
0.0158082918223
0.0157935537656
0.0157232704467
0.0155487095894
0.0152009623488
0.014588941532
0.0135908506905
0.0120256623114
0.00952798128273
0.00435221635819
0.00352748375026
0.0075437564809
0.00950854690938
0.0107161357281
0.0114632515348
0.0119071747139
0.0121541993812
0.0122811547551
0.0123423145726
0.012371760797
0.0123846867598
0.0123782353314
0.0123320271283
0.012209307392
0.0119570422803
0.0115024806952
0.0107442106539
0.0095284122553
0.0075591629349
0.00352961422663
0.00232320140751
0.00352760678574
0.00434870204389
0.0048540096251
0.00515781402766
0.00533153933648
0.0054231555299
0.00546658820184
0.00548528144603
0.0054938644368
0.00549895545106
0.00549898791294
0.00548505716713
0.00544189950627
0.00534707603019
0.00516870513139
0.00486075341748
0.00435278449354
0.00352989948719
0.0023217963432
0.00235625733039
0.00368783199097
0.00461868577378
0.00520862900861
0.00557289505256
0.0057843784816
0.00589463957094
0.00594353372472
0.00596104468718
0.00596707104013
0.00597154307898
0.00597335442671
0.00596176848155
0.00591689105589
0.00580922340878
0.00559914838576
0.00523396979675
0.00463903958157
0.00369862954346
0.002357032166
0.00368922272265
0.00805203639452
0.0102472737376
0.0116298814984
0.0125004318655
0.0130199683556
0.0133033298015
0.0134397207479
0.0134967867618
0.0135191615309
0.0135291021276
0.013525284343
0.0134839984336
0.0133599031475
0.0130856405723
0.0125721760282
0.0117031164317
0.0103136878887
0.00809948534272
0.00369958803795
0.00461724178002
0.010236654358
0.0130155294829
0.0147847931567
0.0159226721593
0.0166201912734
0.0170137184068
0.0172092794702
0.0172927502937
0.0173226480661
0.0173304592828
0.0173159735588
0.0172481386026
0.0170687313443
0.0166924912635
0.0160094023318
0.0148798431928
0.0131087574844
0.0103116932958
0.00463960065069
0.00520123912259
0.0116034061046
0.0147662430606
0.0167896773727
0.0181067702414
0.0189254892193
0.0193906995006
0.0196165019573
0.0197044539703
0.0197305641504
0.0197344352418
0.0197164850779
0.0196380727656
0.0194275035246
0.0189873011016
0.0181962568663
0.0168987159247
0.0148788223876
0.0117005613542
0.00523398830051
0.0055573824331
0.0124533755559
0.0158791557797
0.0180805609847
0.019521895937
0.0204157205103
0.0209060009183
0.0211247490429
0.0211931356777
0.0212037476359
0.0212040250976
0.021193728875
0.0211257497032
0.0209144772383
0.0204495529477
0.0195974924524
0.0181943654068
0.0160080301098
0.012570389025
0.00559893562147
0.00575982574941
0.0129499097199
0.0165488217756
0.0188707962544
0.020388413648
0.0213042783897
0.0217729245713
0.0219465520127
0.0219715482395
0.0219569670277
0.0219568655171
0.0219689772469
0.0219360050137
0.0217557890154
0.0213032156908
0.0204351589801
0.0189777408741
0.0166909373511
0.0130863155241
0.00580928586113
0.00586160348109
0.0132110599383
0.0169162559394
0.0193113429475
0.0208569565249
0.0217519514199
0.0221604350122
0.0222602739342
0.0222247534292
0.0221791405757
0.0221830160436
0.0222310863937
0.0222547485456
0.0221325533931
0.0217223712442
0.0208722030011
0.0194024321572
0.0170659688845
0.0133653877471
0.0059181027238
0.00590356909461
0.0133285693409
0.0170906805733
0.0195194162485
0.0210611329272
0.0219105126703
0.0222419850012
0.022258563954
0.0221579219223
0.0220807223873
0.0220908595426
0.0221801135285
0.0222696807737
0.0222185530851
0.0218670854785
0.0210544139841
0.0195977876395
0.0172447213525
0.0134969458199
0.00596541669749
0.00591599095046
0.0133717191799
0.0171592202451
0.0195969905158
0.0211218211625
0.0219251950016
0.0221893994525
0.0221360976008
0.0219818638103
0.0218788526366
0.0218939540791
0.0220170635021
0.0221624775068
0.0221738262143
0.0218771426454
0.0211037670736
0.0196679513659
0.0173152606965
0.0135482693561
0.00598086887408
0.00591887108492
0.013386679409
0.0171841637187
0.0196218739203