/*--------------------------------*- C++ -*----------------------------------*\
| =========                 |                                                 |
| \\      /  F ield         | OpenFOAM: The Open Source CFD Toolbox           |
|  \\    /   O peration     | Version:  3.0.1                                 |
|   \\  /    A nd           | Web:      www.OpenFOAM.org                      |
|    \\/     M anipulation  |                                                 |
\*---------------------------------------------------------------------------*/
FoamFile
{
    version     2.0;
    format      ascii;
    class       surfaceScalarField;
    location    "4.8";
    object      meshPhiCN_0;
}
// * * * * * * * * * * * * * * * * * * * * * * * * * * * * * * * * * * * * * //

dimensions      [0 3 -1 0 0 0 0];

internalField   nonuniform List<scalar> 
22672
(
0
0
0
0
0
0
0
0
0
0
0
0
0
0
0
0
0
0
0
0
0
0
0
0
0
0
0
0
0
0
0
0
0
0
0
0
0
0
0
0
0
0
0
0
0
0
0
0
0
0
0
0
0
0
0
0
0
0
0
0
0
0
0
0
0
0
0
0
0
0
0
0
0
0
0
0
0
0
0
0
0
0
0
0
0
0
0
0
0
0
0
0
0
0
0
0
0
0
0
0
0
0
0
0
0
0
0
0
0
0
0
0
0
0
0
0
0
0
0
0
0
0
0
0
0
0
0
0
0
0
0
0
0
0
0
0
0
0
0
0
0
0
0
0
0
0
0
0
0
0
0
0
0
0
0
0
0
0
0
0
0
0
0
0
0
0
0
0
0
0
0
0
0
0
0
0
0
0
0
0
0
0
0
0
0
0
0
0
0
0
0
0
0
0
0
0
0
0
0
0
0
0
0
0
0
0
0
0
0
0
0
0
0
0
0
0
0
0
0
0
0
0
0
0
0
0
0
0
0
0
0
0
0
0
0
0
0
0
0
0
0
0
0
0
0
0
0
0
0
0
0
0
0
0
0
0
0
0
0
0
0
0
0
0
0
0
0
0
0
0
0
0
0
0
0
0
0
0
0
0
0
0
0
0
0
0
0
0
0
0
0
0
0
0
0
0
0
0
0
0
0
0
0
0
0
0
0
0
0
0
0
0
0
0
0
0
0
0
0
0
0
0
0
0
0
0
0
0
0
0
0
0
0
0
0
0
0
0
0
0
0
0
0
0
0
0
0
0
0
0
0
0
0
0
0
0
0
0
0
0
0
0
0
0
0
0
0
0
0
0
0
0
0
0
0
0
0
0
0
0
0
0
0
0
0
0
0
0
0
0
0
0
0
0
0
0
0
0
0
0
0
0
0
0
0
0
0
0
0
0
0
0
0
0
0
0
0
0
0
0
0
0
0
0
0
0
0
0
0
0
0
0
0
0
0
0
0
0
0
0
0
0
0
0
0
0
0
0
0
0
0
0
0
0
0
0
0
0
0
0
0
0
0
0
0
0
0
0
0
0
0
0
0
0
0
0
0
0
0
0
0
0
0
0
0
0
0
0
0
0
0
0
0
0
0
0
0
0
0
0
0
0
0
0
0
0
0
0
0
0
0
0
0
0
0
0
0
0
0
0
0
0
0
0
0
0
0
0
0
0
0
0
0
0
0
0
0
0
0
0
0
0
0
0
0
0
0
0
0
0
0
0
0
0
0
0
0
0
0
0
0
0
0
0
0
0
0
0
0
0
0
0
0
0
0
0
0
0
0
0
0
0
0
0
0
0
0
0
0
0
0
0
0
0
0
0
0
0
0
0
0
0
0
0
0
0
0
0
0
0
0
0
0
0
0
0
0
0
0
0
0
0
0
0
0
0
0
0
0
0
0
0
0
0
0
0
0
0
0
0
0
0
0
0
0
0
0
0
0
0
0
0
0
0
0
0
0
0
0
0
0
0
0
0
0
0
0
0
0
0
0
0
0
0
0
0
0
0
0
0
0
0
0
0
0
0
0
0
0
0
0
0
0
0
0
0
0
0
0
0
0
0
0
0
0
0
0
0
0
0
0
0
0
0
0
0
0
0
0
0
0
0
0
0
0
0
0
0
0
0
0
0
0
0
0
0
0
0
0
0
0
0
0
0
0
0
0
0
0
0
0
0
0
0
0
0
0
0
0
0
0
0
0
0
0
0
0
0
0
0
0
0
0
0
0
0
0
0
0
0
0
0
0
0
0
0
0
0
0
0
0
0
0
0
0
0
0
0
0
0
0
0
0
0
0
0
0
0
0
0
0
0
0
0
0
0
0
0
0
0
0
0
0
0
0
0
0
0
0
0
0
0
0
0
0
0
0
0
0
0
0
0
0
0
0
0
0
0
0
0
0
0
0
0
0
0
0
0
0
0
0
0
0
0
0
0
0
0
0
0
0
0
0
0
0
0
0
0
0
0
0
0
0
0
0
0
0
0
0
0
0
0
0
0
0
0
0
0
0
0
0
0
0
0
0
0
0
0
0
0
0
0
0
0
0
0
0
0
0
0
0
0
0
0
0
0
0
0
0
0
0
0
0
0
0
0
0
0
0
0
0
0
0
0
0
0
0
0
0
0
0
0
0
0
0
0
0
0
0
0
0
0
0
0
0
0
0
0
0
0
0
0
0
0
0
0
0
0
0
0
0
0
0
0
0
0
0
0
0
0
0
0
0
0
0
0
0
0
0
0
0
0
0
0
0
0
0
0
0
0
0
0
0
0
0
0
0
0
0
0
0
0
0
0
0
0
0
0
0
0
0
0
0
0
0
0
0
0
0
0
0
0
0
0
0
0
0
0
0
0
0
0
0
0
0
0
0
0
0
0
0
0
0
0
0
0
0
0
0
0
0
0
0
0
0
0
0
0
0
0
0
0
0
0
0
0
0
0
0
0
0
0
0
0
0
0
0
0
0
0
0
0
0
0
0
0
0
0
0
0
0
0
0
0
0
0
0
0
0
0
0
0
0
0
0
0
0
0
0
0
0
0
0
0
0
0
0
0
0
0
0
0
0
0
0
0
0
0
0
0
0
0
0
0
0
0
0
0
0
0
0
0
0
0
0
0
0
0
0
0
0
0
0
0
0
0
0
0
0
0
0
0
0
0
0
0
0
0
0
0
0
0
0
0
0
0
0
0
0
0
0
0
0
0
0
0
0
0
0
0
0
0
0
0
0
0
0
0
0
0
0
0
0
0
0
0
0
0
0
0
0
0
0
0
0
0
0
0
0
0
0
0
0
0
0
0
0
0
0
0
0
0
0
0
0
0
0
0
0
0
0
0
0
0
0
0
0
0
0
0
0
0
0
0
0
0
0
0
0
0
0
0
0
0
0
0
0
0
0
0
0
0
0
0
0
0
0
0
0
0
0
0
0
0
0
0
0
0
0
0
0
0
0
0
0
0
0
0
0
0
0
0
0
0
0
0
0
0
0
0
0
0
0
0
0
0
0
0
0
0
0
0
0
0
0
0
0
0
0
0
0
0
0
0
0
0
0
0
0
0
0
0
0
0
0
0
0
0
0
0
0
0
0
0
0
0
0
0
0
0
0
0
0
0
0
0
0
0
0
0
0
0
0
0
0
0
0
0
0
0
0
0
0
0
0
0
0
0
0
0
0
0
0
0
0
0
0
0
0
0
0
0
0
0
0
0
0
0
0
0
0
0
0
0
0
0
0
0
0
0
0
0
0
0
0
0
0
0
0
0
0
0
0
0
0
0
0
0
0
0
0
0
0
0
0
0
0
0
0
0
0
0
0
0
0
0
0
0
0
0
0
0
0
0
0
0
0
0
0
0
0
0
0
0
0
0
0
0
0
0
0
0
0
0
0
0
0
0
0
0
0
0
0
0
0
0
0
0
0
0
0
0
0
0
0
0
0
0
0
0
0
0
0
0
0
0
0
0
0
0
0
0
0
0
0
0
0
0
0
0
0
0
0
0
0
0
0
0
0
0
0
0
0
0
0
0
0
0
0
0
0
0
0
0
0
0
0
0
0
0
0
0
0
0
0
0
0
0
0
0
0
0
0
0
0
0
0
0
0
0
0
0
0
0
0
0
0
0
0
0
0
0
0
0
0
0
0
0
0
0
0
0
0
0
0
0
0
0
0
0
0
0
0
0
0
0
0
0
0
0
0
0
0
0
0
0
0
0
0
0
0
0
0
0
0
0
0
0
0
0
0
0
0
0
0
0
0
0
0
0
0
0
0
0
0
0
0
0
0
0
0
0
0
0
0
0
0
0
0
0
0
0
0
0
0
0
0
0
0
0
0
0
0
0
0
0
0
0
0
0
0
0
0
0
0
0
0
0
0
0
0
0
0
0
0
0
0
0
0
0
0
0
0
0
0
0
0
0
0
0
0
0
0
0
0
0
0
0
0
0
0
0
0
0
0
0
0
0
0
0
0
0
0
0
0
0
0
0
0
0
0
0
0
0
0
0
0
0
0
0
0
0
0
0
0
0
0
0
0
0
0
0
0
0
0
0
0
0
0
0
0
0
0
0
0
0
0
0
0
0
0
0
0
0
0
0
0
0
0
0
0
0
0
0
0
0
0
0
0
0
0
0
0
0
0
0
0
0
0
0
0
0
0
0
0
0
0
0
0
0
0
0
0
0
0
0
0
0
0
0
0
0
0
0
0
0
0
0
0
0
0
0
0
0
0
0
0
0
0
0
0
0
0
0
0
0
0
0
0
0
0
0
0
0
0
0
0
0
0
0
0
0
0
0
0
0
0
0
0
0
0
0
0
0
0
0
0
0
0
0
0
0
0
0
0
0
0
0
0
0
0
0
0
0
0
0
0
0
0
0
0
0
0
0
0
0
0
0
0
0
0
0
0
0
0
0
0
0
0
0
0
0
0
0
0
0
0
0
0
0
0
0
0
0
0
0
0
0
0
0
0
0
0
0
0
0
0
0
0
0
0
0
0
0
0
0
0
0
0
0
0
0
0
0
0
0
0
0
0
0
0
0
0
0
0
0
0
0
0
0
0
0
0
0
0
0
0
0
0
0
0
0
0
0
0
0
0
0
0
0
0
0
0
0
0
0
0
0
0
0
0
0
0
0
0
0
0
0
0
0
0
0
0
0
0
0
0
0
0
0
0
0
0
0
0
0
0
0
0
0
0
0
0
0
0
0
0
0
0
0
0
0
0
0
0
0
0
0
0
0
0
0
0
0
0
0
0
0
0
0
0
0
0
0
0
0
0
0
0
0
0
0
0
0
0
0
0
0
0
0
0
0
0
0
0
0
0
0
0
0
0
0
0
0
0
0
0
0
0
0
0
0
0
0
0
0
0
0
0
0
0
0
0
0
0
0
0
0
0
0
0
0
0
0
0
0
0
0
0
0
0
0
0
0
0
0
0
0
0
0
0
0
0
0
0
0
0
0
0
0
0
0
0
0
0
0
0
0
0
0
0
0
0
0
0
0
0
0
0
0
0
0
0
0
0
0
0
0
0
0
0
0
0
0
0
0
0
0
0
0
0
0
0
0
0
0
0
0
0
0
0
0
0
0
0
0
0
0
0
0
0
0
0
0
0
0
0
0
0
0
0
0
0
0
0
0
0
0
0
0
0
0
0
0
0
0
0
0
0
0
0
0
0
0
0
0
0
0
0
0
0
0
0
0
0
0
0
0
0
0
0
0
0
0
0
0
0
0
0
0
0
0
0
0
0
0
0
0
0
0
0
0
0
0
0
0
0
0
0
0
0
0
0
0
0
0
0
0
0
0
0
0
0
0
0
0
0
0
0
0
0
0
0
0
0
0
0
0
0
0
0
0
0
0
0
0
0
0
0
0
0
0
0
0
0
0
0
0
0
0
0
0
0
0
0
0
0
0
0
0
0
0
0
0
0
0
0
0
0
0
0
0
0
0
0
0
0
0
0
0
0
0
0
0
0
0
0
0
0
0
0
0
0
0
0
0
0
0
0
0
0
0
0
0
0
0
0
0
0
0
0
0
0
0
0
0
0
0
0
0
0
0
0
0
0
0
0
0
0
0
0
0
0
0
0
0
0
0
0
0
0
0
0
0
0
0
0
0
0
0
0
0
0
0
0
0
0
0
0
0
0
0
0
0
0
0
0
0
0
0
0
0
0
0
0
0
0
0
0
0
0
0
0
0
0
0
0
0
0
0
0
0
0
0
0
0
0
0
0
0
0
0
0
0
0
0
0
0
0
0
0
0
0
0
0
0
0
0
0
0
0
0
0
0
0
0
0
0
0
0
0
0
0
0
2.45309107633e-08
-3.21296201775e-09
-1.01121476611e-09
4.40482103769e-08
-8.97800333064e-09
-2.70293718547e-09
4.40478889568e-08
-1.15250079941e-08
-3.2570674479e-09
4.40475674624e-08
-1.15152205526e-08
-3.01413029711e-09
4.40472460724e-08
-1.15054342628e-08
-2.77119196491e-09
4.40469245961e-08
-1.14956491344e-08
-2.52825246863e-09
2.45303124862e-08
-8.94199537876e-09
-1.80279524338e-09
0
-3.19667996052e-09
-6.01440152571e-10
0
0
0
0
0
0
0
0
0
0
0
0
0
0
0
0
0
0
0
0
0
0
0
0
0
0
0
0
0
0
0
0
6.95059558706e-08
-9.1120615875e-09
-3.08240797131e-09
2.07787947262e-07
-3.31217089157e-08
-1.17504693203e-08
2.78238983586e-07
-5.46722873209e-08
-1.93446448603e-08
2.7822748136e-07
-6.12935699747e-08
-2.06033867807e-08
2.78215979138e-07
-6.12380162509e-08
-1.90729862416e-08
2.78204476908e-07
-6.1182495287e-08
-1.75425540474e-08
2.78192974677e-07
-6.1127007074e-08
-1.601209024e-08
2.07748577019e-07
-5.44298892905e-08
-1.26776764021e-08
6.94995567646e-08
-3.29278525051e-08
-6.57698211989e-09
0
-9.04953646997e-09
-1.51921219758e-09
0
0
0
0
0
0
0
0
0
0
0
0
0
0
0
0
0
0
0
0
0
0
0
0
0
0
2.45257593968e-08
-3.21832350665e-09
-1.15728006044e-09
2.52782125317e-07
-2.72433140077e-08
-1.25197375511e-08
5.39985246329e-07
-7.07624925954e-08
-3.41252345759e-08
6.6275850958e-07
-1.0284266592e-07
-4.82382571896e-08
6.62696608861e-07
-1.12154981066e-07
-4.92438661848e-08
6.62634708147e-07
-1.12046805337e-07
-4.56018028028e-08
6.62572807453e-07
-1.11938739184e-07
-4.19596626314e-08
6.6251090669e-07
-1.11830782608e-07
-3.83174457236e-08
5.39738517822e-07
-1.02354490884e-07
-3.13507182283e-08
2.52709340853e-07
-7.03163724297e-08
-1.85655007206e-08
2.45247635179e-08
-2.70433790188e-08
-5.95874684186e-09
0
-3.19125725518e-09
-4.76752446158e-10
0
0
0
0
0
0
0
0
0
0
0
0
0
0
0
0
0
0
0
0
0
0
0
6.85650501718e-08
-5.77891567225e-09
-3.25270595569e-09
4.17519425162e-07
-3.64831340728e-08
-2.22651482816e-08
7.85312805563e-07
-8.68623562757e-08
-5.23925747048e-08
9.36274639073e-07
-1.22631079582e-07
-6.96106406387e-08
9.36149449286e-07
-1.32880819445e-07
-7.00112612283e-08
9.3602425954e-07
-1.32749509333e-07
-6.48605298723e-08
9.35899069761e-07
-1.326183529e-07
-5.97097544068e-08
9.35773880035e-07
-1.32487350143e-07
-5.45589348543e-08
7.84784576586e-07
-1.22034333919e-07
-4.51333790057e-08
4.17320736822e-07
-8.6301019101e-08
-2.81604493071e-08
6.85584061996e-08
-3.62087802463e-08
-1.03742679179e-08
0
-5.72998582028e-09
-1.33805892041e-09
0
0
0
0
0
0
0
0
0
0
0
0
0
0
0
0
0
0
0
0
0
0
0
8.80730378821e-08
-5.77891282515e-09
-4.20019579505e-09
4.6844073562e-07
-3.64830886409e-08
-2.56949797989e-08
8.57125505915e-07
-8.68626392065e-08
-5.8164907963e-08
1.0153741226e-06
-1.22632278315e-07
-7.62280497365e-08
1.01522487906e-06
-1.32882541982e-07
-7.64338035495e-08
1.01507563561e-06
-1.3275122578e-07
-7.08421277186e-08
1.01492639205e-06
-1.32620063229e-07
-6.52504518716e-08
1.01477714855e-06
-1.32489054412e-07
-5.96587760445e-08
8.56487042259e-07
-1.22036056382e-07
-4.94961201712e-08
4.68185951544e-07
-8.63022401151e-08
-3.12589466048e-08
8.80617552613e-08
-3.6209124222e-08
-1.19393044477e-08
0
-5.72999734885e-09
-1.73282109216e-09
0
0
0
0
0
0
0
0
0
0
0
0
0
0
0
0
0
0
0
0
0
0
0
8.80634945655e-08
-5.7789099902e-09
-4.21906457458e-09
4.68392090783e-07
-3.64830431748e-08
-2.58159817596e-08
8.57040474637e-07
-8.68629220837e-08
-5.84530484771e-08
1.01527535676e-06
-1.22633477119e-07
-7.66299166914e-08
1.01512619008e-06
-1.32884264547e-07
-7.68658485586e-08
1.01497702347e-06
-1.32752942231e-07
-7.12741727381e-08
1.01482785669e-06
-1.32621773595e-07
-6.56824968894e-08
1.0146786901e-06
-1.32490758611e-07
-6.0090821059e-08
8.56402339706e-07
-1.22037778798e-07
-4.98909953016e-08
4.68137437944e-07
-8.63034611796e-08
-3.15349164584e-08
8.80522177521e-08
-3.62094681972e-08
-1.20552924585e-08
0
-5.7300087701e-09
-1.75150574176e-09
0
0
0
0
0
0
0
0
0
0
0
0
0
0
0
0
0
0
0
0
0
0
0
8.80539511363e-08
-5.77890717555e-09
-4.23793324198e-09
4.68343443359e-07
-3.64829977327e-08
-2.59369812132e-08
8.56955434626e-07
-8.68632049415e-08
-5.87411828597e-08
1.01517657868e-06
-1.22634675891e-07
-7.70317801529e-08
1.01502748884e-06
-1.32885987145e-07
-7.72978935985e-08
1.01487839903e-06
-1.32754658729e-07
-7.17062177524e-08
1.01472930922e-06
-1.32623483901e-07
-6.61145419176e-08
1.0145802194e-06
-1.32492462887e-07
-6.05228660795e-08
8.5631762836e-07
-1.2203950128e-07
-5.02858740154e-08
4.68088921671e-07
-8.63046822252e-08
-3.18108924503e-08
8.80426800911e-08
-3.62098121529e-08
-1.21712829795e-08
0
-5.73002029846e-09
-1.77019045061e-09
0
0
0
0
0
0
0
0
0
0
0
0
0
0
0
0
0
0
0
0
0
0
0
8.80444076344e-08
-5.77890432902e-09
-4.25680184634e-09
4.68294793279e-07
-3.6482952244e-08
-2.60579781501e-08
8.56870385898e-07
-8.6863487908e-08
-5.90293111504e-08
1.01507778839e-06
-1.22635874684e-07
-7.74336400746e-08
1.01492877542e-06
-1.32887709726e-07
-7.77299386118e-08
1.01477976242e-06
-1.32756375157e-07
-7.21382627619e-08
1.0146307495e-06
-1.32625194236e-07
-6.65465869466e-08
1.01448173642e-06
-1.32494167054e-07
-6.09549110745e-08
8.56232908393e-07
-1.22041223731e-07
-5.06807561899e-08
4.68040402787e-07
-8.63059032372e-08
-3.20868745872e-08
8.80331423979e-08
-3.62101560926e-08
-1.22872760049e-08
0
-5.7300317192e-09
-1.78887526226e-09
0
0
0
0
0
0
0
0
0
0
0
0
0
0
0
0
0
0
0
0
0
0
0
6.8530172938e-08
-3.21831823131e-09
-3.32335919386e-09
4.17309043369e-07
-2.72431011527e-08
-2.2807014253e-08
7.8493005215e-07
-7.07634543879e-08
-5.37840498648e-08
9.35822286402e-07
-1.02847635407e-07
-7.1609959334e-08
9.35693223706e-07
-1.12162349982e-07
-7.21688621249e-08
9.35564161031e-07
-1.12054148146e-07
-6.70063363173e-08
9.35435098371e-07
-1.11946055764e-07
-6.18438545903e-08
9.35306035684e-07
-1.1183807302e-07
-5.66814169538e-08
7.84384000821e-07
-1.02361863927e-07
-4.70521844745e-08
4.17101198874e-07
-7.0321437038e-08
-2.94611679033e-08
6.85227838491e-08
-2.70446248387e-08
-1.08842330934e-08
0
-3.19127861903e-09
-1.40747308855e-09
0
0
0
0
0
0
0
0
0
0
0
0
0
0
0
0
0
0
0
0
0
0
0
2.45098217045e-08
0
-1.18936926015e-09
2.52609429757e-07
-9.11200489525e-09
-1.29440916832e-08
5.39619482049e-07
-3.31217731799e-08
-3.54380608876e-08
6.62307742824e-07
-5.46740100034e-08
-5.02792282002e-08
6.62238766114e-07
-6.12965103792e-08
-5.14830942557e-08
6.6216978944e-07
-6.12409460959e-08
-4.78205001398e-08
6.62100812627e-07
-6.11854146767e-08
-4.41579828296e-08
6.62031835965e-07
-6.11299161086e-08
-4.04955422649e-08
5.39341773547e-07
-5.44328370319e-08
-3.32823532719e-08
2.52523829253e-07
-3.2929608584e-08
-1.97808408626e-08
2.45084867478e-08
-9.04976542695e-09
-6.35825877136e-09
0
0
-5.08408742735e-10
0
0
0
0
0
0
0
0
0
0
0
0
0
0
0
0
0
0
0
0
0
0
0
0
0
0
6.94462911543e-08
0
-3.2065418427e-09
2.0760757912e-07
-3.21295318358e-09
-1.22881053254e-08
2.77994569239e-07
-8.97803473675e-09
-2.03271934765e-08
2.77980114654e-07
-1.15251381759e-08
-2.17322055888e-08
2.77965660077e-07
-1.15153502537e-08
-2.01933468633e-08
2.77951205399e-07
-1.15055634864e-08
-1.8654519815e-08
2.7793675087e-07
-1.14957779285e-08
-1.71157243662e-08
2.07557143801e-07
-8.94212519262e-09
-1.36201527753e-08
6.94377228633e-08
-3.19671565762e-09
-7.08872365056e-09
0
0
-1.64007750802e-09
0
0
0
0
0
0
0
0
0
0
0
0
0
0
0
0
0
0
0
0
0
0
0
0
0
0
0
0
0
0
0
0
2.45042130302e-08
0
-1.06419466056e-09
4.40003459844e-08
0
-2.85276152277e-09
4.39999160386e-08
0
-3.45010711326e-09
4.39994860661e-08
0
-3.2068593153e-09
4.3999056111e-08
0
-2.96361265301e-09
4.39986261682e-08
0
-2.72036719734e-09
2.45034128217e-08
0
-1.9513080543e-09
0
0
-6.54038572031e-10
0
0
0
0
0
0
0
0
0
0
0
0
0
0
0
0
0
0
0
0
0
0
0
0
0
0
0
0
0
0
0
0
0
0
0
0
0
0
0
0
0
0
0
0
0
0
0
0
0
0
0
0
0
0
0
0
0
0
0
0
0
0
0
0
0
0
0
0
0
0
0
0
0
0
0
0
0
0
0
0
0
0
0
0
0
0
0
0
0
0
0
0
0
0
0
0
0
0
0
0
0
0
0
0
0
0
0
0
0
0
0
0
0
0
0
0
0
0
0
0
0
0
0
0
0
0
0
0
0
0
0
0
0
0
0
0
0
0
0
0
0
0
0
0
0
0
0
0
0
0
0
0
0
0
0
0
0
0
0
0
0
0
0
0
0
0
0
0
0
0
0
0
0
0
0
0
0
0
0
0
0
0
0
0
0
0
0
0
0
0
0
0
0
0
0
0
0
0
0
0
0
0
0
0
0
0
0
0
0
0
0
0
0
0
0
0
0
0
0
0
0
0
0
0
0
0
0
0
0
0
0
0
0
0
0
0
0
0
0
0
0
0
0
0
0
0
0
0
0
0
0
0
0
0
0
0
0
0
0
0
0
0
0
0
0
0
0
0
0
0
0
0
0
0
0
0
0
0
0
0
0
0
0
0
0
0
0
0
0
0
0
0
0
0
0
0
0
0
0
0
0
0
0
0
0
0
0
0
0
0
0
0
0
0
0
0
0
0
0
0
0
0
0
0
0
0
0
0
0
0
0
0
0
0
0
0
0
0
0
0
0
0
0
0
0
0
0
0
0
0
0
0
0
0
0
0
0
0
0
0
0
0
0
0
0
0
0
0
0
0
0
0
0
0
0
0
0
0
0
0
0
0
0
0
0
0
0
0
0
0
0
0
0
0
0
0
0
0
0
0
0
0
0
0
0
0
0
0
0
0
0
0
0
0
0
0
0
0
0
0
0
0
0
0
0
4.39321128473e-08
-5.76473962449e-09
-1.93082626171e-09
1.38582100597e-07
-2.39377091799e-08
-7.65968438198e-09
1.82769052836e-07
-4.21261046694e-08
-1.26884707375e-08
1.82763487844e-07
-4.78814816396e-08
-1.34304758089e-08
1.82757922837e-07
-4.78387466427e-08
-1.24223060432e-08
1.82752357856e-07
-4.7796031748e-08
-1.14141161743e-08
1.82746792945e-07
-4.77533369268e-08
-1.04059062492e-08
1.38562898917e-07
-4.19423785727e-08
-8.28986330939e-09
4.39295381422e-08
-2.38003818864e-08
-4.28610062694e-09
0
-5.72545629783e-09
-9.47002030066e-10
0
0
0
0
0
0
0
0
0
0
0
0
0
0
0
0
0
0
0
0
0
0
0
0
0
0
1.00815195962e-07
-1.32410124962e-08
-4.75176531829e-09
3.99610294118e-07
-5.9928681511e-08
-2.27084609411e-08
7.55783100802e-07
-1.27673612626e-07
-4.84408838677e-08
9.13438268602e-07
-1.76771368501e-07
-6.34708034711e-08
9.1332950709e-07
-1.91474941317e-07
-6.36599378393e-08
9.13220745647e-07
-1.91277652158e-07
-5.88951439328e-08
9.13111984135e-07
-1.91080644049e-07
-5.41300878449e-08
9.13003222615e-07
-1.90883917027e-07
-4.93647696522e-08
7.5531503447e-07
-1.75864824754e-07
-4.08152742682e-08
3.99414211819e-07
-1.26795022412e-07
-2.57127243063e-08
1.00798262455e-07
-5.94487519816e-08
-1.02972195503e-08
0
-1.31260720507e-08
-1.90279065266e-09
0
0
0
0
0
0
0
0
0
0
0
0
0
0
0
0
0
0
0
0
4.39231688502e-08
-5.7743628002e-09
-2.19339644238e-09
4.56563497729e-07
-5.2488913379e-08
-2.42210608388e-08
1.21414193452e-06
-1.59387258972e-07
-7.46850779115e-08
1.94327629202e-06
-2.86616933243e-07
-1.25604511039e-07
2.24185013552e-06
-3.72010022014e-07
-1.47612084897e-07
2.24132903219e-06
-3.9589044884e-07
-1.43809420148e-07
2.24080792888e-06
-3.95435660938e-07
-1.33086808514e-07
2.24028682545e-06
-3.94981810627e-07
-1.22363508688e-07
2.23976572213e-06
-3.94528897988e-07
-1.11639520714e-07
1.94081222948e-06
-3.69861506533e-07
-9.37606239033e-08
1.21267803275e-06
-2.84366586993e-07
-6.40431228496e-08
4.56260680618e-07
-1.57927977792e-07
-3.17261667298e-08
4.39193114016e-08
-5.19827088043e-08
-9.12492159575e-09
0
-5.71563805376e-09
-7.2347010448e-10
0
0
0
0
0
0
0
0
0
0
0
0
0
0
0
0
0
1.82496366922e-07
-1.82150396477e-08
-9.21680180742e-09
9.73364329007e-07
-9.92868459551e-08
-5.62569133705e-08
2.18489465107e-06
-2.5516549532e-07
-1.37486807587e-07
3.25481808161e-06
-4.27111679634e-07
-2.06010183701e-07
3.67138501805e-06
-5.36202860098e-07
-2.30447649663e-07
3.67018824057e-06
-5.65985111007e-07
-2.21444105875e-07
3.66899146311e-06
-5.65291649846e-07
-2.05014909537e-07
3.66779468559e-06
-5.64599857941e-07
-1.885849049e-07
3.66659790807e-06
-5.63909735074e-07
-1.72154091986e-07
3.24891185795e-06
-5.32886549553e-07
-1.45313653545e-07
2.18079536635e-06
-4.23498265052e-07
-1.02354329168e-07
9.72095842252e-07
-2.52633928602e-07
-5.58540685228e-08
1.8243860135e-07
-9.82531313316e-08
-1.99917775932e-08
0
-1.80236829607e-08
-2.99465266847e-09
0
0
0
0
0
0
0
0
0
0
0
0
0
0
0
0
0
3.21371832567e-07
-2.40235437415e-08
-1.64196718207e-08
1.34883690204e-06
-1.20014779334e-07
-8.11073720379e-08
2.83841884003e-06
-2.94449837812e-07
-1.79515682707e-07
4.08978193665e-06
-4.81957445019e-07
-2.57339470787e-07
4.56865548966e-06
-5.99246308655e-07
-2.82291548334e-07
4.56690661664e-06
-6.31053875999e-07
-2.6977789919e-07
4.5651577436e-06
-6.30264081597e-07
-2.49880463309e-07
4.56340887052e-06
-6.29476274099e-07
-2.29982665659e-07
4.56165999738e-06
-6.28690453377e-07
-2.10084506235e-07
4.08100258971e-06
-5.95460668838e-07
-1.7766998115e-07
2.83193943754e-06
-4.77789594239e-07
-1.26532301793e-07
1.34649769433e-06
-2.91458424773e-07
-7.15435514525e-08
3.21194506169e-07
-1.18735260108e-07
-2.80170079941e-08
0
-2.37676249556e-08
-5.27202938356e-09
0
0
0
0
0
0
0
0
0
0
0
0
0
0
0
0
0
3.65556179886e-07
-2.40234953231e-08
-1.88093548861e-08
1.46240484734e-06
-1.20014456984e-07
-8.88791791115e-08
3.0238126815e-06
-2.9445092282e-07
-1.92260675209e-07
4.32175227601e-06
-4.8196483834e-07
-2.729067392e-07
4.81653444953e-06
-5.99263512442e-07
-2.9811990218e-07
4.81460456653e-06
-6.31076159716e-07
-2.8463924367e-07
4.81267468357e-06
-6.30286286261e-07
-2.63770887727e-07
4.81074480049e-06
-6.29498399637e-07
-2.42902531777e-07
4.80881491733e-06
-6.28712499831e-07
-2.22034175867e-07
4.31202451405e-06
-5.95484201548e-07
-1.87970009027e-07
3.01652698982e-06
-4.77810911214e-07
-1.34288646331e-07
1.4596749513e-06
-2.91470248639e-07
-7.65890881671e-08
3.65322065852e-07
-1.18738382828e-07
-3.06396776771e-08
0
-2.37678229527e-08
-6.04925239084e-09
0
0
0
0
0
0
0
0
0
0
0
0
0
0
0
0
0
3.65517655433e-07
-2.40234469133e-08
-1.88889809949e-08
1.46226663396e-06
-1.20014134581e-07
-8.92701342395e-08
3.02355550866e-06
-2.94452007774e-07
-1.93149469136e-07
4.32141156038e-06
-4.81972231669e-07
-2.74247641785e-07
4.81616563126e-06
-5.99280716272e-07
-2.9968996911e-07
4.81423674173e-06
-6.31098443515e-07
-2.86252441036e-07
4.81230785217e-06
-6.30308490933e-07
-2.65384085125e-07
4.81037896248e-06
-6.29520525145e-07
-2.44515729207e-07
4.80845007279e-06
-6.28734546223e-07
-2.23647373283e-07
4.31168880594e-06
-5.95507734321e-07
-1.89482720042e-07
3.01627356752e-06
-4.77832228134e-07
-1.35501416809e-07
1.45953814341e-06
-2.91482072472e-07
-7.73688097585e-08
3.65283661831e-07
-1.18741505527e-07
-3.098908953e-08
0
-2.37680209461e-08
-6.125695438e-09
0
0
0
0
0
0
0
0
0
0
0
0
0
0
0
0
0
3.65479129389e-07
-2.40233985231e-08
-1.89686054724e-08
1.46212839819e-06
-1.20013812105e-07
-8.96610684634e-08
3.0232982612e-06
-2.94453092731e-07
-1.94038208277e-07
4.32107071182e-06
-4.81979624914e-07
-2.7558848008e-07
4.81579665482e-06
-5.99297920042e-07
-3.01260007267e-07
4.81386875875e-06
-6.31120727282e-07
-2.87865638457e-07
4.81194086253e-06
-6.30330695569e-07
-2.66997282519e-07
4.81001296626e-06
-6.29542650769e-07
-2.46128926575e-07
4.80808507002e-06
-6.28756592705e-07
-2.25260570657e-07
4.31135296485e-06
-5.95531267063e-07
-1.90995459899e-07
3.01602007069e-06
-4.77853545063e-07
-1.36714251686e-07
1.45940131304e-06
-2.91493896225e-07
-7.81485861557e-08
3.65245256345e-07
-1.18744628212e-07
-3.13385222518e-08
0
-2.37682188745e-08
-6.20214006482e-09
0
0
0
0
0
0
0
0
0
0
0
0
0
0
0
0
0
3.65440601726e-07
-2.40233501464e-08
-1.90482283732e-08
1.46199013996e-06
-1.20013489835e-07
-9.00519818244e-08
3.02304093898e-06
-2.94454177705e-07
-1.94926892622e-07
4.32072973035e-06
-4.81987018272e-07
-2.76929254001e-07
4.81542752011e-06
-5.99315123873e-07
-3.02830016608e-07
4.81350061745e-06
-6.31143011066e-07
-2.89478835879e-07
4.81157371467e-06
-6.3035290024e-07
-2.68610479945e-07
4.80964681184e-06
-6.29564776248e-07
-2.47742123991e-07
4.80771990897e-06
-6.28778639115e-07
-2.26873768098e-07
4.31101699089e-06
-5.95554799839e-07
-1.92508228581e-07
3.01576649912e-06
-4.77874862006e-07
-1.37927150889e-07
1.45926446028e-06
-2.9150572008e-07
-7.89284173664e-08
3.6520684921e-07
-1.18747750945e-07
-3.16879758363e-08
0
-2.37684168052e-08
-6.27858629427e-09
0
0
0
0
0
0
0
0
0
0
0
0
0
0
0
0
0
3.21209292202e-07
-1.82148726556e-08
-1.67755916343e-08
1.3482250113e-06
-9.92852519717e-08
-8.30668873319e-08
2.83725501871e-06
-2.55170298223e-07
-1.84316715124e-07
4.08819686643e-06
-4.27147858603e-07
-2.6490290305e-07
4.5668858799e-06
-5.36289095952e-07
-2.91322505265e-07
4.56509053185e-06
-5.66097426881e-07
-2.79049387638e-07
4.5632951838e-06
-5.65403567006e-07
-2.59055146785e-07
4.56149983561e-06
-5.64711376293e-07
-2.3906126769e-07
4.55970448738e-06
-5.64020854697e-07
-2.19067750381e-07
4.07918218556e-06
-5.33004821435e-07
-1.8599457059e-07
2.83059604796e-06
-4.23603826076e-07
-1.33056417407e-07
1.34581410688e-06
-2.52690227594e-07
-7.55612861035e-08
3.21022713004e-07
-9.82668173483e-08
-2.97006062017e-08
0
-1.80243659753e-08
-5.60696973947e-09
0
0
0
0
0
0
0
0
0
0
0
0
0
0
0
0
0
1.82372966073e-07
-5.77434044698e-09
-9.49211284525e-09
9.72754324951e-07
-5.24878180182e-08
-5.82820210982e-08
2.1836469994e-06
-1.59389289591e-07
-1.43242737566e-07
3.25302263064e-06
-2.86641180475e-07
-2.15769323107e-07
3.6693075803e-06
-3.72073304202e-07
-2.42477326239e-07
3.66800637346e-06
-3.95974554931e-07
-2.3384890776e-07
3.66670516661e-06
-3.95519468362e-07
-2.17203448312e-07
3.66540395963e-06
-3.95065319438e-07
-2.00558797125e-07
3.66410275262e-06
-3.94612108179e-07
-1.83914954235e-07
3.24659592731e-06
-3.69949201094e-07
-1.56091072955e-07
2.17917208332e-06
-2.84440871177e-07
-1.1054934061e-07
9.71354442699e-07
-1.57962406464e-07
-6.05615419957e-08
1.8230359623e-07
-5.19889540813e-08
-2.17091502973e-08
0
-5.71572971517e-09
-3.25343058232e-09
0
0
0
0
0
0
0
0
0
0
0
0
0
0
0
0
0
4.3885278319e-08
0
-2.27097384386e-09
4.56181112595e-07
-1.32408642645e-08
-2.52877683942e-08
1.21318918091e-06
-5.99282537446e-08
-7.86220948922e-08
1.94179425182e-06
-1.27680209358e-07
-1.33223015443e-07
2.24009642185e-06
-1.76793800828e-07
-1.57534791954e-07
2.23949442007e-06
-1.91506450222e-07
-1.54187553296e-07
2.23889241821e-06
-1.91309049105e-07
-1.43280844539e-07
2.23829041634e-06
-1.91111929179e-07
-1.32374823959e-07
2.23768841449e-06
-1.90915090272e-07
-1.21469491581e-07
1.9389421794e-06
-1.75896969591e-07
-1.02687403992e-07
1.21148098061e-06
-1.26819087853e-07
-7.05442511569e-08
4.55813566051e-07
-5.9456886656e-08
-3.50460372204e-08
4.3880118831e-08
-1.31266755418e-08
-1.00746116923e-08
0
0
-7.99323589257e-10
0
0
0
0
0
0
0
0
0
0
0
0
0
0
0
0
0
0
0
0
1.00707793736e-07
0
-4.97992170924e-09
3.9919740338e-07
-5.76470571633e-09
-2.39955814184e-08
7.55011003208e-07
-2.39376737314e-08
-5.16431627238e-08
9.1249138025e-07
-4.21275766456e-08
-6.81473412807e-08
9.12356602544e-07
-4.78841834617e-08
-6.87079779178e-08
9.12221824768e-07
-4.78414387778e-08
-6.38730641168e-08
9.12087046998e-07
-4.77987142777e-08
-5.90384124628e-08
9.11952269287e-07
-4.77560099404e-08
-5.4204022998e-08
7.54427511856e-07
-4.19450872095e-08
-4.51345225297e-08
3.9894580108e-07
-2.3801878788e-08
-2.85807344513e-08
1.00685167542e-07
-5.72559410444e-09
-1.14659699318e-08
0
0
-2.12230809157e-09
0
0
0
0
0
0
0
0
0
0
0
0
0
0
0
0
0
0
0
0
0
0
0
0
0
0
4.38748597436e-08
0
-2.0458721273e-09
1.3840416533e-07
0
-8.1580283137e-09
1.82534363587e-07
0
-1.35893656834e-08
1.82526935592e-07
0
-1.44582700244e-08
1.82519507697e-07
0
-1.34447275149e-08
1.82512079614e-07
0
-1.24312050923e-08
1.82504651669e-07
0
-1.14177027641e-08
1.3837853556e-07
0
-9.16537041945e-09
4.38714230746e-08
0
-4.76864116331e-09
0
0
-1.06048999371e-09
0
0
0
0
0
0
0
0
0
0
0
0
0
0
0
0
0
0
0
0
0
0
0
0
0
0
0
0
0
0
0
0
0
0
0
0
0
0
0
0
0
0
0
0
0
0
0
0
0
0
0
0
0
0
0
0
0
0
0
0
0
0
0
0
0
0
0
0
0
0
0
0
0
0
0
0
0
0
0
0
0
0
0
0
0
0
0
0
0
0
0
0
0
0
0
0
0
0
0
0
0
0
0
0
0
0
0
0
0
0
0
0
0
0
0
0
0
0
0
0
0
0
0
0
0
0
0
0
0
0
0
0
0
0
0
0
0
0
0
0
0
0
0
0
0
0
0
0
0
0
0
0
0
0
0
0
0
0
0
0
0
0
0
0
0
0
0
0
0
0
0
0
0
0
0
0
0
0
0
0
0
0
0
0
0
0
0
0
0
0
0
0
0
0
0
0
0
0
0
0
0
0
0
0
0
0
0
0
0
0
0
0
0
0
0
0
0
0
0
0
0
0
0
0
0
0
0
0
0
0
0
0
0
0
0
0
0
0
0
0
0
0
0
0
0
0
0
0
0
0
0
0
0
0
0
0
0
0
0
0
0
0
0
0
0
0
0
0
0
0
0
0
0
0
0
0
0
0
0
0
0
0
0
0
0
0
0
0
0
0
0
0
0
0
0
0
0
0
0
0
0
0
0
0
4.38153723409e-08
-5.75536912101e-09
-1.92140652993e-09
1.38213896757e-07
-2.38988562522e-08
-7.62043869864e-09
1.8228345836e-07
-4.20574380605e-08
-1.26197380674e-08
1.82277886656e-07
-4.78031560754e-08
-1.33526104924e-08
1.82272314981e-07
-4.77604212748e-08
-1.23444405344e-08
1.82266743228e-07
-4.77177065704e-08
-1.13362504735e-08
1.82261171586e-07
-4.76750119406e-08
-1.03280402517e-08
1.38194672e-07
-4.18733779514e-08
-8.22164281671e-09
4.38127945368e-08
-2.37611218104e-08
-4.24747903352e-09
0
-5.71604028123e-09
-9.37652114358e-10
0
0
0
0
0
0
0
0
0
0
0
0
0
0
0
0
0
0
0
0
0
0
0
2.65677758055e-09
-3.49604519339e-10
-1.3148646897e-10
1.82280537561e-07
-2.43148717879e-08
-8.75602888553e-09
5.92583936426e-07
-9.60898343085e-08
-3.33134395714e-08
1.06290588279e-06
-1.93599745006e-07
-6.30486904267e-08
1.26039730647e-06
-2.62970248582e-07
-7.89797397868e-08
1.26023637451e-06
-2.82841921581e-07
-7.83244824353e-08
1.26007544262e-06
-2.82544005372e-07
-7.24239009586e-08
1.25991451063e-06
-2.82246551084e-07
-6.65228574722e-08
1.25975357881e-06
-2.81949558723e-07
-6.06213520275e-08
1.06217835305e-06
-2.6157441806e-07
-5.0430376197e-08
5.92213470533e-07
-1.92198635535e-07
-3.29061087736e-08
1.82224854245e-07
-9.52755817599e-08
-1.46768875896e-08
2.65676339799e-09
-2.40956059356e-08
-3.41733561762e-09
0
-3.46095540732e-10
-4.29810004709e-11
0
0
0
0
0
0
0
0
0
0
0
0
0
0
0
0
0
1.84925311906e-07
-2.39849339929e-08
-9.30888446494e-09
9.6806465104e-07
-1.27285719832e-07
-5.18260372605e-08
2.17775988476e-06
-3.17378976025e-07
-1.24529371147e-07
3.24334981762e-06
-5.18580141579e-07
-1.87257465814e-07
3.65832427523e-06
-6.4308729049e-07
-2.09971984121e-07
3.65738928811e-06
-6.7671512773e-07
-2.01811562756e-07
3.65645430089e-06
-6.7590331354e-07
-1.86647539432e-07
3.65551931376e-06
-6.75093357549e-07
-1.71481857609e-07
3.65458432677e-06
-6.742852599e-07
-1.56314517259e-07
3.23871911219e-06
-6.39137765714e-07
-1.3171395016e-07
2.17449949833e-06
-5.14147551829e-07
-9.24944627969e-08
9.67005983055e-07
-3.14154481153e-07
-5.02281227263e-08
1.84857371786e-07
-1.25919810307e-07
-1.81736715326e-08
0
-2.37277344557e-08
-2.9568197811e-09
0
0
0
0
0
0
0
0
0
0
0
0
0
0
4.38019570181e-08
-5.76980513776e-09
-2.31526117023e-09
7.31316687521e-07
-7.79715089841e-08
-3.79863240834e-08
2.41543620742e-06
-2.86385340738e-07
-1.35396140772e-07
4.48983094918e-06
-5.90148060924e-07
-2.5731795058e-07
6.11610079629e-06
-8.74815757258e-07
-3.44111053691e-07
6.72260585315e-06
-1.04259233669e-06
-3.65116539338e-07
6.72008344295e-06
-1.08671014815e-06
-3.45091212471e-07
6.7175610327e-06
-1.08528404969e-06
-3.19261968739e-07
6.71503862243e-06
-1.08386186522e-06
-2.93429981065e-07
6.71251621224e-06
-1.0824435948e-06
-2.67595249484e-07
6.10306473197e-06
-1.03553361559e-06
-2.2604836525e-07
4.47916856429e-06
-8.6648005517e-07
-1.62828527724e-07
2.41048025101e-06
-5.83391618895e-07
-9.65649669142e-08
7.30513012274e-07
-2.82886325556e-07
-4.30835673296e-08
4.37974540872e-08
-7.70428582419e-08
-1.11732146536e-08
0
-5.70131394703e-09
-6.02353648106e-10
0
0
0
0
0
0
0
0
0
0
0
1.81996446174e-07
-1.82007750155e-08
-9.72639742174e-09
1.47466751368e-06
-1.39867811514e-07
-7.91110189353e-08
3.94974150676e-06
-4.26640684119e-07
-2.26420616442e-07
6.65998050516e-06
-8.04295642565e-07
-3.84591603424e-07
8.68692852911e-06
-1.14175463728e-06
-4.85835272263e-07
9.42752241997e-06
-1.33629122107e-06
-5.00936002522e-07
9.42309689875e-06
-1.38671715723e-06
-4.69195421387e-07
9.41867137739e-06
-1.38480225618e-06
-4.34258562792e-07
9.41424585612e-06
-1.38289307094e-06
-3.99319094153e-07
9.40982033466e-06
-1.38098960147e-06
-3.64377015457e-07
8.66356791784e-06
-1.32674557697e-06
-3.07905509054e-07
6.63945238855e-06
-1.13021732219e-06
-2.23808187439e-07
3.9385171391e-06
-7.94468796472e-07
-1.37643626081e-07
1.47191728394e-06
-4.21036447796e-07
-6.7428832305e-08
1.81929028753e-07
-1.38079822087e-07
-2.15879707529e-08
0
-1.79777105378e-08
-2.49562701824e-09
0
0
0
0
0
0
0
0
0
0
0
3.20497860544e-07
-2.40047999783e-08
-1.73230001298e-08
2.00493364368e-06
-1.65877135054e-07
-1.09843952269e-07
4.90288532642e-06
-4.81368713624e-07
-2.85580581624e-07
7.94516315992e-06
-8.84449209756e-07
-4.63717177548e-07
1.01768073855e-05
-1.23979282787e-06
-5.72126052397e-07
1.09845608432e-05
-1.44326335705e-06
-5.82864289794e-07
1.097876277e-05
-1.49576008335e-06
-5.43965839775e-07
1.09729646966e-05
-1.49366066914e-06
-5.03716311413e-07
1.09671666231e-05
-1.49156767652e-06
-4.63465715543e-07
1.09613685495e-05
-1.48948110539e-06
-4.23214052213e-07
1.01459147124e-05
-1.43279357804e-06
-3.57835884752e-07
7.91717061588e-06
-1.22706957444e-06
-2.61079076466e-07
4.88653592492e-06
-8.73455767523e-07
-1.62804026982e-07
2.00023745e-06
-4.74917736152e-07