/*--------------------------------*- C++ -*----------------------------------*\
| =========                 |                                                 |
| \\      /  F ield         | OpenFOAM: The Open Source CFD Toolbox           |
|  \\    /   O peration     | Version:  3.0.1                                 |
|   \\  /    A nd           | Web:      www.OpenFOAM.org                      |
|    \\/     M anipulation  |                                                 |
\*---------------------------------------------------------------------------*/
FoamFile
{
    version     2.0;
    format      ascii;
    class       volScalarField;
    location    "4.8";
    object      nut;
}
// * * * * * * * * * * * * * * * * * * * * * * * * * * * * * * * * * * * * * //

dimensions      [0 2 -1 0 0 0 0];

internalField   nonuniform List<scalar> 
7968
(
0.000137208532252
0.000146837614375
0.000153962088652
0.000158246185966
0.000160613126359
0.000161696900706
0.000161977888336
0.000161789424084
0.00016143114565
0.000161113477221
0.000161103261676
0.000161412835996
0.000161770362385
0.000161962777903
0.000161689591767
0.000160616436553
0.000158259716711
0.000153982564252
0.000146857165209
0.000137219991081
0.000146843960737
0.000178976569997
0.000197159827272
0.000206899911968
0.0002117367102
0.000213568406823
0.000213735117675
0.000213121965273
0.000212414713426
0.00021197707249
0.000211958565003
0.000212366469843
0.000213058151227
0.00021367086832
0.000213514109398
0.00021169821885
0.000206877508532
0.000197154319542
0.000178981744904
0.00014685008733
0.000153982996067
0.000197172247643
0.000220296063974
0.000232491051742
0.000238530019885
0.000240846442479
0.000241085988664
0.000240424805985
0.000239675334387
0.000239227373931
0.000239199191057
0.000239601637097
0.000240327446356
0.000240988330458
0.000240760873733
0.000238460394039
0.000232437751911
0.00022026081757
0.000197154161319
0.000153976092573
0.000158272481567
0.000206921678852
0.000232499602268
0.000245747880893
0.000252062579704
0.000254219357059
0.000254152775324
0.000253215877446
0.000252329857607
0.000251847501301
0.000251808056751
0.000252226976284
0.000253080372267
0.000254023600666
0.000254108865726
0.000251967457476
0.000245664462933
0.000232432014761
0.000206873236196
0.000158244174228
0.000160643345663
0.000211756668821
0.000238539108844
0.000252061012763
0.000258013676836
0.00025961209246
0.000260417540737
0.000260356832635
0.000259915438476
0.00025957414963
0.000259536483129
0.000259820632632
0.000260238390194
0.000260305234274
0.000259495585296
0.000257911318533
0.000251960235403
0.00023844526816
0.000211679067957
0.000160591725287
0.000161728476648
0.000213585409782
0.000240846579048
0.000254199760518
0.000259587569056
0.000262924264469
0.000264261950544
0.000264269702323
0.000263786114161
0.000263389905867
0.000263343397792
0.000263671559306
0.000264132965683
0.000264142580224
0.000262829792193
0.000259503540751
0.000254105007679
0.000240744338994
0.000213494328242
0.000161659729969
0.000162007119284
0.000213742859096
0.000241068545768
0.000254102953542
0.000260385443513
0.000264244461232
0.000265552343035
0.000265335515179
0.000264618113978
0.000264072543791
0.000264013700489
0.000264475215138
0.000265169531567
0.000265416487124
0.000264149917994
0.000260317014031
0.000254029951328
0.00024097333649
0.000213648392378
0.000161930828286
0.000161813384342
0.000213119324857
0.000240392748993
0.000253143927125
0.000260312741487
0.000264241344491
0.000265325934275
0.000264756863923
0.000263700408919
0.000262939210407
0.000262867271713
0.000263527539556
0.000264556761267
0.00026516638869
0.000264137990043
0.000260248516096
0.000253088995365
0.000240308821954
0.00021303024049
0.000161736745953
0.000161448808078
0.000212406845866
0.000239641934637
0.000252265067283
0.000259877674939
0.000263768624206
0.000264625502839
0.000263721286418
0.000262301159673
0.000261261425432
0.000261176484451
0.000262099749483
0.000263490194207
0.00026444001133
0.000263650541012
0.000259808601205
0.000252212178592
0.000239563559768
0.00021232375099
0.000161374520789
0.000161125026402
0.000211969934096
0.000239203901125
0.000251807812626
0.000259559012705
0.000263403465074
0.000264121165773
0.000263008629423
0.000261313517176
0.000260035057606
0.00025994034103
0.000261092905649
0.000262755869929
0.000263916442356
0.000263271883742
0.00025948157541
0.000251746495878
0.000239124566417
0.000211888002479
0.000161049851298
0.000161109927846
0.000211955748758
0.000239189719822
0.00025179410711
0.00025954653737
0.000263391175431
0.000264107919459
0.00026299290573
0.000261293454027
0.000260010271398
0.000259914875422
0.000261071608907
0.000262738937173
0.000263901984632
0.000263258227406
0.00025946727383
0.000251729304704
0.000239106033733
0.000211868958477
0.000161029883151
0.000161417775382
0.000212367733988
0.000239601361661
0.000252224615452
0.000259842084212
0.000263733948634
0.000264588947995
0.000263679744598
0.000262251579236
0.000261204123493
0.000261117816708
0.00026204760777
0.000263446081882
0.000264400707977
0.000263612493109
0.000259768234441
0.000252162599727
0.000239511938977
0.000212272750265
0.000161333628486
0.000161775206291
0.000213060211748
0.000240328384069
0.000253075750896
0.000260255154955
0.000264185290862
0.000265267229878
0.00026469193554
0.000263628304618
0.000262860522044
0.000262787347091
0.000263452925494
0.000264488919362
0.000265104177225
0.000264077242007
0.000260184022889
0.000253007922117
0.000240229523776
0.000212955404168
0.00016168676361
0.000161968270102
0.000213672595895
0.000240988139671
0.000254013590758
0.000260308276466
0.000264169959177
0.000265474851583
0.000265251644013
0.000264527316052
0.000263976720921
0.000263916722161
0.000264381754725
0.000265082061117
0.000265334341271
0.000264069153174
0.000260230882985
0.000253925703662
0.000240875838717
0.000213560217269
0.000161879742458
0.000161695022759
0.000213514925424
0.000240761582215
0.000254100721426
0.000259475449785
0.000262830884674
0.000264170419866
0.000264172216403
0.000263682617176
0.000263282411524
0.00026323460648
0.000263564686078
0.000264030412747
0.000264044441884
0.00026272741905
0.00025937761363
0.000253988946084
0.000240640167471
0.000213404067196
0.000161614549079
0.000160619712604
0.000211694403442
0.000238461192067
0.000251965903441
0.000257897262463
0.000259478487307
0.000260310363169
0.000260244369713
0.000259798117862
0.000259453447865
0.000259414150082
0.000259698644023
0.00026011833264
0.000260188136724
0.000259347081136
0.000257777519189
0.000251845646528
0.000238346462406
0.000211597275174
0.000160557472018
0.000158261004024
0.000206877076985
0.00023243969932
0.00024566939626
0.000251961017239
0.000254093671643
0.000254004833867
0.000253050821267
0.000252161522829
0.00025167660447
0.000251634398265
0.000252050097899
0.000252900715564
0.000253858414604
0.000253964161923
0.000251844916809
0.000245563695124
0.00023234972372
0.000206808649082
0.000158223184818
0.000153981598967
0.000197149448637
0.000220260614824
0.000232437336749
0.0002384535637
0.000240746880212
0.000240965607483
0.000240287791243
0.000239526767342
0.000239070902599
0.000239039074061
0.000239442771146
0.000240174265455
0.000240848475207
0.000240639874584
0.000238360494628
0.000232360513371
0.000220203363163
0.000197112122394
0.000153967226173
0.000146850549919
0.00017897489122
0.000197150617143
0.000206875231707
0.000211690815293
0.000213501480302
0.000213649974247
0.000213021130061
0.000212301105876
0.0002118544764
0.000211832012596
0.000212242235152
0.000212941205598
0.000213566599017
0.000213426367033
0.000211629584303
0.000206832321183
0.000197125623366
0.000178964109759
0.000146851828727
0.000137213037194
0.000146844499672
0.000153967756717
0.000158245973301
0.000160602511524
0.000161673916966
0.000161943659561
0.000161744630409
0.00016137682878
0.000161050811414
0.000161036310696
0.000161349374976
0.000161713539655
0.00016191542189
0.000161653527869
0.000160593404173
0.000158248971579
0.000153979542369
0.000146857821517
0.000137221846552
0.000145570876069
0.000173199910161
0.000190506932448
0.000200585739715
0.000206240789585
0.00020907580373
0.000210164365117
0.000210283904575
0.00021003553237
0.000209804856466
0.000209789874812
0.000209996546011
0.000210231252299
0.000210108129775
0.000209023188777
0.000206196338933
0.000200551795922
0.000190484519634
0.000173190039548
0.000145584264764
0.000173210404455
0.00056311377539
0.000731135573634
0.000812061626762
0.000849009052725
0.000861508477662
0.000861337823788
0.000855815057445
0.000849926140273
0.000846329166664
0.00084611184575
0.000849334358294
0.000854964940694
0.000860350886076
0.000860456719283
0.000847919472752
0.000810979284961
0.000730143164012
0.000562403645061
0.000173167851474
0.000190528425294
0.000731188172901
0.000989509262855
0.00112206719285
0.0011889766993
0.00121806836615
0.00122597928567
0.00122399558551
0.00121950407649
0.0012163117864
0.0012159899348
0.00121863021731
0.00122274997251
0.00122457640102
0.00121663093202
0.00118753881545
0.00112066659114
0.000988252391218
0.000730324855252
0.000190459337534
0.00020061417513
0.000812169085814
0.00112214437623
0.00128540569119
0.00137003359915
0.00140856274446
0.00141999309297
0.00141908050129
0.00141605204083
0.00141373708423
0.00141334202353
0.00141497797376
0.00141746368751
0.00141826571219
0.00140691454172
0.00136842740337
0.00128383575395
0.00112072150757
0.00081120223046
0.000200522874273
0.000206272922304
0.000849141640501
0.0011890905701
0.00137006365928
0.00146351834796
0.00150474365862
0.00150898218957
0.00149938960478
0.00148970840299
0.0014841659466
0.00148347010016
0.0014878746522
0.001497014744
0.00150672521963
0.00150299179832
0.00146184565491
0.00136841913197
0.00118757861118
0.000848127613729
0.000206162500569
0.000209106702385
0.000861607338495
0.00121814467725
0.00140852213524
0.00150467595959
0.00152971501609
0.00152030949088
0.00150159555411
0.00148619503161
0.00147791470462
0.00147694402066
0.0014836611549
0.00149846424015
0.00151756155289
0.00152761618127
0.00150301147173
0.00140690680197
0.00121664484291
0.000860628849402
0.000208985266599
0.00021018938512
0.000861380948025
0.00122597571333
0.00141980767455
0.00150855011745
0.00151999882694
0.00149955428434
0.00147276124745
0.0014522666945
0.00144152064264
0.00144028301761
0.00144903135634
0.00146882311397
0.00149630193368
0.00151767216077
0.0015068455216
0.00141825709684
0.00122454944645
0.00086048177896
0.000210066888421
0.000210301480227
0.000855831593845
0.00122396910205
0.00141888412683
0.00149886172334
0.00150116145952
0.00147264256416
0.00143944135217
0.00141498209844
0.00140250591669
0.00140106622359
0.00141118586628
0.00143470097108
0.00146877760104
0.00149851277478
0.00149705150852
0.0014173282093
0.00122259573246
0.000855000607863
0.000210183998944
0.000210047326015
0.000849983452565
0.00121957745721
0.00141613321222
0.00148950353
0.00148621930366
0.00145278589927
0.0014157199321
0.0013888900945
0.00137469695648
0.00137310760288
0.00138465512041
0.00141039477652
0.00144830516229
0.00148315932949
0.00148746230443
0.00141450716699
0.00121820073562
0.000849181076955
0.000209935823866
0.000209814224354
0.00084648282898
0.00121655977315
0.00141410106906
0.0014845444121
0.00147881850966
0.0014431874692
0.00140452763831
0.00137602064965
0.00136092277234
0.00135926600822
0.00137156191713
0.00139883221296
0.00143829656235
0.00147543230611
0.00148229732036
0.00141239359561
0.00121515582344
0.000845680188277
0.000209704835244
0.000209800785997
0.00084637882569
0.00121642881563
0.00141398005247
0.00148442494887
0.00147871142203
0.00144308704843
0.0014044227841
0.00137589749997
0.00136078453824
0.00135912034179
0.00137142375763
0.00139871438295
0.0014381834515
0.00147531137655
0.0014821657486
0.00141226647281
0.00121501425551
0.000845568765807
0.000209687703673
0.000210010831713
0.000849676918522
0.00121919088966
0.00141577035721
0.00148913161673
0.00148587258015
0.00145246342872
0.00141540316008
0.00138854523304
0.00137432021346
0.00137270989784
0.00138427359911
0.00141005065648
0.00144795681123
0.00148278239501
0.00148705862945
0.00141412635725
0.00121778688243
0.000848857284897
0.000209890501616
0.000210248179295
0.000855328620547
0.00122333360602
0.00141824507051
0.00149819197214
0.00150048795831
0.00147197723877
0.00143876723642
0.00141432042459
0.00140181914576
0.0014003616802
0.00141049695542
0.00143401086922
0.0014680960302
0.00149780958836
0.00149633854844
0.00141664972827
0.00122192174381
0.000854475983516
0.000210119344123
0.000210127713671
0.000860710118125
0.00122513191276
0.00141893824487
0.00150761807089
0.00151897400344
0.00149846042061
0.0014716248925
0.00145110837554
0.0014403468275
0.00143909452852
0.0014478479784
0.00146766635649
0.00149518564965
0.00151661008608
0.00150586203224
0.00141733730021
0.00122365743532
0.000859784605313
0.000209992788216
0.000209045304645
0.000860822143037
0.00121717149824
0.00140752612853
0.00150375560669
0.00152850580881
0.00151889774683
0.00150008651111
0.00148464918708
0.0014763505516
0.00147536516797
0.00148208151994
0.00149691342314
0.00151610336734
0.00152635696011
0.00150204323776
0.0014058464233
0.00121560739966
0.000859806142857
0.000208910901146
0.000206219373637
0.000848305171681
0.00118808186651
0.00136901192093
0.00146244865533
0.0015037263784
0.00150750967052
0.00149777695558
0.0014880749181
0.00148250919699
0.00148179992889
0.00148620335103
0.0014953424145
0.00150518405822
0.00150191959479
0.00146070214274
0.00136727954179
0.00118648298082
0.000847232754132
0.000206095656297
0.000200574169112
0.000811379426268
0.00112121341341
0.00128441930333
0.00136898802625
0.00140745212045
0.00141876582977
0.00141782935681
0.00141501663571
0.00141271629218
0.00141231201784
0.00141391472119
0.00141615084605
0.00141696560743
0.00140572142783
0.00136728385757
0.0012827395713
0.00111968282597
0.000810334920615
0.000200469564399
0.000190504221792
0.000730540148043
0.000988771154124
0.0011212737094
0.00118811336901
0.00121713160385
0.00122497417727
0.00122295217371
0.00121845707239
0.00121524655807
0.00121491248183
0.00121754742253
0.00122164769208
0.00122349623165
0.00121560523579
0.00118657198955
0.00111975895021
0.00098740029411
0.000729588684966
0.00019042258334
0.00017320271286
0.000562732616554
0.000730725013221
0.000811614752141
0.000848509820136
0.000860959072268
0.000860749536271
0.000855198857025
0.000849289931354
0.000845676585611
0.000845451158704
0.000848674982593
0.000854311171693
0.000859714625032
0.00085984913656
0.000847349105738
0.000810449045127
0.00072964392173
0.00056194411286
0.000173150036015
0.000145575271774
0.00017318194778
0.000190478559415
0.000200547742069
0.000206190904986
0.000209012794629
0.000210088979123
0.000210197011235
0.000209938221212
0.000209699619107
0.000209681427176
0.000209890774639
0.000210131961846
0.000210018500404
0.000208945263733
0.000206131485594
0.000200499459626
0.000190442681794
0.000173160874342
0.000145585834453
0.000151815856268
0.000188546917243
0.000210796507618
0.000223754886086
0.000231174887163
0.000235102303684
0.000236863728506
0.00023741006413
0.000237435594933
0.000237351589189
0.00023733161259
0.000237380842885
0.000237331038872
0.000236771564222
0.000235006037157
0.000231081104041
0.000223668807549
0.000210723533572
0.000188497782956
0.000151831157755
0.000188562890475
0.00070396352371
0.000943622381164
0.00106200764692
0.00111794054298
0.00113901351206
0.00114174967824
0.0011366069003
0.00113025144346
0.00112617412504
0.00112579427952
0.00112920223781
0.00113507743332
0.0011399276476
0.00113701571327
0.00111582309072
0.0010598640027
0.000941625821384
0.000702490847304
0.000188464541834
0.0002108233535
0.000943692335675
0.00134213274705
0.00155760265367
0.0016714993375
0.00172518881636
0.00174433937885
0.00174653162514
0.00174265093552
0.00173899201119
0.00173838984306
0.00174100952483
0.00174421333524
0.00174167916539
0.00172241441221
0.00166870207282
0.00155486047685
0.00133964281555
0.000941932336713
0.000210683819978
0.000223789987385
0.00106217229325
0.00155773162567
0.00183759800039
0.00199164937824
0.00206868585167
0.00209962785249
0.00210849789177
0.00210690141805
0.00210365757319
0.00210282507315
0.00210466337735
0.00210551274135
0.0020962899786
0.00206540553356
0.00198850175332
0.00183457532345
0.00155499765558
0.00106025814594
0.000223624534495
0.000231215044132
0.00111816966905
0.00167172147225
0.00199173783868
0.00216986502915
0.00225895552193
0.00229019495587
0.00229384584732
0.00228818557342
0.00228286195855
0.00228167580427
0.00228498465363
0.00228942457781
0.00228561969512
0.00225499378515
0.00216638050378
0.00198850971761
0.00166883114194
0.00111618145705
0.00023102964951
0.000235142099329
0.00113923893463
0.00172541660541
0.00206875254756
0.00225891901574
0.00234345490862
0.00236667491299
0.00236141614624
0.00234904145797
0.00234021845342
0.00233861642441
0.00234467078918
0.00235512235309
0.00235996847619
0.00233804555614
0.00225494873602
0.00206536508166
0.00172246985615
0.00113729035357
0.000234946600206
0.000236897566715
0.00114194060961
0.00174453489622
0.00209967519892
0.0022901941451
0.00236713363815
0.00237941794387
0.00236338774414
0.00234316739157
0.00233031186535
0.00232832483974
0.00233766450152
0.00235512587976
0.00237008988637
0.00235940123428
0.00228534435329
0.00209608747619
0.0017415830648
0.00114008223531
0.000236703675609
0.000237436123397
0.00113680599388
0.00174678749042
0.00210878591692
0.00229441524473
0.00236318528095
0.00236505208212
0.00233917036273
0.00231173484543
0.00229510666461
0.00229281749839
0.00230528434209
0.00232922592652
0.00235350262658
0.00235319916751
0.00228839576532
0.00210486706387
0.0017437902775
0.00113501467616
0.000237251717317
0.000237455818149
0.00113055131662
0.00174311232521
0.00210756467197
0.00228972343058
0.0023524564966
0.00234699183622
0.00231411864029
0.00228133559757
0.00226183622159
0.00225932334313
0.00227416178792
0.00230292160709
0.0023339021896
0.00234101743854
0.00228275404147
0.00210323354053
0.00174001508235
0.00112877472199
0.00023728258396
0.000237370608827
0.00112665878574
0.00173980610952
0.00210495373176
0.00228550181742
0.00234526788807
0.00233619526553
0.00229976514351
0.00226418433343
0.0022431621768
0.00224052623426
0.00225661185951
0.00228789827158
0.00232229809058
0.00233310484605
0.00227803308481
0.00210036304859
0.00173662151097
0.00112486795873
0.000237203058327
0.000237355753278
0.00112648772056
0.00173958409722
0.00210474768938
0.00228532653296
0.00234512263819
0.00233606001879
0.00229961583194
0.00226401334768
0.00224297288239
0.00224032811153
0.00225642362099
0.00228773497695
0.0023221518113
0.00233294892834
0.00227784737901
0.00210014587864
0.00173638843107
0.00112468958031
0.000237184387132
0.00023741278964
0.00113004118528
0.00174245607633
0.00210695524003
0.00228919316488
0.00235201215162
0.00234659623442
0.002313717884
0.00228090745712
0.00226137507036
0.00225883941774
0.00227369301076
0.00230249206327
0.00233348687019
0.00234055203278
0.00228219824955
0.00210259632759
0.00173933330444
0.00112825180746
0.000237230623866
0.000237369503859
0.00113596207079
0.00174571627538
0.00210779792308
0.00229351388923
0.00236242384315
0.00236440747372
0.00233857189265
0.00231113976543
0.0022944920758
0.0022921815531
0.00230465348972
0.00232860789402
0.00235284626386
0.00235241713855
0.00228746148178
0.00210385019823
0.00174269037645
0.00113416247619
0.00023717372418
0.000236815964782
0.00114080061181
0.00174309951073
0.00209828846743
0.00228890608708
0.00236600574459
0.00237846967689
0.00236254389006
0.00234235395494
0.0023294911437
0.00232748510398
0.00233681495148
0.00235425238215
0.00236911685736
0.00235823934401
0.00228401000977
0.00209465573346
0.00174011138614
0.00113893460211
0.000236609425317
0.000235055764542
0.00113788413576
0.00172373625913
0.00206709660895
0.00225733120209
0.00234192847808
0.00236527517459
0.00236013006771
0.00234778075831
0.00233894515054
0.00233732458829
0.00234336681749
0.00235378527068
0.00235851693912
0.00233646282554
0.00225329577357
0.00206364228906
0.0017207309724
0.00113591324703
0.000234846426872
0.000231133509893
0.00111670841269
0.00166995745112
0.00198997986347
0.00216813576874
0.00225721017593
0.00228840393534
0.0022920709416
0.0022863706652
0.00228101187257
0.00227980888115
0.00228312486366
0.00228758696394
0.00228375516898
0.00225316749756
0.00216456208877
0.00198665172273
0.00166697313616
0.00111466668757
0.000230933063357
0.000223720899746
0.00106075974482
0.00155606655615
0.00183591878072
0.00198995927229
0.00206695806438
0.00209788004731
0.00210684901372
0.00210504230349
0.00210173243943
0.00210088225761
0.00210275557794
0.00210379950869
0.00209445553348
0.00206357761265
0.00198669372795
0.00183276299393
0.0015532025526
0.00105875810015
0.00022353945044
0.000210771559253
0.000942489906015
0.00134076016661
0.00155619873613
0.00167005143997
0.0017236822141
0.00174278316492
0.00174494285184
0.00174098692942
0.00173727923357
0.00173665929456
0.00173929586758
0.00174255119157
0.00174003306093
0.00172080217266
0.00166712883099
0.00155331373638
0.00133812404653
0.000940619538378
0.000210616073668
0.000188533570284
0.000703194636846
0.000942792309278
0.00106114816097
0.00111703267455
0.0011380602188
0.00114076398378
0.00113559620328
0.00112920817435
0.00112510490168
0.00112471436086
0.00112812941789
0.00113402180173
0.00113888867884
0.00113599832453
0.00111483251563
0.00105890229905
0.000940680552727
0.000701620286041
0.000188421575958
0.000151819860115
0.000188502111215
0.000210733890047
0.000223680256917
0.000231087179434
0.000235000634214
0.000236748917094
0.000237283467281
0.000237298337195
0.000237206600621
0.000237183296854
0.000237234551063
0.000237190742088
0.000236640843381
0.000234887456262
0.000230976006783
0.000223576796285
0.000210644133922
0.000188438765295
0.00015183241967
0.000156122614555
0.000199002385529
0.000224336127584
0.000239104965678
0.000247732235544
0.000252515984796
0.000254909797274
0.000255931071639
0.000256294799312
0.00025639463815
0.0002563724051
0.000256231583447
0.000255836101651
0.000254792567297
0.000252385350164
0.000247597375093
0.000238975200378
0.000224220891554
0.000198918849273
0.000156143405423
0.000199027183109
0.0007965292929
0.00107930891071
0.00122129446921
0.00129096503232
0.00132016688919
0.00132784550251
0.0013259298662
0.00132172797305
0.00131877473381
0.00131825124617
0.00132025352409
0.00132373319266
0.00132516893444
0.00131716917178
0.0012877515231
0.00121802479476
0.00107625247875
0.00079423464505
0.000198870627263
0.000224372978243
0.00107938513377
0.001562610626
0.00183004063758
0.0019759554528
0.00204905185886
0.00207975627195
0.00208830497854
0.00208771894193
0.00208539943398
0.00208452781788
0.00208531084092
0.00208485036654
0.00207578803867
0.00204490316453
0.00197178370955
0.00182596091711
0.00155887981495
0.00107666118349
0.000224162224122
0.000239151776734
0.00122152545435
0.00183023856
0.00218378277754
0.00238501123732
0.00249153484719
0.00254074985764
0.00255757828493
0.00255950618897
0.00255749711493
0.00255623828328
0.00255603064186
0.00255242367527
0.00253489408569
0.00248610923551
0.00238016566096
0.0021792186943
0.00182609955833
0.00121849458141
0.000238907788607
0.000247786872887
0.00129135150436
0.00197635595594
0.00238520677504
0.0026218993709
0.00274817901367
0.00280281747661
0.00281854405064
0.00281797323648
0.00281409986476
0.00281233568636
0.00281297287788
0.00281069856987
0.00279325503982
0.00273932753519
0.00261542989477
0.00238009988943
0.00197182609704
0.00128807828771
0.000247516388912
0.00025257273789
0.00132065274972
0.002049586931
0.00249192097535
0.00274903834771
0.00287959013269
0.00293024948
0.00293860760897
0.00293149409677
0.0029238677569
0.00292161834557
0.00292488277215
0.00292767098044
0.00291581626644
0.00286499067386
0.00273854698888
0.0024857867874
0.00204472357496
0.00131727307515
0.000252289056044
0.000254960747764
0.00132838266183
0.00208040058626
0.0025419886565
0.00280630635174
0.00293361465282
0.00297464056585
0.00297186271511
0.00295602410484
0.00294385079018
0.00294128126854
0.00294830719343
0.00295845048408
0.00295577648299
0.0029128623787
0.00279014056456
0.00253365877592
0.00207524653582
0.00132499206536
0.00025468146587
0.00025597177478
0.00132654774055
0.00208915677336
0.00256035181229
0.0028253385204
0.00294618598076
0.0029762946585
0.00296225962766
0.00293780824101
0.00292124393672
0.00291851842864
0.00292947719331
0.00294722884735
0.00295433313042
0.00292083062157
0.00280450542542
0.00254947954399
0.0020836989868
0.00132316405919
0.000255710890174
0.000256325548184
0.00132251722875
0.00208897931834
0.00256365742615
0.00282735767574
0.00294249513806
0.00296423608907
0.00294166925565
0.00291053033214
0.00289051311063
0.0028876578388
0.0029017065682
0.00292548305977
0.00294035341988
0.00291459373521
0.002804068128
0.00255134988402
0.00208324003191
0.00131912554714
0.000256087398942
0.000256421126242
0.00131981871584
0.00208723397297
0.00256279123478
0.00282540188239
0.00293745330567
0.0029548786298
0.00292783771326
0.00289316870879
0.00287129801519
0.00286835685969
0.00288405006977
0.00291103537779
0.00293004395981
0.00290845224856
0.00280116623928
0.00254993121636
0.0020813124044
0.00131640515393
0.000256196257195
0.000256404982617
0.00131958453078
0.0020869553182
0.00256256104549
0.00282524157603
0.0029373435295
0.00295476633675
0.0029276763917
0.00289296150688
0.00287106302945
0.00286811563968
0.00288383277242
0.00291086734894
0.00292992507846
0.00290834159549
0.00280101023816
0.00254969964001
0.00208102379728
0.0013161562296
0.000256175572698
0.00025627649714
0.00132180413056
0.00208814456949
0.00256297089735
0.00282688615145
0.00294220712566
0.0029640079516
0.00294137671149
0.00291016377224
0.00289009424021
0.0028872235645
0.00290131721051
0.002925180683
0.00294011683608
0.0029143113244
0.00280361172784
0.00255066216296
0.00208238713826
0.00131838978476
0.000256028221678
0.000255893189381
0.00132535704315
0.00208777931917
0.00255924514302
0.00282461122995
0.00294582721207
0.00297614227923
0.00296212526414
0.00293763392723
0.00292102530573
0.00291828418288
0.00292928148809
0.00294709176934
0.00295418372937
0.0029204868421
0.00280379938295
0.00254837324223
0.00208231130162
0.00132196548905
0.000255619641389
0.000254861675407
0.00132677459245
0.0020785545638
0.00254051321608
0.0028053267773
0.00293323218439
0.00297470547899
0.00297213441445
0.00295634100033
0.00294415117464
0.00294156343978
0.00294858736738
0.00295869589209
0.00295583160281
0.00291248468396
0.00278917070681
0.00253217937873
0.00207339202558
0.00132338639408
0.000254568209145
0.000252465113675
0.00131874939369
0.00204740614915
0.00248999344577
0.00274764507367
0.00287891653876
0.0029302511911
0.00293901730217
0.00293204019306
0.00292442394736
0.00292215480792
0.00292537997542
0.00292802570313
0.00291577777269
0.00286429473189
0.00273713366859
0.0024838320594
0.0020425080946
0.00131535509562
0.000252165492319
0.000247682158839
0.00128931583691
0.00197404985723
0.00238306446936
0.00262004670604
0.0027468151063
0.00280209488855
0.00281825093268
0.00281782016312
0.00281395232325
0.0028121698866
0.0028127708346
0.00281033945749
0.00279247169308
0.00273791158076
0.00261352119248
0.00237788152241
0.00196943483186
0.00128598554491
0.000247393929769
0.000239058787313
0.00121955084868
0.001828022684
0.00218165383527
0.00238296224614
0.00248957468343
0.00253911781314
0.00255604188658
0.00255798381002
0.00255594442012
0.00255466588055
0.00255445404774
0.0025508126876
0.00253319137992
0.00248406954154
0.00237801331434
0.00217695982343
0.00182374142465
0.00121641076688
0.000238795490243
0.000224297180472
0.00107767128143
0.00156071049089
0.00182813919731
0.00197402497025
0.00204706462886
0.00207772754115
0.00208620406024
0.00208554936007
0.00208317788913
0.0020822821453
0.00208307592885
0.00208265757906
0.00207365941775
0.00204280425104
0.00196971893704
0.00182389836977
0.00155680194032
0.00107479943393
0.000224066958136
0.000198976146712
0.000795365328483
0.00107805384344
0.00121997931948
0.00128955809878
0.00131867178184
0.00132628533185
0.00132431959126
0.00132006988799
0.00131707661501
0.00131653294165
0.00131854252432
0.00132204595782
0.00132352874111
0.00131558746374
0.00128623892273
0.00121657846441
0.00107484389622
0.000792930749064
0.000198803008762
0.000156128937199
0.000198930780304
0.000224242738707
0.000238997304248
0.000247608442959
0.00025237529653
0.000254754055505
0.000255763150764
0.000256116709133
0.000256209449641
0.000256183283048
0.000256042850981
0.000255651681563
0.000254617740345
0.000252224451886
0.000247452788038
0.000238846526554
0.000224107176391
0.000198830450461
0.000156146452278
0.000159585536234
0.00020775924268
0.000235473602456
0.000251662678301
0.000261346058414
0.00026698270924
0.000270076034944
0.000271648231964
0.000272406618918
0.000272716654796
0.000272699603097
0.000272356533114
0.000271571586348
0.000269974829691
0.00026685936922
0.000261211271077
0.000251531658648
0.000235357604429
0.000207672492447
0.00015961306187
0.000207797337757
0.000879799303071
0.00119697605711
0.00135897294281
0.00144251765892
0.00148197670428
0.00149745115389
0.00150138542352
0.00150131103925
0.0015005508454
0.00149995435662
0.00149960027937
0.0014987956064
0.00149421510788
0.00147825531499
0.0014384686022
0.00135485195304
0.00119314299184
0.00087688701158
0.000207602716508
0.000235526778934
0.00119707280289
0.00174377741309
0.00204879445713
0.00221914164462
0.0023088747405
0.00235094481278
0.00236651771904
0.00237018935392
0.00236988945657
0.00236875159815
0.00236702316712
0.00236165145431
0.00234505976367
0.00230320616279
0.0022138372445
0.00204369230715
0.0017391457912
0.00119360520664
0.000235271994472
0.000251728919992
0.00135931892188
0.00204910866203
0.00245135504064
0.00268413337769
0.00281089641931
0.00287201169591
0.00289440554387
0.0028990752722
0.002897978597
0.0028961218671
0.00289379509171
0.0028859562599
0.00286138745397
0.00280060271233
0.00267598042074
0.00244524710198
0.00204371465749
0.00135525543866
0.000251430498529
0.000261423776893
0.00144316722767