/*--------------------------------*- C++ -*----------------------------------*\
| =========                 |                                                 |
| \\      /  F ield         | OpenFOAM: The Open Source CFD Toolbox           |
|  \\    /   O peration     | Version:  3.0.1                                 |
|   \\  /    A nd           | Web:      www.OpenFOAM.org                      |
|    \\/     M anipulation  |                                                 |
\*---------------------------------------------------------------------------*/
FoamFile
{
    version     2.0;
    format      ascii;
    class       volScalarField;
    location    "4.8";
    object      rAU;
}
// * * * * * * * * * * * * * * * * * * * * * * * * * * * * * * * * * * * * * //

dimensions      [-1 3 1 0 0 0 0];

internalField   nonuniform List<scalar> 
7968
(
1.05213555284e-05
1.05135192641e-05
1.05127748243e-05
1.05138249398e-05
1.0514554198e-05
1.05050344594e-05
1.04997851084e-05
1.05061177353e-05
1.05084034508e-05
1.05091902222e-05
1.05092110023e-05
1.05084729436e-05
1.05062946045e-05
1.05003535582e-05
1.05051839828e-05
1.05142428162e-05
1.0513792087e-05
1.05127542586e-05
1.05134801373e-05
1.05213387901e-05
1.05135025218e-05
1.04931487343e-05
1.04864318548e-05
1.04840053525e-05
1.0481505599e-05
1.04771835682e-05
1.04744730509e-05
1.04756931236e-05
1.04771135589e-05
1.04777666588e-05
1.04777907249e-05
1.04771845106e-05
1.04758065615e-05
1.04745391399e-05
1.04770872898e-05
1.04813917367e-05
1.04839922554e-05
1.04864379353e-05
1.04931461287e-05
1.05135065857e-05
1.05127408361e-05
1.04864233367e-05
1.04759381192e-05
1.04714837654e-05
1.04681670177e-05
1.04652125775e-05
1.04638335957e-05
1.04645298713e-05
1.04654231246e-05
1.04656671147e-05
1.04657075208e-05
1.0465519211e-05
1.04646335104e-05
1.04638824603e-05
1.04651835759e-05
1.04681357042e-05
1.04715022544e-05
1.04759823497e-05
1.04864594082e-05
1.0512756883e-05
1.05137975667e-05
1.04839815392e-05
1.04714726474e-05
1.0466558797e-05
1.04632821241e-05
1.0461239171e-05
1.04615117323e-05
1.04635066939e-05
1.04655634497e-05
1.04666602004e-05
1.04666922454e-05
1.04656383691e-05
1.04635903791e-05
1.04615610062e-05
1.0461237515e-05
1.04632760235e-05
1.04666017249e-05
1.04715463027e-05
1.04840549211e-05
1.05138503275e-05
1.05145205866e-05
1.04814964203e-05
1.04681532591e-05
1.04632768207e-05
1.04599415435e-05
1.04567349396e-05
1.04541291744e-05
1.04544135799e-05
1.04552914665e-05
1.04556726974e-05
1.04557058097e-05
1.04553586261e-05
1.04544547837e-05
1.04541193591e-05
1.04567137749e-05
1.04599353044e-05
1.04632896584e-05
1.04681949396e-05
1.0481526266e-05
1.05144975472e-05
1.0505066682e-05
1.04772032104e-05
1.04652184696e-05
1.04612400704e-05
1.04567301353e-05
1.04482018544e-05
1.04429043083e-05
1.04417884629e-05
1.04414052262e-05
1.04409084618e-05
1.04409339004e-05
1.04414536063e-05
1.04418167586e-05
1.04429069447e-05
1.04481661043e-05
1.04566813138e-05
1.04612264035e-05
1.04651854909e-05
1.04771145985e-05
1.05050648816e-05
1.04998670032e-05
1.04745190091e-05
1.04638660184e-05
1.04615248144e-05
1.04540887156e-05
1.04428661319e-05
1.04371564645e-05
1.04369249227e-05
1.0437284442e-05
1.04372254314e-05
1.04372422138e-05
1.04372930797e-05
1.04368917556e-05
1.04371716416e-05
1.04428944645e-05
1.04540649595e-05
1.04615050897e-05
1.04638198897e-05
1.04744429935e-05
1.04999242114e-05
1.05061610328e-05
1.04757320741e-05
1.04645750285e-05
1.04635334354e-05
1.04543687348e-05
1.04417415602e-05
1.04369331213e-05
1.04389869786e-05
1.04432331531e-05
1.0448873588e-05
1.04490662162e-05
1.04440225227e-05
1.04389070337e-05
1.04369177808e-05
1.04418178715e-05
1.04544010984e-05
1.04635208542e-05
1.04645511812e-05
1.04757191571e-05
1.05061475016e-05
1.05084339081e-05
1.04771474257e-05
1.04654752495e-05
1.04655986809e-05
1.04552474888e-05
1.04413712488e-05
1.04373519135e-05
1.04432827512e-05
1.04562343761e-05
1.045957616e-05
1.04596880036e-05
1.04564742871e-05
1.0444087045e-05
1.04373222543e-05
1.04414738478e-05
1.04553202186e-05
1.04655862171e-05
1.04654417436e-05
1.04771377787e-05
1.05084069473e-05
1.05092154835e-05
1.04777937674e-05
1.0465705294e-05
1.04666907846e-05
1.04556116583e-05
1.04408601565e-05
1.04373128952e-05
1.04488342244e-05
1.04595434739e-05
1.04629608192e-05
1.04630682256e-05
1.04597620875e-05
1.0449260996e-05
1.04372795372e-05
1.04409821266e-05
1.0455699932e-05
1.0466675655e-05
1.04656497175e-05
1.04777786171e-05
1.05091830651e-05
1.05092292069e-05
1.04778075208e-05
1.04657210643e-05
1.04667064526e-05
1.0455622358e-05
1.04408637116e-05
1.04373172258e-05
1.04488654597e-05
1.04595693586e-05
1.04629881025e-05
1.04630960546e-05
1.04597894414e-05
1.04492972034e-05
1.04372860129e-05
1.04409875857e-05
1.04557112518e-05
1.04666928385e-05
1.04656649112e-05
1.04777961904e-05
1.0509200113e-05
1.05084815785e-05
1.04771908528e-05
1.04655209153e-05
1.04656481438e-05
1.04552832647e-05
1.04413900017e-05
1.0437380188e-05
1.04434683798e-05
1.04563416414e-05
1.04596863603e-05
1.04597997932e-05
1.04565849442e-05
1.04442825669e-05
1.04373555874e-05
1.04414982658e-05
1.04553579372e-05
1.04656387406e-05
1.04654891166e-05
1.04771915931e-05
1.05084653503e-05
1.05062808665e-05
1.04758043449e-05
1.04646386067e-05
1.04636108103e-05
1.04544277249e-05
1.04417800298e-05
1.04369891174e-05
1.04390846785e-05
1.04437059288e-05
1.04492478912e-05
1.04494422769e-05
1.04444913549e-05
1.04390111946e-05
1.04369841272e-05
1.04418650601e-05
1.04544625535e-05
1.04636025323e-05
1.04646212531e-05
1.04758085419e-05
1.05062922126e-05
1.05002600269e-05
1.04745523064e-05
1.04639011701e-05
1.04615911808e-05
1.04541306995e-05
1.04428789294e-05
1.04371862795e-05
1.04370111014e-05
1.04374247018e-05
1.04373889615e-05
1.04374083145e-05
1.04374411502e-05
1.04369906073e-05
1.04372181033e-05
1.04429178764e-05
1.04541073381e-05
1.04615743298e-05
1.04638601963e-05
1.04744925513e-05
1.05003856777e-05
1.05051915616e-05
1.04771380519e-05
1.0465212403e-05
1.04612647097e-05
1.04567499243e-05
1.0448135948e-05
1.04428121903e-05
1.04417086745e-05
1.0441335085e-05
1.04408328602e-05
1.04408611046e-05
1.0441391225e-05
1.04417456639e-05
1.04428257244e-05
1.04481042705e-05
1.0456698108e-05
1.04612502901e-05
1.04651802395e-05
1.04770485788e-05
1.05051879641e-05
1.05143425943e-05
1.04814447164e-05
1.04681575938e-05
1.04632993577e-05
1.04599653548e-05
1.04566996735e-05
1.04540077068e-05
1.04542763564e-05
1.04551366311e-05
1.04555025077e-05
1.04555367591e-05
1.04552066425e-05
1.04543216447e-05
1.04539988018e-05
1.04566757702e-05
1.04599549456e-05
1.04633115856e-05
1.04682046575e-05
1.0481471013e-05
1.05142694436e-05
1.0513807367e-05
1.04839968104e-05
1.04715057811e-05
1.04666112989e-05
1.04633188078e-05
1.0461250258e-05
1.04615143215e-05
1.04635158181e-05
1.04655778095e-05
1.04666823163e-05
1.04667163889e-05
1.04656575827e-05
1.04636074339e-05
1.04615683619e-05
1.04612474799e-05
1.04633125616e-05
1.04666640277e-05
1.04715926319e-05
1.04840817077e-05
1.05138665656e-05
1.0512755304e-05
1.04864417131e-05
1.04759761016e-05
1.04715473663e-05
1.04682267139e-05
1.04652308782e-05
1.04638348876e-05
1.04645495116e-05
1.04654486595e-05
1.04656744633e-05
1.0465716084e-05
1.04655495286e-05
1.04646586608e-05
1.04638893293e-05
1.04652002475e-05
1.04682020007e-05
1.04715822003e-05
1.0476033884e-05
1.04864909585e-05
1.05127750068e-05
1.05135019394e-05
1.04931651358e-05
1.04864637126e-05
1.04840689095e-05
1.04815794576e-05
1.04771917993e-05
1.04744531151e-05
1.04757118424e-05
1.04771503595e-05
1.0477809533e-05
1.04778375379e-05
1.04772329105e-05
1.04758445045e-05
1.04745372228e-05
1.04770931609e-05
1.04814660021e-05
1.04840672162e-05
1.04864827441e-05
1.04931732066e-05
1.05135115066e-05
1.05213585686e-05
1.05135290406e-05
1.05127915448e-05
1.05138637128e-05
1.05146039882e-05
1.05050144749e-05
1.0499727726e-05
1.0506104404e-05
1.05084051221e-05
1.05091971938e-05
1.05092222253e-05
1.05084878421e-05
1.05063102215e-05
1.05003811233e-05
1.05051908609e-05
1.05142596066e-05
1.05138397758e-05
1.0512776995e-05
1.05135011443e-05
1.05213533375e-05
1.05169416292e-05
1.04988947222e-05
1.04916357282e-05
1.04898000682e-05
1.04878511446e-05
1.0481182067e-05
1.04782813454e-05
1.04821850602e-05
1.04846461134e-05
1.04857084438e-05
1.04857420651e-05
1.04847483346e-05
1.04823767856e-05
1.04785663293e-05
1.04811146107e-05
1.04876276233e-05
1.0489827145e-05
1.04916822018e-05
1.04989428836e-05
1.05169558821e-05
1.04988968498e-05
1.04142672019e-05
1.0369470567e-05
1.03489156818e-05
1.0338556436e-05
1.03330240209e-05
1.03315055776e-05
1.03333104157e-05
1.03356540185e-05
1.03370365179e-05
1.03371065926e-05
1.03358466789e-05
1.03335858322e-05
1.03317666944e-05
1.0333184676e-05
1.0338704196e-05
1.03491386417e-05
1.03697226788e-05
1.04144523899e-05
1.04989270504e-05
1.04916287727e-05
1.03694644109e-05
1.03000034898e-05
1.02649577079e-05
1.02469455715e-05
1.02383525379e-05
1.02355700245e-05
1.02360743747e-05
1.02374898281e-05
1.02386928846e-05
1.02386971184e-05
1.02376511028e-05
1.02363582711e-05
1.02358704067e-05
1.02386138426e-05
1.02471859594e-05
1.02652201538e-05
1.03002904713e-05
1.036967883e-05
1.04916829652e-05
1.04897768334e-05
1.03488900553e-05
1.02649353935e-05
1.02218407153e-05
1.02007588612e-05
1.0191385846e-05
1.01880330136e-05
1.01880302798e-05
1.01892278794e-05
1.01901994472e-05
1.01903092635e-05
1.01895163101e-05
1.01884168025e-05
1.01884230542e-05
1.01917412417e-05
1.02010739939e-05
1.02221060632e-05
1.02652152022e-05
1.03491111496e-05
1.04898571576e-05
1.04878356408e-05
1.03385301428e-05
1.02469200102e-05
1.02007479877e-05
1.01779797273e-05
1.01675611245e-05
1.01643851814e-05
1.01651370694e-05
1.01669761112e-05
1.0168312523e-05
1.01684645849e-05
1.01673580283e-05
1.01655977177e-05
1.01648187415e-05
1.01679566794e-05
1.01783522756e-05
1.02010848361e-05
1.02471821125e-05
1.03386973617e-05
1.04877739204e-05
1.0481200803e-05
1.03330206302e-05
1.02383480457e-05
1.01913754569e-05
1.01675927142e-05
1.01582566435e-05
1.01572326742e-05
1.01595507282e-05
1.01624060131e-05
1.01642678079e-05
1.01644665854e-05
1.01628902935e-05
1.01600732394e-05
1.01576555992e-05
1.01585913447e-05
1.01679430238e-05
1.01917539106e-05
1.02385880934e-05
1.03331215557e-05
1.04811002614e-05
1.04783139112e-05
1.03315206267e-05
1.02355879727e-05
1.01880549991e-05
1.01644809285e-05
1.01573352301e-05
1.0158112636e-05
1.01617107742e-05
1.0165457525e-05
1.01677202252e-05
1.01679581776e-05
1.01660221604e-05
1.01622879188e-05
1.01585139916e-05
1.01575945184e-05
1.01647735968e-05
1.01884168866e-05
1.02358371915e-05
1.03316377897e-05
1.04783386079e-05
1.04822110513e-05
1.03333274959e-05
1.02360951853e-05
1.01880566711e-05
1.01652684458e-05
1.01597295695e-05
1.01617888146e-05
1.01665147132e-05
1.0173413895e-05
1.01813107702e-05
1.01817681263e-05
1.01748724584e-05
1.01671516969e-05
1.01622479667e-05
1.01599778305e-05
1.01655566255e-05
1.01884339677e-05
1.02363777197e-05
1.03334807478e-05
1.04822414184e-05
1.04846622528e-05
1.03356579187e-05
1.02374835881e-05
1.0189212405e-05
1.01670680647e-05
1.01625605746e-05
1.01655267107e-05
1.01733718458e-05
1.01892538712e-05
1.01951612758e-05
1.0195551838e-05
1.01902797163e-05
1.01750215178e-05
1.01660458292e-05
1.01628684473e-05
1.01674037581e-05
1.01896185326e-05
1.02377761512e-05
1.03358125336e-05
1.0484685693e-05
1.04857139336e-05
1.03370130787e-05
1.02386675196e-05
1.01901141907e-05
1.01682955542e-05
1.01642760543e-05
1.01676136474e-05
1.01809526517e-05
1.01948960395e-05
1.0200703005e-05
1.02010947462e-05
1.01959012714e-05
1.01823005145e-05
1.01681975213e-05
1.01646366965e-05
1.01686736208e-05
1.01905429467e-05
1.02390242903e-05
1.03371631352e-05
1.04857327919e-05
1.04857345423e-05
1.033705042e-05
1.02386900063e-05
1.01901509999e-05
1.01683293102e-05
1.01643075246e-05
1.01676421496e-05
1.01810090316e-05
1.01949473646e-05
1.02007579623e-05
1.02011513019e-05
1.01959561172e-05
1.01823636033e-05
1.01682279995e-05
1.01646691822e-05
1.0168709258e-05
1.01905828507e-05
1.02390551372e-05
1.0337202539e-05
1.04857556766e-05
1.04847290565e-05
1.03357662164e-05
1.02375743645e-05
1.01893209488e-05
1.01671691732e-05
1.01626597088e-05
1.0165623907e-05
1.01736190048e-05
1.01894389063e-05
1.01953456693e-05
1.01957398807e-05
1.01904729349e-05
1.01752822737e-05
1.01661435974e-05
1.0162969187e-05
1.01675096362e-05
1.01897349278e-05
1.02378721868e-05
1.03359274457e-05
1.04847595255e-05
1.04823417177e-05
1.03334959507e-05
1.02362509739e-05
1.01882298878e-05
1.01654346329e-05
1.01599048886e-05
1.01619757204e-05
1.0166709451e-05
1.01739771136e-05
1.01817739853e-05
1.01822346465e-05
1.01754351137e-05
1.01673519028e-05
1.01624357343e-05
1.0160156212e-05
1.01657300311e-05
1.01886183307e-05
1.02365427597e-05
1.03336591416e-05
1.04823860761e-05
1.04785078673e-05
1.03316917276e-05
1.02357690494e-05
1.01882687233e-05
1.01646877481e-05
1.01575678645e-05
1.01583720587e-05
1.0161990933e-05
1.0165747818e-05
1.01680192166e-05
1.01682590298e-05
1.01663171508e-05
1.01625727762e-05
1.01587781758e-05
1.01578318499e-05
1.01649884831e-05
1.01886426894e-05
1.02360305674e-05
1.03318181881e-05
1.04785581641e-05
1.04811468957e-05
1.03331487139e-05
1.02385336202e-05
1.01915968133e-05
1.01678248865e-05
1.01585022519e-05
1.01575303136e-05
1.01598813832e-05
1.01627514722e-05
1.01646219515e-05
1.01648225293e-05
1.01632415501e-05
1.01604129667e-05
1.01579586983e-05
1.01588428995e-05
1.01681844945e-05
1.01919895819e-05
1.02387881349e-05
1.03332508249e-05
1.0481027035e-05
1.04876951924e-05
1.03386688293e-05
1.02471107821e-05
1.02009578616e-05
1.01782044412e-05
1.01678133842e-05
1.01646575188e-05
1.01654389557e-05
1.01672880764e-05
1.01686314393e-05
1.01687863875e-05
1.01676768463e-05
1.01659079962e-05
1.01651018943e-05
1.01682210333e-05
1.01785919881e-05
1.02013197619e-05
1.02473906303e-05
1.03388375491e-05
1.04875979384e-05
1.04898244203e-05
1.03490684667e-05
1.02651315711e-05
1.02220218449e-05
1.02009626799e-05
1.01916025632e-05
1.01882627817e-05
1.01882616246e-05
1.01894522571e-05
1.01904253243e-05
1.0190539747e-05
1.01897522559e-05
1.01886603084e-05
1.0188671523e-05
1.01919785954e-05
1.02013058606e-05
1.02223147218e-05
1.02654359305e-05
1.03493048182e-05
1.04899058827e-05
1.04916802966e-05
1.03696390321e-05
1.03001862306e-05
1.0265130791e-05
1.02471066094e-05
1.02385044189e-05
1.02357313678e-05
1.02362630406e-05
1.02376796574e-05
1.02389550101e-05
1.02389516401e-05
1.02378479156e-05
1.02365659545e-05
1.02360461155e-05
1.02387823894e-05
1.0247367806e-05
1.02654186527e-05
1.03005017328e-05
1.03698776705e-05
1.04917387273e-05
1.04989431323e-05
1.04143849492e-05
1.03695952749e-05
1.03490486967e-05
1.03386755452e-05
1.03331043022e-05
1.03315783329e-05
1.03334107551e-05
1.03357703187e-05
1.03371602612e-05
1.03372345907e-05
1.0335975021e-05
1.03337014938e-05
1.03318524142e-05
1.03332693656e-05
1.03388285756e-05
1.03492880304e-05
1.03698706647e-05
1.04145912062e-05
1.04989777641e-05
1.05169678289e-05
1.04989199115e-05
1.04916686355e-05
1.04898549858e-05
1.04878854154e-05
1.04811508991e-05
1.04782398058e-05
1.04821836465e-05
1.04846625266e-05
1.04857320171e-05
1.04857691161e-05
1.04847756904e-05
1.04823950068e-05
1.04785548602e-05
1.04810686185e-05
1.04876314148e-05
1.04898872969e-05
1.04917238875e-05
1.04989759208e-05
1.05169870158e-05
1.0514928557e-05
1.04924371971e-05
1.04822479343e-05
1.04784429067e-05
1.04736176649e-05
1.04663509429e-05
1.04635694047e-05
1.04658122493e-05
1.0467552777e-05
1.04682673724e-05
1.04683180683e-05
1.04677110795e-05
1.04660909449e-05
1.0463914121e-05
1.04663743285e-05
1.0473492466e-05
1.0478538312e-05
1.04824028523e-05
1.04925895396e-05
1.05150254205e-05
1.04924319967e-05
1.03759853771e-05
1.03110777744e-05
1.02797208736e-05
1.02634262793e-05
1.02550584063e-05
1.02522202492e-05
1.02531074613e-05
1.0255008848e-05
1.02562480778e-05
1.0256362704e-05
1.02553270516e-05
1.02535734697e-05
1.0252725978e-05
1.0255506735e-05
1.02638304494e-05
1.02801515973e-05
1.03115475378e-05
1.03763875238e-05
1.04925715736e-05
1.0482233051e-05
1.03110576653e-05
1.02061090618e-05
1.01515546805e-05
1.01238917031e-05
1.01110793147e-05
1.01063784396e-05
1.01058004136e-05
1.01070715289e-05
1.01086652006e-05
1.01087178398e-05
1.01073671119e-05
1.01062845919e-05
1.01069516438e-05
1.01116834772e-05
1.01244968641e-05
1.01521261463e-05
1.02066248414e-05
1.03114734451e-05
1.04823848434e-05
1.04783943624e-05
1.02796638152e-05
1.01515246206e-05
1.00825479413e-05
1.00463981822e-05
1.00278209586e-05
1.00190383177e-05
1.00161590144e-05
1.00161196161e-05
1.00168072798e-05
1.00169946891e-05
1.00166089481e-05
1.00167657304e-05
1.0019653142e-05
1.00284996002e-05
1.00471423472e-05
1.00832368708e-05
1.01520906766e-05
1.02800833029e-05
1.04785846139e-05
1.04735568315e-05
1.02633233663e-05
1.01238404577e-05
1.00463654744e-05
1.00029643753e-05
9.98133622717e-06
9.97396140887e-06
9.97262007867e-06
9.97347670784e-06
9.9746358766e-06
9.97488966688e-06
9.97409925649e-06
9.97314035392e-06
9.97432264585e-06
9.98188337526e-06
1.00036847002e-05
1.00471580864e-05
1.01244748311e-05
1.02637852185e-05
1.04735956696e-05
1.04662798768e-05
1.02549232121e-05
1.0111020477e-05
1.00277637442e-05
9.98141176112e-06
9.96266066153e-06
9.95767888317e-06
9.95799387094e-06
9.95999511012e-06
9.96191386618e-06
9.96225987789e-06
9.96076894816e-06
9.95806962946e-06
9.95685992286e-06
9.96222525574e-06
9.98185648356e-06
1.00285378492e-05
1.01116912763e-05
1.02554702542e-05
1.04663599196e-05
1.04634630892e-05
1.02520773634e-05
1.01063162678e-05
1.00190362984e-05
9.97432194623e-06
9.95842160158e-06
9.9560551561e-06
9.95833715302e-06
9.96181931495e-06
9.96465177972e-06
9.96511135912e-06
9.96281224064e-06
9.95801702891e-06
9.9537393491e-06
9.9563280235e-06
9.97413326359e-06
1.00196985877e-05
1.0106996365e-05
1.02526975094e-05
1.04638080097e-05
1.04656969563e-05
1.02529698449e-05
1.01057166027e-05
1.0016228377e-05
9.97340091366e-06
9.95989186793e-06
9.95982787741e-06
9.96419772952e-06
9.96931868485e-06
9.97333875713e-06
9.97391442866e-06
9.97058963139e-06
9.96379645962e-06
9.95688491913e-06
9.95670430621e-06
9.97268883299e-06
1.00168323269e-05
1.01064204946e-05
1.02536162219e-05
1.04660954077e-05
1.04674492124e-05
1.02548691996e-05
1.0106932779e-05
1.001615348e-05
9.97440634543e-06
9.9624143594e-06
9.96410961214e-06
9.97015025139e-06
9.9770281488e-06
9.98173400332e-06
9.98237951808e-06
9.97849542417e-06
9.97005132493e-06
9.9611758621e-06
9.95908981269e-06
9.97363209887e-06
1.00168088903e-05
1.01076732808e-05
1.02554866587e-05
1.04678103473e-05
1.04681746969e-05
1.02560834549e-05
1.01084734934e-05
1.00167040015e-05
9.97536677848e-06
9.96407464163e-06
9.96660614646e-06
9.97376136115e-06
9.98130683109e-06
9.98637884721e-06
9.98706268198e-06
9.98287078572e-06
9.97384385291e-06
9.96386212221e-06
9.96089967769e-06
9.97469981612e-06
1.00174271221e-05
1.01093080047e-05
1.02566715635e-05
1.04685014206e-05
1.0468217931e-05
1.02561516338e-05
1.010851194e-05
1.00167539095e-05
9.97540908311e-06
9.96410790612e-06
9.96662913315e-06
9.97378452403e-06
9.98133077877e-06
9.98640348445e-06
9.98708870838e-06
9.98289425722e-06
9.97386959073e-06
9.96389042138e-06
9.96093716743e-06
9.97474466869e-06
1.00174798186e-05
1.01093561973e-05
1.02567439593e-05
1.04685516762e-05
1.04675854877e-05
1.02550650515e-05
1.01070694997e-05
1.00162972043e-05
9.97453572304e-06
9.9625340838e-06
9.96421977388e-06
9.97026115241e-06
9.97714498518e-06
9.98185303173e-06
9.98249414688e-06
9.97860793587e-06
9.97017008676e-06
9.96129115149e-06
9.95921963417e-06
9.97376877158e-06
1.00169584289e-05
1.01078153092e-05
1.02556966209e-05
1.04679634603e-05
1.04659290234e-05
1.02532763518e-05
1.01059473169e-05
1.00164616909e-05
9.97365730706e-06
9.96022316803e-06
9.96024577784e-06
9.96465466291e-06
9.96980487487e-06
9.97381929296e-06
9.97439212754e-06
9.97107783967e-06
9.96426588353e-06
9.9573109205e-06
9.95705318646e-06
9.97295388104e-06
1.0017071088e-05
1.0106656026e-05
1.02539403592e-05
1.04663497706e-05
1.04637270129e-05
1.02524302892e-05
1.01066189383e-05
1.00193514107e-05
9.97469251349e-06
9.95896786127e-06
9.95683443515e-06
9.95925417839e-06
9.96277159347e-06
9.96560090859e-06
9.96605817886e-06
9.96375966282e-06
9.95893894106e-06
9.95454063506e-06
9.95689068809e-06
9.97451527439e-06
1.00200194567e-05
1.01073066871e-05
1.02530678744e-05
1.04641008512e-05
1.04663049222e-05
1.02552563888e-05
1.01113767111e-05
1.00281376342e-05
9.98181769412e-06
9.96322329546e-06
9.95849656453e-06
9.95900267923e-06
9.9610634803e-06
9.96298638843e-06
9.96333105426e-06
9.96183428713e-06
9.95908491089e-06
9.95768986094e-06
9.96280028666e-06
9.98227560625e-06
1.00289203538e-05
1.01120619819e-05
1.02558127285e-05
1.04663766268e-05
1.04734854202e-05
1.02636229247e-05
1.01242123709e-05
1.00467684073e-05
1.00033490757e-05
9.98179876154e-06
9.9745429511e-06
9.97329825527e-06
9.9742045124e-06
9.97537446129e-06
9.97563036808e-06
9.97483289063e-06
9.9738261273e-06
9.97491606231e-06
9.98236061044e-06
1.00040839465e-05
1.00475849463e-05
1.01248711136e-05
1.02640920933e-05
1.04734981906e-05
1.04784743944e-05
1.02799600946e-05
1.01518708848e-05
1.00829125329e-05
1.00467825584e-05
1.00281846804e-05
1.00194106469e-05
1.00165630586e-05
1.00165640897e-05
1.00172713575e-05
1.00174625437e-05
1.00170640046e-05
1.00171827639e-05
1.0020041253e-05
1.00288791179e-05
1.00475551637e-05
1.00836362869e-05
1.01524669188e-05
1.02803933149e-05
1.04786613497e-05
1.04823387883e-05
1.03113504101e-05
1.02063984134e-05
1.01518343081e-05
1.01241855852e-05
1.0111388298e-05
1.01066883399e-05
1.01061153344e-05
1.01073994243e-05
1.01090881416e-05
1.01091346201e-05
1.0107703038e-05
1.01066192089e-05
1.01072781667e-05
1.01120151342e-05
1.01248201755e-05
1.01524383249e-05
1.02069461733e-05
1.03117861989e-05
1.0482492641e-05
1.04925312164e-05
1.03762063411e-05
1.03112825224e-05
1.02799051216e-05
1.0263589681e-05
1.02552213275e-05
1.02524101286e-05
1.02533430035e-05
1.02552754073e-05
1.02565347459e-05
1.02566575465e-05
1.02556189046e-05
1.02538419539e-05
1.0252947135e-05
1.02556924585e-05
1.02640085696e-05
1.02803545847e-05
1.03117746601e-05
1.03766289543e-05
1.04926761017e-05
1.05150130369e-05
1.04925067095e-05
1.0482317338e-05
1.04785300622e-05
1.0473636145e-05
1.04663114825e-05
1.04635824671e-05
1.04659019914e-05
1.04676845872e-05
1.04684214833e-05
1.04684805068e-05
1.04678680824e-05
1.04662188424e-05
1.04639672827e-05
1.04663345753e-05
1.04734925736e-05
1.04786282707e-05
1.04824771617e-05
1.04926693838e-05
1.05151100738e-05
1.05086569214e-05
1.04832497386e-05
1.04667577303e-05
1.04615129147e-05
1.0456737104e-05
1.04513685598e-05
1.0448837736e-05
1.04489931235e-05
1.04491521501e-05
1.04490613471e-05
1.04490710678e-05
1.04492030298e-05
1.04491148945e-05
1.04489846374e-05
1.04512934044e-05
1.04565980775e-05
1.046157664e-05
1.04669188212e-05
1.04835420529e-05
1.05089880528e-05
1.04832452021e-05
1.03477126474e-05
1.02681080304e-05
1.02317298235e-05
1.02135289652e-05
1.02049969989e-05
1.02018357396e-05
1.02014749991e-05
1.02022619604e-05
1.02029911188e-05
1.02031063562e-05
1.02025821736e-05
1.02019387086e-05
1.02023760939e-05
1.0205572483e-05
1.02141317191e-05
1.02323342378e-05
1.02686570242e-05
1.03481636788e-05
1.04834897525e-05
1.0466735286e-05
1.02680520968e-05
1.01518813866e-05
1.00873072718e-05
1.00529188585e-05
1.00357913452e-05
1.002814716e-05
1.00253395259e-05
1.00249135758e-05
1.00252945227e-05
1.0025488543e-05
1.00254428426e-05
1.00260458059e-05
1.00289319599e-05
1.00367193214e-05
1.00539528618e-05
1.0088337451e-05
1.01527881124e-05
1.02686753861e-05
1.04669368575e-05
1.0461458521e-05
1.02316218915e-05
1.0087247257e-05
1.00018463646e-05
9.95328406909e-06
9.92677557231e-06
9.9139970227e-06
9.90853751918e-06
9.90682303122e-06
9.90682910274e-06
9.9070991993e-06
9.90747447874e-06
9.90876509052e-06
9.91360441419e-06
9.92691069299e-06
9.9541790165e-06
1.00030328653e-05
1.00883348487e-05
1.0232382383e-05
1.04616984542e-05
1.045669902e-05
1.02133747662e-05
1.00527988129e-05
9.95325221563e-06
9.89545441975e-06
9.86614902617e-06
9.85315951132e-06
9.84738840823e-06
9.8455282287e-06
9.84592643008e-06
9.84640244242e-06
9.84648432892e-06
9.84615527374e-06
9.84901967038e-06
9.86249502735e-06
9.89455368435e-06
9.95417799186e-06
1.00539898959e-05
1.02142355626e-05
1.04567267654e-05
1.04513179407e-05
1.02048188468e-05
1.00356414956e-05
9.92700334935e-06
9.86723242942e-06
9.83943811528e-06
9.82715810777e-06
9.82061094037e-06
9.81919444099e-06
9.82067508491e-06
9.82149826527e-06
9.82077958617e-06
9.81775543825e-06
9.81755093621e-06
9.82893158386e-06
9.86165944776e-06
9.92672725299e-06
1.00367937369e-05
1.02057274424e-05
1.0451351396e-05
1.04487220567e-05
1.02016457894e-05
1.00280933611e-05
9.91519726397e-06
9.85698382882e-06
9.83130965288e-06
9.82003239684e-06
9.8153127382e-06
9.8154323503e-06
9.81833567163e-06
9.81953677083e-06
9.81782007655e-06
9.81112915052e-06
9.80543562439e-06
9.81413787121e-06
9.84597801735e-06
9.91275758034e-06
1.00289737194e-05
1.02025728464e-05
1.04490721643e-05
1.04488508478e-05
1.02012642721e-05
1.00254289529e-05
9.91112839306e-06
9.85467398432e-06
9.83076153031e-06
9.8225647018e-06
9.82033852171e-06
9.82232279308e-06
9.82650874684e-06
9.82801456872e-06
9.82545899834e-06
9.81581694827e-06
9.80523447124e-06
9.80967305635e-06
9.84033418847e-06
9.90694601418e-06
1.00260611553e-05
1.02022103132e-05
1.04493003682e-05
1.04490029122e-05
1.02019990946e-05
1.00249779682e-05
9.90995544824e-06
9.85450082987e-06
9.83237024063e-06
9.82652808697e-06
9.82636137588e-06
9.83015057043e-06
9.83565958161e-06
9.83738492046e-06
9.8337556073e-06
9.82229089209e-06
9.8089901977e-06
9.81028640473e-06
9.83940927223e-06
9.90536263836e-06
1.00255922124e-05
1.02029668812e-05
1.04494492685e-05
1.04489189743e-05
1.02026640149e-05
1.00252272931e-05
9.90975904307e-06
9.85464834652e-06
9.83336291304e-06
9.82860227554e-06
9.82954835789e-06
9.8345224315e-06
9.84087979445e-06
9.8427952635e-06
9.83842000788e-06
9.82585074022e-06
9.81151398736e-06
9.81151467744e-06
9.83967748996e-06
9.90528637815e-06
1.00258855672e-05
1.02036426917e-05
1.04493449811e-05
1.04489363455e-05
1.02027129294e-05
1.00252896081e-05
9.90980412507e-06
9.85466707267e-06
9.83333402976e-06
9.82852252706e-06
9.82943824829e-06
9.83438565501e-06
9.84071608117e-06
9.84263353151e-06
9.83826761482e-06
9.82574075145e-06
9.81145645956e-06
9.81150801281e-06
9.83970120465e-06
9.90533565941e-06
1.00259480335e-05
1.02036958739e-05
1.04493666157e-05
1.04490629028e-05
1.02021436261e-05
1.00251593695e-05
9.91009546226e-06
9.85458561413e-06
9.83238395228e-06
9.82643302488e-06
9.82621295499e-06
9.82998195925e-06
9.83545403657e-06
9.83714456855e-06
9.83352775611e-06
9.82212910876e-06
9.80896812663e-06
9.81036339393e-06
9.83953152698e-06
9.90551673488e-06
1.00257720736e-05
1.02031217389e-05
1.04495183023e-05
1.04489562178e-05
1.02014942221e-05
1.00257312468e-05
9.91145421184e-06
9.85516657792e-06
9.83145500173e-06
9.82345046478e-06
9.82133064136e-06
9.82333912995e-06
9.82749577693e-06
9.82897584699e-06
9.82641592891e-06
9.81685372608e-06
9.80628083548e-06
9.81052523546e-06
9.8408911492e-06
9.9072848324e-06
1.00263575869e-05
1.02024495655e-05
1.04494197025e-05
1.04488179831e-05
1.02019422884e-05
1.00285142579e-05
9.91571606379e-06
9.85796005872e-06
9.83295375485e-06
9.82240254426e-06
9.81813077978e-06
9.8183742449e-06
9.82124996097e-06
9.82242933792e-06
9.82072618916e-06
9.81402064412e-06
9.80801589122e-06
9.81598143309e-06
9.84703220295e-06
9.9132830924e-06
1.00293879244e-05
1.02028763396e-05
1.04491925483e-05
1.04512488774e-05
1.02051609511e-05
1.00361499198e-05
9.92755238157e-06
9.86824295137e-06
9.84133009158e-06
9.82993137256e-06
9.82404038821e-06
9.82282583082e-06
9.82428839636e-06
9.82509358358e-06
9.82436969265e-06
9.82123619179e-06
9.82049176945e-06
9.83092758351e-06
9.86270794466e-06
9.92727841348e-06
1.0037302257e-05
1.02060799061e-05
1.04512852181e-05
1.0456607357e-05
1.02137385238e-05
1.00533443758e-05
9.95378347001e-06
9.8961462711e-06
9.8674612653e-06
9.85520770563e-06
9.84992132647e-06
9.84822748048e-06
9.84863479254e-06
9.84909775446e-06
9.84914974523e-06
9.84870511215e-06
9.85111354757e-06
9.86383737047e-06
9.89525851258e-06
9.95471832234e-06
1.0054551762e-05
1.02146193929e-05
1.04566194271e-05
1.04615079669e-05
1.02319701414e-05
1.00877690515e-05
1.00023736389e-05
9.95378762865e-06
9.92738661375e-06
9.91488657131e-06
9.90970524196e-06
9.90809437747e-06
9.90811240911e-06
9.90838171437e-06
9.90874487229e-06
9.90993622681e-06
9.91450492817e-06
9.92753224979e-06
9.95469986213e-06
1.0003588481e-05
1.00888941799e-05
1.02327661598e-05
1.04617512747e-05
1.04668293366e-05
1.02683517531e-05
1.01523088619e-05
1.00877652547e-05
1.005338313e-05
1.00362559903e-05
1.00286234483e-05
1.00258354588e-05
1.00254111897e-05
1.00257920179e-05
1.00259895002e-05
1.00259477471e-05
1.00265500319e-05
1.00294203199e-05
1.00372049689e-05
1.00544479814e-05
1.00888375536e-05
1.01532670855e-05
1.02690157262e-05
1.04670409374e-05
1.04834177686e-05
1.03479522745e-05
1.02683807014e-05
1.0232029652e-05
1.02138531229e-05
1.02053393775e-05
1.02021881842e-05
1.0201832897e-05
1.02026296481e-05
1.02033694582e-05
1.02034899207e-05
1.02029635088e-05
1.02023166303e-05
1.02027485172e-05
1.02059386964e-05
1.02144874417e-05
1.02326744347e-05
1.02689723556e-05
1.03484100056e-05
1.04836514723e-05
1.05088583112e-05
1.0483382176e-05
1.04668648635e-05
1.04616490942e-05
1.0456796752e-05
1.04513603312e-05
1.04489059687e-05
1.04491330028e-05
1.04493230418e-05
1.04492451546e-05
1.04492605732e-05
1.04493888392e-05
1.04492793273e-05
1.04490811058e-05
1.04512889148e-05
1.04566490359e-05
1.04617256726e-05
1.04670390124e-05
1.04836632249e-05
1.05092073925e-05
1.04939824815e-05
1.04678038028e-05
1.04595035443e-05
1.04539308973e-05
1.04495899649e-05
1.04455619402e-05
1.04422284439e-05
1.04397778689e-05
1.04376385493e-05
1.04360455932e-05
1.04359344889e-05
1.04374158923e-05
1.04395856612e-05
1.04420488516e-05
1.04453367019e-05
1.04494126955e-05
1.04538799822e-05
1.0459545676e-05
1.04681437713e-05
1.04943407854e-05
1.04678724172e-05
1.03177655776e-05
1.02421582422e-05
1.02018644189e-05
1.01806867515e-05
1.01702679473e-05
1.01657961765e-05