/*--------------------------------*- C++ -*----------------------------------*\
| =========                 |                                                 |
| \\      /  F ield         | OpenFOAM: The Open Source CFD Toolbox           |
|  \\    /   O peration     | Version:  3.0.1                                 |
|   \\  /    A nd           | Web:      www.OpenFOAM.org                      |
|    \\/     M anipulation  |                                                 |
\*---------------------------------------------------------------------------*/
FoamFile
{
    version     2.0;
    format      ascii;
    class       surfaceVectorField;
    location    "4.8";
    object      Uf;
}
// * * * * * * * * * * * * * * * * * * * * * * * * * * * * * * * * * * * * * //

dimensions      [0 1 -1 0 0 0 0];

internalField   nonuniform List<vector> 
22672
(
(0.00144089432116 0.000385409647541 -0.00120677347453)
(0.000399382813829 0.00141545144377 -0.00120835709957)
(0.000939355544792 0.000923837849575 -0.0028563657133)
(0.00358613959562 4.89108514606e-05 -0.00119731955484)
(0.00215127501356 0.000976586910308 -0.00208874112273)
(0.00293748640502 0.000885101863304 -0.00312185370016)
(0.00575054863647 -2.04545420156e-05 -0.00104166521373)
(0.00481242463703 0.000943934271023 -0.00234947915987)
(0.00535589338546 0.00100675184133 -0.00310836500498)
(0.00737083321667 0.000144430622805 -0.000824973795546)
(0.00693628040158 0.00127319318351 -0.00227151851311)
(0.00727664656683 0.00132815840354 -0.0028934986902)
(0.00811300123645 0.000498536704139 -0.00062806213572)
(0.0082701334587 0.00190920687768 -0.00211702156712)
(0.0084629904053 0.00181299773137 -0.00265139503956)
(0.00785762722277 0.000895274204518 -0.000484683191237)
(0.00850571043175 0.00269872433794 -0.00196090720378)
(0.00859713746815 0.00237966068341 -0.0024433698805)
(0.00675128742662 0.00126388837622 -0.000392491551129)
(0.00778040912725 0.00340702717879 -0.00185374466879)
(0.0078406227134 0.00284788208384 -0.00230070660055)
(0.00492586091294 0.00158474819334 -0.000339151984639)
(0.00618764531595 0.00403370161309 -0.00178337597765)
(0.00623275756474 0.00328111408426 -0.00220829431151)
(0.00263502741433 0.0017862465977 -0.000321105401475)
(0.0039836005213 0.00447300931667 -0.00176139260335)
(0.00401390515389 0.00358485707617 -0.00218219544209)
(0.000125876714848 0.00185471508134 -0.000317449831937)
(0.00144832863834 0.0046951035206 -0.00176236880512)
(0.00146001206171 0.00373811402008 -0.00218597337718)
(-0.00238832917747 0.00178887969514 -0.000318636551173)
(-0.00119521012368 0.00469825398263 -0.00176131516488)
(-0.00120387214652 0.00374034743263 -0.00218407012363)
(-0.00469366864514 0.00158882427448 -0.000334001963541)
(-0.00374226878623 0.00448133287245 -0.00175789156768)
(-0.00376896043242 0.00359085145844 -0.00217601727785)
(-0.00654026372539 0.00126791668803 -0.000384698357099)
(-0.00596694145477 0.00404435498982 -0.00177766051516)
(-0.00600763958317 0.00328896397486 -0.00219778558965)
(-0.00767136012337 0.000898003268407 -0.000475028874296)
(-0.00758540491017 0.0034174267816 -0.00184650774223)
(-0.00764089346185 0.0028559466838 -0.00228635742728)
(-0.00795269153356 0.000500937369047 -0.000617675928078)
(-0.00833681065253 0.00270854855805 -0.00195367879658)
(-0.00842375897796 0.00238711481125 -0.00242724489497)
(-0.00723818367734 0.000148317490846 -0.000815039938932)
(-0.00812897331898 0.00192101849807 -0.00211146497392)
(-0.00831905842044 0.00182337097679 -0.00263555422847)
(-0.00564637550281 -1.39704685089e-05 -0.0010331026506)
(-0.0068219084541 0.00128834659184 -0.00226801733954)
(-0.00716210953721 0.00134094454393 -0.00288018269265)
(-0.00351247573919 5.91735140185e-05 -0.00119012556829)
(-0.00472634878584 0.000964278611152 -0.00234848892842)
(-0.0052720446854 0.00102311705041 -0.00309820735223)
(-0.00140100748251 0.000400831715278 -0.00120022964473)
(-0.00209196963405 0.00100204823408 -0.00208714012485)
(-0.00288409044998 0.000904399739282 -0.00311354895257)
(-0.000374341129587 0.00144688289918 -0.00119950962715)
(-0.000919262938863 0.000946182167954 -0.00284791411374)
(0.000998114151966 0.00211726140283 -0.00209032474777)
(6.23394309546e-05 0.00354388313494 -0.00120513433163)
(0.000896531009135 0.00290154386655 -0.00312656691822)
(0.00347854847965 0.00200046987025 -0.00324090072776)
(0.00203132565675 0.00344240672522 -0.00324282827875)
(0.00300106829486 0.00297160481546 -0.00494627628298)
(0.00606643458527 0.00239277193044 -0.00357933245925)
(0.00523439249144 0.00386768429703 -0.00392433272267)
(0.00562923459237 0.00341410071546 -0.00551165804993)
(0.0079364437383 0.00323730472967 -0.00356356628468)
(0.00772073982389 0.00487053405739 -0.00391863650144)
(0.00764760687458 0.0042896680472 -0.00546737106345)
(0.00876239371726 0.00436192617846 -0.00344986663518)
(0.00920504411331 0.00631268934018 -0.0037137139334)
(0.00881531755889 0.00547862182944 -0.00522945268691)
(0.00849286003443 0.00551176058362 -0.00332996868133)
(0.00946361736099 0.00791809654993 -0.00347555555063)
(0.00894622130762 0.00676336951906 -0.00494985821596)
(0.00723763563535 0.00651864446861 -0.00324462909531)
(0.00858206532463 0.00938120430362 -0.00328892241877)
(0.00809019062586 0.00792226752703 -0.00471897209721)
(0.00524908158464 0.0072968937605 -0.00320561659636)
(0.00677374650864 0.0105921173837 -0.00318023003004)
(0.00639619462073 0.0088799031351 -0.00456988107574)
(0.00279620368376 0.00777761839564 -0.00320265600699)
(0.00433409438389 0.011436272111 -0.00314926700433)
(0.00410741038205 0.00954616073502 -0.00451040466387)
(0.000127602540214 0.00794152579018 -0.00320623413806)
(0.0015664082384 0.0118650115743 -0.00315396623564)
(0.00149208290173 0.0098849743832 -0.00450132767001)
(-0.00254720534461 0.00778682899677 -0.00320057018139)
(-0.00130495443937 0.0118724030894 -0.00315229412538)
(-0.00123017233191 0.00989143295916 -0.00449936355911)
(-0.0050176708327 0.00731241755368 -0.0032015501193)
(-0.00408776238938 0.0114560142007 -0.00314422261536)
(-0.00385870371634 0.0095636429819 -0.00450424011642)
(-0.0070310470993 0.00653638033219 -0.0032394699003)
(-0.00655310354417 0.0106180900724 -0.00317319744898)
(-0.00617070074569 0.00890361678831 -0.00456038496384)
(-0.00831335127156 0.00552987880633 -0.00332515766452)
(-0.00839069689628 0.00940755222442 -0.00328190216547)
(-0.00789289131914 0.00794756535958 -0.00470784880433)
(-0.00861053552643 0.00438184004882 -0.00344746784243)
(-0.00929966002322 0.00794506582618 -0.00347021159334)
(-0.00877751952648 0.00679047054375 -0.00493936130318)
(-0.00781115910492 0.00326135979063 -0.00356444237453)
(-0.00906770166457 0.00634384660499 -0.00371205063713)
(-0.0086763035298 0.00551032120743 -0.00522223321146)
(-0.00596792600373 0.00242313431105 -0.00358340361736)
(-0.00760896368779 0.0049087550329 -0.00392015114883)
(-0.00753809816633 0.00432794225965 -0.00546367081386)
(-0.00340632426718 0.00203768245138 -0.00324550348497)
(-0.00514931517163 0.00391487442849 -0.00392865583189)
(-0.00554985344342 0.00345983337764 -0.0055122284933)
(-0.000955533741636 0.00216026707504 -0.00208642010727)
(-0.00196954400933 0.00349661585448 -0.00324437399798)
(-0.00294830256913 0.00302270401289 -0.00494539251087)
(-3.36052369494e-05 0.00360116836618 -0.0011908858352)
(-0.000875512028023 0.00295471141297 -0.00310984386993)
(0.000965468912769 0.00476912523529 -0.00235763786261)
(-6.92311056086e-06 0.00570274111028 -0.00105364746493)
(0.00101736001686 0.00530954557239 -0.0031243470558)
(0.00390155643362 0.00519570429046 -0.00392626027367)
(0.00242238880078 0.00602361875442 -0.00358492721937)
(0.00344127918845 0.00558979902009 -0.00551732031029)
(0.00695420887709 0.0062155280157 -0.00426363676486)
(0.00625170107124 0.00691487475745 -0.00426486749834)
(0.00643035725301 0.00639472807474 -0.00609986327737)
(0.00910583179893 0.00778839805196 -0.00406878415016)
(0.00917638921432 0.00851898069298 -0.00401129667178)
(0.00865931878745 0.0077769338915 -0.00580008907647)
(0.010004961991 0.0096691296029 -0.00373940284886)
(0.0108483275865 0.0106187611403 -0.00348259979195)
(0.00988194348233 0.00954547142395 -0.00520522077545)
(0.00962526176278 0.0115391324615 -0.00343450928807)
(0.0110585678398 0.012868856158 -0.00293819354044)
(0.00994527310109 0.0114227112797 -0.00457107759129)
(0.00814002808747 0.0131586448415 -0.0032245233535)
(0.00993295705604 0.0149152616487 -0.00250930116119)
(0.00891075268458 0.0131316051785 -0.00404884143745)
(0.00585848187938 0.0143931021874 -0.00312388043801)
(0.00776719748438 0.0165798976762 -0.00224886265818)
(0.00698679999685 0.0145238566706 -0.00370625159998)
(0.00310188151627 0.015157277535 -0.00310057723298)
(0.00492985416222 0.0177342207317 -0.00214748070692)
(0.00445923105384 0.0154914708204 -0.00354136592052)
(0.000134343327145 0.0154197599656 -0.00310002622295)
(0.0017684508865 0.018320786161 -0.00212921543354)
(0.00161253037533 0.0159863421443 -0.00348825484322)
(-0.00284168747113 0.0151746193426 -0.00309594655935)
(-0.00148973105808 0.0183322287986 -0.00212529265743)
(-0.00133692826958 0.0159972198665 -0.00348381484922)
(-0.00562154623926 0.0144223562331 -0.00311586994505)
(-0.00467209503909 0.0177647313871 -0.00213662244219)
(-0.00420114024522 0.0155207720454 -0.00352888033905)
(-0.00793324939582 0.0131921944708 -0.00321562971416)
(-0.00754342281671 0.0166191142532 -0.00223454449063)
(-0.006758056825 0.0145631006192 -0.00368934495616)
(-0.00944772544042 0.0115734055803 -0.0034269560943)
(-0.00974314752833 0.0149536001164 -0.00249663312845)
(-0.00871389161163 0.0131723606754 -0.00403159737697)
(-0.00985394054268 0.00970634812325 -0.00373479438805)
(-0.0108956239141 0.0129066684406 -0.00292852400621)
(-0.00977733458442 0.0114648698403 -0.00455541411496)
(-0.00897947209622 0.00783251776541 -0.00406775941143)
(-0.0107084215607 0.0106616715414 -0.00347604993463)
(-0.0097415087312 0.00959322782179 -0.00519232088814)
(-0.00685317899288 0.00626923219814 -0.00426540336336)
(-0.00905977574572 0.00857230416363 -0.00400719563657)
(-0.0085471781825 0.00783414230125 -0.00578987107787)
(-0.0038265074487 0.00525837809142 -0.0039275263449)
(-0.00616143141672 0.00698008673265 -0.00426251931756)
(-0.00634843650171 0.00646231275755 -0.00609191524449)
(-0.000920268291189 0.00483615360318 -0.00234883972591)
(-0.00235579745418 0.00609716648518 -0.00357924258089)
(-0.00338597166343 0.00566457498414 -0.00550682526898)
(3.89606243343e-05 0.00577663757703 -0.00103138441761)
(-0.000994638524882 0.00538526517352 -0.00309576294211)
(0.00129356757309 0.00688976306913 -0.00228093682168)
(0.00015802590829 0.00732033851962 -0.000837160546401)
(0.00133840554786 0.00722534998093 -0.00291118290751)
(0.0049027935917 0.00767878809452 -0.00392353444404)
(0.00326657464738 0.00789233057069 -0.00356981753835)
(0.00431543078569 0.00760272707284 -0.00547795614445)
(0.00855608454356 0.00913765043553 -0.00401252740527)
(0.00782411437182 0.00906585858157 -0.00407153220801)
(0.00781070328328 0.0086184210965 -0.00580429270357)
(0.0110629209128 0.0112301647575 -0.00342511231358)
(0.0112675595596 0.0110272096861 -0.00342502180637)
(0.0103557282532 0.0103177149651 -0.00501508256006)
(0.0120229470632 0.0136466648541 -0.00268139048354)
(0.0131556244201 0.0135069607334 -0.00242395678317)
(0.011669354543 0.0124497065805 -0.00384824228834)
(0.0114434865523 0.0160180687514 -0.00201298541356)
(0.0132740054336 0.0161172992851 -0.00142400002794)
(0.0116118224402 0.0146876707514 -0.00266899851561)
(0.00958641117058 0.0180610854767 -0.00153364046587)
(0.011814452171 0.0184728150282 -0.000620786723867)
(0.0102950465722 0.0167200739299 -0.00170049316245)
(0.00683902659843 0.0196079287614 -0.00127246292709)
(0.00916368840328 0.0203804579333 -9.78241799816e-05)
(0.00799443147574 0.0183645976627 -0.00105319012411)
(0.00359450287905 0.0205610049929 -0.00117611890748)
(0.00577576645305 0.0217024009478 0.000152282081936)
(0.00506084568713 0.0195032693105 -0.000723670545968)
(0.000145039859212 0.0208884248154 -0.00115448186801)
(0.0020576415026 0.0223748442385 0.000233650955071)
(0.00181763763618 0.0200848463691 -0.000604609433959)
(-0.00331636196914 0.0205852233791 -0.00116596854027)
(-0.00175403158347 0.022389480155 0.000241595646485)
(-0.00152173497723 0.0200994369743 -0.000595865131312)
(-0.00659305122686 0.0196478016167 -0.00125529698778)
(-0.00550249762749 0.0217410570799 0.000173502784004)
(-0.00478936595026 0.0195423668068 -0.000699653983876)
(-0.00937913011201 0.0181045724872 -0.00151554790493)
(-0.00893751605751 0.0204275802051 -7.21396666908e-05)
(-0.00776242832728 0.0184148934307 -0.00102240679606)
(-0.0112670579713 0.0160595232557 -0.00199820104036)
(-0.011628800777 0.0185145642543 -0.000600525435378)
(-0.0101004622824 0.0167690066463 -0.00167305794908)
(-0.0118695837506 0.0136895177736 -0.00266977955278)
(-0.0131126287311 0.0161548497865 -0.00141001272905)
(-0.0114443916368 0.0147344729573 -0.00264567883433)
(-0.010930064169 0.0112811726758 -0.00341548615976)
(-0.0130103892212 0.0135479953961 -0.00241207196281)
(-0.0115244659731 0.0125005642629 -0.00382586836321)
(-0.00844692448422 0.00920100069247 -0.00400431159077)
(-0.0111412906322 0.0110806671937 -0.00341220554722)
(-0.0102358102326 0.0103797758529 -0.004991529959)
(-0.00482040948485 0.0077531446945 -0.00391423555355)
(-0.00772440916443 0.00913379158294 -0.00405822089808)
(-0.0077209925428 0.00869341487188 -0.00578025069611)
(-0.00124338611546 0.00696818071655 -0.00226178727259)
(-0.003193100343 0.0079698689452 -0.00355237823896)
(-0.00425380818813 0.00768669923577 -0.00544976153413)
(-0.000122719585717 0.00739763042447 -0.000805262362691)
(-0.00131222620315 0.00730994894016 -0.00286440456321)
(0.00193056970581 0.00822265578073 -0.00212604126307)
(0.000513428703711 0.008062159504 -0.000641588467613)
(0.00182345712323 0.00841138317333 -0.00267240621993)
(0.00634567108793 0.00916329928838 -0.00371781530231)
(0.00439346339575 0.00871754392008 -0.00345652147219)
(0.00550487394827 0.00876908898913 -0.00524033056759)
(0.0106564352618 0.0108120502071 -0.00348402660911)
(0.00970807940917 0.00996637206145 -0.0037423247784)
(0.00957986554422 0.00984036756053 -0.00521129321767)
(0.0135408936046 0.0131240032295 -0.00242386627596)
(0.0136873248112 0.0119915875056 -0.00267924551911)
(0.0124876027816 0.0116329315854 -0.00384885118432)
(0.0145461302353 0.0157652221131 -0.00116656632758)
(0.0157966509638 0.0145204606078 -0.00116253549152)
(0.0139002702481 0.0138671111557 -0.00201875095271)
(0.0137183077995 0.0183402375054 -3.18013382544e-05)
(0.0157796687736 0.0171463980634 0.000340672004785)
(0.0136893765283 0.0162046391009 -0.000201289976894)
(0.0114082753256 0.0205493037316 0.000815029562017)
(0.0139409134052 0.0195004763167 0.00155056915973)
(0.0120338807815 0.0183263802337 0.00128235876433)
(0.00809325669556 0.0222242132593 0.00132692082904)
(0.0107465426652 0.0214090477445 0.00236087071468)
(0.00928163941595 0.020043185875 0.00228641784893)
(0.0042356892796 0.0232610772569 0.00156205194449)
(0.00673657847683 0.0227327047482 0.00277516425652)
(0.00584521279823 0.02123690914 0.00282725384079)
(0.000159261050284 0.0236194098317 0.00162972846957)
(0.00238655914974 0.023407589936 0.00292462017998)
(0.0020881595076 0.0218496718229 0.00304367311609)
(-0.00393464943414 0.0232900708843 0.00158106697076)
(-0.00205431520104 0.0234241687007 0.00293782520199)
(-0.00176686914166 0.021867266977 0.00305921170572)
(-0.00783817402837 0.0222702744087 0.0013566601051)
(-0.00644751297467 0.0227767323089 0.0028098271495)
(-0.00555941003063 0.0212837721785 0.0028678372608)
(-0.0112042187388 0.0205951500206 0.00084288280286)
(-0.0105227938695 0.0214605613954 0.00239805038283)
(-0.00905060031478 0.020100423565 0.00233304900311)
(-0.0135469229571 0.018378717647 -1.23371240646e-05)
(-0.0137648131465 0.0195395580708 0.00157319918749)
(-0.0118476624695 0.0183761086762 0.00131769346384)
(-0.0143916583695 0.0158014828274 -0.00115230513908)
(-0.0156225173768 0.017176978301 0.000352103651984)
(-0.0135269212863 0.0162475848629 -0.00017741234801)
(-0.0133991850113 0.0131675341837 -0.00240879135027)
(-0.0156454700607 0.0145508854652 -0.0011528491736)
(-0.0137512900769 0.0139099374079 -0.00199538526796)
(-0.0105356987854 0.0108696164272 -0.00346611485453)
(-0.0135482508988 0.0120339383401 -0.0026626471499)
(-0.0123570925563 0.0116865844405 -0.00381678263247)
(-0.00625392725123 0.00923355973662 -0.00369636358349)
(-0.00959618432695 0.0100241650681 -0.00372027693748)
(-0.00947918498481 0.00990840058715 -0.00517217496216)
(-0.00187541041431 0.00829804351418 -0.00209585332907)
(-0.00431205339033 0.00878525296414 -0.00342958792196)
(-0.00543528818274 0.00884707707784 -0.00519393635215)
(-0.000474766519935 0.00813072143263 -0.000602055222996)
(-0.00179393192048 0.0084907017978 -0.00260852681803)
(0.00272267911732 0.00845847813277 -0.00197206867673)
(0.000911152351059 0.00780636883439 -0.000499347556287)
(0.00239215322752 0.00854703921165 -0.0024669017366)
(0.00795596080694 0.00942281329266 -0.00348103094828)
(0.00554698457148 0.00844807214351 -0.00333841566388)
(0.00679270017193 0.00890031438719 -0.00496382349534)
(0.0129126233045 0.0110251177896 -0.0029375436884)
(0.0115842261827 0.0095863581813 -0.00343631993082)
(0.0114619283649 0.00990420893875 -0.00457666208642)
(0.016155876818 0.0132482859302 -0.00141791473466)
(0.0160659844758 0.0114121028829 -0.00200531674734)
(0.0147306066097 0.0115775891364 -0.00266378200946)
(0.0171729772547 0.0157580052609 0.000344702840851)
(0.0183759106567 0.0136937286938 -1.74090351886e-05)
(0.0162397364392 0.0136609932492 -0.000190381086606)
(0.0160607943462 0.018168064161 0.00192304250277)
(0.0181902897563 0.0160381787658 0.00193070747768)
(0.0158578048764 0.0158311179938 0.00222039076615)
(0.013269343624 0.0202265509243 0.0030964103124)
(0.0159814309487 0.0181282727561 0.00347863676424)
(0.0138563264234 0.0177984653592 0.00416364474233)
(0.00936592898843 0.0217877324498 0.00380911414215)
(0.0122546378981 0.0198387378081 0.00452262482528)
(0.0106324456013 0.0193960605251 0.0054737174467)
(0.00488144019565 0.0227521318238 0.004137732492)
(0.00764017498996 0.0210356054879 0.00505954278131)
(0.00666567635105 0.0205061315395 0.00618158315906)
(0.000173351961489 0.0230862717423 0.0042327169124)
(0.00269305894849 0.0216501368547 0.00525376809286)
(0.00237020953371 0.0210771613609 0.00646553764388)
(-0.00455868872061 0.0227838242507 0.00416658538074)
(-0.00233281329405 0.0216670374118 0.00527242103814)
(-0.00202240622754 0.0210967091623 0.00648916797492)
(-0.00910602631855 0.0218374017073 0.00385121742723)
(-0.00733730432563 0.0210811608726 0.0051080250861)
(-0.00636709489012 0.0205584751724 0.00624290322171)
(-0.0130749487818 0.0202717356796 0.00312836676746)
(-0.0120392295747 0.0198915846129 0.00456902171628)
(-0.0104091706229 0.0194581664002 0.00553789068231)
(-0.0158982342703 0.0181999535661 0.00193763996354)
(-0.0158198709684 0.0181641832494 0.00349492668471)
(-0.0136852281133 0.0178453610021 0.0041986486895)
(-0.0170187858651 0.0157837438944 0.000351559617464)
(-0.0180393776295 0.0160628664877 0.00193226270643)
(-0.0157042632902 0.0158674104816 0.00223464859316)
(-0.0160040336433 0.0132785489667 -0.00140670497323)
(-0.0182199531089 0.0137154418082 -1.70805651226e-05)
(-0.0160885506414 0.0136933573181 -0.00017932704598)
(-0.0127776280083 0.0110683151968 -0.00291680923285)
(-0.0159138157621 0.0114425451377 -0.00199186022255)
(-0.0145882093086 0.0116173802692 -0.00263503547031)
(-0.00785286690204 0.00947833784233 -0.00345350127595)
(-0.0114595117461 0.00963013941649 -0.00341077201281)
(-0.0113480905312 0.00995717494492 -0.00453076417445)
(-0.00266134781188 0.0085193731966 -0.00193578981589)
(-0.0054574827884 0.00850113830385 -0.00330592923918)
(-0.00671379089002 0.00896219657082 -0.00490743926244)
(-0.000870058291343 0.00786134225363 -0.000455946081656)
(-0.00235751546896 0.00860980514002 -0.00239199347257)
(0.00343296418794 0.00773219187328 -0.00186569454344)
(0.00128026432424 0.00669884460812 -0.000407777990821)
(0.00286099032 0.0077903114594 -0.00232545115401)
(0.00942441703113 0.00853939238846 -0.00329370464643)
(0.00655644698915 0.00719002903037 -0.00325324538268)
(0.0079547710706 0.00804285774702 -0.004733421242)
(0.0149665098265 0.00989623655722 -0.00250409298976)
(0.0132087133707 0.00809557516033 -0.00322468473568)
(0.0131765676557 0.00886649669609 -0.00405132131977)
(0.0185178560579 0.0117844300034 -0.000604811047866)
(0.0181155920258 0.0095457645013 -0.00152006078476)
(0.0167692177941 0.010255822128 -0.00168501916998)
(0.0195303978814 0.0139159377962 0.00156859560164)
(0.0205903162432 0.011371385145 0.000840427523589)
(0.0183649251915 0.0119994690613 0.00130979106123)
(0.0181510840072 0.0159591525337 0.00348630173914)
(0.0202523869663 0.0132341969382 0.00312024190768)
(0.017825887496 0.0138260866065 0.0041832866406)
(0.0149192020384 0.0177176752259 0.00490485127712)
(0.0177399625304 0.0148846707241 0.004917168342)
(0.0155191884559 0.0154918498202 0.00647547770926)
(0.0104828501692 0.0190668812007 0.00577305346444)
(0.0135474661562 0.0162466937563 0.00615693591121)
(0.0118636166048 0.0168614377834 0.00802839318972)
(0.00544271910727 0.0198999197591 0.00617557838217)
(0.00841253806528 0.0172069061254 0.00674453957865)
(0.00740891135425 0.0178225070221 0.00886883111226)
(0.000186508605236 0.020186617522 0.0062934722186)
(0.00295689489008 0.0176975909394 0.00687799430777)
(0.00262568090537 0.0183171072551 0.00920875928589)
(-0.00509993355682 0.0199293679766 0.00621386074351)
(-0.00257250912156 0.0177116300856 0.00689719951586)
(-0.00225055862411 0.0183356829244 0.00924185253246)
(-0.0102212144203 0.0191147364461 0.00582582937516)
(-0.0080979453521 0.0172473876249 0.0067919150087)
(-0.00709764233964 0.0178730837134 0.00895505531067)
(-0.0147387528927 0.0177613217636 0.00493558163353)
(-0.0133396673673 0.0162958067904 0.00621189474602)
(-0.0116518603956 0.0169230637225 0.0081133142702)
(-0.0179999773188 0.015987837494 0.0034895494276)
(-0.0175937235658 0.0149192652401 0.00492488107821)
(-0.0153662805598 0.0155357634227 0.00650613653641)
(-0.0193786181662 0.01393658124 0.00156362252384)
(-0.0201084956997 0.0132570268245 0.00311051743214)
(-0.0176820115023 0.0138581987337 0.00418447038454)
(-0.0183586125608 0.0118066855547 -0.000602235814452)
(-0.0204320997679 0.0113899412697 0.000830727201491)
(-0.0182139740532 0.0120262100337 0.0013054799942)
(-0.014818962011 0.00992783916064 -0.00248582300252)
(-0.0179540932505 0.00956959126105 -0.00151194269415)
(-0.0166178621787 0.010285849311 -0.00166671727018)
(-0.00931107482489 0.00858105067096 -0.00326319997604)
(-0.013074753208 0.00812795030246 -0.00319911558179)
(-0.0130512888571 0.00890560052866 -0.00400572523647)
(-0.00336745167103 0.00777945809241 -0.00182608550495)
(-0.00646157569467 0.0072291684173 -0.00321816189664)
(-0.00786814461425 0.0080888230276 -0.00467168697573)
(-0.00123842455019 0.00674064993524 -0.000363634939018)
(-0.00282416816397 0.00783802191993 -0.00224678330882)
(0.00406064744968 0.00613669704135 -0.00179532883006)
(0.00160128409609 0.00487131961427 -0.000354603149754)
(0.00329454873191 0.0061808213186 -0.00223313170165)
(0.0106378673346 0.00672512325671 -0.00318422547192)
(0.0073344137908 0.00519694410651 -0.0032140463141)
(0.00891329684001 0.00634473956452 -0.00458414450548)
(0.0166353846495 0.00771934186244 -0.00224065253068)
(0.014443548005 0.00580489823001 -0.00312385122759)
(0.0145715518953 0.00693432691838 -0.00370685003942)
(0.020430480706 0.00911659949445 -7.48222133068e-05)
(0.0196635045281 0.00678200063503 -0.00125760786437)
(0.0184171108798 0.00794107486642 -0.00103134163485)
(0.021444089991 0.0106996604318 0.00239207382963)
(0.0222661451549 0.00803257573162 0.00135604616997)
(0.0200854749558 0.00922793936222 0.00232519158104)
(0.0198653003718 0.0122068099297 0.00455110851053)
(0.0218134804313 0.00929948665233 0.0038406210011)
(0.0194281407953 0.010579178255 0.00551349357527)
(0.016283254884 0.0134977626658 0.00616925297608)
(0.0190868822717 0.0104099824989 0.0057963496541)
(0.0168910009677 0.0118094390154 0.00805673113868)
(0.0114011122733 0.0145000584379 0.00712842202542)
(0.0145495526485 0.0113235233533 0.00712723458524)
(0.0128833445982 0.0128260788561 0.00980531522656)
(0.00589745901007 0.0151511490549 0.00744695550425)
(0.00903357179044 0.0119779540686 0.00757923302591)
(0.00803380244187 0.0135546445946 0.0107326121763)
(0.000196128324825 0.0153904555798 0.00748172160503)
(0.00316597996589 0.0123306479432 0.00766991933918)
(0.00284536579085 0.0139435799864 0.0110682836301)
(-0.00554042687769 0.0151782808602 0.00747525378105)
(-0.00276355572424 0.0123417055896 0.00768839663484)
(-0.00244477364272 0.0139583640571 0.0111064902296)
(-0.0111336621346 0.014541993598 0.00717798037957)
(-0.00870679432345 0.0120084245331 0.00762417085434)
(-0.00770757899991 0.0135958699437 0.0108322068874)
(-0.0161129723829 0.0135366254363 0.0062011941907)
(-0.0143463916088 0.0113607815291 0.00717578927633)
(-0.0126761966421 0.0128768571535 0.00991434020412)
(-0.0197243101192 0.0122350233971 0.00454584908275)
(-0.018949805358 0.0104420696757 0.00580277874501)
(-0.0167522728293 0.0118495918464 0.0080885331847)
(-0.0212958689629 0.0107197486506 0.00237762210979)
(-0.021674970354 0.00932205885878 0.00382542131565)
(-0.0192919777967 0.0106079967213 0.00550652136903)
(-0.0202677477475 0.00913647613242 -7.89796782111e-05)
(-0.0221073343316 0.00805112328039 0.00134125430849)
(-0.0199356673172 0.00925200462518 0.00231068540723)
(-0.0164812374687 0.00774421594935 -0.00222523527343)
(-0.0194977066181 0.00680332429224 -0.00125211307683)
(-0.0182612197255 0.00796617767636 -0.00102026133302)
(-0.010519521556 0.00675556785091 -0.00315407750239)
(-0.0143056800944 0.00582991057374 -0.00309900946771)
(-0.0144404103956 0.00696355860431 -0.00366370151188)
(-0.00399333512592 0.00617107334049 -0.00175571133071)
(-0.00723773472676 0.00522553366487 -0.00317938671226)
(-0.00882346272678 0.00637735026104 -0.00452258388279)
(-0.00155930969715 0.00490233867177 -0.000311181620453)
(-0.00325684481009 0.00621454485659 -0.00215504673704)
(0.00449876983147 0.003929291744 -0.00177332063379)
(0.00180195845064 0.00257919998149 -0.000336539714022)
(0.00359717075876 0.00395948231982 -0.0022066576255)
(0.0114798170938 0.00427861054858 -0.00315367206977)
(0.00781197069 0.00274089067842 -0.00321105183922)
(0.00957678954808 0.00405135367748 -0.00452500149499)
(0.0177868295572 0.00486908245354 -0.00214080656128)
(0.015202995842 0.00304150627933 -0.00310205567165)
(0.0155357386856 0.00439792341666 -0.00354362828003)
(0.0217491977904 0.00570772473828 0.000173260518911)
(0.0206104565726 0.0035251632154 -0.00116462760117)
(0.019551345193 0.00499196386603 -0.000705538280889)
(0.0227631310919 0.00665949944959 0.00280459334144)
(0.02329562262 0.00415656173103 0.00158523348973)
(0.0212739604768 0.00576823978921 0.00286207446859)
(0.0210559787096 0.00755261936301 0.00508586214466)
(0.0227689282847 0.0047901899104 0.00415989581227)
(0.0205314406606 0.00657931637798 0.00621644577912)
(0.0172388574701 0.00831642901562 0.00675433126325)
(0.0199115643017 0.0053398818925 0.00618651663323)
(0.0178450843888 0.0073116408901 0.00888722321892)
(0.0120543525137 0.00893365856769 0.00757804558573)
(0.0151965697819 0.00578774055611 0.00743618032823)
(0.0136099603247 0.00792834800585 0.0107202950511)
(0.0062502076343 0.00933677089915 0.00780219686084)
(0.00943738203369 0.00613824206593 0.00779480938336)
(0.00849138183519 0.00838268958379 0.0116438698825)
(0.00020363299836 0.00947504539849 0.00787659436899)
(0.00329907519112 0.00632278197587 0.00794283982882)
(0.00299977922458 0.00861198190532 0.0120544574026)
(-0.00587988676875 0.00935214404542 0.00783731370813)
(-0.00288391455951 0.00632889258235 0.00796249798802)
(-0.00257954967165 0.00862078259663 0.0120963503824)
(-0.0117831438746 0.00896177074772 0.00762197975111)
(-0.00909874151665 0.00615531730171 0.00784636362544)
(-0.00814834374422 0.00840685085737 0.0117563796725)
(-0.0170704752809 0.0083475305104 0.00677737383064)
(-0.0149916383845 0.0058118129628 0.00747876178884)
(-0.0133998072826 0.0079628449618 0.0108363107832)
(-0.0209202555785 0.00757763233389 0.00508235097791)
(-0.0197757240533 0.0053611295825 0.00619873368093)
(-0.0177101041725 0.0073430914681 0.00893072548162)
(-0.0226171056889 0.00667920864928 0.00278905351435)
(-0.0226325108889 0.00480779161347 0.0041470873635)
(-0.0203990783123 0.00660369293621 0.00621111613537)
(-0.0215855138427 0.00572656809041 0.00016812090987)
(-0.023136767592 0.00417215260412 0.00157096818476)
(-0.0211249190538 0.00578921778332 0.00284737074165)
(-0.0176308802189 0.00488978431381 -0.00212588727111)
(-0.0204436246369 0.00354299631748 -0.00115911358496)
(-0.0193943731261 0.00501307013009 -0.000694321182904)
(-0.0113603200845 0.00430140559797 -0.00312431867758)
(-0.0150643902147 0.00306047572582 -0.00307718466949)
(-0.0154030230741 0.00442010995057 -0.00350114866863)
(-0.00443141446042 0.00395441159489 -0.00173485700201)
(-0.00771529313114 0.00276171419944 -0.00317722313981)
(-0.0094867418779 0.0040747831547 -0.0044651166351)
(-0.00176033213128 0.00260175055973 -0.000294038472303)
(-0.00355991044518 0.00398369101682 -0.00213084805045)
(0.00471808938114 0.00139265302897 -0.00177427091945)
(0.00186924320861 7.10688597246e-05 -0.000332966307146)
(0.00374835658759 0.00140451367222 -0.00220996403331)
(0.0119029258541 0.00150772365347 -0.0031594354411)
(0.00797169552936 7.26319141514e-05 -0.00321480388014)
(0.0099104245807 0.00143408666595 -0.00451658364817)
(0.0183650079621 0.00170174374688 -0.00212587671153)
(0.0154586709165 7.36882681394e-05 -0.00310366005522)
(0.0160230457295 0.0015474770238 -0.00349427008602)
(0.0224115030928 0.00197972905631 0.000247345369655)
(0.020928473637 7.54216657958e-05 -0.00114799832846)
(0.0201224612889 0.0017423606254 -0.000596759125976)
(0.023426070097 0.00229541198337 0.00294053596056)
(0.0236425616299 7.8367013436e-05 0.00164275042952)
(0.0218737381447 0.00200082838456 0.00306362374559)
(0.0216588959919 0.00258834523504 0.00526055030084)