/*--------------------------------*- C++ -*----------------------------------*\
| =========                 |                                                 |
| \\      /  F ield         | OpenFOAM: The Open Source CFD Toolbox           |
|  \\    /   O peration     | Version:  3.0.1                                 |
|   \\  /    A nd           | Web:      www.OpenFOAM.org                      |
|    \\/     M anipulation  |                                                 |
\*---------------------------------------------------------------------------*/
FoamFile
{
    version     2.0;
    format      ascii;
    class       surfaceScalarField;
    location    "5.2";
    object      alphaPhi;
}
// * * * * * * * * * * * * * * * * * * * * * * * * * * * * * * * * * * * * * //

dimensions      [0 3 -1 0 0 0 0];

internalField   nonuniform List<scalar> 
22672
(
8.99395546982e-06
9.00160408919e-06
-1.79955403195e-05
2.01967957576e-05
7.14027705657e-06
-1.83431051871e-05
3.04465930842e-05
6.31442538634e-06
-1.65642220398e-05
3.73599574951e-05
6.52699373007e-06
-1.34404203968e-05
3.94491660135e-05
7.88172057532e-06
-9.97098382961e-06
3.70023611116e-05
9.77758580463e-06
-7.33076205575e-06
3.09962747184e-05
1.15989863257e-05
-5.59298028738e-06
2.21045904761e-05
1.34261698472e-05
-4.5345297439e-06
1.14403137641e-05
1.485305016e-05
-4.18883984411e-06
1.58521408683e-08
1.56173945377e-05
-4.19285610505e-06
-1.14104880176e-05
1.56182824752e-05
-4.19194482607e-06
-2.20797453966e-05
1.48558587466e-05
-4.18659713335e-06
-3.09786988604e-05
1.3430522248e-05
-4.53161061452e-06
-3.69932903791e-05
1.16042377049e-05
-5.58964038055e-06
-3.94464163567e-05
9.78248316275e-06
-7.3294482374e-06
-3.73635633045e-05
7.88784799098e-06
-9.97071502372e-06
-3.04518997646e-05
6.53221999709e-06
-1.34439574453e-05
-2.0201217036e-05
6.32012294705e-06
-1.65707825034e-05
-8.99569735929e-06
7.14731312758e-06
-1.83528444016e-05
9.01052801022e-06
-1.80062127486e-05
7.1367083002e-06
2.02035998058e-05
-1.83387054556e-05
1.99835921329e-05
1.9980784463e-05
-2.56872955737e-05
3.22162942682e-05
2.05980607995e-05
-2.65164035005e-05
4.03343727023e-05
2.26047405578e-05
-2.41958553961e-05
4.29980792933e-05
2.60351164815e-05
-2.08171609037e-05
4.04562981888e-05
3.00075398277e-05
-1.76884938503e-05
3.37739218858e-05
3.35822217975e-05
-1.53008151899e-05
2.40018558348e-05
3.68389996435e-05
-1.36407634261e-05
1.23986303982e-05
3.92508610333e-05
-1.27944164689e-05
2.25686540506e-08
4.05098737709e-05
-1.25165641189e-05
-1.23552520424e-05
4.05107154604e-05
-1.25145247099e-05
-2.39637300969e-05
3.9252956411e-05
-1.27886455793e-05
-3.37441114784e-05
3.68425824266e-05
-1.36317586157e-05
-4.0436768557e-05
3.35868406322e-05
-1.52901048975e-05
-4.29882568822e-05
3.00125540375e-05
-1.76785284234e-05
-4.03324869511e-05
2.60416923983e-05
-2.08098800182e-05
-3.22183165668e-05
2.26113578268e-05
-2.41933525954e-05
-1.99862047868e-05
2.06065068515e-05
-2.65186065395e-05
-7.1377007662e-06
1.99925255341e-05
-2.56935647959e-05
2.02203224814e-05
-1.8347556111e-05
6.31395338686e-06
3.04469835658e-05
-1.65571337245e-05
2.06074127165e-05
3.22013283596e-05
-2.65141259998e-05
3.44427598095e-05
3.44182140173e-05
-2.76555129998e-05
4.35979459962e-05
3.81717942143e-05
-2.47223694234e-05
4.67266462624e-05
4.3366572831e-05
-2.04603575004e-05
4.40903978322e-05
4.90001108748e-05
-1.63561615701e-05
3.68143005602e-05
5.39692983585e-05
-1.31108440115e-05
2.61813117013e-05
5.83051471682e-05
-1.08329540446e-05
1.35388751093e-05
6.14601958974e-05
-9.56697365318e-06
2.94794624107e-08
6.30928811661e-05
-9.07356423311e-06
-1.34820384806e-05
6.30930083009e-05
-9.07088686564e-06
-2.61306643878e-05
6.14608811846e-05
-9.55915140877e-06
-3.67737376256e-05
5.83059260284e-05
-1.0820229035e-05
-4.40620709579e-05
5.39703115862e-05
-1.30950038789e-05
-4.67108366693e-05
4.90015312053e-05
-1.63403414644e-05
-4.35918366792e-05
4.33702993651e-05
-2.0447595907e-05
-3.44423265329e-05
3.81765222012e-05
-2.47148815601e-05
-2.06089328181e-05
3.44262304297e-05
-2.76532376348e-05
-6.31492717001e-06
3.22146363263e-05
-2.65164343016e-05
3.0469245308e-05
-1.65635185044e-05
6.52835635701e-06
3.73489467033e-05
-1.3430636081e-05
2.26186151521e-05
4.03043926805e-05
-2.41933421241e-05
3.82034381989e-05
4.35567003776e-05
-2.4723626405e-05
4.85117385676e-05
4.84615592077e-05
-2.05981867416e-05
5.20476463113e-05
5.47856275385e-05
-1.49549365579e-05
4.90901443127e-05
6.14844309857e-05
-9.52641258282e-06
4.09127235706e-05
6.73243651657e-05
-5.17737636926e-06
2.90363609779e-05
7.22937394472e-05
-2.11219370029e-06
1.50032288818e-05
7.58664970607e-05
-3.72962573901e-07
3.47140652994e-08
7.76914846516e-05
3.70032586895e-07
-1.4935864725e-05
7.76905151661e-05
3.73290500125e-07
-2.89759716974e-05
7.58633551522e-05
-3.62396236215e-07
-4.08633457385e-05
7.22892598778e-05
-2.09573868848e-06
-4.90550696401e-05
6.73185436276e-05
-5.15627502316e-06
-5.2027153732e-05
6.1479225212e-05
-9.50490510056e-06
-4.85030488974e-05
5.47829030394e-05
-1.49367797307e-05
-3.82017030684e-05
4.84610051306e-05
-2.05857811832e-05
-2.26199052568e-05
4.35611144674e-05
-2.4716808464e-05
-6.52985365286e-06
4.03161107252e-05
-2.41915482038e-05
3.73732222352e-05
-1.34345839491e-05
7.88512329045e-06
3.94241966644e-05
-9.9602930145e-06
2.60515811261e-05
4.29555986264e-05
-2.08179964235e-05
4.34026081468e-05
4.66731379532e-05
-2.04673015093e-05
5.48421982249e-05
5.19839410593e-05
-1.49618180251e-05
5.87176491574e-05
5.86445614022e-05
-7.73350357708e-06
5.52926692538e-05
6.56010387669e-05
-6.91561327658e-07
4.60065588649e-05
7.15769589456e-05
5.03344911949e-06
3.26002593521e-05
7.65585228707e-05
9.14156885446e-06
1.68166342311e-05
8.01003410845e-05
1.15496706351e-05
3.78191070966e-08
8.19096238156e-05
1.25607565491e-05
-1.67434323464e-05
8.19069777359e-05
1.25648193752e-05
-3.25344926493e-05
8.00926210653e-05
1.15619932104e-05
-4.5953321631e-05
7.65460262958e-05
9.1619583155e-06
-5.52550915069e-05
7.15609616385e-05
5.05934754027e-06
-5.86957760491e-05
6.55845913464e-05
-6.64981464682e-07
-5.48329108798e-05
5.86314661752e-05
-7.71011547316e-06
-4.34011873359e-05
5.19737818675e-05
-1.49444814554e-05
-2.60539390152e-05
4.66697593851e-05
-2.04558597109e-05
-7.8882260277e-06
4.29617367862e-05
-2.0811525255e-05
3.94450187544e-05
-9.95990697223e-06
9.77879976023e-06
3.69717757775e-05
-7.32653698609e-06
3.00227127626e-05
4.04092757227e-05
-1.76972309608e-05
4.90357148331e-05
4.40337403289e-05
-1.63734057375e-05
6.15416114989e-05
4.90242974163e-05
-9.54582599044e-06
6.56762219415e-05
5.5215997996e-05
-7.0613984665e-07
6.16832395534e-05
6.16035573244e-05
7.99036131855e-06
5.12132202043e-05
6.69814571911e-05
1.50655473095e-05
3.62115870823e-05
7.14355412081e-05
2.0124501744e-05
1.8640427942e-05
7.46067250526e-05
2.30647950279e-05
3.77060688932e-08
7.62222242404e-05
2.42899991471e-05
-1.85670874048e-05
7.6218317774e-05
2.42934296731e-05
-3.61448387458e-05
7.45946082214e-05
2.30757104654e-05
-5.11581742632e-05
7.14156318042e-05
2.01438177226e-05
-6.16434881653e-05
6.69546972885e-05
1.50914261688e-05
-6.56522289577e-05
6.15743089459e-05
8.01899082061e-06
-6.15312715299e-05
5.51896156368e-05
-6.79605166271e-07
-4.90326271274e-05
4.90020765393e-05
-9.52537897817e-06
-3.00236693176e-05
4.40195904904e-05
-1.63587566341e-05
-9.7809655898e-06
4.04067443202e-05
-1.7687642843e-05
3.69877352466e-05
-7.32379277189e-06
1.16024942613e-05
3.09610803819e-05
-5.59154716254e-06
3.35986213649e-05
3.37305031509e-05
-1.53173076623e-05
5.4005502487e-05
3.67660627433e-05
-1.31389374126e-05
6.73819132848e-05
4.08592791519e-05
-5.21153010327e-06
7.16539645531e-05
4.59441913145e-05
4.9996710301e-06
6.70634918975e-05
5.11483175177e-05
1.50457090326e-05
5.54978230897e-05
5.54316364951e-05
2.31154529305e-05
3.90948514036e-05
5.89614760515e-05
2.8876874774e-05
2.00470039464e-05
6.13553420533e-05
3.22989962079e-05
3.50660952197e-08
6.25220548564e-05
3.37120153239e-05
-1.99787322292e-05
6.2517221838e-05
3.37146530371e-05
-3.90329611247e-05
6.13404217155e-05
3.23083425714e-05
-5.54473163416e-05
5.893607623e-05
2.88938167177e-05
-6.70269268674e-05
5.53962100573e-05
2.31381447374e-05
-7.16318048578e-05
5.11073800396e-05
1.50715855854e-05
-6.73718569261e-05
4.59043214776e-05
5.02529246407e-06
-5.40029593228e-05
4.08241062559e-05
-5.19134635698e-06
-3.35991730839e-05
3.67406941783e-05
-1.3123646569e-05
-1.16050266455e-05
3.37181268264e-05
-1.53055199731e-05
3.09681338632e-05
-5.58533069412e-06
1.3430750026e-05
2.20662697811e-05
-4.53598480876e-06
3.68565893347e-05
2.3967849548e-05
-1.36627872621e-05
5.83408418706e-05
2.61499545575e-05
-1.08682341148e-05
7.23501577929e-05
2.90059157513e-05
-2.15597078527e-06
7.66366823217e-05
3.25660434833e-05
9.09150273441e-06
7.1521298499e-05
3.61762067025e-05
2.00875053115e-05
5.90317420949e-05
3.90587662541e-05
2.88622866165e-05
4.14071343968e-05
4.13667652737e-05
3.52191949764e-05
2.12294976174e-05
4.3037001752e-05
3.84958999464e-05
2.94911517227e-08
4.38654390716e-05
3.9856571383e-05
-2.11725883467e-05
4.38603777013e-05
3.9859022159e-05
-4.13571251806e-05
4.30208426849e-05
3.85039715728e-05
-5.89922741849e-05
4.1338543977e-05
3.52325791903e-05
-7.14937912621e-05
3.90183206336e-05
2.88792330527e-05
-7.66201275154e-05
3.61280462094e-05
2.01057043013e-05
-7.23426401456e-05
3.25164376351e-05
9.11010521536e-06
-5.8338440861e-05
2.89611587341e-05
-2.14126377033e-06
-3.68569080909e-05
2.61149439517e-05
-1.08560908554e-05
-1.34327654129e-05
2.39465684473e-05
-1.36518125017e-05
2.20636463302e-05
-4.52836027917e-06
1.4858488196e-05
1.13963838981e-05
-4.18846593305e-06
3.92691041559e-05
1.2373150812e-05
-1.28160578138e-05
6.14946983217e-05
1.35261883336e-05
-9.60187164891e-06
7.59208064766e-05
1.49994391041e-05
-4.19739701687e-07
8.01769603544e-05
1.6814280789e-05
1.14956400476e-05
7.46934149243e-05
1.86366028898e-05
2.30229878154e-05
6.14303220191e-05
2.00409258417e-05
3.22808512693e-05
4.30831778325e-05
2.12156286265e-05
3.84983199002e-05
2.20582630517e-05
2.20358572331e-05
4.20261114164e-05
2.27417279358e-08
2.24445196723e-05
4.34564194872e-05
-2.201539748e-05
2.24392958029e-05
4.34590902138e-05
-4.30476740641e-05
2.20193617012e-05
4.20337969607e-05
-6.14049522321e-05
2.11868557394e-05
3.85088135285e-05
-7.46776974285e-05
2.00005792836e-05
3.22904727923e-05
-8.01683282362e-05
1.8587790609e-05
2.30306951911e-05
-7.59164512727e-05
1.67622685304e-05
1.15024479635e-05
-6.14929001849e-05
1.49514563933e-05
-4.14219388386e-07
-3.92686254807e-05
1.34870218455e-05
-9.59633406436e-06
-1.48597315795e-05
1.23465844587e-05
-1.28091456855e-05
1.13858899994e-05
-4.18162010113e-06
1.56227545819e-05
-3.84142987412e-08
-4.18821829954e-06
4.05276316115e-05
1.14068379324e-09
-1.2532706723e-05
6.31255286929e-05
2.99862815325e-08
-9.10192095626e-06
7.77401608288e-05
4.96474756056e-08
3.35173951025e-07
8.19778028007e-05
6.08174102102e-08
1.25156128057e-05
7.62995518993e-05
5.92143092389e-08
2.42556632043e-05
6.25885919125e-05
4.95837824716e-08
3.37022692521e-05
4.3909261256e-05
3.226595439e-08
3.98626620231e-05
2.2470119753e-05
1.42881565745e-08
4.34606866793e-05
1.60584543685e-08
5.54404789961e-10
4.48979527723e-05
-2.24405070422e-05
-4.14545875045e-09
4.49000365033e-05
-4.38868637716e-05
-7.86201511542e-10
4.34663636657e-05
-6.25759739023e-05
6.7698787962e-09
3.98692372039e-05
-7.62949257593e-05
1.42501732149e-08
3.37051481169e-05
-8.19768636982e-05
1.71720740845e-08
2.42526005145e-05
-7.77390753408e-05
1.58097044712e-08
1.25085992645e-05
-6.3124090744e-05
7.3941146616e-09
3.28826857974e-07
-4.05267943062e-05
-5.54086619539e-09
-9.10514205322e-06
-1.56227431202e-05
-2.47961856399e-08
-1.25321619847e-05
-5.24023984617e-08
-4.18463619437e-06
1.56233639649e-05
-1.14748033329e-05
-4.18633281739e-06
4.0525013235e-05
-1.23755296372e-05
-1.25254461598e-05
6.31200488668e-05
-1.34732728309e-05
-9.09171532707e-06
7.77296446787e-05
-1.49088504979e-05
3.48521431818e-07
8.19616908763e-05
-1.67030433286e-05
1.25317648358e-05
7.62802167571e-05
-1.8526951489e-05
2.42675783473e-05
6.25704392074e-05
-1.99485001055e-05
3.37079140337e-05
4.38946734461e-05
-2.1155127069e-05
3.98631572846e-05
2.24604023828e-05
-2.20095482409e-05
4.3458066505e-05
1.09251016859e-08
-2.24434518049e-05
4.48934675009e-05
-2.24407666803e-05
-2.24469894208e-05
4.48945032302e-05
-4.38820873201e-05
-2.20203443214e-05
4.34609332446e-05
-6.25672637573e-05
-2.11738086263e-05
3.98656412664e-05
-7.6283328514e-05
-1.99745183556e-05
3.37049628726e-05
-8.19660123957e-05
-1.85560488604e-05
2.42558253223e-05
-7.77306926807e-05
-1.67331363268e-05
1.25134267975e-05
-6.31185260992e-05
-1.49378962094e-05
3.32545521766e-07
-4.05231673753e-05
-1.3497927608e-05
-9.1027283003e-06
-1.56223042607e-05
-1.23946656785e-05
-1.25312937358e-05
-1.14875607793e-05
-4.18676711307e-06
1.48591538133e-05
-2.21497716115e-05
-4.18414977326e-06
3.92621604776e-05
-2.39812228615e-05
-1.27963767581e-05
6.14790989308e-05
-2.61169351513e-05
-9.57392497953e-06
7.58906192305e-05
-2.89404871229e-05
-3.7987518691e-07
8.01295728067e-05
-3.24826838397e-05
1.1540312466e-05
7.46355302762e-05
-3.60892055529e-05
2.30563717695e-05
6.13740554622e-05
-3.89845496263e-05
3.22974953532e-05
4.30370353198e-05
-4.13168670914e-05
3.84988252746e-05
2.20268417755e-05
-4.30156835163e-05
4.20163660643e-05
7.11837788483e-09
-4.38639113472e-05
4.34401816308e-05
-2.20147959165e-05
-4.38656824093e-05
4.3440694315e-05
-4.30315780728e-05
-4.30210609666e-05
4.20173673991e-05
-6.13773342723e-05
-4.13258287513e-05
3.84978484516e-05
-7.46429140066e-05
-3.89969024699e-05
3.22879146088e-05
-8.01360199326e-05
-3.61011313161e-05
2.30381968396e-05
-7.58919776785e-05
-3.24929699739e-05
1.15152459953e-05
-6.14761252183e-05
-2.89503876603e-05
-4.03296796654e-07
-3.92588812864e-05
-2.61259553611e-05
-9.58966616626e-06
-1.48572123219e-05
-2.39893939902e-05
-1.28063997578e-05
-2.21570361386e-05
-4.1878576563e-06
1.34308285597e-05
-3.10483972505e-05
-4.5319536854e-06
3.68454941975e-05
-3.37586896807e-05
-1.36369861376e-05
5.83163011262e-05
-3.67576835395e-05
-1.08296375976e-05
7.23041785183e-05
-4.08249190728e-05
-2.10416187359e-06
7.6564339309e-05
-4.58957262963e-05
9.15290873511e-06
7.14320116007e-05
-5.10912002716e-05
2.01343534073e-05
5.8943710791e-05
-5.53802910175e-05
2.88842252453e-05
4.13336775354e-05
-5.89266149612e-05
3.52198050509e-05
2.11792301725e-05
-6.13415078536e-05
3.84803745017e-05
4.39726996826e-09
-6.25193774532e-05
3.98303866578e-05
-2.11722801764e-05
-6.25196238023e-05
3.98304910107e-05
-4.13317959154e-05
-6.13417600225e-05
3.84801889274e-05
-5.89482746366e-05
-5.89262599344e-05
3.52168265705e-05
-7.14392137291e-05
-5.53780918273e-05
2.88722399337e-05
-7.6569441101e-05
-5.10855223256e-05
2.01142709422e-05
-7.23036709223e-05
-4.5886747482e-05
9.12794540426e-06
-5.83120590224e-05
-4.08166315295e-05
-2.12581414211e-06
-3.68410460433e-05
-3.67511420488e-05
-1.08455947798e-05
-1.34282507312e-05
-3.37546954386e-05
-1.36474404481e-05
-3.10479951225e-05
-4.53681590489e-06
1.16011504491e-05
-3.70589472627e-05
-5.59083205899e-06
3.35851998254e-05
-4.0449795162e-05
-1.52921717473e-05
5.39741198839e-05
-4.40478476817e-05
-1.30989052819e-05
6.73255778075e-05
-4.90191617294e-05
-5.15696799857e-06
7.15666740602e-05
-5.52009899541e-05
5.06343662608e-06
6.69558071337e-05
-6.15765509987e-05
1.50962125785e-05
5.53892872532e-05
-6.6953597904e-05
2.31397845047e-05
3.90035317241e-05
-7.14150464944e-05
2.88745666603e-05
1.99836605409e-05
-7.45970566562e-05
3.22753586337e-05
2.69579054003e-09
-7.62185460156e-05
3.36801517941e-05
-1.99796001012e-05
-7.62172907798e-05
3.36798393592e-05
-3.90027029292e-05
-7.45928067729e-05
3.22739937647e-05
-5.53915327748e-05
-7.14071309111e-05
2.88698924506e-05
-6.69589882241e-05
-6.69407603113e-05
2.31298870008e-05
-7.15673254692e-05
-6.15578515855e-05
1.50807178163e-05
-6.73222113466e-05
-5.51782852366e-05
5.04607507687e-06
-5.3968809224e-05
-4.89981439818e-05
-5.17168324126e-06
-3.35799584192e-05
-4.40302096492e-05
-1.31100079443e-05
-1.15982422141e-05
-4.04363692984e-05
-1.5298965849e-05
-3.7052614667e-05
-5.59407069058e-06
9.77663850873e-06
-3.95063583533e-05
-7.32912569229e-06
3.00062620216e-05
-4.30017853344e-05
-1.76779080231e-05
4.90001816717e-05
-4.67008999434e-05
-1.63394435119e-05
6.14802356543e-05
-5.20007351634e-05
-9.49915254253e-06
6.55845257558e-05
-5.86535864367e-05
-6.51401001267e-07
6.15700681013e-05
-6.55991282129e-05
8.03639335668e-06
5.1097297663e-05
-7.15695317256e-05
1.50886247134e-05
3.61114679844e-05
-7.65512529322e-05
2.01218050688e-05
1.85688940946e-05
-8.00955575367e-05
2.30411074286e-05
2.42874744424e-09
-8.19061370755e-05
2.42536249866e-05
-1.85643097155e-05
-8.19039551582e-05
2.42532824247e-05
-3.61075226529e-05
-8.00889986544e-05
2.30393342029e-05
-5.10936895684e-05
-7.65395514726e-05
2.01183489179e-05
-6.15658913732e-05
-7.15515705245e-05
1.50831440656e-05
-6.55787370284e-05
-6.55749062202e-05
8.02963500576e-06
-6.1473521873e-05
-5.86264442045e-05
-6.56867998541e-07
-4.89936331496e-05
-5.19750622602e-05
-9.50355325231e-06
-3.0000867777e-05
-4.66789373314e-05
-1.63426432888e-05
-9.77406427312e-06
-4.29846463321e-05
-1.76789149262e-05
-3.94973952855e-05
-7.32900285889e-06
7.87756895584e-06
-3.74157642027e-05
-9.968957918e-06
2.60300993825e-05
-4.03481225122e-05
-2.08063024884e-05
4.33622901577e-05
-4.35897481053e-05
-2.04435646798e-05
5.4779386305e-05
-4.84885827576e-05
-1.49281268075e-05
5.86281235042e-05
-5.48090479875e-05
-7.69381736607e-06
5.51850281578e-05
-6.14984123107e-05
-6.57408866468e-07
4.5895794397e-05
-6.73317083705e-05
5.05082509187e-06
3.25029704489e-05
-7.22962195616e-05
9.13762043861e-06
1.67463196812e-05
-7.58660526715e-05
1.15267070552e-05
3.0063871217e-09
-7.76885508009e-05
1.25253946845e-05
-1.67395997145e-05
-7.76861781726e-05
1.25244893226e-05
-3.24946066494e-05
-7.58590789181e-05
1.15248221553e-05
-4.58856935761e-05
-7.22842722048e-05
9.13604922422e-06
-5.51740335491e-05
-6.73146109792e-05
5.05130602436e-06
-5.86176034857e-05
-6.1476876258e-05
-6.54059163363e-07
-5.47708843355e-05
-5.47861703231e-05
-7.68789761599e-06
-4.33556448085e-05
-4.84666544116e-05
-1.49226737722e-05
-2.60252935359e-05
-4.35706207824e-05
-2.04388118855e-05
-7.87527721931e-06
-4.03328875307e-05
-2.08012225324e-05
-3.7407829771e-05
-9.96579971656e-06
6.51566651319e-06
-3.04929672464e-05
-1.34381567066e-05
2.25896028216e-05
-3.22352931113e-05
-2.41870007258e-05
3.81568816878e-05
-3.44473783094e-05
-2.47096375162e-05
4.84457160805e-05
-3.81992315971e-05
-2.05784530117e-05
5.19615435178e-05
-4.33922883034e-05
-1.49321603129e-05
4.89902418559e-05
-4.90189580462e-05
-9.50811456518e-06
4.081231161e-05
-5.39824990128e-05
-5.17066331313e-06
2.89486915313e-05
-5.83136521005e-05
-2.11899099446e-06
1.49405702382e-05
-6.14643711617e-05
-3.93363038008e-07
3.42442229172e-09
-6.3094345762e-05
3.42985072818e-07
-1.49324064693e-05
-6.30923551947e-05
3.4221904239e-07
-2.89375172792e-05
-6.14587975992e-05
-3.94728870089e-07
-4.07981938715e-05
-5.83044225217e-05
-2.11871608919e-06
-4.89751082812e-05
-5.39702734887e-05
-5.16686048604e-06
-5.19477964665e-05
-4.90045973796e-05
-9.50039321429e-06
-4.84347938818e-05
-4.33769444988e-05
-1.49215351552e-05
-3.81491776598e-05
-3.81846544601e-05
-2.05677843184e-05
-2.25847269559e-05
-3.44348245697e-05
-2.46996582986e-05
-6.51381472906e-06
-3.22262227211e-05
-2.41780247754e-05
-3.04890461726e-05
-1.34322918919e-05
6.29694563808e-06
-2.02300850521e-05
-1.65598761119e-05
2.05736006534e-05
-2.00021937962e-05
-2.6509620332e-05
3.43933010984e-05
-2.06191211007e-05
-2.76480591063e-05
4.35332732786e-05
-2.26264739849e-05
-2.47125052909e-05
4.66477524837e-05
-2.60570828513e-05
-2.04497038272e-05
4.4002704339e-05
-3.00248618156e-05
-1.63489583785e-05
3.67273241715e-05
-3.35960869086e-05
-1.31111559203e-05
2.61057869441e-05
-3.68491012e-05
-1.08427309316e-05
1.34848912751e-05
-3.92575827159e-05
-9.585776843e-06
3.69815486961e-09
-4.05140879032e-05
-9.09876711578e-06
-1.34758892549e-05
-4.05129346953e-05
-9.09945694957e-06
-2.60930314823e-05
-3.92544450854e-05
-9.58703055261e-06
-3.67110089605e-05
-3.68443141818e-05
-1.08423387199e-05
-4.39847476425e-05
-3.35899034315e-05
-1.31071393324e-05
-4.66307058785e-05
-3.00177250427e-05
-1.63407453632e-05
-4.3519367346e-05
-2.60497575083e-05
-2.04385190417e-05
-3.43834267031e-05
-2.2620189528e-05
-2.47003359278e-05
-2.05676292695e-05
-2.06145955867e-05
-2.76365338503e-05
-6.29442217779e-06
-1.9999724716e-05
-2.64996486569e-05
-2.02299117033e-05
-1.65534753244e-05
7.11819670618e-06
-9.01151386645e-06
-1.83367705345e-05
1.99488399334e-05
-7.15014309847e-06
-2.5682754045e-05
3.21684913467e-05
-6.32568047533e-06
-2.65129764648e-05
4.02750243299e-05
-6.54006645823e-06
-2.41930041742e-05
4.29291861676e-05
-7.89635567513e-06
-2.08147523122e-05
4.03830070201e-05
-9.79012565436e-06
-1.76885531536e-05
3.37029260684e-05
-1.16107256906e-05
-1.53052035067e-05
2.39419330483e-05
-1.34359804487e-05
-1.36521150086e-05
1.23570609219e-05
-1.48602880411e-05
-1.28123105007e-05
4.34295351952e-09
-1.56221060618e-05
-1.25391721445e-05
-1.23465019139e-05
-1.56217233884e-05
-1.25405063819e-05
-2.39273523768e-05
-1.4859249768e-05
-1.2814453316e-05
-3.36843873141e-05
-1.34345645538e-05
-1.36527346113e-05
-4.03624068305e-05
-1.1609288116e-05
-1.53024904603e-05
-4.29088887248e-05
-9.78913348858e-06
-1.76820470765e-05
-4.02578668989e-05
-7.89554137826e-06
-2.08052128703e-05
-3.21557134549e-05
-6.54024645955e-06
-2.41821623732e-05
-1.99406050031e-05
-6.32663556024e-06
-2.65028313036e-05
-7.1141894259e-06
-7.15185332714e-06
-2.56743887156e-05
-9.01323963758e-06
-1.8330846164e-05
8.97889949618e-06
-1.79904515061e-05
2.01691676721e-05
-1.83404314147e-05
3.04101563271e-05
-1.6566702821e-05
3.7317453609e-05
-1.34473542842e-05
3.94013878952e-05
-9.98033394736e-06
3.69541695972e-05
-7.34291807076e-06
3.09498654173e-05
-5.60644794737e-06
2.20653594325e-05
-4.55149976913e-06
1.14135671051e-05
-4.2085315297e-06
5.83083906883e-09
-4.21440842747e-06
-1.13998684316e-05
-4.21606135602e-06
-2.20467895626e-05
-4.21236190631e-06
-3.09262800755e-05
-4.55510284686e-06
-3.6927871621e-05
-5.60772360483e-06
-3.93753123416e-05
-7.34171468838e-06
-3.72936324038e-05
-9.97725564765e-06
-3.03915958156e-05
-1.34422912515e-05
-2.01566018682e-05
-1.65616938775e-05
-8.97213634192e-06
-1.83363336645e-05
-1.79854236645e-05
1.39244268822e-05
1.39314108967e-05
-4.58513367195e-05
2.70757358467e-05
1.62021301882e-05
-4.76965170376e-05
3.71911051733e-05
1.81720636646e-05
-4.48516773734e-05
4.30657287673e-05
2.05818417852e-05
-3.98970164123e-05
4.41652179348e-05
2.32515717154e-05
-3.43220055259e-05
4.07350902782e-05
2.57674914351e-05
-2.96682243639e-05
3.3605192623e-05
2.79735648334e-05
-2.64366919757e-05
2.37290246937e-05
2.99189597843e-05
-2.45775083637e-05
1.22146740753e-05
3.1398880141e-05
-2.40735222231e-05
1.86670448819e-08
3.21947370454e-05
-2.41917815582e-05
-1.21789691353e-05
3.21940205282e-05
-2.41885017882e-05
-2.36979365171e-05
3.13967958611e-05
-2.40646584617e-05
-3.35812294113e-05
2.99157189973e-05
-2.45640184882e-05
-4.07198762467e-05
2.79693830906e-05
-2.64206907698e-05
-4.41580986276e-05
2.57627928943e-05
-2.96540031111e-05
-4.30633688761e-05
2.32473284034e-05
-3.43129036598e-05
-3.71906625733e-05
2.05784034201e-05
-3.98950610499e-05
-2.70751384084e-05
1.81705830014e-05
-4.48569887044e-05
-1.39231291631e-05
1.62035501735e-05
-4.77083429548e-05
1.3936191731e-05
-4.58655633576e-05
1.6205361066e-05
2.70760122329e-05
-4.76885660795e-05
2.95800092017e-05
2.95650527901e-05
-5.24248514923e-05
3.90061276955e-05
3.24435649331e-05
-5.02140511313e-05
4.41970133061e-05
3.63233084847e-05
-4.51283014477e-05
4.49700062069e-05
4.08030004097e-05
-3.91416997904e-05
4.14352904466e-05
4.52416765662e-05
-3.36281071096e-05
3.41845485045e-05
4.92272875315e-05
-2.93040836663e-05
2.42017323169e-05
5.26185199983e-05
-2.6357203333e-05
1.25097254973e-05
5.51037918893e-05
-2.48069045484e-05
2.85364001989e-08
5.64092954874e-05
-2.42498527113e-05
-1.24544008654e-05
5.64081910848e-05
-2.42456079501e-05
-2.41515520161e-05
5.51003612865e-05
-2.47946493028e-05
-3.41425612992e-05
5.2613229964e-05
-2.63379248654e-05
-4.14032316069e-05
4.922064075e-05
-2.92804516687e-05
-4.49483647542e-05
4.52338831573e-05
-3.36048335536e-05
-4.41834837911e-05
4.07957096571e-05
-3.91231147222e-05
-3.89986388249e-05
3.63174261614e-05
-4.51173788341e-05
-2.95759517765e-05
3.24406962604e-05
-5.02111041058e-05
-1.6203293825e-05
2.95666359347e-05
-5.24293451736e-05
2.70848985794e-05
-4.76994715734e-05
1.81811242364e-05
3.71779727e-05
-4.48402324062e-05
3.24667084787e-05
3.89775919349e-05
-5.02121837233e-05
4.21559704495e-05
4.2119179738e-05
-4.70205130655e-05
4.72876410723e-05
4.66931563451e-05
-4.02237688796e-05
4.78346333635e-05
5.2082914337e-05
-3.22873827664e-05
4.39650123417e-05
5.75287777505e-05
-2.47730922321e-05
3.62479492625e-05
6.24474994878e-05
-1.86131654928e-05
2.56849773234e-05
6.65045956623e-05
-1.41556128808e-05
1.32991212762e-05
6.93934020456e-05
-1.14706390069e-05
3.5118036791e-08
7.08861543524e-05
-1.02860345978e-05
-1.32308699742e-05
7.08843423743e-05
-1.02806877668e-05
-2.5622467566e-05
6.93877279868e-05
-1.14550521862e-05
-3.6194757604e-05
6.64960450008e-05
-1.41305689848e-05
-4.39237631364e-05
6.24369779561e-05
-1.85819470366e-05
-4.78050215422e-05
5.75170242742e-05
-2.47411932686e-05
-4.72682014545e-05
5.20715005342e-05
-3.22604662236e-05
-4.21443253262e-05
4.66836701674e-05
-4.02050267349e-05
-3.24602741951e-05
4.21134195946e-05
-4.70106621906e-05
-1.817774032e-05
3.89780214686e-05
-5.02100420752e-05
3.71894851906e-05
-4.48458911293e-05
2.05950831271e-05
4.30358347404e-05
-3.98832188881e-05
3.63521367564e-05
4.41553098773e-05
-4.51287773128e-05
4.6735753152e-05
4.72399476925e-05
-4.02278629917e-05
5.20086703112e-05
5.19561973449e-05
-3.11343154747e-05
5.22906118246e-05
5.75552671096e-05
-2.07079212906e-05
4.78527998227e-05
6.3259493266e-05
-1.08191006534e-05
3.93174306255e-05
6.83703264401e-05
-2.56475560053e-06
2.77916646044e-05
7.25256858378e-05
3.39258125943e-06
1.43691259448e-05
7.54373951532e-05
7.00572785842e-06
3.91921425299e-08
7.6934760736e-05
8.6514076767e-06
-1.42928820773e-05
7.69319002282e-05
8.65771607065e-06
-2.77211281289e-05
7.54293221379e-05
7.0245125347e-06
-3.9256522219e-05
7.25129255107e-05
3.42267447221e-06
-4.78051970645e-05
6.83539733969e-05
-2.52457189703e-06
-5.22563767321e-05
6.32415357969e-05
-1.07780322673e-05
-5.19858750316e-05
5.75377323061e-05
-2.06722499185e-05
-4.6721790744e-05
5.19409506117e-05
-3.11074979285e-05
-3.63441532928e-05
4.72291548731e-05
-4.02102061337e-05
-2.05910716452e-05
4.41519344832e-05
-4.51196935763e-05
4.304681756e-05
-3.98826901471e-05
2.32683069883e-05
4.41209093337e-05
-3.43146836392e-05
4.08362769122e-05
4.49203559766e-05
-3.91507309444e-05
5.21298709066e-05
4.77812256572e-05
-3.2302584046e-05
5.7611815149e-05
5.2234096159e-05
-2.0720226402e-05
5.75745073929e-05
5.75146608047e-05
-7.65580170205e-06
5.24290401206e-05
6.29601570156e-05
4.75347691277e-06
4.29465257061e-05
6.78820382278e-05
1.50041693434e-05
3.02896268673e-05
7.1819021658e-05
2.250468191e-05
1.564232568e-05
7.45386200144e-05
2.70954160145e-05
4.07449616995e-08
7.59285873224e-05
2.91680894511e-05
-1.55629103406e-05
7.5924761057e-05
2.91749399876e-05
-3.02163770199e-05
7.4527605199e-05
2.71164276117e-05
-4.28833902866e-05
7.18014963613e-05
2.25400377379e-05
-5.23792433634e-05
6.78592911511e-05
1.50497401726e-05
-5.75386630864e-05
6.29345636512e-05
4.8014706965e-06
-5.75879885494e-05
5.74888520295e-05
-7.61199484938e-06
-5.21154067146e-05
5.22106051153e-05
-2.06854408591e-05
-4.08280391832e-05
4.77631371583e-05
-3.2277496794e-05
-2.32642940643e-05
4.49109846693e-05
-3.91342732544e-05
4.412820499e-05
-3.4306558549e-05
2.57864533997e-05
4.0683740596e-05
-2.96755834758e-05
4.5277721929e-05
4.1384027585e-05
-3.36525632797e-05
5.75787905955e-05
4.39137902116e-05
-2.48058452819e-05
6.33186835282e-05
4.78000765618e-05
-1.08518549038e-05
6.30219748098e-05
5.23737182602e-05
4.73171755678e-06
5.7241146338e-05
5.71846818672e-05
1.95464445357e-05
4.67550920276e-05
6.15119009782e-05
3.19214743714e-05
3.2901216815e-05
6.49530419623e-05
4.08443643e-05
1.69697058859e-05
6.73214735778e-05
4.62131659207e-05
3.9521985334e-08
6.85380711e-05
4.86103650441e-05
-1.68926299744e-05
6.85334372434e-05
4.86166468407e-05
-3.28301040666e-05
6.73078320419e-05
4.62326690497e-05
-4.66937795518e-05
6.49306103301e-05
4.08781485583e-05
-5.71927117776e-05
6.14818008445e-05
3.19673664142e-05
-6.29873495041e-05
5.71498440772e-05
1.95982932938e-05
-6.32958435333e-05
5.23376633199e-05
4.78012235801e-06
-5.75651744855e-05
4.77661440367e-05
-1.08117133696e-05
-4.52698756139e-05
4.38858410397e-05
-2.47756595692e-05
-2.57820947337e-05
4.13658077172e-05
-3.3630563597e-05
4.06832527741e-05
-2.9660901627e-05
2.79957435808e-05
3.35562042574e-05
-2.64600345794e-05
4.92667179847e-05
3.41416476246e-05
-2.93451443638e-05
6.24994222938e-05
3.6207938734e-05
-1.86657211394e-05
6.84312184706e-05
3.92799499353e-05
-2.62311437183e-06
6.7945217535e-05
4.29073281779e-05
1.49518495984e-05
6.1568958077e-05
4.67160914443e-05
3.18902473619e-05
5.01717053283e-05
5.01332940574e-05
4.58912079609e-05
3.52518034563e-05
5.29084785276e-05
5.58413635576e-05
1.81717604311e-05
5.49492348535e-05
6.17513527734e-05
3.61478143698e-08
5.59974926167e-05
6.43883784166e-05
-1.81016559652e-05
5.59924622866e-05
6.43935674616e-05
-3.51876237123e-05
5.49343662957e-05
6.17676394983e-05
-5.01169493903e-05
5.28832559366e-05
5.58703755772e-05
-6.15260914513e-05
5.00979464812e-05
4.59309949353e-05
-6.79150797805e-05
4.66734514463e-05
3.19365636084e-05
-6.84116024491e-05
4.28615458837e-05
1.49977495382e-05
-6.24879895043e-05
3.9235230936e-05
-2.58405727733e-06
-4.92600880314e-05
3.61698606887e-05
-1.86356017146e-05
-2.79918774214e-05
3.41139485665e-05
-2.93210807444e-05
3.35458209724e-05
-2.64400028034e-05
2.99442586278e-05
2.36903393767e-05
-2.46140089191e-05
5.26600745266e-05
2.41733679106e-05
-2.6410266623e-05
6.6558652553e-05
2.56628233218e-05
-1.42214893439e-05
7.25871930427e-05
2.77746977919e-05