/*--------------------------------*- C++ -*----------------------------------*\
| =========                 |                                                 |
| \\      /  F ield         | OpenFOAM: The Open Source CFD Toolbox           |
|  \\    /   O peration     | Version:  3.0.1                                 |
|   \\  /    A nd           | Web:      www.OpenFOAM.org                      |
|    \\/     M anipulation  |                                                 |
\*---------------------------------------------------------------------------*/
FoamFile
{
    version     2.0;
    format      ascii;
    class       volScalarField;
    location    "5.2";
    object      k;
}
// * * * * * * * * * * * * * * * * * * * * * * * * * * * * * * * * * * * * * //

dimensions      [0 2 -2 0 0 0 0];

internalField   nonuniform List<scalar> 
7968
(
0.000545623225233
0.000635881842808
0.000704426123035
0.000743637798514
0.000760240489156
0.000762155431985
0.000756024980795
0.000745532037965
0.000734839455631
0.000726723299039
0.000726708622775
0.000734813545384
0.000745506469674
0.000756008666055
0.000762157528096
0.000760261614309
0.000743676178736
0.000704472817558
0.000635928872771
0.000545650393373
0.000635859842737
0.000951182054382
0.00115324868617
0.00126232719271
0.00130679164054
0.0013103022024
0.00129219961694
0.0012649248619
0.0012404529026
0.00122607918755
0.00122603567903
0.00124034325003
0.00126477364293
0.00129204220957
0.00131017874609
0.0013067252921
0.00126232523747
0.00115329254121
0.000951246533599
0.000635900265994
0.000704379037871
0.00115320418965
0.00143341238834
0.00158512581624
0.00164947116717
0.00165749055371
0.001634807757
0.00160014102613
0.00156944960445
0.0015518596125
0.00155179364979
0.00156927682452
0.00159988965496
0.00163452676449
0.00165724326725
0.00164930083934
0.00158504563283
0.00143340455362
0.00115324235819
0.000704418497116
0.000743561257558
0.00126224642216
0.00158509816687
0.00175947903371
0.00183237010218
0.00183913995936
0.00181028735236
0.00176917047752
0.00173448938216
0.0017153992565
0.00171532378425
0.00173426405869
0.00176883230769
0.00180988621794
0.00183876582445
0.00183208331645
0.00175929959997
0.00158501241418
0.00126223277834
0.000743591445547
0.000760142034636
0.0013067174819
0.00164948183368
0.00183242911406
0.00190381044264
0.00190437019424
0.00189654138012
0.00187703646796
0.00185428116521
0.00183920364919
0.00183913454678
0.00185410078809
0.00187677160647
0.00189621450162
0.00190390406238
0.00190340984421
0.0018321425041
0.00164930380315
0.00130663258082
0.000760150438221
0.000762066513516
0.00131031419031
0.00165764335634
0.00183939244638
0.00190459043087
0.00194207656508
0.00195112111047
0.00193795141344
0.00191683068066
0.00190150845665
0.00190144082695
0.00191665727045
0.00193770069206
0.00195082325285
0.00194172741897
0.00190412746543
0.00183902221766
0.00165738859499
0.00131016823616
0.000762049619887
0.000755955153607
0.0012923324826
0.00163516921851
0.00181083170073
0.00189689890492
0.00195132783041
0.00196587422902
0.00195220723406
0.00192816181196
0.00191021962037
0.00191015444715
0.00192799724652
0.00195197389318
0.00196560627857
0.00195104240598
0.00189658655182
0.00181044480878
0.00163488369108
0.00129214680038
0.000755910018347
0.000745483054089
0.00126516758609
0.0016006812713
0.00176994902678
0.00187759518735
0.00193838651812
0.00195244763686
0.00193440060762
0.00190488679346
0.00188264525777
0.00188258770749
0.00190474727164
0.00193421297447
0.00195224373934
0.0019381808964
0.00187737866651
0.00176965950292
0.00160044842205
0.00126499582505
0.000745422002327
0.000734785129361
0.00124072352504
0.00157003927686
0.00173534735229
0.00185494924084
0.00191741530712
0.00192857550959
0.00190506490825
0.00186810372001
0.00183975346518
0.0018397127872
0.00186801603336
0.0019049656915
0.00192848970811
0.00191734655578
0.001854884764
0.00173525247614
0.00156994918503
0.0012406310377
0.000734729641545
0.000726643146909
0.0012262837719
0.00155235024459
0.00171604665022
0.00183981952599
0.00190209163563
0.00191066904341
0.00188288640211
0.00183983362051
0.0018057891843
0.00180578129163
0.00183983281039
0.00188291911449
0.00191074849307
0.00190221026907
0.00183996279163
0.00171620652822
0.00155246979607
0.00122632590703
0.000726620885038
0.000726656766453
0.0012261490403
0.00155211380269
0.00171576276014
0.0018395789463
0.00190189048559
0.00191052486931
0.00188282071259
0.00183985628142
0.00180589364179
0.00180593250318
0.00183996730101
0.00188300959787
0.00191078985355
0.00190221103451
0.00183993800721
0.00171616559245
0.00155245135273
0.00122634274489
0.000726690952513
0.00073478895198
0.00124039450181
0.00156945248803
0.00173455234697
0.00185436300582
0.00191694273767
0.00192825632341
0.00190494750568
0.00186820756248
0.00184005066161
0.00184010981486
0.00186836960121
0.00190521219554
0.00192861522095
0.0019173653101
0.00185483296726
0.00173513444575
0.00156990451333
0.00124066836701
0.000734849379504
0.000745495542894
0.00126477439642
0.0015999406954
0.0017689222345
0.00187685076164
0.00193780624219
0.00195208724468
0.00193432061474
0.0019051075804
0.00188311501205
0.0018831773137
0.00190527819299
0.00193459693752
0.00195245718107
0.00193823675015
0.00187732467523
0.00176950434395
0.00160039332304
0.00126504902099
0.000745553493915
0.000755999181733
0.00129200163895
0.00163447579868
0.00180980931247
0.00189612776174
0.00195075940904
0.00196556149975
0.00195221148699
0.00192849527944
0.00191081465217
0.00191087367825
0.00192865590043
0.00195246455884
0.00196588682304
0.00195112780293
0.00189652383359
0.00181027067764
0.00163482818053
0.00129220939152
0.000756032406913
0.000762147340126
0.00131012672033
0.00165714295105
0.00183859333881
0.00190365227984
0.00194152866024
0.00195087891614
0.0019380290916
0.00191722923549
0.0019021610686
0.00190221616404
0.00191737485798
0.00193824559481
0.00195113918059
0.00194180735715
0.00190395597778
0.00183885750251
0.00165734247131
0.00131023503073
0.000762148936011
0.000760251234458
0.00130669767935
0.00164922193586
0.00183192643021
0.0019031538436
0.00190379719588
0.00189636313233
0.00187717207725
0.00185471993671
0.00183988095399
0.00183993516734
0.00185485681805
0.00187735764199
0.00189655885874
0.00190396339728
0.00190327320145
0.00183201767037
0.0016492844083
0.00130671626024
0.000760228252764
0.000743663433786
0.00126235187857
0.00158504537074
0.00175924697428
0.00183201755332
0.0018388201407
0.00181018104923
0.00176938308119
0.00173503488279
0.00171613629066
0.00171619363444
0.00173517565428
0.00176955191125
0.0018103253786
0.00183890922627
0.001832051537
0.00175925217326
0.00158503176741
0.00126231939228
0.00074362971865
0.000704456898943
0.00115336842229
0.00143348915946
0.00158507953806
0.00164933548258
0.00165736732281
0.00163481800522
0.00160037320148
0.00156992738603
0.00155254374442
0.00155260202395
0.00157006340931
0.00160052898723
0.00163494364913
0.00165743720363
0.00164935246817
0.00158506214481
0.00143345372612
0.00115332503236
0.000704425897325
0.000635910826139
0.000951333640063
0.00115337008847
0.00126237976179
0.00130678420936
0.00131029371183
0.00129225836047
0.00126511761044
0.00124080400738
0.00122657078988
0.00122662090137
0.00124091606017
0.00126524393696
0.00129235941565
0.00131035067547
0.0013067990577
0.00126236334891
0.00115333993455
0.00095130137503
0.000635888394966
0.000545640605111
0.000635946544148
0.00070450561921
0.000743714653779
0.000760307667209
0.000762220970765
0.00075610116917
0.000745641743945
0.000734993297098
0.00072692418138
0.000726950473442
0.000735047251617
0.000745697094177
0.000756140208375
0.000762238409529
0.000760307638977
0.000743701348573
0.000704490531416
0.000635934300335
0.000545627939966
0.000626310114766
0.000861148207051
0.00103840407485
0.00115026349191
0.00121104018889
0.00123619047083
0.00123905662171
0.00123009284915
0.00121871112163
0.0012111166306
0.00121108765916
0.00121864179033
0.00123000346593
0.00123896957257
0.00123613010323
0.00121102066825
0.00115028403322
0.00103845291453
0.000861206783266
0.000626343996129
0.000861112440773
0.00164746482466
0.00208925346456
0.00234385494812
0.00247253505014
0.00251960925044
0.00251855397535
0.00249410366375
0.00246623726205
0.00244843372273
0.00244837496199
0.00246608573803
0.00249389078339
0.00251832448548
0.0025194201616
0.00247242738408
0.00234383943457
0.00208930795892
0.00164754918084
0.000861158141184
0.00103833742756
0.0020891694311
0.00267820893083
0.00302620574428
0.00321149994046
0.00328785135894
0.00329740236099
0.00327363576166
0.00324263374402
0.00322188550554
0.0032218049817
0.00324242131795
0.00327332659337
0.0032970455984
0.00328752428085
0.00321126028988
0.00302607655159
0.00267817851121
0.00208920407573
0.00103836727116
0.00115016642954
0.00234371279678
0.0030261520259
0.00343817160437
0.00366596271156
0.00376840778799
0.00379111463804
0.00377800946379
0.00375577103581
0.00373835394776
0.00373826559702
0.0037555559317
0.00377768447805
0.00379066309633
0.00376796727923
0.00366559079755
0.00343790827086
0.00302600091478
0.00234365624554
0.00115016216219
0.00121094338746
0.00247241436648
0.00321148580291
0.00366601163995
0.00392577541769
0.00405684063245
0.00409282107776
0.0040769141734
0.00404653003606
0.00402478684051
0.00402467265571
0.00404622303907
0.00407646031051
0.00409229760212
0.00405641099859
0.00392531494236
0.00366562508405
0.00321120878144
0.00247225064564
0.00121089265972
0.00123614483265
0.00251961643713
0.00328799635279
0.00376863340747
0.0040569969359
0.00419318535654
0.00422730755361
0.00420608740644
0.00416880444762
0.00414265326827
0.0041425288982
0.00416846835742
0.00420559229923
0.00422673750685
0.00419264316751
0.00405656740536
0.00376817674748
0.00328762855093
0.00251936686596
0.00123604735865
0.00123909869092
0.00251874560197
0.00329777499662
0.00379159753637
0.00409337494343
0.00422770650797
0.00425601684788
0.00422601175638
0.00417963477207
0.00414771670613
0.00414759754008
0.00417931398176
0.00422554346914
0.00425547720958
0.00422716680215
0.00409288133573
0.00379115246441
0.00329739501316
0.00251846547069
0.00123896841276
0.00123022537066
0.00249444850268
0.00327417966533
0.00377856125626
0.004077795616
0.00420692692695
0.00422649535366
0.00418551661668
0.00413189001436
0.00409490664624
0.00409480829536
0.0041316350754
0.00418515914055
0.00422609377189
0.00420653580026
0.00407744496549
0.00377830113767
0.00327390688504
0.00249422934111
0.00123009878933
0.00121887938466
0.00246662181285
0.00324322468993
0.00375638107525
0.00404758619139
0.0041699228888
0.00418045628331
0.00413222355734
0.0040683476979
0.00402415479568
0.00402409340313
0.00406820410461
0.0041320530199
0.00418030797005
0.00416981609942
0.0040475127793
0.00375634153048
0.00324316616655
0.00246655901178
0.00121880654651
0.00121124503214
0.002448726807
0.00322237225311
0.00373897359174
0.00402578492615
0.00414377069134
0.00414859902961
0.00409537131142
0.00402431720272
0.00397479266603
0.00397479045476
0.00402433759346
0.00409545901466
0.00414878635129
0.00414403864089
0.00402607816887
0.00373923030929
0.00322260524729
0.00244888972072
0.00121127306434
0.00121114659486
0.00244850345768
0.00322207426133
0.00373865895025
0.00402539925954
0.00414341205799
0.00414835355529
0.00409528621156
0.00402439539969
0.00397500379856
0.00397507289974
0.00402460370467
0.00409565323817
0.00414888896978
0.0041440568226
0.00402605693147
0.00373922324068
0.00322260385831
0.00244890231433
0.00121129100514
0.00121864624508
0.00246606767509
0.00324247248359
0.00375565536396
0.00404660906158
0.0041690257653
0.00417986841081
0.00413206922145
0.00406862892916
0.00402478329113
0.00402489189132
0.00406894407259
0.00413259897251
0.00418061378506
0.00416988958162
0.00404747237831
0.00375635182862
0.00324317189731
0.00246660090357
0.00121884919962
0.00122995570967
0.00249375493833
0.00327319829232
0.00377757967574
0.00407651970059
0.00420578548629
0.00422580004227
0.00418542406931
0.00413241490872
0.00409591437638
0.00409603628322
0.00413276574832
0.00418600196891
0.00422659125734
0.00420668882397
0.00407741740111
0.0037783216383
0.0032739286184
0.00249430923303
0.0012301566643
0.00123888074533
0.00251811076531
0.00329679483136
0.00379041668059
0.00409210768554
0.00422660719782
0.00425540087453
0.00422607787587
0.00418040286587
0.00414900038096
0.00414912247076
0.0041807507672
0.00422663354208
0.00425611638644
0.00422739944863
0.00409288789077
0.00379113531495
0.00329743221504
0.00251858467262
0.00123903332703
0.00123602932491
0.00251919640689
0.00328723860528
0.00376765546045
0.00405614056842
0.00419235069163
0.00422687117646
0.00420627582714
0.00416965297973
0.00414401343338
0.00414412979279
0.00416997529314
0.00420676263673
0.00422745613573
0.00419295236201
0.00405668454403
0.0037681796692
0.00328769425348
0.00251952568278
0.00123611315245
0.00121093126695
0.0024722769163
0.00321105231961
0.00366534289438
0.00392504987154
0.00405635837861
0.00409259084807
0.00407718148396
0.00404734446257
0.00402605217594
0.00402616602565
0.00404764757339
0.00407760783228
0.00409305950667
0.00405680282938
0.00392543013548
0.00366567548922
0.00321132662333
0.00247246097481
0.00121095459238
0.00115022383972
0.00234383493966
0.0030260407046
0.00343784341643
0.00366553291751
0.0037680727589
0.00379105049459
0.0037783176415
0.00375646163818
0.00373943766533
0.00373955121582
0.00375675328006
0.0037787147626
0.00379146800302
0.00376843345684
0.00366581367844
0.00343805918519
0.003026196072
0.00234392051287
0.00115021307532
0.00103842125734
0.00208946016525
0.00267834345008
0.0030261617565
0.00321135068936
0.00328774205477
0.0032974934132
0.00327403781143
0.00324338218653
0.00322294360314
0.00322305915299
0.00324367615262
0.00327442332181
0.00329788076498
0.00328806711247
0.00321159202319
0.00302632773792
0.00267844380234
0.00208950016436
0.00103839983541
0.000861181243687
0.00164778896779
0.00208951079301
0.00234399366154
0.00247258469388
0.00251966495032
0.00251873083
0.00249449205297
0.00246687258328
0.00244929554099
0.00244939439497
0.00246712022816
0.00249481418695
0.00251905412736
0.00251993919322
0.00247279094184
0.00234413189169
0.00208958831749
0.00164781279091
0.000861158048603
0.000626303914772
0.000861276626929
0.00103854957083
0.00115037234875
0.00121110471672
0.00123623823192
0.001239135994
0.0012302565766
0.00121898249298
0.00121148911613
0.00121153385973
0.00121908395953
0.00123037569437
0.00123924223114
0.00123631627157
0.0012111522882
0.00115039544311
0.00103855708494
0.000861271489151
0.000626282320656
0.000705581251141
0.00103537747458
0.00128480405242
0.00144491403663
0.00153541808365
0.00157731565035
0.0015898719831
0.00158942494787
0.00158752807255
0.00158746231088
0.00158741820627
0.00158741456234
0.00158926766885
0.00158970673048
0.00157718659161
0.00153535443818
0.00144491826492
0.00128485833474
0.00103544987566
0.00070561887012
0.00103534808343
0.00203363382762
0.00260210954163
0.00293502181484
0.00310850253526
0.00317735053936
0.00318442925781
0.00316261134389
0.00313612047748
0.00311954322471
0.00311946817064
0.003135923945
0.00316233260849
0.00318412585041
0.00317709740659
0.00310836288004
0.00293500933527
0.00260219495992
0.00203376139215
0.001035415593
0.00128474320015
0.00260199685656
0.00334978844713
0.00380102201076
0.00405205781357
0.00416693229211
0.0041969876305
0.00418238425063
0.00415349581658
0.00413282339363
0.00413272992309
0.00415324760596
0.00418203032457
0.00419659624042
0.00416656710897
0.004051797578
0.00380089356057
0.00334977837116
0.00260206357857
0.00128478700608
0.00144482141533
0.00293483501072
0.00380094368263
0.00433974334155
0.00465694436448
0.00482040285985
0.00488591558426
0.00489445216972
0.00487427125987
0.00485578840745
0.0048556870464
0.00487400261007
0.00489407728742
0.00488553777487
0.00481996330502
0.00465657624504
0.00433948272063
0.00380079721692
0.00293478652408
0.00144480985469
0.00153534136376
0.00310834352977
0.00405200297154
0.00465696035242
0.00503219272158
0.00524906662943
0.00534024955605
0.00535695094099
0.00533951078095
0.00532094619399
0.00532082897522
0.00533919707519
0.00535650845661
0.00533976663715
0.00524859672525
0.00503176008868
0.00465658287422
0.00405171326236
0.00310815710857
0.00153525785041
0.00157732973168
0.00317735432379
0.00416702980037
0.00482054448625
0.00524919503664
0.00549024338774
0.00559651428725
0.00561767169783
0.00559814865105
0.00557666004489
0.00557652831385
0.00559779530894
0.00561717044141
0.00559596424399
0.00548972679526
0.00524873654837
0.00482010089794
0.00416663440883
0.00317705090906
0.00157717383774
0.00159003975036
0.00318468014145
0.00419731099928
0.00488617449177
0.00534061645376
0.00559682296548
0.00571081245891
0.00573037120089
0.0057034200235
0.0056758254187
0.00567569457639
0.00570307349734
0.00572987939123
0.0057102623376
0.00559630973762
0.00534018564912
0.00488582408152
0.00419691083303
0.00318433778185
0.0015898373498
0.00158974795771
0.00316307560278
0.00418292646838
0.00489499565363
0.00535762323703
0.00561840331308
0.00573088681381
0.00574126292289
0.00570144907753
0.00566485669204
0.00566475465633
0.00570118485935
0.00574089039887
0.00573045695995
0.00561800578595
0.00535731034434
0.0048947266993
0.00418263826241
0.00316281705611
0.00158956017622
0.00158790173588
0.00313663497738
0.00415410351307
0.00487493461948
0.00534039400268
0.00559921484934
0.00570438161158
0.00570196064352
0.00564775201346
0.00560153477976
0.00560148614758
0.00564763545127
0.00570180835994
0.00570421897553
0.00559909411998
0.00534034255966
0.00487491000586
0.00415406859376
0.00313659026954
0.00158780884132
0.00158774390779
0.00311991296683
0.00413329716032
0.00485637685171
0.00532182449484
0.0055778110352
0.0056769772782
0.005665612858
0.00560182879481
0.00554928142168
0.00554929899004
0.00560189731691
0.0056657526592
0.00567719269875
0.00557808630085
0.00532214511779
0.00485670025031
0.00413361240324
0.00312017079618
0.00158780966292
0.00158754410779
0.00311957845872
0.0041329140182
0.00485599169734
0.00532142517355
0.00557743765302
0.00567670444481
0.0056655097331
0.00560191222667
0.00554951051493
0.00554959834357
0.00560217306915
0.00566594661739
0.00567729691417
0.0055781088555
0.00532211935153
0.00485666590262
0.0041335797201
0.00312014061899
0.00158777411925
0.00158740392765
0.00313578107219
0.00415311681947
0.0048739483876
0.00533937281468
0.00559827057746
0.00570371406682
0.00570173798274
0.00564801894127
0.00560218409981
0.00560231492649
0.00564839685402
0.00570234590782
0.00570450477141
0.00559915439277
0.00534027163777
0.00487481875244
0.0041539839139
0.00313651714123
0.00158771973093
0.00158912541425
0.00316196288281
0.00418162318919
0.00489371203774
0.00535629358532
0.00561718349986
0.0057300510247
0.0057410582127
0.00570192932321
0.00566587309698
0.00566601695541
0.00570234503861
0.0057417127634
0.00573087381044
0.00561808559882
0.00535720339748
0.00489459497491
0.00418251633999
0.00316272336913
0.00158943940903
0.00158946054092
0.00318358563338
0.00419599406964
0.00488496791983
0.00533928970246
0.00559562008355
0.00571002597116
0.00573027563033
0.00570408673044
0.00567710535684
0.00567724503338
0.00570448793632
0.00573089043205
0.0057107690244
0.00559640518547
0.00534006140842
0.00488569050202
0.00419676073014
0.00318423693339
0.00158970168182
0.00157689879794
0.00317649094233
0.00416588999144
0.00481930793422
0.00524801761557
0.00548922681634
0.00559589284937
0.00561768255971
0.00559886784763
0.00557795391356
0.00557808813538
0.00559924031027
0.00561822627877
0.00559651621423
0.0054898484734
0.00524860812069
0.0048198901008
0.0041664535344
0.00317694753213
0.00157703120275
0.00153507490344
0.00310781261524
0.00405118603587
0.00465598459352
0.0050312324883
0.00524828765125
0.00533981519243
0.00535702497922
0.0053401728166
0.00532211021608
0.00532224424069
0.00534053141626
0.00535751969269
0.00534034542217
0.00524877828761
0.00503166222976
0.00465637909226
0.00405153914718
0.00310806978238
0.00153510942033
0.00144468217028
0.00293462781534
0.00380047148079
0.00433908063096
0.00465622945101
0.00481981696158
0.00488567180343
0.00489462446137
0.00487492617724
0.00485687160764
0.00485701231394
0.00487529301043
0.00489511359353
0.00488617372577
0.0048202526118
0.00465657405644
0.00433935667177
0.00380068208891
0.00293474916988
0.00144465973461
0.00128467711617
0.00260203211059
0.0033496130152
0.00380065634184
0.00405160180784
0.00416655018738
0.00419686841079
0.00418265286972
0.00415419563752
0.00413390416174
0.004134051968
0.0041545746975
0.00418314928841
0.0041973651625
0.00416696699908
0.0040519127377
0.00380087575623
0.00334975002774
0.00260208391303
0.00128463406299
0.00103530173133
0.00203378866607
0.00260214611744
0.00293490479465
0.00310828045167
0.00317714584779
0.00318439833379
0.00316286823536
0.00313669868978
0.00312040821551
0.00312053758405
0.00313702518383
0.00316329229187
0.00318482135731
0.00317750043784
0.00310854157345
0.00293508052002
0.00260224274732
0.0020338083606
0.00103525239306
0.000705468566801
0.00103541400122
0.00128484446488
0.00144488949769
0.00153531665538
0.00157717144172
0.00158975711372
0.00158941294585
0.00158764171768
0.00158768637464
0.00158773883078
0.00158775982165
0.0015895470828
0.00158986858916
0.00157724196406
0.00153534414673
0.00144488726515
0.00128482289989
0.00103537777289
0.000705421663389
0.000799212782177
0.00123362384725
0.00155700989452
0.00176488966424
0.00188699033058
0.00195145814034
0.00198599293637
0.00201369008089
0.00204294889238
0.00206439577431
0.00206433629068
0.00204278370615
0.00201344292551
0.00198571435728
0.00195122509291
0.00188685618231
0.00176486068524
0.00155705669409
0.0012336980413
0.00079924948704
0.0012336252477
0.0024474265757
0.00313376397462
0.00352987753487
0.00373148654789
0.0038066303617
0.00381208250634
0.00379177152437
0.00377307474974
0.00376436522711
0.0037642540001
0.00377277294499
0.00379133200115
0.00381159323828
0.00380621408847
0.00373124485259
0.00352982897223
0.00313386410934
0.00244759319334
0.00123371659883
0.00155698801027
0.00313363950301
0.00402253843072
0.00455001653998
0.00483846399322
0.00496655352519
0.00499832087373
0.00498092270802
0.00495081007805
0.00493054933344
0.00493042266321
0.00495046650418
0.00498042609648
0.00499776497246
0.00496604778066
0.00483811261956
0.00454985442873
0.00402254583575
0.00313375402682
0.00155705685835
0.0017648399834
0.00352968304913
0.00454993680533
0.00517573421783
0.00554424588677
0.00573715192291
0.00582480340177
0.00583706291496
0.00581648416428
0.00579656278262
0.00579644248836
0.00581615936244
0.00583660058208
0.00582428801226
0.00573663738348
0.00554383263458
0.00517544606557
0.00454979460639
0.00352966629017
0.00176484231523
0.00188697231613
0.00373135139377
0.0048384219348
0.00554425484064
0.00599487847196
0.00626359775524
0.00639355788898
0.00642928746017
0.00641562866445
0.00639556224735
0.00639543503088
0.00641528224923
0.00642879823654
0.00639302392758
0.0062631131792
0.00599453082131
0.00554386682898
0.0048381083568
0.0037311544114
0.00188688090978
0.00195157079398
0.00380673311757
0.00496670240563
0.00573727286069
0.00626367732651
0.00658567303999
0.00675051686346
0.00680012166182
0.00678595174851
0.00676255238771
0.00676240412364
0.0067855435261
0.00679953914258
0.00674988757818
0.00658511072996
0.00626322396064
0.00573681334891
0.00496624602909
0.00380636067474
0.00195137708119
0.00198632216331
0.00381255346216
0.00499876568056
0.00582508338782
0.00639381013449
0.00675077600116
0.00693454914317
0.00698468784845
0.00696142364598
0.00693069865642
0.00693054848894
0.00696101418349
0.00698410096559
0.00693387386865
0.00675015348333
0.00639332371117
0.00582465698471
0.00499827575731
0.00381209979782
0.00198605892161
0.00201420834975
0.00379255595088
0.00498163695078
0.00583754771043
0.00642978436321
0.00680081823937
0.0069853202352
0.00702473253315
0.00698572522455
0.00694382979231
0.00694372656361
0.00698544900058
0.0070243246516
0.00698475855737
0.00680025847473
0.00642936892613
0.00583722375584
0.00498127118792
0.00379219335476
0.00201396771024
0.00204345852439
0.00377390038269
0.00495159498576
0.00581710145343
0.00641637783097
0.00678705806497
0.00696264143209
0.00698646463877
0.00692921586966
0.00687569854429
0.00687567389662
0.00692914339311
0.00698632632466
0.00696238746103
0.0067867794338
0.00641619544087
0.00581702864987
0.00495153343195
0.00377381511265
0.00204335667411
0.00206469424854
0.00376492998668
0.00493113761938
0.00579711858568
0.00639639758892
0.00676383967827
0.0069321982788
0.00694489572628
0.00687610567787
0.00681548892066
0.00681553187325
0.00687622592875
0.00694507595959
0.00693238838609
0.00676400074024
0.00639659192595
0.00579742143596
0.00493150087943
0.0037652403677
0.0020648036612
0.00206437811208
0.00376440868258
0.00493059409557
0.00579663242698
0.0063959406284
0.00676340436288
0.00693186389547
0.00694474966951
0.00687616862199
0.00681569958229
0.00681580571763
0.00687646844844
0.00694523136782
0.00693247569884
0.00676400545396
0.00639652720314
0.00579731906207
0.00493137825117
0.00376510715985
0.00206468216063
0.00204262062864
0.00377252052972
0.00495015619269
0.0058158263692
0.00641519135639
0.00678593383416
0.00696177858816
0.00698607693972
0.00692936264017
0.0068762344213
0.00687638383983
0.00692977996396
0.00698672572693
0.00696257911633
0.00678674633515
0.00641598063661
0.0058167259726
0.00495118597974
0.00377345072957
0.00204303024035
0.00201308806555
0.0037906763517
0.00497966307722
0.0058358150865
0.00642818543705
0.00679929122752
0.00698412709839
0.00702424060096
0.00698598257809
0.00694464635196
0.00694480554276
0.00698643863265
0.00702493465935
0.00698493547687
0.00680009490731
0.00642897212225
0.00583672577836
0.00498072468538
0.00379164719199
0.00201349675959
0.00198519329461
0.00381058723397
0.00499664333858
0.00582320763683
0.00639210087145
0.0067491810778
0.0069333087034
0.00698421895747
0.00696183314742
0.00693178218517
0.00693193156983
0.00696226660068
0.00698486308003
0.00693402144911
0.00674984923725
0.00639275668009
0.0058239842078
0.00499755697713
0.00381142010583
0.00198550493197
0.00195062634784
0.00380500990002
0.00496472471449
0.00573538550407
0.00626204058344
0.00658421389427
0.00674940972447
0.00679970304524
0.00678634587797
0.00676360995826
0.00676375332267
0.00678674351517
0.00680025935802
0.00674999200181
0.00658473282983
0.00626255454144
0.00573598608619
0.0049653822313
0.00380558044661
0.00195078268262
0.00188625948926
0.00373001701195
0.00483676081045
0.00554255049434
0.00599346855957
0.00626229251434
0.00639256907127
0.00642882008564
0.00641582485561
0.00639635065108
0.00639649292256
0.00641620715785
0.00642932590455
0.00639307167638
0.00626273082731
0.00599387800143
0.00554295579698
0.00483715922812
0.00373031754433
0.00188627088781
0.00176431735783
0.0035287401683
0.00454863861992
0.00517426572787
0.00554280647992
0.0057358981499
0.00582390980017
0.00583664710621
0.00581663654073
0.00579722939027
0.00579738398866
0.00581703925648
0.00583716763228
0.00582441699914
0.00573632064613
0.00554313445315
0.00517453679963
0.00454885463291
0.00352885466919
0.00176424182611
0.00155659025519
0.00313302679166
0.00402160032651
0.00454884625761
0.00483720335448
0.00496539601875
0.00499749145049
0.0049805868761
0.00495101031844
0.00493121520928
0.00493138201052
0.00495143480789
0.0049811278762
0.00499800831721
0.00496580412884
0.00483748840855
0.00454903799301
0.00402170802407
0.00313303810471
0.00155648281328
0.00123330250695
0.00244707170465
0.0031331757405
0.00352906134741
0.0037305106405
0.00380564694384
0.00381130001704
0.00379134037232
0.00377301799779
0.00376463141718
0.00376477134157
0.00377336554477
0.00379177550173
0.00381170964301
0.00380596211942
0.00373071424444
0.00352917788051
0.00313321430064
0.00244703079506
0.00123319094282
0.000798914303455
0.00123340479949
0.00155674709835
0.00176450574806
0.00188645192475
0.00195078339968
0.00198526210565
0.00201298666315
0.002042291376
0.00206378857485
0.00206382766155
0.00204236911087
0.00201305196178
0.00198528039205
0.00195074753676
0.00188637018983
0.00176440297009
0.00155663610452
0.00123329417847
0.000798816885539
0.000923358693172
0.00150372421344
0.0019295881616
0.00221232676204
0.00239702334341
0.00251954178763
0.00261585524924
0.00271204812424
0.00280377042897
0.00286248068298
0.00286242959573
0.00280361465144
0.00271179183226
0.00261553671048
0.00251925975405
0.00239686022483
0.00221228999229
0.00192963949818
0.00150380279757
0.000923398129736
0.00150377172094
0.00300841451424
0.00384447023504
0.00432630491426
0.00457170176917
0.00466583231759
0.00468585919079
0.00469107360466
0.00470631070873
0.00472215397261
0.00472199333969
0.00470585355596
0.00469039000826
0.00468508736119
0.00466517235849
0.00457131638702
0.00432621443044
0.00384460367928
0.00300865270861
0.00150389861514
0.00192961907579
0.00384435110516
0.00489277516707
0.00549639716241
0.00580972294973
0.00593515199113
0.00595728383
0.00593496011848
0.00590613025612
0.00588923592701
0.00588904780195
0.00590560485423
0.00593418260807
0.00595640344623
0.00593438060168
0.00580920598543
0.00549619730788
0.00489284885937
0.0038445843132
0.00192974317186
0.00221232405346
0.00432612874924
0.00549632561289
0.00618295066906
0.00657138451346
0.00676949836393
0.00685274447859
0.00685626461873
0.00682489200042
0.00679813095088
0.00679797084625
0.00682444384292
0.00685560406525
0.00685198716643
0.0067688573562
0.00657078966925
0.00618260231686
0.0054962398781
0.00432624053233
0.00221240499326
0.00239703748184
0.00457162582203
0.00580972335198
0.00657140265538
0.00705900292139
0.00734997385414
0.00749000297562
0.0075178456722
0.00748577434267
0.00745222784972
0.00745208004652
0.00748534271919
0.0075171989443
0.00748925153808
0.00734926951448
0.00705841111784
0.00657090942026
0.0058094095597
0.00457151494217
0.00239703837554
0.00251965094247
0.00466607276158
0.00593541590989
0.00676959676755
0.00735004013324
0.00771628673
0.00789765879505
0.00793298420453
0.0078920954855
0.00785065836363
0.00785049220609
0.00789159753107
0.00793221293523
0.00789675547146
0.00771543847511
0.00734935063373
0.00676909015787
0.00593488453883