/*--------------------------------*- C++ -*----------------------------------*\
| =========                 |                                                 |
| \\      /  F ield         | OpenFOAM: The Open Source CFD Toolbox           |
|  \\    /   O peration     | Version:  3.0.1                                 |
|   \\  /    A nd           | Web:      www.OpenFOAM.org                      |
|    \\/     M anipulation  |                                                 |
\*---------------------------------------------------------------------------*/
FoamFile
{
    version     2.0;
    format      ascii;
    class       volScalarField;
    location    "5.2";
    object      rAU;
}
// * * * * * * * * * * * * * * * * * * * * * * * * * * * * * * * * * * * * * //

dimensions      [-1 3 1 0 0 0 0];

internalField   nonuniform List<scalar> 
7968
(
1.05228319748e-05
1.05150396013e-05
1.05155900433e-05
1.05191491853e-05
1.05031250016e-05
1.04897384608e-05
1.04986646142e-05
1.05059451464e-05
1.05093390896e-05
1.05104799471e-05
1.0510480318e-05
1.05093402373e-05
1.05059508719e-05
1.04986806725e-05
1.04895706853e-05
1.05029487874e-05
1.05191507689e-05
1.05155895076e-05
1.05150375481e-05
1.05228297672e-05
1.05150412185e-05
1.04958085443e-05
1.04908265147e-05
1.04917622343e-05
1.04857130115e-05
1.04743826675e-05
1.04730905865e-05
1.04790612267e-05
1.04824501149e-05
1.04836695183e-05
1.04836703546e-05
1.0482454203e-05
1.04790715355e-05
1.04731054614e-05
1.04743491389e-05
1.04856735537e-05
1.04917640635e-05
1.04908262023e-05
1.04958053973e-05
1.0515040392e-05
1.05155902697e-05
1.04908246423e-05
1.04820651714e-05
1.04806751324e-05
1.04761601807e-05
1.04675223825e-05
1.04656597991e-05
1.04711593431e-05
1.04753768727e-05
1.04772434703e-05
1.04772475546e-05
1.04753891143e-05
1.04711790497e-05
1.0465675148e-05
1.04675085941e-05
1.04761440241e-05
1.04806803845e-05
1.04820689173e-05
1.04908245321e-05
1.05155905177e-05
1.05191549867e-05
1.04917594099e-05
1.04806725579e-05
1.04782593381e-05
1.04740554681e-05
1.04671360014e-05
1.04659088003e-05
1.0470842592e-05
1.04750882877e-05
1.04772151509e-05
1.04772199326e-05
1.04750987925e-05
1.04708590687e-05
1.04659210339e-05
1.04671277352e-05
1.04740435505e-05
1.04782646628e-05
1.04806778757e-05
1.04917614061e-05
1.05191585814e-05
1.05028906082e-05
1.04856712232e-05
1.04761460979e-05
1.04740521845e-05
1.04672135937e-05
1.046180605e-05
1.04563026544e-05
1.04583874584e-05
1.04608472894e-05
1.04618584436e-05
1.04618577609e-05
1.04608467401e-05
1.04583851308e-05
1.04562845555e-05
1.04617705134e-05
1.04671962028e-05
1.0474043061e-05
1.04761339923e-05
1.04856381061e-05
1.05027770371e-05
1.04895208984e-05
1.04743552128e-05
1.04675249995e-05
1.04671487353e-05
1.04618294994e-05
1.0447125855e-05
1.04390823036e-05
1.04400083305e-05
1.04414207107e-05
1.04418029863e-05
1.04418044416e-05
1.04414253589e-05
1.04400123724e-05
1.04390707665e-05
1.04470820933e-05
1.04617932839e-05
1.04671418008e-05
1.04675125135e-05
1.04743232247e-05
1.04894062335e-05
1.04986947075e-05
1.04731059468e-05
1.04656785755e-05
1.04659387791e-05
1.04563512587e-05
1.04390990277e-05
1.04310667474e-05
1.04331333278e-05
1.04356371956e-05
1.043823656e-05
1.04382519439e-05
1.04356530786e-05
1.04331559043e-05
1.04310798123e-05
1.04390803935e-05
1.04563266794e-05
1.04659477052e-05
1.04656886676e-05
1.04731100583e-05
1.04986948192e-05
1.0505955573e-05
1.04790601371e-05
1.04711613934e-05
1.04708651404e-05
1.04584261273e-05
1.04400047513e-05
1.04331032255e-05
1.04406759546e-05
1.04546793876e-05
1.04589091522e-05
1.04589163303e-05
1.04547041582e-05
1.0440738339e-05
1.04331207943e-05
1.04399978753e-05
1.04584149108e-05
1.04708778548e-05
1.04711759491e-05
1.04790626284e-05
1.05059525545e-05
1.05093415428e-05
1.04824422267e-05
1.04753651827e-05
1.04750997705e-05
1.04608741879e-05
1.04413995117e-05
1.04355837611e-05
1.04546120639e-05
1.04650994048e-05
1.04691917144e-05
1.04691959499e-05
1.04651116059e-05
1.04546315332e-05
1.0435592312e-05
1.04413919208e-05
1.04608656194e-05
1.04751078078e-05
1.04753734126e-05
1.04824419934e-05
1.05093390373e-05
1.05104797097e-05
1.04836598092e-05
1.04772315908e-05
1.04772074884e-05
1.04618821131e-05
1.04417765816e-05
1.04379748047e-05
1.04588503366e-05
1.04691784546e-05
1.047339819e-05
1.04733999617e-05
1.04691826174e-05
1.04588519991e-05
1.04379529533e-05
1.04417631614e-05
1.04618731475e-05
1.0477204429e-05
1.04772303443e-05
1.04836567979e-05
1.05104784684e-05
1.05104709301e-05
1.04836562964e-05
1.0477239746e-05
1.04772209634e-05
1.04618803968e-05
1.04417830539e-05
1.04380249084e-05
1.04588599919e-05
1.04691763989e-05
1.04733893043e-05
1.04733890538e-05
1.04691735362e-05
1.04588479523e-05
1.04379653597e-05
1.04417646875e-05
1.04618699472e-05
1.04772056382e-05
1.04772292377e-05
1.04836495614e-05
1.05104691352e-05
1.05093161445e-05
1.04824307881e-05
1.0475386034e-05
1.04751160771e-05
1.0460865296e-05
1.04414117465e-05
1.04356217659e-05
1.04546453615e-05
1.04650923387e-05
1.04691622331e-05
1.04691610209e-05
1.04650870883e-05
1.04546236081e-05
1.0435606923e-05
1.04413953712e-05
1.04608569808e-05
1.04751061397e-05
1.04753710751e-05
1.04824213449e-05
1.05093128445e-05
1.05059098641e-05
1.04790442578e-05
1.04711847194e-05
1.04708841255e-05
1.04584036504e-05
1.04400107715e-05
1.04331540114e-05
1.0440710104e-05
1.04546433414e-05
1.04588572065e-05
1.04588565382e-05
1.04546403933e-05
1.04406892831e-05
1.04331451252e-05
1.04400055427e-05
1.04584053926e-05
1.04708791513e-05
1.04711740767e-05
1.04790350768e-05
1.05059058893e-05
1.0498629034e-05
1.04730893849e-05
1.04656940209e-05
1.04659513876e-05
1.04563043355e-05
1.04390790762e-05
1.04311034374e-05
1.04331661066e-05
1.04356492389e-05
1.04379867903e-05
1.04379921867e-05
1.04356512126e-05
1.04331693471e-05
1.04311101982e-05
1.04390898773e-05
1.0456317521e-05
1.04659559102e-05
1.04656954218e-05
1.04730866828e-05
1.04986281337e-05
1.04897247637e-05
1.0474343845e-05
1.04675148921e-05
1.04671410571e-05
1.0461770423e-05
1.04470651688e-05
1.04390738943e-05
1.04400069786e-05
1.04414081871e-05
1.0441780169e-05
1.04417820587e-05
1.04414136689e-05
1.044001652e-05
1.0439086741e-05
1.04470762566e-05
1.04617777813e-05
1.04671471481e-05
1.04675211896e-05
1.0474348734e-05
1.0489762185e-05
1.05031281266e-05
1.04856649347e-05
1.0476135229e-05
1.04740355623e-05
1.04671907896e-05
1.04617653336e-05
1.04562935975e-05
1.04583880094e-05
1.04608430583e-05
1.04618546045e-05
1.04618547167e-05
1.04608443407e-05
1.04583915401e-05
1.04562976187e-05
1.04617633239e-05
1.04671872751e-05
1.04740349459e-05
1.04761356876e-05
1.04856678634e-05
1.05031650387e-05
1.05191505067e-05
1.04917575521e-05
1.0480674379e-05
1.04782605874e-05
1.04740408601e-05
1.04671399271e-05
1.04659423117e-05
1.0470869699e-05
1.04750987861e-05
1.04772015492e-05
1.04771994275e-05
1.04750951651e-05
1.04708676627e-05
1.04659431524e-05
1.04671359886e-05
1.0474033059e-05
1.04782575053e-05
1.04806736283e-05
1.04917577497e-05
1.05191518559e-05
1.05155873732e-05
1.04908193556e-05
1.04820628235e-05
1.04806709103e-05
1.04761416572e-05
1.04675201786e-05
1.04656862841e-05
1.04711750402e-05
1.04753732015e-05
1.04772279142e-05
1.04772266709e-05
1.04753708907e-05
1.04711750262e-05
1.04656898934e-05
1.04675179657e-05
1.04761359506e-05
1.04806712537e-05
1.04820644316e-05
1.04908203373e-05
1.05155889879e-05
1.05150387885e-05
1.04958025887e-05
1.04908167102e-05
1.04917502789e-05
1.04856768055e-05
1.04743657533e-05
1.04731077279e-05
1.04790624958e-05
1.04824405556e-05
1.04836547038e-05
1.04836533287e-05
1.04824396578e-05
1.04790657885e-05
1.0473115881e-05
1.04743657567e-05
1.0485673138e-05
1.04917520146e-05
1.04908188706e-05
1.04958043964e-05
1.05150417335e-05
1.0522828134e-05
1.05150338794e-05
1.05155827402e-05
1.05191391677e-05
1.0503064108e-05
1.04896941961e-05
1.04986813281e-05
1.0505948353e-05
1.05093360975e-05
1.05104759258e-05
1.05104759837e-05
1.05093378666e-05
1.05059551155e-05
1.04986959313e-05
1.04896753987e-05
1.05030368868e-05
1.05191406159e-05
1.05155846475e-05
1.05150352428e-05
1.05228302993e-05
1.05213115122e-05
1.05068485107e-05
1.05006149669e-05
1.04995816817e-05
1.04942143707e-05
1.04856986482e-05
1.04844038756e-05
1.04889142948e-05
1.0492522038e-05
1.04940951645e-05
1.04940958154e-05
1.04925249251e-05
1.048892046e-05
1.04844099346e-05
1.04856867719e-05
1.0494196139e-05
1.0499575132e-05
1.05006098129e-05
1.05068428602e-05
1.05213064897e-05
1.05068517943e-05
1.04394924134e-05
1.03986424469e-05
1.03802629888e-05
1.03698519571e-05
1.03635266659e-05
1.03639693847e-05
1.03691924422e-05
1.03740379119e-05
1.03766070043e-05
1.03766103813e-05
1.03740475387e-05
1.03692068128e-05
1.03639813475e-05
1.03635236117e-05
1.03698380347e-05
1.03802528311e-05
1.03986346303e-05
1.04394860799e-05
1.05068480222e-05
1.05006218105e-05
1.03986474886e-05
1.03329895733e-05
1.0299523117e-05
1.02831954545e-05
1.02769019196e-05
1.02777861412e-05
1.02827093403e-05
1.02877180905e-05
1.02906457688e-05
1.02906529209e-05
1.02877377913e-05
1.02827384449e-05
1.0277816818e-05
1.02769196601e-05
1.02831980227e-05
1.02995189431e-05
1.03329830892e-05
1.03986404808e-05
1.05006201516e-05
1.04995853976e-05
1.03802698372e-05
1.02995318578e-05
1.02558048988e-05
1.02351814198e-05
1.02293608465e-05
1.0229081832e-05
1.0232082044e-05
1.02359484947e-05
1.02386933093e-05
1.02387024057e-05
1.0235967854e-05
1.02321096643e-05
1.02291153997e-05
1.02293946893e-05
1.02352089515e-05
1.02558099233e-05
1.02995289174e-05
1.03802624316e-05
1.04995819479e-05
1.04942009688e-05
1.03698616729e-05
1.02832100038e-05
1.02351825558e-05
1.02116985993e-05
1.02029442076e-05
1.02003991346e-05
1.02037442081e-05
1.02083473069e-05
1.02113367081e-05
1.02113477947e-05
1.02083777261e-05
1.02037865319e-05
1.02004396622e-05
1.02029685006e-05
1.02117232182e-05
1.02352064156e-05
1.0283213235e-05
1.03698515987e-05
1.04941861184e-05
1.04856965686e-05
1.03635430557e-05
1.02769094346e-05
1.02293502998e-05
1.02029330155e-05
1.01915088981e-05
1.01916965377e-05
1.01968734375e-05
1.02026875991e-05
1.02062024496e-05
1.0206215426e-05
1.02027239083e-05
1.01969250297e-05
1.01917502798e-05
1.01915486711e-05
1.02029541008e-05
1.02293802394e-05
1.02769261446e-05
1.03635407176e-05
1.04856854795e-05
1.04844305155e-05
1.03639856077e-05
1.02777763764e-05
1.02290581895e-05
1.02003521432e-05
1.01916503051e-05
1.0193788998e-05
1.02002563592e-05
1.02067320112e-05
1.02124578795e-05
1.02124804548e-05
1.02067654089e-05
1.02003027144e-05
1.01938397987e-05
1.01916974561e-05
1.02003835621e-05
1.02290847053e-05
1.02778030521e-05
1.03639951387e-05
1.04844331626e-05
1.04889337839e-05
1.03691980321e-05
1.02826838506e-05
1.02320507976e-05
1.02036614369e-05
1.01967780985e-05
1.02002043912e-05
1.02112551296e-05
1.02295680317e-05
1.02370684943e-05
1.02370819686e-05
1.02296085613e-05
1.02113351517e-05
1.02002409848e-05
1.0196812394e-05
1.02036853296e-05
1.02320656445e-05
1.02827051155e-05
1.03692079123e-05
1.04889375365e-05
1.04925278044e-05
1.03740325561e-05
1.02876835644e-05
1.02359058349e-05
1.02082455426e-05
1.02025661137e-05
1.02066528222e-05
1.02294990104e-05
1.02451541439e-05
1.02524246635e-05
1.02524332954e-05
1.02451775504e-05
1.02295293827e-05
1.02066665642e-05
1.02025717015e-05
1.0208244563e-05
1.0235903378e-05
1.02876880203e-05
1.03740340413e-05
1.04925297821e-05
1.04940949719e-05
1.03766006042e-05
1.02906140309e-05
1.02386294389e-05
1.02112369829e-05
1.0206090107e-05
1.02121581839e-05
1.02369906355e-05
1.02524117388e-05
1.02598321132e-05
1.02598354545e-05
1.02524182647e-05
1.02369877074e-05
1.02121232015e-05
1.02060603226e-05
1.02112014449e-05
1.02385992355e-05
1.02905956244e-05
1.03765893783e-05
1.04940934173e-05
1.04940953343e-05
1.03766084992e-05
1.02906346068e-05
1.02386593172e-05
1.02112741092e-05
1.02061260943e-05
1.02122196334e-05
1.02370022901e-05
1.02524014307e-05
1.02598093852e-05
1.0259806657e-05
1.02523910708e-05
1.02369700835e-05
1.02121273665e-05
1.02060631426e-05
1.02112057046e-05
1.02386007562e-05
1.02905933772e-05
1.03765836862e-05
1.04940899101e-05
1.04925239464e-05
1.03740506278e-05
1.02877348025e-05
1.02359627144e-05
1.02083393485e-05
1.02026622645e-05
1.02067136038e-05
1.02295252403e-05
1.02451186355e-05
1.02523541756e-05
1.02523478444e-05
1.02450973564e-05
1.02294746418e-05
1.02066540821e-05
1.02025782655e-05
1.02082546082e-05
1.023590168e-05
1.02876806724e-05
1.03740176926e-05
1.04925174147e-05
1.04889189718e-05
1.03692135561e-05
1.02827499353e-05
1.02321233244e-05
1.02037824138e-05
1.01969043138e-05
1.02002825281e-05
1.02112696322e-05
1.02294814501e-05
1.02369238736e-05
1.02369169394e-05
1.02294579625e-05
1.02112133384e-05
1.02002183073e-05
1.01968183456e-05
1.02036984178e-05
1.02320627417e-05
1.0282694162e-05
1.03691805678e-05
1.04889144687e-05
1.0484401917e-05
1.03639906522e-05
1.02778387112e-05
1.0229138999e-05
1.02004608673e-05
1.01917705084e-05
1.01938603823e-05
1.02002641768e-05
1.02066832322e-05
1.02121061258e-05
1.02121036688e-05
1.02066613261e-05
1.02002254013e-05
1.01938018685e-05
1.01916983393e-05
1.02003943154e-05
1.02290835364e-05
1.02777911433e-05
1.03639639711e-05
1.04844012774e-05
1.04856692054e-05
1.03635259946e-05
1.02769424904e-05
1.02294220945e-05
1.02029974566e-05
1.01915876877e-05
1.0191745769e-05
1.01968627392e-05
1.02026171741e-05
1.02060943054e-05
1.02060868486e-05
1.02025951703e-05
1.01968280927e-05
1.0191700599e-05
1.01915406749e-05
1.02029580873e-05
1.02293831074e-05
1.02769124639e-05
1.0363509211e-05
1.04856712663e-05
1.04941862574e-05
1.03698296981e-05
1.02832082335e-05
1.02352343245e-05
1.02117487734e-05
1.02029765387e-05
1.02004163743e-05
1.02037240279e-05
1.02082802823e-05
1.02112287181e-05
1.02112202728e-05
1.02082585591e-05
1.0203692963e-05
1.02003821297e-05
1.02029470592e-05
1.02117264901e-05
1.0235215737e-05
1.02831904109e-05
1.03698186136e-05
1.04941884343e-05
1.0499580296e-05
1.03802374072e-05
1.02995152448e-05
1.02558126902e-05
1.0235220433e-05
1.02293903186e-05
1.02290887209e-05
1.02320562891e-05
1.02358882203e-05
1.02385860927e-05
1.02385772511e-05
1.023586558e-05
1.02320257786e-05
1.02290561761e-05
1.02293637293e-05
1.02352021651e-05
1.02557951709e-05
1.02994996496e-05
1.03802258218e-05
1.04995815546e-05
1.05006124527e-05
1.03986131495e-05
1.03329655438e-05
1.02995134044e-05
1.02831964983e-05
1.02769093566e-05
1.02777822186e-05
1.02826781503e-05
1.02876536094e-05
1.02905529518e-05
1.02905437707e-05
1.02876300762e-05
1.02826463855e-05
1.02777498643e-05
1.02768797772e-05
1.0283171143e-05
1.02994922508e-05
1.03329493706e-05
1.0398602051e-05
1.05006128156e-05
1.05068409295e-05
1.04394613335e-05
1.03986178847e-05
1.03802404826e-05
1.03698337672e-05
1.0363518596e-05
1.03639643326e-05
1.03691725125e-05
1.03739968117e-05
1.03765489733e-05
1.03765423307e-05
1.03739805757e-05
1.03691510517e-05
1.0363940842e-05
1.03634952843e-05
1.03698132203e-05
1.03802240649e-05
1.03986033409e-05
1.04394520053e-05
1.05068412399e-05
1.05213077999e-05
1.05068437609e-05
1.05006047426e-05
1.04995670625e-05
1.04941941952e-05
1.04856919761e-05
1.04844166755e-05
1.04889238657e-05
1.04925214809e-05
1.04940875883e-05
1.0494086485e-05
1.04925190721e-05
1.04889219259e-05
1.04844155303e-05
1.04856894834e-05
1.04941919205e-05
1.04995651084e-05
1.05006010533e-05
1.05068409979e-05
1.05213076553e-05
1.05198059629e-05
1.05006731745e-05
1.0491573283e-05
1.04884960085e-05
1.04848527744e-05
1.04809691155e-05
1.04811247135e-05
1.04843225731e-05
1.04866688747e-05
1.04872990279e-05
1.04872996146e-05
1.04866704834e-05
1.04843263073e-05
1.04811245752e-05
1.04809584599e-05
1.04848300634e-05
1.04884726985e-05
1.04915549956e-05
1.05006582392e-05
1.05197992212e-05
1.05006811062e-05
1.04076297764e-05
1.03508570694e-05
1.03250211498e-05
1.03144307768e-05
1.03117852961e-05
1.03138660432e-05
1.03187129225e-05
1.03231522859e-05
1.03254190251e-05
1.03254226405e-05
1.03231618024e-05
1.03187252872e-05
1.03138741658e-05
1.03117804618e-05
1.03144134739e-05
1.0324998367e-05
1.0350834529e-05
1.04076056433e-05
1.05006690435e-05
1.04915860619e-05
1.03508750173e-05
1.02547530563e-05
1.02042974798e-05
1.01806991655e-05
1.01735690838e-05
1.01748651687e-05
1.01798338952e-05
1.01853746761e-05
1.01889105583e-05
1.01889208585e-05
1.01854025587e-05
1.01798749708e-05
1.01749118402e-05
1.01736103019e-05
1.01807203831e-05
1.02043001578e-05
1.02547432468e-05
1.03508530413e-05
1.04915706749e-05
1.04885174858e-05
1.0325059452e-05
1.02043170822e-05
1.01321330751e-05
1.01017527709e-05
1.00922211018e-05
1.00885142496e-05
1.00903655465e-05
1.00945723742e-05
1.00977972522e-05
1.00978082821e-05
1.00946006871e-05
1.00904030825e-05
1.00885540635e-05
1.00922703358e-05
1.01018560651e-05
1.01321445267e-05
1.02043161077e-05
1.0325038117e-05
1.04884971565e-05
1.04848765002e-05
1.03144832791e-05
1.0180725588e-05
1.0101746237e-05
1.0063903082e-05
1.00412092298e-05
1.00361163578e-05
1.00390711631e-05
1.00440339489e-05
1.00475408381e-05
1.00475562753e-05
1.0044075837e-05
1.00391294797e-05
1.00361777431e-05
1.00412558933e-05
1.00639389157e-05
1.01018327536e-05
1.01807364714e-05
1.03144674659e-05
1.04848568039e-05
1.04809914722e-05
1.03118310784e-05
1.01735744556e-05
1.00922066747e-05
1.00411933093e-05
1.00204234286e-05
1.0018411846e-05
1.0023819587e-05
1.00301373003e-05
1.00341828912e-05
1.00342013283e-05
1.00301873645e-05
1.00238885289e-05
1.00184847284e-05
1.00204894844e-05
1.00412351526e-05
1.00922496626e-05
1.01736031455e-05
1.03118268516e-05
1.04809808854e-05
1.04811493589e-05
1.03138934986e-05
1.01748343608e-05
1.00884827054e-05
1.00360552465e-05
1.00183571909e-05
1.00198783039e-05
1.00281852721e-05
1.00361213471e-05
1.00409509335e-05
1.00409688911e-05
1.00361679606e-05
1.00282459504e-05
1.00199416353e-05
1.00184182805e-05
1.00361034389e-05
1.00885116882e-05
1.01748718032e-05
1.03139010948e-05
1.04811497801e-05
1.04843381114e-05
1.03187168554e-05
1.01797720881e-05
1.00903050255e-05
1.00389612242e-05
1.00236987551e-05
1.00281153355e-05
1.00389927267e-05
1.00495904875e-05
1.00556549716e-05
1.00556694084e-05
1.00496276023e-05
1.0039035625e-05
1.00281532701e-05
1.00237340905e-05
1.00389895118e-05
1.00903215941e-05
1.01798016399e-05
1.03187279899e-05
1.04843443458e-05
1.04866682214e-05
1.03231406277e-05
1.01853004364e-05
1.00944918929e-05
1.00438964747e-05
1.00299799634e-05
1.00360122093e-05
1.00495445695e-05
1.00617566301e-05
1.00686572574e-05
1.00686665474e-05
1.00617782915e-05
1.00495622727e-05
1.00360150192e-05
1.00299725711e-05
1.00438866866e-05
1.00944830601e-05
1.01853053369e-05
1.03231433712e-05
1.0486674054e-05
1.04872959706e-05
1.03254093511e-05
1.01888437866e-05
1.00977173864e-05
1.00474073111e-05
1.00340263567e-05
1.00408225034e-05
1.00555975659e-05
1.00686414587e-05
1.00759823072e-05
1.00759849106e-05
1.00686445978e-05
1.00555855024e-05
1.00407819521e-05
1.0033968734e-05
1.00473496424e-05
1.00976734176e-05
1.0188814955e-05
1.03253948173e-05
1.04872963953e-05
1.04872996209e-05
1.03254226716e-05
1.01888759694e-05
1.00977539773e-05
1.00474567032e-05
1.00340753262e-05
1.0040856685e-05
1.00556091797e-05
1.00686329361e-05
1.00759596874e-05
1.00759552462e-05
1.00686167852e-05
1.00555671228e-05
1.00407746529e-05
1.00339700364e-05
1.00473532259e-05
1.00976741927e-05
1.01888140442e-05
1.03253894263e-05
1.04872937446e-05
1.04866752995e-05
1.03231702167e-05
1.01853828715e-05
1.00945833799e-05
1.00440257203e-05
1.00301079757e-05
1.00360951298e-05
1.00495705543e-05
1.0061729072e-05
1.00685920755e-05
1.00685826003e-05
1.00616988059e-05
1.00495077373e-05
1.00359914349e-05
1.00299745904e-05
1.00438957803e-05
1.0094484309e-05
1.01853019739e-05
1.03231256395e-05
1.0486666629e-05
1.04843349974e-05
1.03187449032e-05
1.01798775859e-05
1.00904188536e-05
1.00391313697e-05
1.00238689379e-05
1.00282225015e-05
1.00390132495e-05
1.0049535859e-05
1.00555452956e-05
1.00555335574e-05
1.00494984928e-05
1.00389403257e-05
1.00281106794e-05
1.00237318542e-05
1.00390013717e-05
1.00903216203e-05
1.01797947753e-05
1.03186989873e-05
1.0484327854e-05
1.04811262204e-05
1.03138983292e-05
1.01749329445e-05
1.0088591172e-05
1.00362190636e-05
1.00185263699e-05
1.00199804849e-05
1.00281887403e-05
1.00360372169e-05
1.00407891517e-05
1.00407768359e-05
1.00359983207e-05
1.00281177034e-05
1.00198763352e-05
1.00184092498e-05
1.00361160513e-05
1.00885101944e-05
1.01748611303e-05
1.03138608726e-05
1.04811236611e-05
1.0480942522e-05
1.03118041737e-05
1.01736382276e-05
1.0092317292e-05
1.00413108927e-05
1.00205589455e-05
1.00184895485e-05
1.00237983514e-05
1.00300255637e-05
1.00340049922e-05
1.00339916114e-05
1.00299866305e-05
1.00237347448e-05
1.0018407879e-05
1.00204797792e-05
1.004124515e-05
1.00922536246e-05
1.01735898567e-05
1.03117822043e-05
1.04809472952e-05
1.04848268202e-05
1.03144329481e-05
1.01807456639e-05
1.0101909089e-05
1.00639825503e-05
1.004128128e-05
1.00361552771e-05
1.00390415383e-05
1.00439304411e-05
1.00473787147e-05
1.00473654269e-05
1.00438924797e-05
1.00389860453e-05
1.00360940183e-05
1.00412276772e-05
1.00639363789e-05
1.01018749681e-05
1.01807151739e-05
1.03144218781e-05
1.04848386698e-05
1.04884930547e-05
1.03250136327e-05
1.02043133391e-05
1.01321669737e-05
1.01018965421e-05
1.00922718349e-05
1.00885133807e-05
1.00903128548e-05
1.00944662478e-05
1.00976443406e-05
1.00976302849e-05
1.00944291328e-05
1.00902606194e-05
1.00884570746e-05
1.00922218577e-05
1.01018675189e-05
1.01321358887e-05
1.0204287026e-05
1.03250034243e-05
1.04885022767e-05
1.04915861384e-05
1.03508482428e-05
1.02547413114e-05
1.02043061298e-05
1.01807270343e-05
1.01735945721e-05
1.01748544479e-05
1.01797693189e-05
1.01852598568e-05
1.01887539416e-05
1.01887401867e-05
1.01852231572e-05
1.01797194327e-05
1.01748017176e-05
1.01735476161e-05
1.01806849689e-05
1.02042709965e-05
1.0254716664e-05
1.03508351405e-05
1.04915876973e-05
1.05006973557e-05
1.0407622461e-05
1.03508404363e-05
1.03250008466e-05
1.03144116013e-05
1.03117666978e-05
1.03138371749e-05
1.03186598821e-05
1.03230700704e-05
1.03253140817e-05
1.03253033671e-05
1.0323043078e-05
1.03186223972e-05
1.03137967645e-05
1.03117295387e-05
1.03143806913e-05
1.03249751228e-05
1.03508196989e-05
1.04076089743e-05
1.0500695598e-05
1.05198406116e-05
1.05006904188e-05
1.04915664164e-05
1.04884710549e-05
1.04848230265e-05
1.04809514546e-05
1.04811212266e-05
1.04843162685e-05
1.0486651464e-05
1.0487274093e-05
1.04872713515e-05
1.04866451313e-05
1.04843086352e-05
1.04811136499e-05
1.04809482922e-05
1.04848248696e-05
1.04884724113e-05
1.04915622879e-05
1.0500684588e-05
1.05198363007e-05
1.0506408839e-05
1.0475355714e-05
1.04670265747e-05
1.04630138797e-05
1.0459140001e-05
1.04566730284e-05
1.04563832581e-05
1.04570481856e-05
1.04573741115e-05
1.04570631288e-05
1.0457063959e-05
1.04573791636e-05
1.04570589291e-05
1.04563990429e-05
1.04566884892e-05
1.04591504385e-05
1.04630156359e-05
1.04670251448e-05
1.04753476272e-05
1.05064026288e-05
1.04753490872e-05
1.03515681523e-05
1.03001370265e-05
1.02743610407e-05
1.02640708465e-05
1.02622645996e-05
1.02646694973e-05
1.02688943601e-05
1.02729712128e-05
1.02753276923e-05
1.0275334183e-05
1.02729889002e-05
1.026892217e-05
1.02647020349e-05
1.02622953561e-05
1.02640932456e-05
1.02743725032e-05
1.03001384795e-05
1.03515632754e-05
1.04753426855e-05
1.04670199374e-05
1.03001462004e-05
1.02040541201e-05
1.01485959011e-05
1.01205282035e-05
1.01097955611e-05
1.01111190975e-05
1.0120314073e-05
1.01287254734e-05
1.01336457805e-05
1.01336617089e-05
1.01287703845e-05
1.01203821389e-05
1.01112358493e-05
1.01098623733e-05
1.01205524715e-05
1.01486089424e-05
1.02040557512e-05
1.03001396331e-05
1.04670127159e-05
1.04630035424e-05
1.02743802516e-05
1.01486170235e-05
1.0051110188e-05
1.00256663864e-05
1.00116537365e-05
1.00076028244e-05
1.00105988029e-05
1.00153824356e-05
1.0018741457e-05
1.00187536774e-05
1.00154156627e-05
1.00106443085e-05
1.00076515466e-05
1.0011706464e-05
1.00257457486e-05
1.00505425464e-05
1.01486193417e-05
1.02743807137e-05
1.04630012153e-05
1.0459132941e-05
1.02640916988e-05
1.01205799918e-05
1.0025688321e-05
9.97255945763e-06
9.94563517924e-06
9.93967442778e-06
9.94238107647e-06
9.94674683917e-06
9.94977939214e-06
9.94979572012e-06
9.94679187451e-06
9.94243628459e-06
9.93972423493e-06
9.94567433162e-06
9.97259081686e-06
1.00257359122e-05
1.01205651116e-05
1.02641017468e-05
1.04591366175e-05
1.04566614963e-05
1.02622722357e-05
1.01098614133e-05
1.00116438375e-05
9.94562633219e-06
9.91814064161e-06
9.91294897438e-06
9.91647669339e-06
9.92132220405e-06
9.9244734306e-06
9.92449432158e-06
9.92137884941e-06
9.91654364571e-06
9.91299647767e-06
9.9181720397e-06
9.94565229538e-06
1.00116843258e-05
1.01098459351e-05
1.02622897046e-05
1.04566686798e-05
1.04563690102e-05
1.02646544476e-05
1.01110846372e-05
1.00075673309e-05
9.93963963762e-06
9.91291493398e-06
9.90863024395e-06
9.9135828399e-06
9.91965748184e-06
9.92340752258e-06
9.92342923365e-06
9.91971403691e-06
9.91363719376e-06
9.90865971747e-06
9.91292774163e-06
9.93965181546e-06
1.00075957565e-05
1.01111283941e-05
1.02646750029e-05
1.04563763358e-05
1.04570293866e-05
1.02688596006e-05
1.01201842894e-05
1.00105356904e-05
9.94231251097e-06
9.91638355862e-06
9.91351308959e-06
9.92017699499e-06
9.92785226125e-06
9.93271026783e-06
9.93272754328e-06
9.92789324222e-06
9.92019752737e-06
9.91350992537e-06
9.91636583938e-06
9.94229116861e-06
1.00105415344e-05
1.01202392062e-05
1.02688749992e-05
1.045703626e-05
1.04573494915e-05
1.02729240995e-05
1.01285781166e-05
1.00152986521e-05
9.94664566097e-06
9.92119184807e-06
9.91954851105e-06
9.92779494527e-06
9.93777441717e-06
9.94390172339e-06
9.9439110331e-06
9.93779395227e-06
9.92779000495e-06
9.91950575859e-06
9.92112722641e-06
9.94658726258e-06
1.00152726626e-05
1.01285943062e-05
1.02729269326e-05
1.0457354523e-05
1.04570368922e-05
1.02752823474e-05
1.01335138043e-05
1.00186541326e-05
9.94966611594e-06
9.92433399935e-06
9.92328190491e-06
9.93264851373e-06
9.94388625997e-06
9.95075090351e-06
9.95075470496e-06
9.94388995107e-06
9.93261786479e-06
9.92319503067e-06
9.92421981135e-06
9.94956446092e-06
1.00185917193e-05
1.0133481338e-05
1.02752676191e-05
1.04570389256e-05
1.04570451698e-05
1.02753024612e-05
1.01335636313e-05
1.00186936499e-05
9.9497129863e-06
9.92438176858e-06
9.92331726343e-06
9.93266356632e-06
9.94388203682e-06
9.95073314015e-06
9.95073074277e-06
9.94386874201e-06
9.93260752964e-06
9.92318898698e-06
9.92422130013e-06
9.9495666687e-06
1.00185934677e-05
1.01334854027e-05
1.02752691692e-05
1.04570450079e-05
1.04573696745e-05
1.027297731e-05
1.01287120497e-05
1.00154020884e-05
9.94676832923e-06
9.92131799753e-06
9.91963845976e-06
9.92783771518e-06
9.93776790067e-06
9.94386166092e-06
9.94385343442e-06
9.93773994511e-06
9.92776274566e-06
9.91949020298e-06
9.92113234667e-06
9.94659617259e-06
1.00152778897e-05
1.01286050314e-05
1.02729323746e-05
1.04573684323e-05
1.04570584615e-05
1.02689307174e-05
1.01203680639e-05
1.00106723729e-05
9.94247637765e-06
9.91655588154e-06
9.91363680088e-06
9.92021675349e-06
9.92782790577e-06
9.93263762946e-06
9.93262747036e-06
9.92779160284e-06
9.92012896215e-06
9.9134829977e-06
9.91636840662e-06
9.94230463961e-06
1.0010551346e-05
1.01202567077e-05
1.02688818225e-05
1.04570543534e-05
1.04563977214e-05
1.02647283251e-05
1.01111788102e-05
1.00077018332e-05
9.93980610996e-06
9.91308802738e-06
9.90874946729e-06
9.91359992335e-06
9.91958070432e-06
9.92326767445e-06
9.92325632844e-06
9.91953931661e-06
9.913508937e-06
9.90860276885e-06
9.91292249108e-06
9.93967145657e-06
1.00076092105e-05
1.01110831795e-05
1.02646836232e-05
1.04563926042e-05
1.04566846363e-05
1.02623335065e-05
1.01098500584e-05
1.00117733336e-05
9.94576489943e-06
9.9182874113e-06
9.91304265568e-06
9.91645572956e-06
9.92120492872e-06
9.92428402694e-06
9.92426943066e-06
9.92116000953e-06
9.91637283414e-06
9.91292344342e-06
9.91817275813e-06
9.9456804715e-06
1.00117038718e-05
1.01097956746e-05
1.02623007552e-05
1.04566844715e-05
1.04591478772e-05
1.02641364844e-05
1.01205776887e-05
1.00257935927e-05
9.97265488584e-06
9.94573309392e-06
9.93973371064e-06
9.9423651611e-06
9.94664602805e-06
9.94961110566e-06
9.94959644257e-06
9.94660164306e-06
9.9422931003e-06
9.93964791021e-06
9.94566213906e-06
9.97259887838e-06
1.00257246202e-05
1.01205345768e-05
1.02641155385e-05
1.04591544868e-05
1.04630267906e-05
1.02744115366e-05
1.01486465102e-05
1.00505255027e-05
1.00257879662e-05
1.00117180612e-05
1.00076083838e-05
1.00105491004e-05
1.00152698265e-05
1.00185716762e-05
1.00185563792e-05
1.00152263849e-05
1.00104852883e-05
1.00075384401e-05
1.00116566241e-05
1.00257212869e-05
1.00504879501e-05
1.01486118924e-05
1.02743972388e-05
1.04630343935e-05
1.04670554768e-05
1.03001737765e-05
1.02040844752e-05
1.01486375886e-05
1.01205712837e-05
1.01098620373e-05
1.01111602511e-05
1.01202241509e-05
1.01285589861e-05
1.01334203787e-05
1.0133402503e-05
1.01285118007e-05
1.01201606105e-05
1.01110743013e-05
1.01097794451e-05
1.01205028323e-05
1.0148591372e-05
1.02040555558e-05
1.03001652632e-05
1.04670598484e-05
1.04754389073e-05
1.03516037293e-05
1.03001612939e-05
1.02743922231e-05
1.02641087756e-05
1.02622959013e-05
1.02646782706e-05
1.02688682872e-05
1.02729107816e-05
1.02752399577e-05
1.02752305156e-05
1.02728842303e-05
1.02688306454e-05
1.02646371483e-05
1.02622591214e-05
1.026407704e-05
1.02743673206e-05
1.0300147147e-05
1.03516042974e-05
1.04754387932e-05
1.05065492172e-05
1.04754369268e-05
1.04670368262e-05
1.04630107673e-05
1.0459147485e-05
1.04566970066e-05
1.04564132611e-05
1.04570753743e-05
1.04573962142e-05
1.04570819163e-05
1.04570821497e-05
1.04573971062e-05
1.04570742815e-05
1.04564129683e-05
1.04567007726e-05
1.04591572195e-05
1.04630203944e-05
1.04670425815e-05
1.04754353998e-05
1.05065427081e-05
1.04608476316e-05
1.04474611871e-05
1.04527296979e-05
1.04485272871e-05
1.04447739546e-05
1.04426715425e-05
1.0440634413e-05
1.04383573822e-05
1.04363250451e-05
1.04350564333e-05
1.04350525631e-05
1.04363247724e-05
1.04383657669e-05
1.04406456642e-05
1.04426868094e-05
1.04447885473e-05
1.04485412952e-05
1.04527394901e-05
1.04474692988e-05
1.04608488086e-05
1.04474641519e-05
1.03172609638e-05
1.02652785071e-05
1.02405116484e-05
1.02322702742e-05
1.02327799887e-05
1.02375540594e-05