/*--------------------------------*- C++ -*----------------------------------*\
| =========                 |                                                 |
| \\      /  F ield         | OpenFOAM: The Open Source CFD Toolbox           |
|  \\    /   O peration     | Version:  3.0.1                                 |
|   \\  /    A nd           | Web:      www.OpenFOAM.org                      |
|    \\/     M anipulation  |                                                 |
\*---------------------------------------------------------------------------*/
FoamFile
{
    version     2.0;
    format      ascii;
    class       volScalarField;
    location    "10";
    object      alpha.water;
}
// * * * * * * * * * * * * * * * * * * * * * * * * * * * * * * * * * * * * * //

dimensions      [0 0 0 0 0 0 0];

internalField   nonuniform List<scalar> 
7968
(
0.999999962621
0.999999964761
0.999999963012
0.999999973317
0.999999982759
0.999999988481
0.999999988365
0.999999988264
0.999999988384
0.99999998699
0.999999985349
0.99999998575
0.999999984849
0.999999984907
0.999999982208
0.999999972684
0.99999996812
0.999999969673
0.999999966525
0.999999961598
0.999999972846
0.999999971442
0.9999999711
0.999999981107
0.999999988997
0.999999993862
0.999999994405
0.99999999289
0.999999990122
0.999999991241
0.999999991319
0.999999991258
0.999999991986
0.999999991291
0.999999989089
0.999999979372
0.999999973214
0.999999969643
0.999999970617
0.999999963846
0.999999977995
0.999999973915
0.999999983968
0.999999989458
0.999999994077
0.999999996894
0.999999996922
0.99999999426
0.999999992628
0.999999994169
0.999999994122
0.999999994255
0.999999995414
0.999999996464
0.999999996101
0.999999994905
0.999999984287
0.999999977845
0.999999972949
0.999999962715
0.999999983288
0.999999984387
0.99999999186
0.999999995181
0.99999999685
0.999999997938
0.999999997681
0.999999997078
0.999999995703
0.999999996633
0.999999997235
0.999999997784
0.999999998284
0.999999998403
0.999999998423
0.999999998639
0.999999997818
0.99999998633
0.999999975853
0.999999967793
0.999999988062
0.999999991296
0.999999995212
0.999999995908
0.999999996809
0.999999998894
0.999999998955
0.999999997494
0.999999997188
0.999999996669
0.999999997701
0.999999997909
0.99999999802
0.999999997824
0.999999997896
0.999999998493
0.99999999843
0.999999991571
0.999999979469
0.999999976357
0.999999992652
0.999999994075
0.999999995413
0.999999996898
0.9999999982
0.999999999801
0.999999998834
0.999999998664
0.999999997008
0.999999996925
0.99999999689
0.999999996937
0.999999997179
0.999999998401
0.999999997973
0.999999998503
0.999999997791
0.999999990997
0.999999986666
0.999999980437
0.999999994578
0.999999994476
0.999999996796
0.999999998738
0.999999998883
0.999999999391
0.999999998777
0.999999997732
0.999999996903
0.999999996918
0.999999996998
0.999999996978
0.999999996924
0.999999996974
0.999999997666
0.999999997652
0.999999997376
0.999999995269
0.999999992077
0.999999987535
0.999999995247
0.999999995709
0.999999997636
0.999999998389
0.999999998617
0.999999997882
0.999999997657
0.999999997013
0.999999996641
0.999999997656
0.999999997026
0.999999997099
0.999999997095
0.999999998631
0.999999999122
0.999999998559
0.999999996653
0.99999999501
0.99999999338
0.999999991079
0.999999994868
0.999999995268
0.999999996442
0.9999999987
0.999999998817
0.999999997988
0.999999997654
0.999999997266
0.999999998703
0.999999998074
0.999999999003
0.999999997311
0.999999998206
0.999999998697
0.999999999584
0.999999998585
0.999999998687
0.999999996266
0.999999993561
0.999999992055
0.999999994797
0.999999995712
0.999999996937
0.999999998512
0.999999998839
0.99999999892
0.999999997846
0.99999999862
0.999999998945
1.00000000001
0.999999998571
0.999999998373
0.999999998267
0.99999999802
0.999999998272
0.999999998531
0.999999998357
0.999999996596
0.999999994467
0.999999992545
0.999999995889
0.999999997415
0.999999997742
0.999999998962
0.999999999027
0.99999999882
0.999999997247
0.999999997575
0.99999999891
0.999999999217
0.999999998745
0.999999999205
0.999999997821
0.99999999774
0.999999997563
0.999999997496
0.999999997674
0.999999996676
0.999999993363
0.999999990834
0.999999996078
0.999999996969
0.999999997965
0.999999998294
0.999999998427
0.999999997247
0.999999996891
0.999999997157
0.999999999271
0.999999998993
0.999999997988
0.999999999538
0.999999996929
0.999999997049
0.999999998196
0.999999998066
0.999999997692
0.999999996113
0.99999999307
0.999999991719
0.999999997672
0.999999997056
0.999999997969
0.999999998756
0.999999998247
0.999999997424
0.999999997157
0.99999999742
0.999999997623
0.999999996967
0.999999996673
0.999999996509
0.999999996732
0.999999996501
0.999999996873
0.999999998038
0.999999997326
0.999999995947
0.999999994185
0.999999993409
0.999999997866
0.999999997834
0.999999997805
0.999999998909
0.999999998947
0.999999997423
0.99999999742
0.999999997347
0.999999997245
0.999999996683
0.999999996398
0.999999996347
0.999999996441
0.99999999611
0.999999996006
0.999999997009
0.999999997555
0.999999996855
0.999999995494
0.999999994113
0.99999999866
0.999999998674
0.999999998051
0.999999998986
0.999999999014
0.999999997981
0.999999997422
0.999999997366
0.999999997177
0.999999997035
0.999999996624
0.999999996492
0.99999999618
0.999999996028
0.999999995985
0.999999997925
0.999999998273
0.999999997691
0.999999996807
0.999999995383
0.999999998701
0.999999998728
0.999999998769
0.999999998941
0.999999997814
0.99999999833
0.999999998324
0.999999998075
0.999999997044
0.999999997171
0.999999997719
0.999999998039
0.999999997851
0.999999998122
0.999999997881
0.999999997854
0.99999999829
0.999999998129
0.999999993318
0.999999987674
0.99999999858
0.999999998522
0.9999999988
0.999999998818
0.999999998747
0.999999998756
0.999999997959
0.999999998926
0.999999997066
0.999999998195
0.999999998983
0.999999998546
0.999999998179
0.999999998376
0.999999998383
0.999999998399
0.999999998319
0.999999997551
0.99999998861
0.999999981058
0.999999996731
0.999999998265
0.999999998545
0.999999998702
0.999999998699
0.999999997704
0.999999996528
0.999999996549
0.999999996831
0.999999997258
0.999999997371
0.999999996837
0.99999999797
0.999999998033
0.999999998098
0.999999998257
0.999999998239
0.999999995712
0.999999986491
0.999999974851
0.999999990983
0.999999993366
0.999999997089
0.999999997852
0.999999997389
0.999999996516
0.999999994879
0.999999994009
0.99999999415
0.999999994097
0.999999994128
0.99999999423
0.999999995194
0.999999996293
0.999999997472
0.999999996653
0.999999991465
0.999999986136
0.99999997284
0.999999967104
0.999999982765
0.999999985189
0.999999985282
0.999999987316
0.999999994028
0.999999994629
0.99999999246
0.999999993101
0.999999994071
0.999999993543
0.999999992346
0.999999992054
0.999999992052
0.99999999448
0.999999992844
0.999999987817
0.999999982702
0.999999975976
0.999999967775
0.999999963831
0.999999950079
0.999999951287
0.999999954453
0.999999963378
0.999999963737
0.999999970623
0.999999978791
0.999999978866
0.999999982939
0.999999983032
0.999999980476
0.999999979836
0.999999974467
0.999999970274
0.999999970691
0.999999963444
0.999999957312
0.999999960831
0.99999994697
0.999999943832
0.999999961115
0.999999963174
0.999999960896
0.999999964519
0.999999971482
0.999999982802
0.99999998163
0.999999986935
0.999999992154
0.999999994283
0.999999993826
0.999999993552
0.999999984914
0.999999982594
0.99999997627
0.999999968741
0.999999960265
0.999999952791
0.999999954664
0.999999955433
0.999999971829
0.999999972504
0.999999966573
0.999999970004
0.999999983022
0.999999987181
0.99999999309
0.99999999638
0.999999996827
0.999999997004
0.999999997051
0.999999997016
0.99999999707
0.999999992989
0.999999985904
0.99999997708
0.999999969738
0.999999961343
0.999999957768
0.999999956998
0.999999973233
0.999999970294
0.999999972697
0.999999981666
0.999999991508
0.999999992124
0.999999996207
0.999999998495
0.999999997998
0.999999998709
0.999999998905
0.999999998764
0.999999997514
0.999999997679
0.999999993023
0.999999987997
0.999999982646
0.999999973738
0.999999962794
0.99999995558
0.999999977137
0.999999979582
0.999999984839
0.999999994737
0.999999994267
0.99999999644
0.999999999057
0.999999999497
0.999999998852
0.999999999066
0.999999998099
0.999999997695
0.999999998091
0.999999998009
0.999999993961
0.999999993299
0.999999993573
0.999999980374
0.999999972768
0.999999962574
0.999999984868
0.999999987018
0.999999994709
0.999999996583
0.999999999534
0.999999998954
0.99999999929
0.999999999216
0.999999998832
0.999999998186
0.999999997019
0.999999997069
0.999999997999
0.999999999598
0.999999998017
0.999999997547
0.999999995618
0.999999985206
0.999999979197
0.999999973616
0.999999992292
0.999999994481
0.999999997622
0.999999997573
0.999999999513
0.9999999991
0.99999999913
0.999999997508
0.999999997145
0.999999997819
0.999999998605
0.999999997118
0.999999997148
0.999999998218
0.999999998291
0.999999998066
0.999999995456
0.99999999435
0.999999984339
0.999999980709
0.999999995845
0.999999996111
0.999999998373
0.999999998592
0.999999998741
0.999999998898
0.999999998122
0.999999997147
0.999999998075
0.999999998744
0.999999998812
0.999999997356
0.999999997715
0.999999998216
0.999999999361
0.999999999586
0.999999998007
0.999999996631
0.99999999363
0.999999986014
0.999999994741
0.999999995565
0.999999997335
0.999999998727
0.999999998815
0.999999999166
0.999999998366
0.999999997817
0.99999999848
0.999999999871
0.999999999516
0.999999999082
0.999999997758
0.999999998197
0.999999999838
0.99999999983
0.999999998808
0.999999997243
0.999999995065
0.999999992276
0.999999995242
0.999999995181
0.999999998017
0.999999998559
0.999999998928
0.999999999418
0.999999997739
1.0000000006
1.0000000002
1
1.00000000001
1
0.999999998273
0.999999999505
0.999999999999
0.999999999059
0.999999999931
0.999999996115
0.999999995323
0.999999991531
0.999999995628
0.99999999575
0.999999997915
0.999999998931
0.999999998909
0.999999999322
0.999999998476
1.00000000021
1
1
1
1
0.999999998029
0.999999999141
0.999999999847
0.999999997745
0.999999996489
0.999999995939
0.999999992655
0.999999990832
0.999999996699
0.999999997032
0.999999997905
0.999999998388
0.999999998667
0.999999998922
0.999999998078
0.999999998791
1
1
0.999999999431
0.999999999977
0.999999998815
0.99999999906
0.999999999824
0.999999999735
0.999999998137
0.999999996942
0.99999999367
0.99999999129
0.99999999669
0.999999997063
0.99999999834
0.999999998708
0.999999999342
0.999999998369
0.999999997129
0.999999997489
0.999999997552
0.999999997979
0.999999998698
0.999999998777
0.999999998492
0.999999998728
0.999999999526
0.999999998013
0.999999998012
0.999999996303
0.999999993549
0.999999991959
0.99999999595
0.999999995752
0.999999996684
0.999999998967
0.999999999712
0.999999998825
0.999999998387
0.99999999742
0.999999997696
0.99999999716
0.999999996399
0.999999996338
0.999999996319
0.999999997079
0.999999997205
0.999999997682
0.999999996742
0.999999995457
0.999999991472
0.999999990552
0.99999999413
0.999999995627
0.999999995566
0.999999997526
0.999999999602
0.999999999997
0.999999999498
0.999999998087
0.999999997458
0.999999997745
0.999999996596
0.999999997259
0.999999997967
0.999999998848
0.999999996467
0.99999999544
0.999999996771
0.999999995404
0.999999989098
0.999999984596
0.999999990948
0.999999993179
0.999999998141
0.999999998761
0.999999996771
0.999999999021
1.00000000002
0.999999998512
0.999999997173
0.999999997641
0.999999998697
0.999999998683
0.999999997621
0.999999996763
0.999999994394
0.999999993164
0.999999995178
0.999999991672
0.999999984252
0.999999974245
0.999999981866
0.99999998606
0.999999992464
0.999999993098
0.999999992331
0.99999999542
0.999999999081
0.999999999089
0.999999998298
0.999999997785
0.999999999467
0.999999998994
0.999999998859
0.999999997504
0.999999995744
0.999999990302
0.99999998988
0.999999987199
0.999999976944
0.999999967287
0.999999976144
0.999999982127
0.999999987643
0.999999988992
0.999999991375
0.999999993193
0.999999997663
0.999999998118
0.999999996987
0.999999998299
0.999999999031
0.999999998413
0.999999997921
0.999999997843
0.999999995548
0.999999987993
0.999999985594
0.999999977611
0.999999969228
0.999999965276
0.999999971989
0.999999973104
0.999999982592
0.999999985663
0.999999988488
0.999999992905
0.99999999382
0.999999995312
0.999999996515
0.999999997261
0.999999998327
0.999999995988
0.999999995765
0.99999999415
0.999999989309
0.999999984473
0.999999975789
0.99999996809
0.999999963872
0.999999962554
0.999999967195
0.999999967368
0.999999969498
0.999999980036
0.999999989217
0.999999992367
0.999999991983
0.999999992043
0.999999992279
0.999999992761
0.999999993726
0.999999992898
0.999999991152
0.999999985544
0.9999999833
0.999999976829
0.999999970851
0.99999996487
0.999999965333
0.999999961654
0.999999932367
0.999999937336
0.999999940406
0.999999942795
0.999999954286
0.999999958891
0.999999966927
0.999999978295
0.999999979444
0.999999982875
0.999999981426
0.99999997892
0.999999976956
0.999999970298
0.999999956431
0.999999940866
0.99999993941
0.999999939317
0.999999939388
0.999999939946
0.999999930229
0.999999934033
0.999999945982
0.999999951221
0.999999964195
0.999999976716
0.999999984347
0.999999988582
0.999999993312
0.999999995093
0.999999994819
0.999999993113
0.999999989973
0.999999985098
0.999999976166
0.99999996098
0.999999941929
0.999999939411
0.999999939578
0.999999939959
0.999999939803
0.999999949505
0.999999951389
0.999999963267
0.999999982357
0.999999991515
0.999999996122
0.999999997185
0.999999995102
0.999999997368
0.999999997136
0.999999996566
0.999999996644
0.999999996463
0.999999990828
0.999999976318
0.999999961756
0.99999994266
0.999999940507
0.99999994443
0.999999950432
0.999999956893
0.999999965641
0.999999983147
0.999999990658
0.999999997406
0.999999999722
1.00000000025
0.999999999872
0.999999998249
0.999999998793
0.999999998006
0.999999997993
0.999999998076
0.999999997306
0.999999987629
0.999999974007
0.999999964255
0.999999955076
0.999999950086
0.999999958577
0.999999966278
0.999999986449
0.999999990705
0.999999993973
0.999999999091
0.999999999769
1.00000000032
1.00000000019
0.999999998775
0.999999999454
0.999999999955
1.00000000022
1.00000000009
1.00000000001
0.999999996799
0.999999987336
0.999999982238
0.99999997307
0.999999957492
0.999999971527
0.999999982657
0.999999993849
0.999999997241
0.999999998928
0.999999999766
0.999999999881
1.00000000006
0.999999999859
0.999999999243
0.999999998751
0.999999999518
1.00000000019
1.00000000029
0.999999999967
0.999999998767
0.999999995579
0.999999989747
0.9999999825
0.999999971358
0.999999981692
0.999999989094
0.999999993569
0.999999998255
0.999999999393
0.999999999405
0.999999999834
0.999999999784
0.999999999221
1.00000000013
1.00000000031
0.999999999755
1.00000000025
1.00000000017
1.00000000007
0.999999999607
0.999999998152
0.999999991658
0.99999998445
0.999999978894
0.999999989073
0.999999991917
0.999999993848
0.999999998616
0.999999998811
0.99999999978
0.999999999956
1.00000000084
1.00000000036
1.0000000008
1.00000000055
1.00000000033
1.00000000001
1.00000000013
1.00000000006
0.999999999445
0.999999999244
0.999999997467
0.99999999109
0.999999984751
0.999999991472
0.999999993498
0.999999997153
0.999999998748
0.999999999498
1.00000000009
1.00000000082
1.00000000029
1.00000000105
1.0000000012
1.00000000129
1.00000000012
1.00000000052
1.00000000012
1.00000000004
0.999999999998
0.999999999051
0.999999996179
0.999999991606
0.999999989456
0.999999990727
0.999999993644
0.999999997503
0.999999998997
0.999999998914
1.00000000004
1
1.00000000869
1.00000008608
1.00000017798
1.00000016474
1.00000004017
1.00000000007
0.999999999802
0.99999999995
1.00000000002
1
0.999999997731
0.999999991578
0.999999988624
0.999999990349
0.999999990881
0.999999996596
0.999999998911
0.999999998914
0.99999999996
1.00000000008
1.00000000134
1.00000016094
1.00000027412
1.00000026705
1.00000012839
1.00000000007
0.999999999947
1.00000000007
1.00000000002
0.999999998291
0.999999996001
0.99999999221
0.999999990411
0.999999989603
0.99999998972
0.999999993326
0.999999998979
0.999999999433
1.00000000019
1.00000000003
1.00000000019
1.00000004119
1.00000002487
1.00000000155
1.00000000014
1.00000000065
1.00000000019
1.00000000005
1.00000000005
0.999999999283
0.999999995842
0.999999993846
0.999999989393
0.999999988701
0.999999988569
0.999999989022
0.999999999312
0.999999999341
1.00000000002
1.00000000006
1.00000000013
1.00000000053
1.00000000028
1.00000000064
1.00000000074
1.00000000018
1.00000000014
1.00000000029
0.999999998847
0.999999997596
0.999999995495
0.999999989046
0.999999983025
0.999999988487
0.999999988089
0.999999990369
0.999999999796
0.999999999715
1.00000000017
0.999999999572
0.999999999795
1.00000000013
1.00000000032
1.00000000056
0.999999999709
0.999999998939
1.00000000061
1.00000000058
0.999999999867
0.999999993675
0.999999988624
0.999999982656
0.999999974682
0.999999985633
0.999999987158
0.999999990956
0.999999998754
0.999999999518
1.00000000051
1.00000000071
1.00000000017
0.999999999769
0.99999999995
0.999999998363
0.999999999796
1.00000000117
1.00000000079
1.00000000148
1.00000000012
0.999999992064
0.999999985804
0.999999976003
0.999999967367
0.999999984163
0.999999987748
0.999999989603
0.999999990884
0.999999999345
1.00000000056
1.00000000024
1.00000000012
0.999999999449
0.999999998841
0.999999999652
1.00000000011
1.00000000022
1.00000000086
1.00000000001
0.999999994732
0.999999989607
0.999999985783
0.999999973604
0.999999963538
0.999999975433
0.999999987449
0.999999989726
0.999999989729
0.999999992478
0.99999999952
0.999999999777
0.999999999913
0.999999997821
0.999999998946
0.999999999626
0.999999998991
0.99999999834
0.999999998695
0.999999998105
0.999999993927
0.999999985702
0.999999977009
0.999999969179
0.999999961465
0.999999964031
0.99999997475
0.999999987949
0.999999989948
0.999999993294
0.999999994963
0.99999999765
0.999999998157
0.999999997876
0.999999997762
0.999999999591
0.999999995987
0.999999997382
0.999999996396
0.999999993064
0.9999999891
0.999999979409
0.999999965948
0.999999960122
0.999999960808
0.999999963159
0.999999962954
0.999999975081
0.999999987393
0.999999991082
0.999999992091
0.999999993931
0.999999995042
0.999999995742
0.999999997779
0.99999999788
0.999999995806
0.999999996567
0.99999999172
0.999999990476
0.999999984984
0.999999973906
0.999999961027
0.999999960312
0.999999960346
0.999999963486
0.999999962933
0.999999967962
0.999999976174
0.999999985587
0.99999998908
0.999999991976
0.999999993291
0.999999994204
0.999999994575
0.9999999938
0.999999993145
0.999999992553
0.999999991805
0.999999986818
0.999999972485
0.999999960723
0.999999960908
0.999999960444
0.999999959911
0.999999928107
0.999999926572
0.999999926572
0.999999936847
0.999999973833
0.999999983017
0.999999985775
0.999999986341
0.999999985537
0.999999984353
0.999999987709
0.999999984733
0.999999981603
0.999999980059
0.999999981344
0.999999970849
0.999999948599
0.999999940555
0.999999940443
0.999999939948
0.999999926081
0.999999927306
0.999999941625
0.99999997268
0.999999983822
0.999999989928
0.999999997673
0.9999999976
0.999999995059
0.999999994757
0.999999994405
0.999999994146
0.999999993699
0.999999989919
0.999999986796
0.999999979098
0.99999996595
0.999999946699
0.99999994814
0.999999946877
0.999999932765
0.99999994093
0.99999997476
0.999999994378
0.999999994656
0.999999999607
1.00000000007
1.00000000013
0.999999999508
0.999999995373
0.999999995334
0.999999994015
0.999999994636
0.999999997164
0.999999995931
0.999999992937
0.999999979646
0.999999969946
0.999999959222
0.999999963907
0.999999944922
0.99999997444
0.999999995728
0.99999999634
0.999999999926
0.99999999993
1.00000000012
1.00000000021
1.00000000003
0.999999999383
0.999999998478
0.999999998293
0.999999998712
1.00000000015
1.00000000004
1.00000000003
0.999999998276
0.999999983667
0.999999974437
0.999999976625
0.999999966106
0.999999989162
0.999999995355
0.999999998448
1
0.999999999782
1.00000000074
1.00000000036
1.00000000035
0.999999999696
0.999999999546
1.00000000015
1.00000000002
1.00000000113
1.00000000001
1.00000000002
0.999999999171
0.999999999669
0.99999998685
0.999999981243
0.999999976984
0.99999998736
0.999999994312
0.999999996293
0.999999999652
1.00000000049
0.999999999938
1.0000000003
1.0000000002
0.99999999995
1.00000000035
1.00000000031
1.00000000054
1.00000000007
1.00000000001
0.999999999615
1.00000000001
0.999999994811
0.999999991811
0.999999988227
0.999999983841
0.999999990127
0.999999992468
0.999999996714
0.999999999986
1.00000000005
0.999999999928
1.00000000072
1.00000000053
1.00000000067
1.00000000061
1.00000000169
1.00000000049
1.0000000006
1.00000000005
1.00000000073
1.00000000003
0.999999995496
0.999999991649
0.999999990696
0.999999986931
0.999999990364
0.999999993405
0.999999997229
0.999999999977
1.00000000032
1.00000000098
1.00000000095
1.00000000138
1.00000000203
1.0000000018
1.00000000043
1.00000000169
1.00000000051
1.00000000016
0.999999999932
0.999999999723
0.999999993088
0.999999989782
0.99999998642
0.999999989367
0.999999990924
0.999999993347
0.999999998071
0.999999999825
1.00000000054
1.00000000124
1.00000000129
1.00000000363
1.0000000009
1.00000000002
1.00000000215
1.00000000037
1.000000001
1.00000000013
1.00000000011
0.999999999393
0.999999992403
0.999999988919
0.999999987505
0.999999989446
0.999999990919
0.999999992957
0.999999999244
0.999999999916
1.00000000068
1.00000000017
1.00000000156
1.00000000072
1.00000017984
1.00000015281
1.00000000008
1.00000000098
0.99999999987
1.00000000002
1.00000000001
1.00000000002
0.999999992351
0.999999988328
0.999999987647
0.999999990044
0.999999990657
0.999999991603
0.999999998667
1.00000000004
1.0000000003
1.00000000038
1.0000000015
1.00000000009
1.00000026464
1.00000023789
0.999999999979
1.00000000076
0.999999999828
1.00000000007
1.00000000002
0.99999999677
0.999999992889
0.999999987865
0.999999986228
0.999999989974
0.999999989882
0.999999991786
0.999999999124
0.999999999572
1.00000000034
1.00000000117
1.00000000039
1.00000000342
1.0000000006
1.00000000013
0.999999999791
1.00000000042
1.0000000002
1.00000000016
1.00000000009
1.00000000004
0.999999992335
0.999999986765
0.999999983709
0.999999988936
0.999999991314
0.999999994664
0.99999999936
1.00000000025
1.00000000077
1.00000000093
1.00000000126
1.00000000062
1.00000000105
1.00000000101
1.00000000054
1.00000000159
1.00000000051
1.00000000021
1.00000000028
0.999999996501
0.999999987951
0.999999984051
0.999999983091
0.99999998875
0.999999991995
0.999999999573
0.999999999443
1.00000000043
1.00000000043
1.0000000012
1.00000000091
1.00000000058
1.00000000029
1.00000000012
1.00000000096
1.00000000034
1.00000000047
1.00000000064
1.00000000015
0.999999999474
0.999999990196
0.999999987993
0.999999982035
0.999999989233
0.99999999149
0.999999995811
0.999999999895
1.00000000092
1.00000000083
1.00000000027
1.0000000003
1.00000000034
1.00000000009
1.00000000021
1.00000000034
1.00000000074
1.00000000024
1.00000000003
1.00000000009
1.00000000002
0.999999995058
0.999999987238
0.999999988171
0.99999998391
0.999999989504
0.999999990781
0.999999998916
1.00000000028
1.0000000004
1.00000000062
1.00000000002
1
0.999999999726
0.999999999601
1.0000000001
1.0000000003
1.0000000005
1.00000000036
0.999999999982
1.00000000003
0.999999992732
0.999999990846
0.99999998131
0.999999976911
0.999999981444
0.999999987793
0.999999993055
0.999999999991
1.00000000007
0.999999999743
1
0.999999998768
0.999999998937
0.999999999603
0.999999999391
0.999999999449
1.00000000046
1.00000000001
1.00000000015
0.999999994987
0.999999988494
0.999999980612
0.999999975617
0.999999965531
0.999999973609
0.999999981553
0.999999990647
0.9999999947
0.999999999101
1
1
0.999999994706
0.999999995112
0.99999999713
0.999999994446
0.999999996887
0.999999995915
1
0.999999996719
0.999999990491
0.999999978825
0.999999969251
0.999999966645
0.999999963799
0.999999966853
0.999999974732
0.999999981252
0.999999986617
0.999999991992
0.999999991913
0.999999993177
0.999999994046
0.999999993723
0.999999996441
0.999999994209
0.999999994047
0.999999992609
0.999999990693
0.999999992281
0.999999983685
0.999999968834
0.999999962205
0.999999961235
0.999999964144
0.999999967856
0.999999974323
0.999999977258
0.999999978483
0.999999982932
0.999999989395
0.999999991981
0.99999999408
0.999999993537
0.99999999276
0.999999991743
0.999999990739
0.999999988489
0.999999988554
0.999999987146
0.999999985418
0.999999965844
0.999999960721
0.999999958305
0.999999947823
0.999999955386
0.999999958584
0.999999971961
0.999999981467
0.999999986578
0.999999988018
0.999999988442
0.999999985841
0.999999982744
0.999999980696
0.999999981486
0.999999981773
0.99999998294
0.999999984444
0.999999976559
0.999999969299
0.999999945314
0.999999943351
0.999999944505
0.999999949618
0.999999961418
0.999999977026
0.999999983162
0.999999990231
0.99999999397
1
1
0.99999999149
0.999999989449
0.999999989279
0.99999998963
0.999999988731
0.999999991412
0.999999989102
0.999999988156
0.999999976862
0.999999967046
0.999999963549
0.999999962302
0.999999960044
0.999999978436
0.99999999075
0.999999998486
1.00000000009
1
1.00000000023
1.00000000001
1.00000000004
0.999999996735
0.999999996836
0.999999999906
1.00000000001
1.00000000018
1.00000000003
1
0.999999995055
0.999999981265
0.999999975623
0.999999971735
0.999999977337
0.999999992247
0.99999999796
0.999999999837
1
1.0000000002
1.00000000022
1.00000000015
1.00000000011
1.00000000087
1.00000000023
1.00000000005
1.00000000009
1.00000000096
1.00000000001
1.00000000006
1.00000000001
0.99999999952
0.999999987189
0.999999979115
0.999999991953
0.999999994874
0.999999999642
1.00000000003
1.00000000049
1.00000000039
1.00000000018
1.0000000002
1.00000000011
0.999999999965
1.00000000024
1.00000000014
1.00000000068
1.00000000001
0.999999999955
1.00000000006
1.00000000001
0.999999998722
0.999999998673
0.999999987891
0.999999992812
0.999999995307
1.00000000001
1.00000000045
1
1.00000000014
1.00000000088
1.00000000049
1.00000000048
1.00000000018
1.00000000031
1.00000000208
1.00000000052
1.00000000021
1.00000000039
1.00000000003
1.00000000001
1
0.999999994036
0.99999999178
0.999999993779
0.999999997478
0.999999999321
0.999999997811
1.00000000024
1.0000000003
1.00000000039
1.0000000016
1.00000000085
1.00000000007
1.00000000081
1.00000000043
1.00000000309
1.00000000059
1.00000000028
1.00000000004
1.00000000006
1.00000000002
0.999999998091
0.99999999397
0.999999991516
0.99999999652
0.999999997828
0.9999999979
0.99999999978
1.00000000026
1.00000000292
1.00000000091
1.00000000283
1.00000000086
0.999999999981
1.00000000196
1.0000000003
1.00000000239
1.00000000014
1.00000000043
1.00000000005
1.00000000002
0.999999997076
0.999999994113
0.999999990739
0.999999994867
0.99999999497
0.999999998475
1.00000000001
1.00000000221
1.00000000132
1.00000000251
1.00000000066
1.00000000001
1
0.999999999038
1.00000000164
1.00000000047
1.00000000048
1.00000000004
1.00000000009
0.999999997237
0.999999995002
0.999999989866
0.999999992042
0.999999994155
0.999999994809
0.999999998549
1.00000000014
1.00000000034
1.00000000069
1.00000000054
1.00000000001
1.00000000004
1.00000000002
1
0.999999999501
1.00000000073
1.00000000008
1.00000000007
1.00000000002
0.999999994334
0.99999999279
0.999999991061
0.999999991673
0.999999992443
0.999999994701
0.999999999868
1.0000000002
1.00000000064
1.00000000086
0.999999999735
1
1
0.999999999999
0.99999999987
0.9999999996
1.00000000089
1.00000000007
1.00000000007
1.00000000001
0.999999995756
0.999999992216
0.999999992636
0.999999992498
0.999999995088
0.999999994582
0.999999999801
1.00000000041
1.00000000207
1.00000000054
1.00000000184
0.999999999381
1.00000000001
0.999999999999
0.999999999271
1.00000000154
1.00000000021
1.00000000043
1.00000000007
1.00000000007
0.999999992677
0.999999989434
0.999999987927
0.999999993839
0.999999996288
0.999999997342
0.999999999467
1.00000000041
1.00000000134
1.00000000203
1.00000000047
1.00000000186
0.999999999846
1.00000000007
1.00000000185
1.0000000003
1.00000000124
1.00000000032
1.00000000011
1.0000000001
0.999999998255
0.999999995646
0.99999999003
0.999999991077
0.999999995093
0.999999999875
1.00000000007
1.00000000034
1.00000000043
1.00000000171
1.0000000016
1.00000000048
1.00000000072
1.00000000085
1.00000000033
1.00000000134
1.00000000083
1.00000000009
1.00000000038
0.999999999953
1.00000000001
0.999999995042
0.999999990431
0.999999987405
0.999999992016
0.999999999623
1.00000000039
1.00000000041
1.00000000018
1.00000000039
1.00000000029
1.00000000077
1.00000000053
1.00000000027
1.00000000101
1.00000000034
1.00000000019
1.00000000022
1.00000000039
1.0000000001
1
0.999999996193
0.999999989854
0.999999981602
0.999999986766
0.999999999555
0.999999999921
1.00000000025
1.00000000042
1.00000000033
1.00000000007
1.00000000003
1.00000000007
1.0000000001
1.0000000002
1.00000000018
1.00000000024
1.00000000016
1.00000000007
0.999999999753
0.99999999978
0.999999996781
0.999999991769
0.999999975232
0.999999979268
0.999999989037
0.999999999522
0.999999999937
1.00000000016
1.00000000064
1.00000000019
1.00000000003
1.0000000004
1.00000000012
0.999999999802
0.999999999734
1.00000000037
1.00000000017
0.999999999976
1.00000000003
0.999999999573
0.999999991453
0.999999981673
0.999999971742
0.999999970959
0.999999977609
0.999999990045
0.999999999965
1.00000000005
1
1
0.999999998448
0.999999996508
0.999999998654
0.999999999789
1
1.00000000012
1
1.00000000018
0.999999998728
0.999999991909
0.999999982194
0.999999975941
0.999999963855
0.999999968046
0.999999972333
0.999999982063
0.99999998634
0.999999991544
0.999999992967
0.999999994601
0.999999994067
0.999999994287
0.999999994329
0.999999994647
0.999999997612
0.999999998177
1.00000000014
0.999999994225
0.999999988641
0.999999980615
0.999999974221
0.999999970609
0.999999956091
0.999999969517
0.999999977609
0.999999980379
0.999999979643
0.999999980792
0.999999982674
0.999999985268
0.9999999897
0.999999989669
0.999999989003
0.999999988066
0.99999998789
0.999999987235
0.999999987025
0.999999980339
0.999999974025
0.999999968274
0.999999969335
0.999999958293
0.999999944039
0.999999961086
0.999999960181
0.999999968641
0.999999973737
0.99999997172
0.999999973481
0.999999973807
0.999999967679
0.999999966755