/*--------------------------------*- C++ -*----------------------------------*\
| =========                 |                                                 |
| \\      /  F ield         | OpenFOAM: The Open Source CFD Toolbox           |
|  \\    /   O peration     | Version:  3.0.1                                 |
|   \\  /    A nd           | Web:      www.OpenFOAM.org                      |
|    \\/     M anipulation  |                                                 |
\*---------------------------------------------------------------------------*/
FoamFile
{
    version     2.0;
    format      ascii;
    class       volScalarField;
    location    "10";
    object      epsilon_0;
}
// * * * * * * * * * * * * * * * * * * * * * * * * * * * * * * * * * * * * * //

dimensions      [0 2 -3 0 0 0 0];

internalField   nonuniform List<scalar> 
7968
(
6.33495551045e-05
8.24615174131e-05
9.42675745702e-05
9.876109669e-05
9.70331437602e-05
9.21238634619e-05
8.56065148037e-05
7.94433564177e-05
7.52911761733e-05
7.33321357278e-05
7.32984773517e-05
7.52214803554e-05
7.93541515226e-05
8.5513613622e-05
9.20399887358e-05
9.69641937733e-05
9.87124679744e-05
9.42364048573e-05
8.24431024204e-05
6.33397920511e-05
8.24518572758e-05
0.000140978378557
0.000173400353181
0.000184135647632
0.000178893725845
0.000165715813819
0.000148647224654
0.00013142308669
0.000117750577529
0.00010995112954
0.000109900202772
0.000117637829228
0.000131274117486
0.000148488528787
0.000165566717701
0.000178764993025
0.000184041052578
0.000173341263376
0.000140949258454
8.24448851604e-05
9.42490288961e-05
0.000173381780588
0.000217779889654
0.000232880862784
0.000226528347419
0.00020870449384
0.000185327274595
0.0001609741311
0.000141884131143
0.000131122247719
0.000131072147358
0.0001417755329
0.000160805990606
0.000185149428323
0.000208535216691
0.00022637835429
0.000232770498475
0.00021771217675
0.000173351864868
9.42458654865e-05
9.87352094068e-05
0.000184095551774
0.000232853037347
0.000251279751451
0.00024675761552
0.000229189510967
0.000207102312692
0.000187324611075
0.000169863304763
0.000158325805687
0.00015827552653
0.00016976265862
0.000187194353584
0.000206959248766
0.000229020997011
0.000246604663996
0.000251166816518
0.000232784508843
0.000184066285094
9.87323257553e-05
9.70024455649e-05
0.000178839056948
0.00022647806388
0.000246731172523
0.000245834347542
0.000237973208904
0.000226282216558
0.000211636523144
0.000196310714976
0.000184972980973
0.00018492207479
0.000196213437183
0.000211519458279
0.000226159128022
0.000237842287973
0.000245687299112
0.00024661975138
0.000226406924746
0.000178804579793
9.69955127465e-05
9.21000933602e-05
0.000165668622707
0.000208654432553
0.000229156770783
0.000237962440599
0.000241856710311
0.000238862634468
0.000229420465205
0.000216566605831
0.000205947970427
0.000205896110682
0.000216469347623
0.000229308681773
0.00023875231651
0.000241749451808
0.000237853778674
0.000229049063676
0.000208578022738
0.000165623230738
9.20855112497e-05
8.56036890858e-05
0.000148625204712
0.00018529658041
0.000207081255341
0.000226274165577
0.000238863736384
0.000242676943003
0.000237696635014
0.000227172757883
0.000217397506339
0.000217345362584
0.000227075323037
0.000237587626175
0.000242574999424
0.000238770887762
0.000226185933834
0.000206997237196
0.00018521623065
0.000148569931023
8.5580463023e-05
7.9471388686e-05
0.000131439981187
0.000160978021796
0.000187323879439
0.000211643277275
0.000229436765106
0.000237714065367
0.000235936428978
0.000227117892104
0.000217901839925
0.000217851405268
0.000227024683287
0.0002358349708
0.000237622169582
0.000229357026938
0.000211569881439
0.0001872523135
0.000160899209479
0.000131382416489
7.94440775253e-05
7.53449737783e-05
0.000117802846615
0.000141912081217
0.000169884516819
0.000196338814172
0.000216607560053
0.000227219404999
0.000227151578479
0.000219034721601
0.000209678248553
0.000209633045196
0.000218955229868
0.000227070366735
0.000227150260527
0.000216550301944
0.000196286956653
0.000169834016566
0.000141861239043
0.000117761767309
7.53277417592e-05
7.3388559436e-05
0.000110012383126
0.000131159750329
0.000158357976191
0.000185013419855
0.000206004002658
0.000217463882732
0.000217962421443
0.000209712598525
0.000199534700083
0.000199499969465
0.000209660597231
0.000217919600199
0.000217436639505
0.000205987148982
0.000184998958375
0.000158343504093
0.000131147334473
0.000110014538504
7.34039369023e-05
7.33501127786e-05
0.000109950966213
0.000131101262354
0.000158297160024
0.000184945506714
0.00020592786161
0.000217383885699
0.000217888242427
0.000209656464818
0.000199503822443
0.000199488404429
0.000209645612354
0.000217898277163
0.000217413634591
0.000205967037568
0.000184983948333
0.000158333457944
0.000131140637381
0.000110012244214
7.34106019133e-05
7.52647681589e-05
0.000117672081952
0.000141790297482
0.000169766145351
0.000196211582463
0.000216467152611
0.000227073650878
0.000227021237312
0.000218946779743
0.000209648665188
0.000209642420278
0.000218949256721
0.000227043104449
0.000227112990927
0.000216514305219
0.00019625725645
0.000169810211105
0.000141840097363
0.000117747189005
7.53331316912e-05
7.93831927499e-05
0.000131286965268
0.00016080824455
0.000187179815362
0.000211496709664
0.000229282065754
0.000237559451323
0.000235806844427
0.000227045365977
0.000217904458642
0.000217900973757
0.000227048433107
0.000235823012878
0.000237587927666
0.000229315623842
0.00021152777783
0.000187209459571
0.000160849294096
0.000131343312391
7.94333113315e-05
8.55213868285e-05
0.000148474401698
0.000185124813437
0.000206925393258
0.000226121163134
0.000238713730642
0.000242538577239
0.000237591230593
0.000227130342715
0.000217434840614
0.000217431542415
0.000227130318395
0.000237597744556
0.00024255182263
0.000238727967299
0.000226129902474
0.000206929775843
0.000185136686811
0.000148500638387
8.55457847977e-05
9.20247546885e-05
0.000165525850831
0.000208483857616
0.000228968881004
0.000237794027195
0.000241707784546
0.000238738608017
0.000229337600879
0.000216548380772
0.000206007644089
0.000206003610723
0.000216544717301
0.00022933508367
0.000238736630014
0.000241701318464
0.000237776403383
0.000228941349387
0.000208469897946
0.000165525420039
9.20270688981e-05
9.69284836888e-05
0.000178700832053
0.000226304182187
0.000246535887268
0.00024563301051
0.000237814199739
0.00022616261772
0.000211565329194
0.000196304574406
0.000185040389354
0.000185034825961
0.000196295712108
0.000211551814275
0.000226143015724
0.0002377818898
0.000245577582917
0.000246491422374
0.000226272887604
0.000178680785502
9.69150262214e-05
9.86568234307e-05
0.000183957528711
0.000232677888594
0.000251086229445
0.000246564004704
0.000229016096768
0.000206982946666
0.000187258628833
0.000169862816218
0.000158394368599
0.000158386383055
0.000169845916625
0.000187228782339
0.000206940272983
0.000228948622137
0.000246494596452
0.000251028962095
0.000232634375913
0.000183924872271
9.86334261671e-05
9.41669397867e-05
0.000173249185964
0.000217615660177
0.000232704789708
0.000226356223399
0.000208550886979
0.000185207121777
0.000160907461983
0.000141885616719
0.000131189607784
0.000131179156518
0.000141858705815
0.000160850333942
0.000185134490868
0.000208471843342
0.000226276067683
0.000232637310296
0.000217562868761
0.000173207841003
9.41377284438e-05
8.23721269808e-05
0.000140866257949
0.000173270448717
0.000184001324075
0.000178763998939
0.000165597975677
0.00014855359754
0.000131373823632
0.000117766171585
0.000110036098425
0.000110024379346
0.000117733244773
0.000131314585796
0.000148475780282
0.000165512296278
0.000178677966617
0.000183927601319
0.000173212281291
0.000140820311181
8.23409038364e-05
6.32802135047e-05
8.2387816897e-05
9.41985014375e-05
9.86980454742e-05
9.69755683328e-05
9.20718940303e-05
8.55662154137e-05
7.94277791422e-05
7.53137288516e-05
7.33964576569e-05
7.33858602511e-05
7.52863602478e-05
7.93799632234e-05
8.55039379842e-05
9.20045372083e-05
9.69101743517e-05
9.86414643424e-05
9.41529968255e-05
8.23522327508e-05
6.32534263262e-05
0.00012379202831
0.00017478075337
0.000209215670918
0.000225397130708
0.000228483630422
0.000224387324244
0.000219903777291
0.000221357509973
0.000230758649547
0.000241114620697
0.000241046252184
0.00023056829848
0.000221079430283
0.00021960059622
0.000224116682393
0.000228273145277
0.000225256531927
0.000209130890309
0.000174734776685
0.000123761201489
0.000174788006615
0.000207808297835
0.000230156952418
0.000238286434514
0.000235922705436
0.000226585744076
0.000215314717271
0.000206599867137
0.000203208832069
0.000203516411903
0.000203452739565
0.000203041551184
0.000206360605456
0.000215049426382
0.000226340338964
0.000235727326896
0.000238152600007
0.000230075702229
0.000207761389688
0.000174755839719
0.000209206912646
0.000230147450376
0.000241691874055
0.000241427505929
0.000233256912109
0.000220156939167
0.000205502080553
0.000192986901503
0.000185639524165
0.000181876020113
0.000181834436638
0.000185539363822
0.000192845546334
0.0002053121876
0.000219971851763
0.000233100529067
0.000241315781621
0.000241625752666
0.000230115502363
0.00020918844139
0.000225372507026
0.000238263068989
0.000241412098204
0.000236062894241
0.000226811390691
0.000216466165501
0.0002079563593
0.000199483504018
0.000192184052692
0.000187320472942
0.000187289828962
0.000192117719937
0.000199395103187
0.00020785091793
0.000216355786637
0.00022669503284
0.000235971338205
0.000241357244592
0.000238242558942
0.000225365437274
0.000228449667641
0.000235892307388
0.000233232328013
0.000226800519876
0.000221998724424
0.000220109375935
0.000217959495802
0.0002138446775
0.000208427646972
0.000203872552743
0.000203848122576
0.000208380821582
0.000213788949698
0.000217899125335
0.000220043927685
0.000221924224406
0.0002267234634
0.000233179075909
0.000235873219812
0.000228448644853
0.000224384954843
0.000226578868709
0.000220143382432
0.000216460107571
0.000220108199474
0.000225756157197
0.000229607190008
0.000229595011952
0.000226300432244
0.000222475102627
0.000222453953184
0.000226263668475
0.000229556215025
0.000229571185722
0.00022571704876
0.00022005882014
0.00021640090835
0.000220083415136
0.000226547264847
0.000224374572128
0.000219992567033
0.000215369111426
0.000205522332923
0.000207965018871
0.000217964165681
0.000229610669556
0.000238341399535
0.000241546296298
0.000240041257468
0.000236833579276
0.000236813883802
0.000240008479415
0.000241514269134
0.000238316981874
0.000229585780221
0.000217928343158
0.000207914110907
0.000205456396191
0.000215326337064
0.00021997352883
0.00022157900152
0.000206739667295
0.000193048542667
0.00019951121642
0.00021386026405
0.000229608000485
0.000241556984512
0.000247231581127
0.000246894010556
0.00024393875544
0.000243919805706
0.000246864226288
0.000247205803213
0.000241538619049
0.000229592153118
0.000213835775599
0.000199473247737
0.000193002680787
0.000206710158715
0.000221587109562
0.000231084199902
0.000203417887417
0.000185733638063
0.000192227817656
0.000208454061372
0.000226324677274
0.000240064672201
0.000246910089599
0.000246917397296
0.000243726007427
0.000243708966191
0.000246893564763
0.000246894881675
0.000240059637724
0.000226322813856
0.000208445608144
0.00019221070441
0.000185719475461
0.000203444902753
0.000231189311418
0.000241442443728
0.000203733671547
0.000181973407478
0.000187365983218
0.00020390120653
0.000222503554943
0.000236864454466
0.000243967268457
0.000243742653552
0.000240019413533
0.000240008413472
0.000243733776344
0.000243972762086
0.000236883192798
0.00022252650904
0.000203920004579
0.000187383204747
0.000182011959634
0.000203855926677
0.000241698819765
0.000241288129516
0.000203614370284
0.000181900326037
0.000187314567265
0.000203858706729
0.000222464170225
0.000236827461804
0.000243935140717
0.000243720773629
0.000240012802337
0.00024001383391
0.000243737678577
0.000243972876717
0.000236880722409
0.000222522382962
0.000203914318677
0.000187374596719
0.000181997479065
0.000203830225529
0.000241673978666
0.000230712450986
0.000203130619709
0.000185564563706
0.000192115696996
0.000208368620031
0.000226250900832
0.000239998754491
0.000246858244513
0.000246890811059
0.000243733957792
0.000243741469156
0.000246919048183
0.000246907602962
0.000240062318318
0.000226318722817
0.000208434153253
0.000192187917416
0.000185678184816
0.000203370672056
0.000231112721321
0.000221136244581
0.000206380993174
0.000192830356598
0.000199366693541
0.000213756668147
0.000229525519055
0.000241488112067
0.00024718564841
0.000246882922613
0.000243970900585
0.000243980900286
0.000246913679347
0.000247233954832
0.000241547553705
0.000229587693827
0.000213816086452
0.000199430838912
0.000192928180331
0.000206586202385
0.000221455594956
0.00021958408018
0.000215008280112
0.00020525897052
0.00020779544628
0.00021784769615
0.000229526924732
0.000238281130334
0.000241511640021
0.000240044679582
0.000236882809496
0.000236893095427
0.000240073608449
0.00024155335066
0.000238331462378
0.000229577654298
0.000217893637217
0.000207843305247
0.000205331595374
0.000215156129829
0.000219793497279
0.000224041225747
0.000226246733632
0.000219877012347
0.00021627211597
0.000219973303928
0.000225660272785
0.000229542775976
0.000229562631522
0.000226308090403
0.00022252946557
0.000222538514727
0.000226332986706
0.000229596618712
0.000229581059814
0.000225696160135
0.000220002333569
0.000216299599956
0.000219922623403
0.000226342313347
0.000224160199399
0.000228155751703
0.000235593355447
0.00023296972519
0.000226582683911
0.000221833857961
0.000219987955364
0.000217875324841
0.000213799914467
0.000208428913195
0.0002039233429
0.000203929656434
0.000208445815433
0.000213821436346
0.000217895003522
0.000220001948471
0.000221838330869
0.000226583999542
0.000232992083998
0.000235647612535
0.000228209786997
0.000225110976335
0.00023799405476
0.000241159195653
0.000235834179625
0.000226612460825
0.000216312315286
0.000207843390697
0.000199420266869
0.000192176371371
0.000187368345544
0.000187370800797
0.000192180991007
0.000199420003151
0.000207832205389
0.000216291915896
0.000226580423854
0.000235812908819
0.000241159492176
0.000238014792855
0.000225120778389
0.000208975128449
0.000229910472633
0.000241456576977
0.0002412021599
0.000233045397229
0.000219968291778
0.000205353095546
0.000192908263035
0.000185633438252
0.000181939134293
0.000181936246921
0.000185619899512
0.000192875617485
0.000205287872689
0.00021989348721
0.000232975840732
0.000241151473875
0.00024142892742
0.00022989807627
0.000208951569424
0.000174597545958
0.000207607167472
0.000229946762694
0.000238077004626
0.000235717737247
0.000226394600301
0.00021516212362
0.000206524901468
0.000203240382472
0.000203648180443
0.0002036359624
0.000203194007118
0.000206436970891
0.000215044180409
0.00022626858525
0.000235605268888
0.000237990348507
0.000229885148703
0.000207562736052
0.000174553579847
0.00012365184912
0.000174604089727
0.00020902233913
0.000225203511833
0.000228295639168
0.000224213936561
0.000219774223064
0.000221326094838
0.000230868212836
0.000241352142234
0.000241339336844
0.00023080739199
0.000221204299037
0.000219613290414
0.00022404713444
0.000228145898091
0.000225084149956
0.000208930810813
0.000174537721904
0.000123603814926
0.00019932404521
0.000301233796886
0.000378028572968
0.000424308301053
0.000452935670084
0.000478545484483
0.000513686128387
0.000562733556808
0.000613888199292
0.000647166356679
0.000647093635549
0.000613676964053
0.000562386559893
0.000513232425813
0.000478109837077
0.000452606621273
0.000424115576918
0.000377946272519
0.000301213420763
0.00019928958299
0.000301317790061
0.000327725505698
0.000368496343006
0.00039264756061
0.000401852796656
0.000402475607691
0.000404139473378
0.000414315417566
0.000430413738445
0.000442639711947
0.00044256006091
0.000430177213757
0.000413950398846
0.000403712432188
0.000402091270063
0.000401582751448
0.000392507995145
0.000368451048708
0.000327716469089
0.000301266742358
0.000378091395097
0.000368509622528
0.000375552512895
0.000371845043371
0.000359211484649
0.000341248114669
0.000322927594425
0.000313493041772
0.000310424307073
0.000310393598131
0.000310332242713
0.000310256223504
0.0003132381942
0.000322593864466
0.000340944663295
0.000358993878318
0.000371734042084
0.00037553611253
0.000368543514813
0.000378100218546
0.000424345352673
0.000392648199988
0.000371830989992
0.000347509615948
0.000324502925404
0.000307506681837
0.000291741676464
0.000279265500283
0.000270668420692
0.00026613008455
0.000266086809184
0.000270559571829
0.000279108392933
0.00029155352862
0.00030732963925
0.000324351905243
0.000347425722661
0.000371835810538
0.000392729781202
0.000424439602466
0.00045298258376
0.000401844331075
0.000359185241338
0.000324488547114
0.00030556459248
0.000293437941699
0.00028366112865
0.000274843198977
0.000267152305185
0.000262133848597
0.000262105427282
0.000267087030494
0.000274756276674
0.000283564711697
0.000293345249439
0.000305481355798
0.000324427218955
0.0003591961497
0.000401966798015
0.000453170471297
0.000478680034627
0.000402510097187
0.000341242605864
0.000307500007265
0.000293436029618
0.000288073518321
0.00028530799361
0.000281841994713
0.000276969613582
0.000272854971451
0.00027283727364
0.000276932683109
0.000281799150078
0.000285264958979
0.000288032190283
0.000293394110738
0.000307463924242
0.000341244228139
0.000402657939944
0.000478962458775
0.000513991681633
0.000404284544477
0.000322986357251
0.000291764433912
0.000283671040546
0.000285313986202
0.000288975667389
0.000290109891026
0.000287639545127
0.000284434823583
0.000284423591693
0.000287617737111
0.00029008816787
0.000288959462632
0.000285300067649
0.000283652226916
0.000291739519378
0.000322983747039
0.000404472347899
0.000514416020649
0.000563203276929
0.000414589204636
0.000313632881248
0.000279329242208
0.00027487429387
0.000281862804011
0.000290124423249
0.000294086116256
0.000293087211031
0.000290375692231
0.000290367649498
0.000293072328723
0.000294073334564
0.000290119637561
0.000281864405883
0.00027487432317
0.000279330932204
0.000313686817324
0.000414880007137
0.000563880384268
0.000614390664821
0.000430756739133
0.000310616042209
0.000270763681903
0.000267204090705
0.000277009223213
0.000287673942341
0.000293108769402
0.000292663356903
0.000289925485097
0.000289920004964
0.000292654739644
0.000293104962043
0.000287681010702
0.000277027014756
0.000267228199925
0.000270805012948
0.000310746723888
0.000431205967563
0.000615404068702
0.000647597710436
0.000442971716446
0.000310583907737
0.00026622658143
0.000262188571457
0.000272900016284
0.000284478253513
0.000290410767485
0.000289942973723
0.000286906832904
0.000286906576023
0.000289947207662
0.000290424837739
0.00028450775798
0.00027294571321
0.000262249464417
0.000266323439283
0.000310808111554
0.000443582043014
0.000648910020175
0.000647407685768
0.000442813906701
0.000310468405642
0.000266147440147
0.000262133009144
0.000272858468288
0.000284446637757
0.000290388614774
0.000289932762197
0.000286910190713
0.000286918529845
0.000289956668305
0.000290428853738
0.000284506740732
0.000272939755883
0.000262237545082
0.000266302815229
0.000310774580497
0.000443533120415
0.000648866448483
0.00061385647119
0.000430327865767
0.000310318690585
0.00027056971612
0.000267075542827
0.000276919197306
0.000287609233138
0.000293067364331
0.000292651154085
0.000289945347537
0.000289958512515
0.000292685112498
0.000293119843509
0.000287681658461
0.000277013370976
0.000267196097503
0.000270746442507
0.000310649532989
0.000431059649782
0.00061527254128
0.000562437831203
0.000413988185299
0.000313221782043
0.000279063888544
0.000274704427108
0.000281752910475
0.000290051719615
0.00029404573722
0.0002930861486
0.000290416280231
0.000290431324159
0.000293123312426
0.000294100614069
0.000290124045332
0.000281844199015
0.000274819416379
0.00027922973539
0.000313523615476
0.000414643647474
0.000563649127995
0.000513173607625
0.000403639161753
0.000322500883531
0.000291451906553
0.000283471179712
0.000285187577071
0.000288899339529
0.000290074501236
0.000287650585811
0.000284493521144
0.000284508246111
0.000287686450281
0.000290126242524
0.000288965751248
0.000285268225236
0.000283569908608
0.00029158931291
0.000322740723503
0.000404166231659
0.000514086888208
0.000477951056157
0.000401918812943
0.000340769556632
0.000307167878274
0.000293206587106
0.000287919865998
0.000285212797063
0.000281799430529
0.000276983030585
0.00027292331803
0.000272935732281
0.000277013095297
0.000281841838102
0.00028526469146
0.000287981669118
0.000293281781229
0.000307275812292
0.000340964675278
0.000402320715685
0.000478583724957
0.000452379186215
0.000401336478851
0.000358749693268
0.000324135281223
0.000305296255973
0.0002932407573
0.000283527775687
0.000274777030219
0.000267156805201
0.000262204230371
0.000262212277035
0.000267174773616
0.000274797958335
0.000283550971117
0.000293270080792
0.000305337549427
0.000324206413247
0.000358908451775
0.000401633706114
0.000452779715103
0.000423854363402
0.000392223592256
0.000371441444331
0.000347156045046
0.000324193539243
0.000307258023712
0.000291557568778
0.000279170428658
0.0002706669706
0.000266211232413
0.000266212917064
0.000270665672168
0.000279157282869
0.000291530669996
0.000307235462729
0.000324185827951
0.000347199962061
0.000371563857982
0.000392427525707
0.000424076270538
0.000377696610879
0.000368162287108
0.000375216567164
0.000371517958154
0.000358896250047
0.000340959168112
0.00032270093894
0.000313398838147
0.000310457936657
0.000310533315492
0.000310525811074
0.000310427415681
0.000313335330676
0.000322593968774
0.000340861087063
0.000358842332847
0.000371528294542
0.00037529208305
0.000368277350708
0.000377787519379
0.000301021270759
0.000327444996614
0.000368211810881
0.00039236581883
0.000401583455575
0.000402245052335
0.000404005260317
0.00041434711297
0.000430627520258
0.000442996597773
0.000442977899751
0.000430559585031
0.000414223673884
0.000403845267499
0.000402096531207
0.000401483974463
0.000392329142018
0.000368222016757
0.00032747654724
0.000301024913226
0.000199143561366
0.000300976483425
0.000377741435374
0.000424031267207
0.000452705441739
0.000478411150244
0.000513734861941
0.000563064362338
0.000614507775108
0.000647998520381
0.000647991415144
0.000614467516785
0.000562948077479
0.000513536412586
0.000478191886855
0.00045251880494
0.00042390211866
0.000377661203656
0.000300929050136
0.000199107071525
0.000285351907403
0.000470750956487
0.000624779669351
0.000740927008957
0.000838875308176
0.000936689353138
0.0010417375437
0.00114788029542
0.00123660792372
0.00128858257056
0.00128859112697
0.00123658455404
0.00114778398968
0.00104156071034
0.000936486472811
0.000838766843771
0.000740929555288
0.000624891734876
0.00047088140168
0.000285353452589
0.000470999441984
0.000495721812902
0.000573345102806
0.000635444938621
0.000678561942468
0.000711436280734
0.00074524499207
0.000783263815263
0.000816406307575
0.000835564741891
0.000835506570041
0.000816215822879
0.000782967028133
0.000744892685669
0.000711139424737
0.000678434765929
0.000635505899552
0.00057352037038
0.00049588104612
0.000470989389935
0.000625018128174
0.000573414221845
0.00057695650417
0.000575198792989
0.000563457117009
0.000545073693313
0.000527070288414
0.000521170880088
0.000519354810599
0.000519360089523
0.000519285457741
0.00051914371929
0.000520854317214
0.000526677296659
0.000544759494494
0.000563325365686
0.000575271666204
0.000577191961254
0.000573706594437
0.000625216787372
0.000741114389294
0.000635493692748
0.000575190754765
0.000523448240338
0.000481533397423
0.000452149728841
0.000425181314805
0.000404648010547
0.000390338229039
0.000382766750707
0.000382708894563
0.000390185886189
0.000404430804934
0.000424941620791
0.000451972817527
0.000481492473422
0.000523529499593
0.000575478575123
0.000635975036678
0.000741654624503
0.000839087787143
0.000678591201495
0.000563422743534
0.000481514936007
0.000434963742895
0.000404146959114
0.000380709261558
0.000361966591181
0.000347483497346
0.000338969528683
0.000338939214807
0.000347404470346
0.000361857643781
0.000380595725516
0.000404070854045
0.000434967226282
0.00048164402911
0.00056374559088
0.000679264925484
0.00084004344496
0.000936922314533
0.000711488930047
0.00054504752529
0.000452123092395
0.000404135664994
0.000379001691856
0.000363487144855
0.000350919982249
0.000339890762427
0.00033267343822
0.000332666624186
0.000339868246705
0.000350889864088
0.000363459196009
0.000378993154341
0.00040417214885
0.000452253685719
0.000545383149643
0.000712358020965
0.000938389426641
0.00104202220247
0.000745360635016
0.000527103272502
0.000425182837016
0.000380708811085
0.000363490856699
0.000355729287987
0.000348859691335
0.000341076285777
0.000335248768566
0.000335255547279
0.000341084399779
0.000348869750087
0.000355746334844
0.000363522111825
0.000380765979931
0.000425319026948
0.000527465455806
0.000746456884619
0.00104408014417
0.00114814083795
0.000783411394041
0.000521266248119
0.000404696024817
0.000361994295891
0.000350942774093
0.000348876722876
0.000345833119628
0.000340124628974
0.000335165294868
0.000335176946871
0.000340142466593
0.000345854303155
0.000348908133221
0.000350992191212
0.000362070360776
0.000404864537892
0.00052174594764
0.000784791204723
0.001150884589
0.00123677534158
0.000816540607741
0.00051948352642
0.000390423470258
0.000347539202886
0.00033993694051
0.000341116332231
0.000340148817081
0.000335313345178
0.000330594476771
0.000330607791684
0.000335334279053
0.000340172920042
0.000341153537825
0.000339999234397
0.000347638712611
0.000390636122848
0.000520073514512
0.000818183550979
0.00124015678614
0.00128862771872
0.000835668374888
0.000519486826959
0.000382857424466
0.000339030251406
0.000332725018873
0.000335297313901
0.000335202071533
0.000330610452079
0.000325862197732
0.000325878873576
0.0003306401262
0.000335237028698
0.000335350131997
0.000332812414044
0.000339167370716
0.000383127650224
0.000520174396548
0.000837489708093
0.00129244197185
0.00128850485637
0.000835545356051
0.000519363064583
0.000382759078588
0.000338964046271
0.000332684493986
0.000335274737088
0.00033519184922
0.000330611913411
0.000325875055736
0.000325898113083
0.000330656965581
0.000335248379379
0.000335355040209
0.000332807884476
0.000339148782184
0.000383091711324
0.000520124363772
0.00083744290315
0.00129243636598
0.00123639382475
0.000816185274583
0.000519145750165
0.000390167344487
0.000347371016578
0.000339834709637
0.000341058664027
0.000340121635303
0.000335315466026
0.00033062519576
0.000330653488029
0.000335372639792
0.000340196631421
0.000341160458513
0.00033998119488
0.000347583453542
0.000390533775975
0.000519927982977
0.000818034174251
0.00124010251222
0.00114751166989
0.000782844269249
0.000520760951556
0.000404329454946
0.000361758245197
0.000350802055587
0.000348798224774
0.000345797566845
0.000340130498534
0.000335210139563
0.0003352420291
0.000340197204741
0.000345887705191
0.000348915777257
0.000350960241488
0.000361978791084
0.000404699293924
0.000521511652771
0.000784548690238
0.00115074802413
0.00104121395058
0.000744655138239
0.000526481829447
0.000424749391163
0.000380426134969
0.000363317322011
0.000355631231119
0.000348817385042
0.000341087398097
0.000335308851931
0.000335341522984
0.000341157708438
0.000348914140138
0.000355753406791
0.000363474050644
0.000380640795873
0.000425099287321
0.000527143836613
0.000746140533547
0.00104384309635
0.000936069419544
0.000710779279666
0.00054443449867
0.000451680124293
0.000403823209779
0.000378790316703
0.000363357289799
0.00035086047719
0.000339900685805
0.00033274730945
0.000332775598858
0.000339962185731
0.000350944950928
0.000363462678207
0.000378929060474
0.000404026670177
0.00045201501508
0.000545043783973
0.000712010835344
0.000938062688454
0.000838293201798
0.000677975054187
0.000562887657536
0.000481105184901
0.000434633769652
0.000403892005733
0.000380531667759
0.000361877227766
0.000347486940662
0.000339056745532
0.000339073958458
0.000347523483385
0.000361925960464
0.000380597203311
0.000403999541638
0.000434821160951
0.000481427849684
0.000563444920654
0.000678944903795
0.000839688151606
0.000740455720631
0.000635005013386
0.000574756554732
0.000523047384748
0.000481208711467
0.000451864099915
0.000424969279088
0.000404554370186
0.000390369678877
0.000382906509152
0.000382910257043
0.000390373560979
0.000404555507398
0.000424978104513
0.000451926497744
0.000481376558848
0.000523331772656
0.000575242999936
0.000635710604155
0.000741309561252
0.000624493104066
0.000573034632638
0.000576630864904
0.000574895643055
0.000563171813825
0.000544823127223
0.000526914758031
0.000521210689051
0.000519569287582
0.000519712399771
0.00051970934622
0.000519552646519
0.000521177009201
0.000526859100955
0.000544827449157
0.000563296698564
0.000575162380791
0.000577022897881
0.000573492938436
0.000624930414489
0.000470610888927
0.000495428687545
0.000573111329939
0.00063528123104
0.000678493110321
0.000711516395047
0.000745555550322
0.000783859968007
0.000817262011578
0.000836607548751
0.000836621325497
0.000817281708453
0.000783875655921
0.000745567001384
0.000711562377089
0.000678621049436
0.000635499020114
0.00057337509698
0.000495673652011
0.000470768719664
0.000285144450143
0.000470483929107
0.000624539826997
0.000740815153377
0.000839036165295
0.000937220712253
0.00104276182495
0.00114945611104
0.00123868347201
0.00129099998314
0.00129108891419
0.00123888360926
0.00114967066436
0.00104292253098
0.000937324670263
0.000839122052817
0.000740915219131
0.000624644504478
0.000470564961352
0.000285165082301
0.000387414885195
0.000701796716621
0.000986526204862
0.00122783467357
0.00143716709765
0.00163205609242
0.00181402024851
0.00197641010811
0.00210305480071
0.00217481887718
0.00217505291166
0.00210357801326
0.00197708972779
0.00181476324048
0.00163281654796
0.0014379417598
0.00122860572431
0.000987246073581
0.000702304399091
0.000387515032024
0.000702321858574
0.000726101385413
0.000863157546457
0.000991680811421
0.00109430469046
0.00117285319888
0.00123511855513
0.00128633574751
0.00132398147597
0.00134404625192
0.00134406598356