/*--------------------------------*- C++ -*----------------------------------*\
| =========                 |                                                 |
| \\      /  F ield         | OpenFOAM: The Open Source CFD Toolbox           |
|  \\    /   O peration     | Version:  3.0.1                                 |
|   \\  /    A nd           | Web:      www.OpenFOAM.org                      |
|    \\/     M anipulation  |                                                 |
\*---------------------------------------------------------------------------*/
FoamFile
{
    version     2.0;
    format      ascii;
    class       surfaceScalarField;
    location    "10";
    object      phi;
}
// * * * * * * * * * * * * * * * * * * * * * * * * * * * * * * * * * * * * * //

dimensions      [0 3 -1 0 0 0 0];

internalField   nonuniform List<scalar> 
22672
(
2.10086045736e-05
2.1022956345e-05
-4.20317266275e-05
4.16653200725e-05
1.96596575319e-05
-4.03165579358e-05
5.6757612123e-05
1.90506938578e-05
-3.4143173385e-05
6.45561050033e-05
1.92309615287e-05
-2.70296339165e-05
6.42239236218e-05
2.00394598698e-05
-1.97074421935e-05
5.80800668597e-05
2.07818093473e-05
-1.46380958839e-05
4.68981248499e-05
2.19807598041e-05
-1.07989388266e-05
3.23234017214e-05
2.35745526818e-05
-8.99992863738e-06
1.63077935504e-05
2.53088326084e-05
-9.29330423942e-06
8.67812667794e-08
2.65348526262e-05
-1.03139053661e-05
-1.61404867675e-05
2.65318331471e-05
-1.0304621186e-05
-3.21732299277e-05
2.52995170906e-05
-9.26682784069e-06
-4.67751784484e-05
2.35586137864e-05
-8.95672448632e-06
-5.79895539247e-05
2.196016806e-05
-1.07458647646e-05
-6.4163384563e-05
2.07599400283e-05
-1.45862016447e-05
-6.4522443008e-05
2.00187876134e-05
-1.96598472197e-05
-5.67422356067e-05
1.92114552187e-05
-2.69918087625e-05
-4.16607109303e-05
1.90321368707e-05
-3.41138367855e-05
-2.10096475847e-05
1.9640680689e-05
-4.0291950455e-05
2.10034869919e-05
-4.20132780941e-05
1.96484966778e-05
4.16753130057e-05
-4.03010384499e-05
4.16600546513e-05
4.16679723917e-05
-4.40200738922e-05
5.84449541904e-05
4.26188494191e-05
-4.03532550191e-05
6.76966035201e-05
4.43735423893e-05
-3.43944177246e-05
6.81905051797e-05
4.6420017701e-05
-2.68746264371e-05
6.21386270516e-05
4.76488550619e-05
-2.0815309478e-05
5.0543323353e-05
4.89724676996e-05
-1.53965198146e-05
3.50387111369e-05
5.03214467817e-05
-1.1242372719e-05
1.77383081827e-05
5.15162468089e-05
-8.90708123766e-06
9.16167926795e-08
5.22839379879e-05
-8.10244883009e-06
-1.75606137156e-05
5.22754903384e-05
-8.09147323221e-06
-3.4877957935e-05
5.14925190732e-05
-8.87570356565e-06
-5.04116742497e-05
5.02864901821e-05
-1.11942132996e-05
-6.20409551316e-05
4.89307450163e-05
-1.53413651122e-05
-6.8124188356e-05
4.76057065376e-05
-2.07626259674e-05
-6.76595113508e-05
4.63806689624e-05
-2.6826680561e-05
-5.84286686668e-05
4.43376948571e-05
-3.43572358185e-05
-4.16548468561e-05
4.25860861771e-05
-4.03279543891e-05
-1.96492467636e-05
4.16363835623e-05
-4.40015110689e-05
4.16463931902e-05
-4.02922913358e-05
1.9041456258e-05
5.6756239369e-05
-3.41225711616e-05
4.26120408194e-05
5.84424988746e-05
-4.03453121856e-05
6.07351350927e-05
6.07329471072e-05
-3.62373879865e-05
7.09227797356e-05
6.34718363089e-05
-2.92861178046e-05
7.22322233024e-05
6.59402006994e-05
-2.08297809662e-05
6.64849018809e-05
6.68789545576e-05
-1.34829036964e-05
5.50041460844e-05
6.74271049895e-05
-6.97397810785e-06
3.89065649262e-05
6.75988194324e-05
-1.17986180211e-06
2.00166136832e-05
6.7605830804e-05
2.80031816535e-06
9.46589830661e-08
6.76141897201e-05
4.59166863384e-06
-1.98336623591e-05
6.76030307288e-05
4.6007542478e-06
-3.87423805443e-05
6.75747801382e-05
2.82643054325e-06
-5.48714357518e-05
6.75531117492e-05
-1.13760094318e-06
-6.63848512148e-05
6.73745219435e-05
-6.93041277531e-06
-7.21628588991e-05
6.68252062859e-05
-1.3441568457e-05
-7.0883496962e-05
6.58915510053e-05
-2.07903517432e-05
-6.07169175276e-05
6.3428606234e-05
-2.9257631699e-05
-4.26060933364e-05
6.06942168442e-05
-3.62191267075e-05
-1.904216395e-05
5.84063852153e-05
-4.03341262567e-05
5.67259288158e-05
-3.41218266146e-05
1.92246618657e-05
6.45393126588e-05
-2.70079177001e-05
4.43689503428e-05
6.76755041967e-05
-3.4377485326e-05
6.34742229851e-05
7.09048133614e-05
-2.92773213548e-05
7.40985944491e-05
7.4083690704e-05
-2.12363874545e-05
7.5513430096e-05
7.65251843461e-05
-1.1999952458e-05
6.96474588608e-05
7.69653707902e-05
-4.22054659756e-06
5.78893685046e-05
7.6651426239e-05
2.5336982714e-06
4.13268532619e-05
7.58409614256e-05
8.32032929887e-06
2.14597426336e-05
7.49759392282e-05
1.24969790812e-05
9.44123750194e-08
7.44653746663e-05
1.4514135811e-05
-2.12774149025e-05
7.44532626242e-05
1.45215925701e-05
-4.11638366533e-05
7.49422883165e-05
1.25189104576e-05
-5.77553375739e-05
7.57920995925e-05
8.35250183351e-06
-6.95445302866e-05
7.65955592184e-05
2.56812731058e-06
-7.54401808016e-05
7.69094620991e-05
-4.18865902654e-06
-7.40557647814e-05
7.6474970131e-05
-1.19679208747e-05
-6.34530281813e-05
7.40395028696e-05
-2.12137528735e-05
-4.43605562932e-05
7.08667240256e-05
-2.9265130013e-05
-1.92231968516e-05
6.76416774577e-05
-3.43728249989e-05
6.45124078199e-05
-2.70097870054e-05
2.00387207987e-05
6.41876174889e-05
-1.96871961091e-05
4.64209697939e-05
6.814717227e-05
-2.68540931991e-05
6.59460676023e-05
7.21945943426e-05
-2.08150428218e-05
7.65404157823e-05
7.54826362502e-05
-1.19934341817e-05
7.77937859876e-05
7.77661276747e-05
-2.4944234929e-06
7.16292233705e-05
7.78934890736e-05
5.23636710372e-06
5.94756007768e-05
7.70506269425e-05
1.17543755908e-05
4.24611230729e-05
7.56936326016e-05
1.71617864004e-05
2.2081988402e-05
7.44944844601e-05
2.08605880695e-05
9.33720928045e-08
7.38193535001e-05
2.26346477797e-05
-2.19014548746e-05
7.3807166566e-05
2.26409386794e-05
-4.22990095556e-05
7.44607441796e-05
2.08791137376e-05
-5.93409140767e-05
7.56450787377e-05
1.71889324857e-05
-7.15248326217e-05
7.69957880705e-05
1.17836804634e-05
-7.77181273444e-05
7.78396512738e-05
5.26307182474e-06
-7.64945594524e-05
7.77180972295e-05
-2.46675976843e-06
-6.59213703646e-05
7.54406626341e-05
-1.19744464145e-05
-4.64094441213e-05
7.21599184673e-05
-2.08052480668e-05
-2.00348334258e-05
6.81178942506e-05
-2.68509752517e-05
6.41655084083e-05
-1.9688027866e-05
2.07852569371e-05
5.80267737541e-05
-1.46245692184e-05
4.76554556427e-05
6.20772996477e-05
-2.08004852699e-05
6.68895928047e-05
6.64306870458e-05
-1.34703753885e-05
7.69832371684e-05
6.96030577421e-05
-4.21418708563e-06
7.79209803156e-05
7.15911877854e-05
5.23710581418e-06
7.15784255407e-05
7.15429569e-05
1.2693027564e-05
5.92962505491e-05
7.04763451616e-05
1.88564265013e-05
4.21858295311e-05
6.89284672008e-05
2.38755787192e-05
2.18660367535e-05
6.7601451342e-05
2.72128336282e-05
9.1428451447e-08
6.69117023225e-05
2.86822760615e-05
-2.16890309371e-05
6.68999762749e-05
2.8687670175e-05
-4.20256864847e-05
6.75686126044e-05
2.72288068695e-05
-5.91628353879e-05
6.88817031943e-05
2.39005374163e-05
-7.14742373594e-05
7.04244091159e-05
1.88827800696e-05
-7.78446308843e-05
7.14925720358e-05
1.27174499237e-05
-7.69355311477e-05
7.15463636661e-05
5.26258330632e-06
-6.68630081474e-05
6.95643362927e-05
-4.19627659471e-06
-4.76422370593e-05
6.63989058084e-05
-1.34598646582e-05
-2.07804913412e-05
6.20505863091e-05
-2.07945613707e-05
5.80082749969e-05
-1.46233359973e-05
2.19930782762e-05
4.68345128038e-05
-1.08009591278e-05
4.89905767719e-05
5.04718145011e-05
-1.53921569382e-05
6.74484350636e-05
5.49404093566e-05
-6.96771062207e-06
7.6677356309e-05
5.78363104514e-05
2.53771901468e-06
7.70827532464e-05
5.94315579395e-05
1.17541535936e-05
7.05135409391e-05
5.92568405094e-05
1.88552775582e-05
5.82015158469e-05
5.8163744814e-05
2.46245982179e-05
4.11681059934e-05
5.65259447033e-05
2.94359229817e-05
2.12705359217e-05
5.51781851241e-05
3.23208378727e-05
8.84613803294e-08
5.45806926721e-05
3.35130918751e-05
-2.10989033203e-05
5.45700534731e-05
3.35172980449e-05
-4.10120450965e-05
5.51474850188e-05
3.23342796913e-05
-5.80709337102e-05
5.64811248361e-05
2.94594730504e-05
-7.04109196449e-05
5.81155096301e-05
2.46488807293e-05
-7.70071775837e-05
5.92100881366e-05
1.88787199743e-05
-7.66291853257e-05
5.93895701779e-05
1.17787568086e-05
-6.74210839299e-05
5.78002167211e-05
2.55594977312e-06
-4.89763559167e-05
5.4910347936e-05
-6.95625984591e-06
-2.19875509025e-05
5.0445705163e-05
-1.53840272231e-05
4.68169360438e-05
-1.07962771881e-05
2.35975986743e-05
3.22579584783e-05
-9.02117343288e-06
5.03545127424e-05
3.49698730808e-05
-1.12551033058e-05
6.7634371173e-05
3.88433712478e-05
-1.18293877237e-06
7.58793828631e-05
4.12737877108e-05
8.31741278156e-06
7.57356589546e-05
4.24193767521e-05
1.71558305242e-05
6.89728955317e-05
4.21508890316e-05
2.38686628217e-05
5.6567446599e-05
4.11391374147e-05
2.94300227759e-05
3.98310157793e-05
3.98030903377e-05
3.34592639131e-05
2.04812508432e-05
3.86648943691e-05
3.58630415825e-05
8.29077742663e-08
3.82062543942e-05
3.67727710899e-05
-2.0320060087e-05
3.81972407677e-05
3.67757725229e-05
-3.96838752202e-05
3.86381206771e-05
3.58731723384e-05
-5.64431551884e-05
3.97629974554e-05
3.34773980653e-05
-6.88760216884e-05
4.10947974044e-05
2.94535630405e-05
-7.56650562224e-05
4.21076636298e-05
2.38914313558e-05
-7.58345104404e-05
4.23797884048e-05
1.71791919579e-05
-6.76097322683e-05
4.12389010952e-05
8.3364755478e-06
-5.03430838327e-05
3.88125043091e-05
-1.16888248057e-06
-2.35937118109e-05
3.49426532724e-05
-1.12464078178e-05
3.22387110543e-05
-9.01554258185e-06
2.53396597872e-05
1.62440592789e-05
-9.32587953095e-06
5.15605931236e-05
1.7677863926e-05
-8.92904521075e-06
6.76537829621e-05
1.99624218473e-05
2.78764893729e-06
7.50268843605e-05
2.14149948803e-05
1.24855980154e-05
7.45481037437e-05
2.20502930642e-05
2.08477902053e-05
6.76561640777e-05
2.18431606374e-05
2.71996117867e-05
5.52273508548e-05
2.12568591881e-05
3.23110484233e-05
3.86977644748e-05
2.047443141e-05
3.58582106433e-05
1.97882249281e-05
1.97819410836e-05
3.77924624631e-05
7.38839239433e-08
1.95034354144e-05
3.84171318818e-05
-1.96447869311e-05
1.94968362791e-05
3.84190490398e-05
-3.85676756844e-05
1.97615647578e-05
3.77994198077e-05
-5.51183783167e-05
2.04427003896e-05
3.58709750362e-05
-6.75718919878e-05
2.12202307087e-05
3.23280526187e-05
-7.4488891073e-05
2.18064095114e-05
2.7218218325e-05
-7.4991962817e-05
2.20150002385e-05
2.08678141293e-05
-6.76386135819e-05
2.13830930811e-05
1.25024005126e-05
-5.15575272462e-05
1.99335365659e-05
2.79781191606e-06
-2.53407224677e-05
1.76522516491e-05
-8.92647998681e-06
1.62242907016e-05
-9.32635190146e-06
2.65655453777e-05
2.23496747875e-08
-1.0343947903e-05
5.2329203489e-05
3.85736225502e-08
-8.12448275989e-06
6.76636380774e-05
5.10946062535e-08
4.57678687529e-06
7.45182946286e-05
6.03915950287e-08
1.44998562576e-05
7.38749939954e-05
7.43635538421e-08
2.26191565423e-05
6.69676552702e-05
8.34241297291e-08
2.86670162643e-05
5.46306132049e-05
9.21613334887e-08
3.35016915636e-05
3.82410314801e-05
9.79256709102e-08
3.67660452126e-05
1.95116259683e-05
9.6710349605e-08
3.84145967754e-05
6.48077138162e-08
8.98580159947e-08
3.88603574983e-05
-1.93863300471e-05
8.63252560795e-08
3.88616119644e-05
-3.81289049493e-05
8.48261050862e-08
3.84192785313e-05
-5.45389343574e-05
7.79145323209e-08
3.67747813913e-05
-6.68997418699e-05
6.77562973059e-08
3.35132471796e-05
-7.38312697267e-05
5.81007231121e-08
2.86797977834e-05
-7.44984732162e-05
4.94341308605e-08
2.26327231469e-05
-6.76631604045e-05
3.77531950268e-08
1.45099712731e-05
-5.23390202154e-05
3.09605311074e-08
4.57837137656e-06
-2.657368686e-05
2.13908798533e-08
-8.13454335378e-06
8.79007250005e-09
-1.03582334691e-05
2.65574290307e-05
-1.62040884116e-05
-1.03311002178e-05
5.23115185367e-05
-1.7605039845e-05
-8.11058871426e-06
6.76411728117e-05
-1.98657653717e-05
4.5871021767e-06
7.44927991099e-05
-2.13000876725e-05
1.45087648447e-05
7.38479534483e-05
-2.19087035909e-05
2.26278413419e-05
6.69402347213e-05
-2.16839433435e-05
2.86750291746e-05
5.46050562802e-05
-2.10804100189e-05
3.35077030286e-05
3.82204538769e-05
-2.02870638337e-05
3.67695510633e-05
1.9498785841e-05
-1.9597072978e-05
3.84154133027e-05
5.94467771069e-08
-1.93304148068e-05
3.88595750773e-05
-1.93843179866e-05
-1.93306197539e-05
3.88606741674e-05
-3.81193501659e-05
-1.95993832168e-05
3.84192074543e-05
-5.45246380172e-05
-2.02929062674e-05
3.67760758348e-05
-6.68840097053e-05
-2.10885816585e-05
3.35156762926e-05
-7.38163135169e-05
-2.16925844829e-05
2.86829518522e-05
-7.44854808203e-05
-2.1916993637e-05
2.26355507268e-05
-6.76534309216e-05
-2.13059951315e-05
1.45116449306e-05
-5.23324297083e-05
-1.98689095413e-05
4.57880660362e-06
-2.65716152929e-05
-1.76051098012e-05
-8.13438310211e-06
-1.62021828026e-05
-1.03606903414e-05
2.53176317467e-05
-3.22279351475e-05
-9.29389585532e-06
5.15142051455e-05
-3.49084691101e-05
-8.89325868225e-06
6.75952356525e-05
-3.87611137257e-05
2.8142137441e-06
7.49607784639e-05
-4.11743825648e-05
1.25086654716e-05
7.4477696602e-05
-4.22960850322e-05
2.08703957341e-05
6.75831726089e-05
-4.20105141324e-05
2.72210439168e-05
5.51567977557e-05
-4.09828506029e-05
3.23287769328e-05
3.86383951204e-05
-3.96380292279e-05
3.58693375516e-05
1.97485847771e-05
-3.85037635308e-05
3.77964746897e-05
5.63966339459e-08
-3.80551283533e-05
3.84168776671e-05
-1.96398164681e-05
-3.80526267108e-05
3.84181974658e-05
-3.8541957671e-05
-3.84978490529e-05
3.7800585585e-05
-5.50801740539e-05
-3.96307412129e-05
3.58760300864e-05
-6.75301982453e-05
-4.09751418483e-05
3.23365607351e-05
-7.44491843794e-05
-4.20016678855e-05
2.72280399419e-05
-7.49566932089e-05
-4.22863967165e-05
2.08768723524e-05
-6.76113656218e-05
-4.11602602547e-05
1.25088860297e-05
-5.15386986827e-05
-3.87429012381e-05
2.80126180458e-06
-2.53341143895e-05
-3.48859296706e-05
-8.92383700612e-06
-3.22051850151e-05
-9.33116389541e-06
2.35679537765e-05
-4.6812708214e-05
-8.98329788037e-06
5.02947078354e-05
-5.04250616545e-05
-1.12102825603e-05
6.75581074351e-05
-5.48772452103e-05
-1.14737649092e-06
7.57932499326e-05
-5.77556483286e-05
8.34603587725e-06
7.56428985273e-05
-5.9330369758e-05
1.7184571853e-05
6.88759241266e-05
-5.91416752189e-05
2.38980920221e-05
5.64705014256e-05
-5.80363561096e-05
2.94589014473e-05
3.9746500958e-05
-5.6391811238e-05
3.34777673355e-05
2.04215831241e-05
-5.50500871122e-05
3.58712336556e-05
5.52545691812e-08
-5.44635210978e-05
3.67747177367e-05
-2.03140996228e-05
-5.4459614056e-05
3.67763401264e-05
-3.96490826709e-05
-5.50394609933e-05
3.58765940821e-05
-5.63911903347e-05
-5.6375927458e-05
3.3487290976e-05
-6.8819563768e-05
-5.80173430942e-05
2.94705661733e-05
-7.5610178082e-05
-5.91198076024e-05
2.39087347878e-05
-7.57846181298e-05
-5.93061860575e-05
1.71941950559e-05
-6.75693971676e-05
-5.77251146734e-05
8.34958203387e-06
-5.03142412458e-05
-5.48405410044e-05
-1.15758355889e-06
-2.35814858205e-05
-5.03821864145e-05
-1.12365794349e-05
-4.67711770956e-05
-9.01555252025e-06
2.19624929275e-05
-5.80091351978e-05
-1.07661943453e-05
4.89292035805e-05
-6.20421139457e-05
-1.53497910962e-05
6.73691663038e-05
-6.63821225413e-05
-6.93520315058e-06
7.65863466309e-05
-6.95385556328e-05
2.56563401857e-06
7.69835425496e-05
-7.15103482404e-05
1.17827172762e-05
7.04099190658e-05
-7.14511736839e-05
1.88830827387e-05
5.80988502244e-05
-7.03761934546e-05
2.46508886751e-05
4.10764110847e-05
-6.88266575535e-05
2.94572847268e-05
2.12034525618e-05
-6.75084796599e-05
3.23313617523e-05
5.64294206477e-08
-6.68323261194e-05
3.35158456709e-05
-2.10930696043e-05
-6.68279160932e-05
3.35178216547e-05
-4.09747296389e-05
-6.74959647771e-05
3.23381838564e-05
-5.80144862153e-05
-6.88072220963e-05
2.947106662e-05
-7.0347355984e-05
-7.03509703309e-05
2.46665019171e-05
-7.69437998051e-05
-7.14216406425e-05
1.88982653299e-05
-7.65706901246e-05
-7.14773675872e-05
1.17980389033e-05
-6.73721435278e-05
-6.94979167314e-05
2.57419948742e-06
-4.89399767571e-05
-6.63340060592e-05
-6.93877895582e-06
-2.19703077734e-05
-6.19873400431e-05
-1.53646100225e-05
-5.79559627709e-05
-1.07855915692e-05
2.07564579099e-05
-6.41684929319e-05
-1.45972447178e-05
4.75970539005e-05
-6.81183156307e-05
-2.07645443351e-05
6.68123902974e-05
-7.21563471649e-05
-1.34412453085e-05
7.68937230278e-05
-7.54317638743e-05
-4.18823027708e-06
7.78228258306e-05
-7.77027252162e-05
5.26320015084e-06
7.14758078549e-05
-7.78221000762e-05
1.2717901012e-05
5.91940235704e-05
-7.69746566161e-05
1.88802312898e-05
4.20936119376e-05
-7.56205029077e-05
2.38942625932e-05
2.17976284409e-05
-7.44347323246e-05
2.72222572902e-05
5.85790897083e-08
-7.37759070704e-05
2.86826608246e-05
-2.16827923912e-05
-7.37714967944e-05
2.86849864199e-05
-4.19868436723e-05
-7.44217618736e-05
2.72298808972e-05
-5.91037983638e-05
-7.55994196706e-05
2.39091766836e-05
-7.14065674145e-05
-7.69464530459e-05
1.88982611999e-05
-7.77755767273e-05
-7.7788539508e-05
1.27358956067e-05
-7.68699364786e-05
-7.76651156751e-05
5.28206827486e-06
-6.68063886403e-05
-7.53862502428e-05
-4.17528229147e-06
-4.75993408582e-05
-7.21042239966e-05
-1.34369237467e-05
-2.07586311295e-05
-6.80597431816e-05
-2.07684215288e-05
-6.41110509976e-05
-1.46036267968e-05
2.00109123613e-05
-6.45165616737e-05
-1.9663008869e-05
4.63658772961e-05
-6.76490346943e-05
-2.68244183288e-05
6.58726822995e-05
-7.08754441044e-05
-2.07878637766e-05
7.64547035902e-05
-7.40470904419e-05
-1.19668212527e-05
7.76992284875e-05
-7.64798087518e-05
-2.46753366919e-06
7.15299536449e-05
-7.69145888957e-05
5.26170577605e-06
5.9376083813e-05
-7.65990658007e-05
1.17782523565e-05
4.23703773276e-05
-7.57947762526e-05
1.71799789007e-05
2.20140906371e-05
-7.49457287466e-05
2.08673007804e-05
6.10529710727e-08
-7.44529595959e-05
2.26301189724e-05
-2.18941517116e-05
-7.44488546145e-05
2.26325952459e-05
-4.22588495137e-05
-7.49328644722e-05
2.08758299617e-05
-5.92797980617e-05
-7.57729758223e-05
1.71945236975e-05
-7.14537636317e-05
-7.65698683217e-05
1.17973813671e-05
-7.76443180836e-05
-7.68788771131e-05
5.28086690444e-06
-7.64229325606e-05
-7.6439980621e-05
-2.4465765955e-06
-6.58584260923e-05
-7.40001946386e-05
-1.1950650154e-05
-4.63611944542e-05
-7.08234314977e-05
-2.07781414602e-05
-2.00093595678e-05
-6.75928067323e-05
-2.68189121226e-05
-6.4461223232e-05
-1.96592883069e-05
1.91970875521e-05
-5.67298171239e-05
-2.69840200974e-05
4.4317067577e-05
-5.84185862607e-05
-3.43506256156e-05
6.34055303425e-05
-6.07109750908e-05
-2.92531131192e-05
7.40176303376e-05
-6.34469079465e-05
-2.12124348436e-05
7.54234459853e-05
-6.59094879996e-05
-1.19762536628e-05
6.9552748555e-05
-6.68452300027e-05
-4.19874253531e-06
5.77946822123e-05
-6.73943602169e-05
2.55331318608e-06
4.12407096376e-05
-6.75736740905e-05
8.33285064587e-06
2.13955880186e-05
-6.75965958865e-05
1.24959891544e-05
6.44572655163e-08
-6.76217271922e-05
1.44999106631e-05
-2.12681206233e-05
-6.76183759318e-05
1.4502115392e-05
-4.1120280352e-05
-6.75854021375e-05
1.25047096497e-05
-5.76896839299e-05
-6.75532158711e-05
8.3496439857e-06
-6.94681179434e-05
-6.73659258141e-05
2.57447192778e-06
-7.53605323361e-05
-6.68101879012e-05
-4.17632176529e-06
-7.39782204279e-05
-6.58714369844e-05
-1.19509351752e-05
-6.33838797751e-05
-6.34037429235e-05
-2.11909058094e-05
-4.43056390672e-05
-6.06646310573e-05
-2.92371852189e-05
-1.91914410983e-05
-5.83702883065e-05
-3.4336884512e-05
-5.66820245518e-05
-2.69707571702e-05
1.90142163555e-05
-4.16505786373e-05
-3.40936676767e-05
4.25624129208e-05
-4.16477749427e-05
-4.03192300246e-05
6.06705385977e-05
-4.26032941574e-05
-3.62160141855e-05
7.0847601124e-05
-4.43576638674e-05
-2.92664861407e-05
7.21494136938e-05
-4.64015502708e-05
-2.08098947504e-05
6.63969522241e-05
-4.76292576046e-05
-1.34636185828e-05
5.49152233179e-05
-4.89546438727e-05
-6.95806079731e-06
3.88248192273e-05
-5.03113889583e-05
-1.17192579e-06
1.99560130464e-05
-5.15193929308e-05
2.79157928223e-06
6.69520015704e-08
-5.22998694544e-05
4.5671916761e-06
-1.98231445932e-05
-5.22972211632e-05
4.56893418654e-06
-3.86979548748e-05
-5.15103368967e-05
2.79973337208e-06
-5.48040337149e-05
-5.02947190671e-05
-1.1524416987e-06
-6.6306208563e-05
-4.8930630842e-05
-6.93316407918e-06
-7.20810109531e-05
-4.75997914669e-05
-1.34356657994e-05
-7.08032742014e-05
-4.63705863022e-05
-2.0778692458e-05
-6.0644635555e-05
-4.43234213236e-05
-2.92390994064e-05
-4.25476720044e-05
-4.25677435091e-05
-3.6194020573e-05
-1.90071431328e-05
-4.16117804819e-05
-4.0299228971e-05
-4.16159338401e-05
-3.40733668232e-05
1.96183385095e-05
-2.10045601721e-05
-4.02646001307e-05
4.16089217466e-05
-1.96456550235e-05
-4.39929485706e-05
5.83806023266e-05
-1.9041644672e-05
-4.0333559707e-05
6.76230625264e-05
-1.9222913142e-05
-3.43774122382e-05
6.81110835251e-05
-2.00316064005e-05
-2.68581305046e-05
6.20543521836e-05
-2.07745673121e-05
-2.07980871586e-05
5.04581745401e-05
-2.19759390946e-05
-1.53826205278e-05
3.49629476682e-05
-2.35752790795e-05
-1.1240947382e-05
1.76846580833e-05
-2.53166276442e-05
-8.92451903534e-06
6.93638741154e-08
-2.65474238757e-05
-8.13718229772e-06
-1.75464849397e-05
-2.65462501113e-05
-8.13514917306e-06
-3.48298373195e-05
-2.53121229691e-05
-8.91489260498e-06
-5.03397081645e-05
-2.35661294538e-05
-1.12187621377e-05
-6.1957350405e-05
-2.19626083681e-05
-1.53504442828e-05
-6.80374127676e-05
-2.07587550781e-05
-2.07610664816e-05
-6.7574494582e-05
-2.0015460462e-05
-2.68181702467e-05
-5.83521205307e-05
-1.92052396944e-05
-3.43407158081e-05
-4.15924025697e-05
-1.90236135321e-05
-4.03040370455e-05
-1.96108092685e-05
-1.96278126677e-05
-4.39657742975e-05
-2.09879184008e-05
-4.02389589094e-05
2.09803126598e-05
-4.19850417337e-05
4.16170451868e-05
-4.02825509263e-05
5.66962809211e-05
-3.41210301491e-05
6.44873487909e-05
-2.70141101724e-05
6.41515307003e-05
-1.96958931074e-05
5.80055455932e-05
-1.46286624256e-05
4.68251582442e-05
-1.07956098382e-05
3.22604038643e-05
-9.0105649804e-06
1.6264553451e-05
-9.32080518295e-06
7.19846031309e-08
-1.03548763158e-05
-1.61212686272e-05
-1.03530169242e-05
-3.21220020257e-05
-9.31141365483e-06
-4.67006608997e-05
-8.98750412522e-06
-5.79024754823e-05
-1.07608422592e-05
-6.40718815085e-05
-1.4589417182e-05
-6.44317834012e-05
-1.96556489659e-05
-5.66611810626e-05
-2.69759532684e-05
-4.15965510119e-05
-3.40883737076e-05
-2.09711976842e-05
-4.0253299425e-05
-4.19591697708e-05
2.28965478587e-05
2.28973952271e-05
-8.78258284554e-05
4.13139638749e-05
2.54270480262e-05
-8.41611845144e-05
5.18020636519e-05
2.99419716632e-05
-7.45734037572e-05
5.41694350646e-05
3.48402877211e-05
-6.4237441057e-05
5.1041898082e-05
3.85836441219e-05
-5.51636795222e-05
4.28010312458e-05
4.12733421036e-05
-4.76706792919e-05
3.17812802365e-05
4.33900409187e-05
-4.31693136463e-05
2.02045383174e-05
4.52796724206e-05
-4.27029223744e-05
9.61140151399e-06
4.67839301183e-05
-4.54841427579e-05
8.3821992211e-08
4.75933866024e-05
-4.83797447114e-05
-9.44946875217e-06
4.75869129279e-05
-4.83582687038e-05
-2.0058871682e-05
4.67655586149e-05
-4.5423008614e-05
-3.16607411211e-05
4.5251582135e-05
-4.26064692635e-05
-4.27105516939e-05
4.33568088721e-05
-4.30529095638e-05
-5.09791688623e-05
4.12410872426e-05
-4.75587394907e-05
-5.41275539827e-05
3.8554863173e-05
-5.50664193131e-05
-5.17753404892e-05
3.48172790392e-05
-6.41614229334e-05
-4.13021090608e-05
2.99226186484e-05
-7.45098347838e-05
-2.28946807404e-05
2.54093317361e-05
-8.41088779567e-05
2.28783444505e-05
-8.77864049187e-05
2.54346496802e-05
4.12986532684e-05
-8.41371091349e-05
4.44657100613e-05
4.4447235226e-05
-8.20714862988e-05
5.51180174397e-05
5.13145245934e-05
-7.23782733558e-05
5.80919420393e-05
5.87590851104e-05
-6.12872827001e-05
5.53676170216e-05
6.47252112513e-05
-5.02919895771e-05
4.75014948606e-05
6.87863432753e-05
-4.0462283881e-05
3.6405338633e-05
7.13672482119e-05
-3.22776404966e-05
2.40430414559e-05
7.30038736464e-05
-2.66043233166e-05
1.18223243597e-05
7.40748051121e-05
-2.39772672972e-05
8.83301750203e-08
7.46204578511e-05
-2.33955415242e-05
-1.16509801999e-05
7.46095245804e-05
-2.33747840575e-05
-2.38864167936e-05
7.40440058536e-05
-2.39187245323e-05
-3.62723899562e-05
7.29571725099e-05
-2.65138490327e-05
-4.73984257055e-05
7.13140491094e-05
-3.21726041442e-05
-5.52945251867e-05
6.87345993765e-05
-4.03600965524e-05
-5.80421278988e-05
6.46794135776e-05
-5.02037148511e-05
-5.50871635217e-05
5.8722012403e-05
-6.12170497389e-05
-4.4448605339e-05
5.12830473518e-05
-7.23270836209e-05
-2.54267119627e-05
4.4419132268e-05
-8.20333622123e-05
4.12733933872e-05
-8.4114143728e-05
2.99510858862e-05
5.17664206962e-05
-7.45415856809e-05
5.13316605534e-05
5.50851851524e-05
-7.23639973481e-05
6.28533187239e-05
6.28253051516e-05
-5.92699768276e-05
6.62915393798e-05
7.105183019e-05
-4.5017214631e-05
6.39698167974e-05
7.71860224413e-05
-3.09689752839e-05
5.64217258348e-05
8.07660532225e-05
-1.79146002785e-05
4.48924420496e-05
8.22861492844e-05
-6.3636458574e-06
3.09304096929e-05
8.26649180994e-05
3.12109892311e-06
1.57809024496e-05
8.2612272172e-05
9.4123488706e-06
9.06706698164e-08
8.24568892514e-05
1.24454708408e-05
-1.56050492851e-05
8.24435473809e-05
1.24624583416e-05
-3.07704469764e-05
8.25752485953e-05
9.46059119794e-06
-4.47542889891e-05
8.26116085886e-05
3.19180238057e-06
-5.63140263086e-05
8.22243124833e-05
-6.28095760479e-06
-6.38916220222e-05
8.0706232496e-05
-1.78356485351e-05
-6.62367548719e-05
7.71346920957e-05
-3.0900569384e-05
-6.28184358994e-05
7.10106487372e-05
-4.49646891943e-05
-5.13120545869e-05
6.27909001257e-05
-5.92334890941e-05
-2.99412251826e-05
5.50545184937e-05
-7.23404835409e-05
5.17409415932e-05
-7.4530679415e-05
3.48492641389e-05
5.41159054923e-05
-6.42068208112e-05
5.87756769562e-05
5.80403974524e-05
-6.12592612758e-05
7.10754221073e-05
6.62505233657e-05
-4.50024218064e-05
7.44269849567e-05
7.43951449783e-05
-2.79313801402e-05
7.17832424207e-05
7.98192036802e-05
-1.19894786506e-05
6.36460574552e-05
8.23652924378e-05
2.31734097108e-06
5.13483723874e-05
8.27902316731e-05
1.43272699171e-05
3.59691283555e-05
8.19957003862e-05
2.43687825185e-05
1.85667089896e-05
8.09714096904e-05
3.15402682322e-05
9.16492555136e-08
8.03002488808e-05
3.51458527223e-05
-1.8388647284e-05
8.02863822352e-05
3.51590749334e-05
-3.5805709052e-05
8.093298866e-05
3.15782512746e-05
-5.12070621838e-05
8.19406668147e-05
2.44248079462e-05
-6.35328724944e-05
8.27287589002e-05
1.43894867687e-05
-7.16992979608e-05
8.2307035133e-05
2.37693632337e-06
-7.43680454353e-05
7.97689806607e-05
-1.19335180671e-05
-7.10378728621e-05
7.43552118937e-05
-2.7888574081e-05
-5.87541321415e-05
6.62188048449e-05
-4.49768859229e-05
-3.48386218917e-05
5.80145991897e-05
-6.1248538239e-05
5.40932450946e-05
-6.42007789546e-05
3.85925095244e-05
5.09661557036e-05
-5.51300989541e-05
6.47417647139e-05
5.52958791947e-05
-5.02589680565e-05
7.72075420217e-05
6.39139570623e-05
-3.09443763133e-05
7.9846053597e-05
7.17417297575e-05
-1.19786299689e-05
7.62811373311e-05
7.62481496259e-05
4.64147507563e-06
6.74769946158e-05
7.79840615371e-05
1.84216972512e-05
5.45118350647e-05
7.76404476201e-05
2.98693014712e-05
3.8363382527e-05
7.61253127366e-05
3.91806283761e-05
1.98617053168e-05
7.45332170052e-05
4.58004725852e-05
9.15441898544e-08
7.36034638889e-05
4.91016153053e-05
-1.96839565777e-05
7.35902737888e-05
4.91125716919e-05
-3.82004122779e-05
7.44966313011e-05
4.58319488811e-05
-5.43707470744e-05
7.60730678351e-05
3.92268811062e-05
-6.73623182367e-05
7.75834242846e-05
2.99205874659e-05
-7.61955502587e-05
7.79305211708e-05
1.84727981849e-05
-7.97848552974e-05
7.62029794456e-05
4.68850114442e-06
-7.71692102188e-05
7.17060162993e-05
-1.19409677805e-05
-6.47203358021e-05
6.38884985736e-05
-3.09239099709e-05
-3.85813910549e-05
5.52777684016e-05
-5.02531924019e-05
5.09511912196e-05
-5.51274200213e-05
4.12874263165e-05
4.27050216419e-05
-4.76509924549e-05
6.88079608241e-05
4.74124272746e-05
-4.04376931631e-05
8.0790695548e-05
5.6351404433e-05
-1.78906677474e-05
8.23925523648e-05
6.35946554179e-05
2.33094175573e-06
7.80142574532e-05
6.74372303948e-05
1.84262561896e-05
6.86031419793e-05
6.85692588387e-05
3.15189072314e-05
5.52459890818e-05
6.78385272738e-05
4.20154822596e-05
3.89256181946e-05
6.61921363657e-05
5.01291234355e-05
2.01970761693e-05
6.45912014788e-05
5.58833968097e-05
9.06867561855e-08
6.36647150708e-05
5.87274235813e-05
-2.00213769519e-05
6.36527871197e-05
5.87372308697e-05
-3.87657941127e-05
6.4558262672e-05
5.59116014805e-05
-5.51066900784e-05
6.6145801023e-05
5.01687041347e-05
-6.84891552872e-05
6.77880351271e-05
4.20606277051e-05
-7.79283530203e-05
6.85221440411e-05
3.15650017864e-05
-8.23311857645e-05
6.73979331077e-05
1.84704186174e-05
-8.07521954789e-05
6.35646586599e-05
2.36602583938e-06
-6.87871566124e-05
5.63322525967e-05
-1.78687394238e-05
-4.12753044246e-05
4.73999133724e-05
-4.04286463471e-05
4.26956836775e-05
-4.76431794198e-05
4.34148337462e-05
3.16770550861e-05
-4.31879463994e-05
7.13995296166e-05
3.63092677861e-05
-3.22738086375e-05
8.23195883033e-05
4.48146992044e-05
-6.3511666146e-06
8.28236777632e-05
5.12914840843e-05
1.43367160484e-05
7.7673926504e-05
5.44687857499e-05
2.98722850036e-05
6.78724227641e-05
5.52112461823e-05
4.20147483728e-05
5.44845519743e-05
5.44528265641e-05
5.13981391388e-05
3.84271060923e-05
5.3195156507e-05
5.84903266713e-05
1.9925005492e-05
5.18330701629e-05
6.35810512103e-05
8.90575860385e-08
5.10475647399e-05
6.59661724264e-05
-1.97526705337e-05
5.10370194284e-05
6.59747763702e-05
-3.827067755e-05
5.18041449953e-05
6.36063867783e-05
-5.43491067385e-05
5.31549997878e-05
5.85286834018e-05
-6.77614253332e-05
5.44093848865e-05
5.14398234963e-05
-7.75900070877e-05
5.51707376537e-05
4.20586713826e-05
-8.27641730034e-05
5.44351442746e-05
2.99156609544e-05
-8.22833273148e-05
5.12659241772e-05
1.43737736585e-05
-7.13810907235e-05
4.47983548213e-05
-6.3246740685e-06
-4.3402737015e-05
3.62988644697e-05
-3.2261409476e-05
3.16687217373e-05
-4.31720939148e-05
4.53156391295e-05
2.01073930696e-05
-4.27672620439e-05
7.30491215177e-05
2.39524550324e-05
-2.66318814016e-05
8.27111433603e-05
3.08557571511e-05
3.1138823995e-06
8.20402759202e-05
3.59131122774e-05
2.43665659958e-05
7.6167306426e-05
3.83212621207e-05
3.91762514421e-05