/*--------------------------------*- C++ -*----------------------------------*\
| =========                 |                                                 |
| \\      /  F ield         | OpenFOAM: The Open Source CFD Toolbox           |
|  \\    /   O peration     | Version:  3.0.1                                 |
|   \\  /    A nd           | Web:      www.OpenFOAM.org                      |
|    \\/     M anipulation  |                                                 |
\*---------------------------------------------------------------------------*/
FoamFile
{
    version     2.0;
    format      ascii;
    class       volVectorField;
    location    "7.3";
    object      U_0;
}
// * * * * * * * * * * * * * * * * * * * * * * * * * * * * * * * * * * * * * //

dimensions      [0 1 -1 0 0 0 0];

internalField   nonuniform List<vector> 
7968
(
(2.17563368297e-05 5.56724907663e-06 -2.21396318274e-05)
(0.000419979010543 -0.000195819215972 -0.000116422065027)
(0.00116397902932 -0.000291995815497 -0.000110426137001)
(0.00179802008171 -0.000331518604459 -2.71463134995e-05)
(0.00225515115897 -0.000301504470195 7.04270841711e-05)
(0.00241944028235 -0.000222393349048 0.00016552095524)
(0.00230584310954 -0.000141829026294 0.000231280617718)
(0.00194402201849 -6.0481818299e-05 0.000282240218294)
(0.00138646738917 1.08312251082e-06 0.00030869422538)
(0.000719393233771 3.20190038797e-05 0.000317871168343)
(2.57026603115e-05 3.1314568398e-05 0.000313345268099)
(-0.000618556890588 6.5171712414e-07 0.000297264792644)
(-0.00114310086686 -5.45731063137e-05 0.00026894359628)
(-0.0014868352255 -0.000125477459085 0.000223143025746)
(-0.00161974957769 -0.000193708717182 0.000166571116745)
(-0.00152457463317 -0.000253695185544 8.77081646792e-05)
(-0.00120484105606 -0.000271107874961 4.0599938967e-06)
(-0.000756732556868 -0.00022659027925 -7.05981674147e-05)
(-0.000226988277875 -0.000135894252092 -8.06823611985e-05)
(2.63297382677e-05 3.23975614539e-05 -5.83245037181e-06)
(-0.000171290576089 0.000340480286236 -0.000102232564718)
(0.000299875131455 0.000195606625947 -0.000859439103058)
(0.00127138212974 0.000172006669607 -0.00110603974339)
(0.00203006455879 0.00023365255281 -0.00107742431702)
(0.00254189754078 0.000379856930047 -0.000955764670411)
(0.00271431268173 0.000571448965132 -0.000801872365345)
(0.00256399463295 0.000748713209573 -0.000660306194451)
(0.00214073877085 0.000897363686168 -0.000535681234476)
(0.00150959788178 0.000997673412438 -0.000447784173119)
(0.000763440191399 0.00104604644971 -0.000407711016025)
(-8.51991126978e-06 0.00104217082643 -0.000415019574808)
(-0.000723132198144 0.000987723020043 -0.000464085813593)
(-0.00130623452328 0.000888325747203 -0.000546514623964)
(-0.00169413048907 0.000752424454431 -0.000651078715762)
(-0.00184861354807 0.000598539220744 -0.000762733316839)
(-0.00174188938845 0.00044194090597 -0.000876199106573)
(-0.00137114123363 0.000327615137133 -0.00096029036113)
(-0.000815971233436 0.000286457215468 -0.000970204480712)
(-0.000102104521158 0.000310877941411 -0.000754516415354)
(0.000197859357585 0.000418560995647 -9.74940270118e-05)
(-0.000268721041403 0.000992799561064 -9.41727664056e-05)
(0.000283859993828 0.00106563970992 -0.00110990528757)
(0.00138822238653 0.00116685787499 -0.00137465075786)
(0.00221410690101 0.00134405741279 -0.00128581213978)
(0.00274398688343 0.00159096076229 -0.00109446073829)
(0.00290329387594 0.00186695340149 -0.00088166839828)
(0.00271993196119 0.00211336024753 -0.000694417144778)
(0.00225491638142 0.00231397411614 -0.000543295980008)
(0.00157998295865 0.00245015296921 -0.000442671063072)
(0.000789745689071 0.00251430634379 -0.000398707703115)
(-2.42524906283e-05 0.00250794534273 -0.000410829182529)
(-0.000778726163147 0.00243452669018 -0.000472341716143)
(-0.00139826926959 0.00230026521685 -0.000574133297802)
(-0.00181860493007 0.00211596930611 -0.000707679560022)
(-0.00199652794151 0.00189876226065 -0.000859720124998)
(-0.0018958558137 0.00166547153718 -0.00102050919644)
(-0.00150591807475 0.00146023693 -0.00115723194661)
(-0.000895093020334 0.00131151839892 -0.00120983667888)
(-7.616435913e-05 0.00121575714692 -0.000973757947755)
(0.000281257633886 0.00112133625852 -9.54115113843e-05)
(-0.000310936506627 0.00154639738342 -1.48049355275e-05)
(0.000345868256873 0.00174488909134 -0.00110001629535)
(0.0015698731571 0.00191087106003 -0.00130745251911)
(0.00245768052977 0.00214697033563 -0.00112771598987)
(0.00300045236138 0.0024438803708 -0.000853617239166)
(0.00313575632925 0.00276242707827 -0.000578288049929)
(0.00290744206098 0.0030449199028 -0.000348718177339)
(0.00238882219459 0.00327360323789 -0.000174341011662)
(0.001661053847 0.00342857820629 -6.80791305591e-05)
(0.000821820793662 0.003502654145 -2.50357976939e-05)
(-3.81037631282e-05 0.00349825921066 -4.26595046516e-05)
(-0.000837791788492 0.0034197440913 -0.000113272661902)
(-0.00150249329363 0.00327299716722 -0.000228558583487)
(-0.00196672698483 0.00306989625266 -0.000392090729111)
(-0.0021803715201 0.0028266836077 -0.000586076458228)
(-0.00209775148804 0.0025595611798 -0.000802802189456)
(-0.00169653151414 0.00231052702216 -0.001009344798)
(-0.00103601137642 0.00210603393773 -0.00113646703028)
(-0.000121930919565 0.00194490565461 -0.000948858895283)
(0.000317076579212 0.00173127438323 -2.17427139104e-05)
(-0.00028405857295 0.00194876810283 7.44308089255e-05)
(0.00048904333233 0.00220407777278 -0.00100345708084)
(0.00181556839656 0.00238947000687 -0.00114384465415)
(0.00275677083168 0.00263713380541 -0.000881335257556)
(0.00330422051104 0.00293692685727 -0.000531751293447)
(0.00340764254607 0.00325438111303 -0.000197207283693)
(0.00312723283724 0.00353487794666 6.86300769011e-05)
(0.00254544801366 0.00376242821916 0.000264767073331)
(0.00175618144606 0.00391784976559 0.000381682146377)
(0.000861113980581 0.00399493306285 0.000424355907255)
(-5.11539703384e-05 0.00399530066531 0.000401380293927)
(-0.000901923408806 0.00392408169009 0.000320703546779)
(-0.00161966694158 0.00378802790172 0.00018582462844)
(-0.00213631815368 0.00359685392803 -1.56192833453e-06)
(-0.00239301921868 0.00336483601883 -0.000230589987135)
(-0.00233729525024 0.003106331626 -0.000498721653371)
(-0.00193448008113 0.00285869537489 -0.00076923824066)
(-0.0012347987251 0.00264329430573 -0.000965761604933)
(-0.000239504492875 0.00246023849263 -0.000836451767278)
(0.000294759363398 0.0021856221018 6.75232493347e-05)
(-0.000211306957645 0.00209112730966 0.000159653313878)
(0.000674870272112 0.00235682355442 -0.000873350198377)
(0.00208930820241 0.0025312997358 -0.000957441150946)
(0.00307589898164 0.00275447696106 -0.000631957069209)
(0.00362440829369 0.00302156048479 -0.000222915899246)
(0.00369104880717 0.00330140597659 0.000153926180475)
(0.00335726941929 0.00354936522167 0.000447707776369)
(0.00271234069544 0.00375389682015 0.000657622265621)
(0.00185970044604 0.00389562916189 0.00077766720674)
(0.000906140548566 0.0039683890121 0.000817286836223)
(-6.02715449361e-05 0.00397430558022 0.000789669782532)
(-0.000963678195747 0.00391889195474 0.000703790875949)
(-0.00173482683212 0.00380885480262 0.000560366500011)
(-0.00230394100124 0.00365277818512 0.000359364095979)
(-0.002606914108 0.00346331798734 0.000105890100551)
(-0.00258382420832 0.00324856263974 -0.000197666256725)
(-0.00218609598295 0.00303795470675 -0.000516582809455)
(-0.00145648684225 0.00284713373977 -0.000765501078953)
(-0.000396693281324 0.00267434813185 -0.000687759861658)
(0.000228646954384 0.00238067959692 0.000158521060677)
(-0.000134696578463 0.0019776661258 0.000218673947201)
(0.00084844414229 0.00221427942555 -0.000749124202083)
(0.00233593769567 0.00235790116841 -0.000789525192089)
(0.00336102425779 0.00253634482728 -0.000420747430464)
(0.00390971797888 0.00275099800526 2.59368446044e-05)
(0.00394412356617 0.00297642410307 0.00043136391676)
(0.00356616069997 0.00317985652542 0.000740956482129)
(0.0028658396366 0.00335052887321 0.000958435590152)
(0.00195697566354 0.00347018030152 0.00107752504709)
(0.000951583941457 0.00353410553925 0.00111206000772)
(-6.19378483984e-05 0.00354594287125 0.00107926674471)
(-0.00100961996832 0.00351090434176 0.000989819205414)
(-0.00182525414819 0.00343418920093 0.000843034705919)
(-0.00243865312187 0.00332248590121 0.000636381357856)
(-0.00277972440385 0.00318560482184 0.000373063767487)
(-0.00278732848403 0.00302937734252 4.89722363229e-05)
(-0.00239865343361 0.00287343220361 -0.000297068225031)
(-0.00164914610748 0.00272638204392 -0.000579912966301)
(-0.000543797357096 0.0025821837019 -0.000544325033557)
(0.000158240515427 0.00231139480051 0.000225292466044)
(-5.59521741749e-05 0.00163660216261 0.00026693715785)
(0.000995664167818 0.00181939881567 -0.000636406152864)
(0.00253811249093 0.00192318214057 -0.000650822764782)
(0.00359327453929 0.00204824666464 -0.000255872723234)
(0.00414217252555 0.00219954825241 0.000213131461348)
(0.00415365369893 0.00236144768813 0.000633342524883)
(0.0037416498649 0.00250942919444 0.000951275154659)
(0.00299629976747 0.00263551870966 0.00117287917172)
(0.00204087642842 0.00272525104825 0.00128666626064)
(0.000993132061063 0.00277914570546 0.00130690019072)
(-5.72425023904e-05 0.00279479670528 0.00127093211047)
(-0.00103618017186 0.00278042434402 0.00118692012313)
(-0.00188535397654 0.00274414057511 0.00104104516398)
(-0.00253263819119 0.00268555506158 0.000834414366278)
(-0.00290292351716 0.00261057852301 0.000569873586617)
(-0.00293483533375 0.00252182096151 0.000238888387045)
(-0.00255728826528 0.0024302749557 -0.000121929103633)
(-0.00179776588423 0.00233688727159 -0.00042190140061)
(-0.000664353548004 0.00223267184474 -0.000414040276018)
(8.81086903213e-05 0.00201347284244 0.000275820699625)
(4.45301055302e-06 0.00111108879537 0.000292406910544)
(0.00109775957246 0.00122654213631 -0.000553049771218)
(0.00267810287044 0.00128862039836 -0.000554266880667)
(0.00375418576796 0.00136177099654 -0.000151324709832)
(0.00430396291137 0.00145004997696 0.000330432585407)
(0.00430114219007 0.00154755679773 0.000756147005368)
(0.00386645168413 0.00163870197429 0.00107551205222)
(0.0030902130608 0.00171845250483 0.00129421631115)
(0.0021045891778 0.00178048322357 0.00138550559132)
(0.00102715691005 0.00181904257937 0.00140103015019)
(-4.53622487544e-05 0.00184031285592 0.001357549916)
(-0.00104323952226 0.00185008375181 0.001272716821)
(-0.00190454248541 0.00185075348124 0.00114639264255)
(-0.00257289768366 0.00184457794572 0.000946775232911)
(-0.00296249013617 0.00182964909308 0.000688672652207)
(-0.00301275840057 0.00180675095828 0.000361163686469)
(-0.00264721436405 0.00177712115113 -2.46593454003e-06)
(-0.00188828266872 0.00173695800539 -0.000305125093249)
(-0.000744095004828 0.00167583000728 -0.000313419533405)
(3.27590497979e-05 0.00152217722147 0.000306528218457)
(3.74166913165e-05 0.000473836565632 0.000301774242631)
(0.00115015477901 0.000515941373685 -0.00050979913756)
(0.00274843748572 0.000536011169078 -0.000506230066148)
(0.00383457944855 0.000560583354834 -0.000103834399344)
(0.00438570118951 0.000591018966365 0.000382127531508)
(0.00437749937809 0.000627502047875 0.000807773382899)
(0.00393272919462 0.000664550665963 0.00112472902307)
(0.00314496621354 0.000700436032944 0.00133258045871)
(0.00214373710473 0.000731851943842 0.00142015365627)
(0.00105672417665 0.000760645066568 0.00143014907704)
(-2.05088773521e-05 0.000789950385715 0.00138085167156)
(-0.00102108211244 0.000823351901789 0.00129244978492)
(-0.00188435305833 0.000861960511709 0.0011733025822)
(-0.00255707885938 0.000903008534329 0.000985423916088)
(-0.00295533302695 0.00094241770313 0.000736091521494)
(-0.003016740555 0.000978985427432 0.000417095486197)
(-0.00266348158322 0.00100527560291 5.93201894242e-05)
(-0.00191478296917 0.00101389455873 -0.000238748053297)
(-0.000778608664092 0.00099657763692 -0.000256172086892)
(1.95372086121e-06 0.00091751929734 0.000319843349854)
(4.07973743544e-05 -0.000198395894795 0.00029808008543)
(0.00115164294458 -0.000230452324731 -0.000509326644884)
(0.00274756230299 -0.000250758320604 -0.000507539923463)
(0.00383382226033 -0.000273659898065 -0.000107804436465)
(0.00438696900234 -0.000297850828771 0.000374871852715)
(0.00438165714418 -0.000319869322867 0.000797931758176)
(0.00394060416396 -0.000334423405801 0.00111205579837)
(0.0031569732499 -0.000340908647126 0.00131719023529)
(0.00216145099172 -0.000335069541803 0.00140070461052)
(0.00108273327294 -0.000312560015734 0.00140665888047)
(1.63261865607e-05 -0.000273086742281 0.00135477167718)
(-0.000972101497893 -0.000216506044548 0.00126632911614)
(-0.00182442966777 -0.000142738728069 0.00114929798408)
(-0.00248896525975 -5.81226758295e-05 0.000966654289556)
(-0.00288464256131 3.15346211757e-05 0.000724081108633)
(-0.00294959728651 0.000122637313034 0.000413877929743)
(-0.0026083305682 0.000200810694612 6.48760146836e-05)
(-0.00187855765093 0.000255159063945 -0.000226578759071)
(-0.000767741516901 0.000280608655692 -0.00024474870589)
(-2.1614877951e-06 0.000277506854436 0.000316917530057)
(1.48523856963e-05 -0.000828652208761 0.000282396617371)
(0.00110246174069 -0.000930472650627 -0.000549800667152)
(0.00267631751757 -0.000990614594162 -0.000556031203082)
(0.00375315900803 -0.00106047695361 -0.000161473163297)
(0.00430909349408 -0.00114108495436 0.000311124473369)
(0.00431530259484 -0.00122225167568 0.000729604258461)
(0.00389178437821 -0.00128806756475 0.00104119785843)
(0.00312876384518 -0.00133397106269 0.00125171246834)
(0.00215986166928 -0.00135372980426 0.00133368334086)
(0.00110664200957 -0.00133691795782 0.00133855288508)
(6.5258683384e-05 -0.0012865514437 0.00128831640456)
(-0.000897817228962 -0.00120568258807 0.00120303685486)
(-0.00172750740884 -0.00109739498578 0.00108215663641)
(-0.00237195712114 -0.000970529126098 0.000898352593055)
(-0.00275421905987 -0.000831749329188 0.000660004181839)
(-0.00281491709452 -0.000687679879606 0.000358250498552)
(-0.00248440603244 -0.000558852110194 2.05445196757e-05)
(-0.00178084801103 -0.000459605330511 -0.000261877261624)
(-0.000710800966895 -0.000393493144801 -0.000272876742713)
(2.00340666528e-05 -0.000327495588797 0.000300567302715)
(-3.80275578444e-05 -0.00134664334696 0.000251380411668)
(0.00100499401411 -0.0015087287311 -0.000626320935723)
(0.00253850961968 -0.00160685879371 -0.000648060553575)
(0.00359587940476 -0.00172543580701 -0.000267335910224)
(0.00415535060006 -0.00186567415499 0.00018836805424)
(0.00418270296978 -0.00200782439701 0.000597899892428)
(0.00378957710244 -0.00212599235153 0.000904855807529)
(0.00306685542009 -0.00221263099325 0.0011147338053)
(0.00213959692384 -0.00225195376087 0.00121590799766)
(0.00112958683793 -0.00224364325402 0.00122497172127)
(0.00012741799616 -0.00218423834991 0.00118022507909)
(-0.000799213033418 -0.00208114478696 0.00109336824769)
(-0.00159817433457 -0.00194205389643 0.000959652971946)
(-0.00220918554755 -0.00177129020428 0.000777232508063)
(-0.00256830710237 -0.00158207310379 0.000543510088429)
(-0.00261756388216 -0.00138425675779 0.000252701169249)
(-0.00229638988298 -0.00120422141893 -6.82836256193e-05)
(-0.00162584502246 -0.00105933302086 -0.000336210984909)
(-0.000611414439294 -0.000955120371958 -0.000332483752388)
(6.46962752275e-05 -0.00083223835671 0.00027272412745)
(-0.000109143762623 -0.00168716666809 0.000201761735265)
(0.000865447897373 -0.00189519487021 -0.000728329877734)
(0.00234220299532 -0.00202838862481 -0.000776143991878)
(0.00337211815462 -0.00219599700314 -0.000424990179136)
(0.00393623628958 -0.00239512171429 4.95115790849e-06)
(0.00399355174617 -0.00259680148467 0.000397579440872)
(0.00364234157967 -0.0027660199322 0.000695044039268)
(0.00297360662626 -0.0028923054062 0.000900310893146)
(0.00210333071507 -0.00295702160597 0.00100597852023)
(0.00114723925567 -0.00295544818494 0.0010278397655)
(0.000194740560072 -0.00289117020831 0.000987420433682)
(-0.000685530980453 -0.00276966108224 0.000900597593536)
(-0.00143796269725 -0.00259821647851 0.000770345180899)
(-0.002006243693 -0.00238636737168 0.000594377710595)
(-0.0023334057397 -0.00214887527692 0.00037098304331)
(-0.00236550930783 -0.00189979904272 9.87401997629e-05)
(-0.00205192442154 -0.00166979374095 -0.000194773145542)
(-0.00142037095901 -0.00148169796426 -0.000438532977831)
(-0.000475210166461 -0.00134349276504 -0.000411945603319)
(0.000126213376204 -0.00117763169911 0.000233844418499)
(-0.000178809152685 -0.00181045489931 0.000143239804275)
(0.000702500016002 -0.00204306038991 -0.000839520441386)
(0.00210569172436 -0.00220306702583 -0.000927960510638)
(0.00310015869112 -0.00241103915295 -0.000621182025238)
(0.00366850591135 -0.00265857193417 -0.000230537958378)
(0.00376463775028 -0.00291162022905 0.000132734225716)
(0.00346499636664 -0.00312279447638 0.000414884240443)
(0.00286006257855 -0.00328057429898 0.000613868946227)
(0.0020549570744 -0.00336592634309 0.000722690313266)
(0.00116019750734 -0.00337370024404 0.000752114839636)
(0.000265062642284 -0.00330727251182 0.000719386605705)
(-0.000560610029009 -0.00317296754554 0.000638840815877)
(-0.00125939395094 -0.00297982620897 0.00051571089463)
(-0.00177737886025 -0.00273796511488 0.000350959922056)
(-0.00206503016894 -0.00246341854506 0.000145575172527)
(-0.00207456791425 -0.0021734637378 -9.7805949392e-05)
(-0.00176852582719 -0.00190350996018 -0.000355155169308)
(-0.00118208336978 -0.00168179613326 -0.000559084184774)
(-0.000319348377918 -0.00151820392117 -0.000498495915078)
(0.000189030958441 -0.00132713220042 0.000186904955719)
(-0.000242783958891 -0.00169771525523 6.17768618974e-05)
(0.000531362635864 -0.00192002689686 -0.000954791744537)
(0.0018474204519 -0.0020881221866 -0.00109363016897)
(0.00279948873607 -0.00231681366955 -0.000847914981449)
(0.00337048067223 -0.00259341409747 -0.000515225705438)
(0.00350828691286 -0.00288109642163 -0.000193588150943)
(0.00326794091089 -0.00312362399865 6.23666054635e-05)
(0.00273341478505 -0.00330472438167 0.000249764488857)
(0.00199952408583 -0.00340636240618 0.000358753053605)
(0.00117102934614 -0.00342354381771 0.000395344555277)
(0.000337660925253 -0.00335995450545 0.00037207443486)
(-0.000429087552991 -0.00322166002697 0.000301592047477)
(-0.00107034102199 -0.0030186427154 0.000192313330351)
(-0.0015345140078 -0.00276107091176 4.71908336495e-05)
(-0.00177847233233 -0.00246557098599 -0.000127782469477)
(-0.00176374296289 -0.00215364262214 -0.000331086038775)
(-0.0014667077572 -0.00186446571915 -0.000537544059076)
(-0.000929491544988 -0.00162886744355 -0.00068829332908)
(-0.000158702623989 -0.00145751378654 -0.000586190904487)
(0.000245614859894 -0.00127098222313 0.000122512689362)
(-0.00026358808222 -0.00134523572355 -2.43063011007e-05)
(0.000402039468169 -0.00151707386699 -0.00104113032587)
(0.00161733415618 -0.00166630255898 -0.00123834965742)
(0.00251877994527 -0.00188314173708 -0.00106989091353)
(0.00308754179886 -0.00215612270692 -0.00080876314943)
(0.00326130017181 -0.00244532174686 -0.000542829832384)
(0.00307739589314 -0.00269233770468 -0.000319738032023)
(0.00261112330801 -0.00287909846902 -0.00015040754971)
(0.00194434834317 -0.00298780686658 -4.7316758313e-05)
(0.00117710825672 -0.00301312920684 -5.74227623989e-06)
(0.000401251018286 -0.0029594136182 -1.91370528933e-05)
(-0.000310574193845 -0.0028322678067 -7.6345871842e-05)
(-0.000896983465483 -0.00263954394783 -0.000163629592803)
(-0.00130864589803 -0.00239249080119 -0.000281745722223)
(-0.00151162461706 -0.00210740571562 -0.000419999139271)
(-0.00147624939767 -0.00180725859714 -0.000571325625319)
(-0.00119050364208 -0.0015315675234 -0.000715121630794)
(-0.00070564699711 -0.00131320538568 -0.000800679912179)
(-3.34749600156e-05 -0.00115915643125 -0.00065154964276)
(0.000268258082149 -0.00100702361001 5.70816703835e-05)
(-0.000220135616021 -0.000854531792688 -0.000101145394188)
(0.000349869303798 -0.000915778694274 -0.00104974765421)
(0.00144932032859 -0.00100566781536 -0.00129637322076)
(0.00229065473294 -0.00116790465853 -0.0012112353816)
(0.0028474347068 -0.00139470870477 -0.00102711056549)
(0.00304679182117 -0.00164540121109 -0.000819496180126)
(0.00290954155957 -0.00186307879204 -0.000634757665918)
(0.00249997550275 -0.00203094163168 -0.000485273673362)
(0.00188944787293 -0.00213317396761 -0.000384855557898)
(0.00117421935987 -0.00216404488683 -0.000339049788582)
(0.000446479016244 -0.00212697558563 -0.000344229002905)
(-0.000218449435168 -0.00202655127942 -0.000390040130728)
(-0.000759106639083 -0.00186857125226 -0.000462409518083)
(-0.00112770095137 -0.00166354959402 -0.000552354596048)
(-0.00129690818982 -0.00142651386183 -0.000650349876572)
(-0.00124713845442 -0.00117867043185 -0.000748414893742)
(-0.000977260866707 -0.000958092342205 -0.000827367307143)
(-0.000546479618807 -0.000796471076262 -0.000845990860058)
(2.655498421e-05 -0.000695802884908 -0.000655990529118)
(0.000244965502197 -0.000622344601916 5.81091677245e-06)
(-0.000127558618741 -0.000275765877894 -0.000111345668695)
(0.000369311737405 -0.000141535711074 -0.000819957128841)
(0.00134234660348 -0.000117655634832 -0.00104832609204)
(0.00211693690928 -0.000174275067789 -0.00101835812049)
(0.00265447385556 -0.000307967079242 -0.000898488342477)
(0.00286673278973 -0.000482858742379 -0.000746221840802)
(0.00276119426789 -0.00064253252383 -0.00060456436917)
(0.00239388758785 -0.000771896409841 -0.000480604224551)
(0.00182784298108 -0.000854780940316 -0.000392314666186)
(0.00115681326902 -0.000889081134158 -0.000350929917496)
(0.000470506200726 -0.000875813413012 -0.000353557418361)
(-0.000156069710216 -0.000817177602517 -0.00039067921764)
(-0.000662060640748 -0.000717599547065 -0.000449259768585)
(-0.00100021935318 -0.00058491488579 -0.000517338380961)
(-0.00114785046932 -0.000433227282509 -0.000584439957903)
(-0.00109186612415 -0.000280121419572 -0.000644568049718)
(-0.00083943715049 -0.000161177340078 -0.000680863521176)
(-0.00045916869174 -0.000103589259188 -0.00066297816066)
(2.15553993719e-05 -0.00010164233094 -0.000483351555591)
(0.000186453555654 -0.000170429042811 1.3142320873e-05)
(5.07841304734e-05 1.24356754796e-05 -3.62868992309e-05)
(0.000482759715439 0.000196379854212 -0.000128823639287)
(0.0012433849606 0.000283898963801 -0.000123687921036)
(0.00189749942399 0.000319393750971 -4.39569210838e-05)
(0.00237738095263 0.000292988948516 5.14232362794e-05)
(0.00257599262276 0.000220350600602 0.000147083836555)
(0.00250082545998 0.000146963517403 0.000215011923008)
(0.00218991755728 7.4528535136e-05 0.000266941276001)
(0.00169202527521 1.95042186217e-05 0.000294106573149)
(0.00109355555427 -8.22946138501e-06 0.000302322084107)
(0.000476857715944 -9.2211560212e-06 0.000294587063782)
(-9.01810662188e-05 1.43728252152e-05 0.000275418013815)
(-0.000550340345425 5.83118080665e-05 0.000247360875982)
(-0.000855396652125 0.000115908846194 0.000211671371994)
(-0.000986970435136 0.000174433415184 0.000169018718292)
(-0.000940404077578 0.000225725786939 0.000115720518912)
(-0.000725130010873 0.000243592302262 6.18411137351e-05)
(-0.000418984140494 0.000215312892672 1.76397528521e-05)
(-6.89758482357e-05 0.000155848241845 2.44202989951e-05)
(6.42347302636e-05 3.95687476767e-05 9.64223157804e-05)
(0.00030787588933 0.000298168429269 -0.000766571689387)
(0.000939988701747 0.00043197321681 -0.00108463720961)
(0.0016612417589 0.000548502508175 -0.00114915855132)
(0.00219169511794 0.000647268377353 -0.0010094625771)
(0.00251019421968 0.000727541595581 -0.000790767642819)
(0.00256642549977 0.000790316859308 -0.000556138522251)
(0.0023721692673 0.000831837962185 -0.000347676953778)
(0.00195631144009 0.000856946356686 -0.00017776798374)
(0.00137765411571 0.00086804870435 -6.55127998003e-05)
(0.00070898501649 0.000871387372858 -1.81224096168e-05)
(2.05027810597e-05 0.000869899695575 -3.19491997025e-05)
(-0.000622946389922 0.00086272655166 -9.90151008065e-05)
(-0.0011640942008 0.000847016132196 -0.000211152198421)
(-0.00155141085799 0.000818289037717 -0.00035718401934)
(-0.00174984228228 0.000775513872589 -0.000524100126706)
(-0.00174699281717 0.000716014205689 -0.000703650358872)
(-0.00154661203349 0.000643071953287 -0.000868445338344)
(-0.00119315382691 0.000553363713887 -0.00097301536082)
(-0.000694964389981 0.000436906435962 -0.000914084345041)
(-0.000239806747678 0.00028349815045 -0.000646113201498)
(0.000478172845691 0.000859194018839 -0.00106201413735)
(0.00112475538191 0.000991296324639 -0.00195323682965)
(0.00176605883965 0.00111361953186 -0.00214623053585)
(0.00220878332849 0.00124622852201 -0.0019952534358)
(0.00245246712434 0.00138076350219 -0.00171293830587)
(0.00247128497274 0.00150778420164 -0.00139765574657)
(0.00227017271376 0.00161522832476 -0.00110659289648)
(0.00187655568443 0.00169847873356 -0.000870822162521)
(0.00133895334002 0.00175357782141 -0.000713304365749)
(0.000717912625376 0.00178219567511 -0.000645226498671)
(7.58035876065e-05 0.00178563036708 -0.000664996107921)
(-0.000528223175412 0.00176377515166 -0.000763091742759)
(-0.00104155666618 0.00171606352517 -0.000925993187771)
(-0.0014197737238 0.00164187990673 -0.00113576339105)
(-0.00163226709955 0.00154508290824 -0.00137217773412)
(-0.00166537509355 0.0014302777888 -0.00161113722674)
(-0.00152307887122 0.00130700288439 -0.00181084398535)
(-0.00123322949758 0.00118012018902 -0.00189974120026)
(-0.000794675781157 0.00104584089098 -0.00171095216884)
(-0.000355668341675 0.000871750890805 -0.000945082363001)
(0.000611515008 0.00148019883452 -0.00113574118669)
(0.00126844920395 0.00154405790109 -0.00216007507138)
(0.00187464505229 0.00163490810776 -0.00230956519315)
(0.00226620232477 0.00176781873251 -0.00206542792509)
(0.00246526664854 0.0019281749989 -0.00168850181596)
(0.00245533473283 0.00209735466732 -0.00129265449913)
(0.0022426929188 0.00225401503773 -0.00094100207751)
(0.00185393096933 0.00238457114476 -0.000666899931525)
(0.00133306963493 0.00247811622589 -0.000489294469737)
(0.00073421045078 0.00253153559228 -0.000415200689304)
(0.000113635311454 0.00254357637071 -0.000441067407142)
(-0.000473822278017 0.00251486092343 -0.000556835695247)
(-0.000980139211517 0.00244730137682 -0.000750010477434)
(-0.00136393348983 0.00234364932282 -0.00100456878464)
(-0.00159519035872 0.0022137416314 -0.00130157390574)
(-0.00165849789408 0.00206851230923 -0.00161407822448)
(-0.00155480403327 0.00192412893468 -0.00189394596582)
(-0.00130525530928 0.00179304675893 -0.00205484506856)
(-0.000892158148219 0.0016799529374 -0.00189275998533)
(-0.000454758238286 0.00156140873774 -0.00100893216502)
(0.000717862688659 0.00193256758755 -0.00102368031938)
(0.00140975048264 0.00191804540276 -0.00204593591862)
(0.00201507416124 0.00196063223135 -0.00210407648671)
(0.00238638683447 0.00207349574994 -0.00174692372977)
(0.00255930890411 0.00223537414577 -0.00126417866436)
(0.00252613419125 0.00242194574736 -0.000781477694853)
(0.00229638401127 0.0026053091739 -0.000366577106291)
(0.00189646981918 0.00276583337602 -5.30125822426e-05)
(0.00137011465118 0.00288726403657 0.000144368204572)
(0.000768821368255 0.00296033684603 0.000223965616025)
(0.000145071519454 0.00298148483748 0.00019291827575)
(-0.000449071332293 0.00295163797056 6.21389604477e-05)
(-0.000968998693592 0.00287534328253 -0.000158934672092)
(-0.00137341157353 0.00276077965822 -0.000457161673726)
(-0.00163037961783 0.00262070700295 -0.000816775250403)
(-0.00172271337581 0.00247018141271 -0.00121058280977)
(-0.00164610799168 0.00232998285943 -0.00158634032523)
(-0.00141492960868 0.00221821365146 -0.00184690647122)
(-0.00100103827505 0.00214619329008 -0.00176265967292)
(-0.000536764905442 0.0020884551149 -0.000884497640878)
(0.000803900073677 0.00220006857341 -0.000841481031)
(0.00154948098213 0.00211535308595 -0.00180989795548)
(0.00217911825852 0.00211425881928 -0.00177460997256)
(0.00255213972197 0.00219983735215 -0.00131170339182)
(0.00271387889391 0.00234881969334 -0.000727891299253)
(0.00266360080296 0.00253434900277 -0.000162144948237)
(0.002415062111 0.0027266409413 0.000313048924096)
(0.0019955082645 0.00290115039305 0.000664852636668)
(0.0014471031642 0.00303798416871 0.000881774243319)
(0.000821874380811 0.00312341288958 0.000967431691734)
(0.000173095866328 0.00315239334393 0.000932692293882)
(-0.000448059498056 0.00312604288154 0.000789369038632)
(-0.000995570478543 0.00305086417434 0.000544785255776)
(-0.00142801714134 0.00293912959401 0.000207682542848)
(-0.00171400984209 0.00280516478396 -0.000208717112725)
(-0.00183268535426 0.00266727868438 -0.000677928118908)
(-0.00177409382054 0.0025469201588 -0.00114431993623)
(-0.00154499085547 0.00246404530542 -0.00149951270423)
(-0.00111003767871 0.00243271102364 -0.0014996010637)
(-0.000600387460799 0.00243057683346 -0.000679555278103)
(0.000871549074974 0.00223446166031 -0.000642468523649)
(0.00168036206932 0.0021114045668 -0.00153870618055)
(0.00235030483177 0.00208009658577 -0.00142413867191)
(0.00274038934102 0.00213988247542 -0.00087454476375)
(0.00290257211065 0.00226891561941 -0.000207493102321)
(0.00284291834503 0.00244212184102 0.000426766267008)
(0.00257638186614 0.00262867845162 0.00095096099232)
(0.00213039524948 0.00280237931636 0.0013350326475)
(0.00154972029438 0.00294150700813 0.00156933745977)
(0.000888382583628 0.00303155374219 0.00166086611289)
(0.00020175341553 0.00306623900246 0.00162361342104)
(-0.000457479011626 0.00304716274461 0.0014708491672)
(-0.0010416912511 0.00298218639292 0.00120866990861)
(-0.00150835941253 0.00288374385586 0.000842452651052)
(-0.00182283500906 0.00276710468861 0.000383229016812)
(-0.00196248986003 0.00265142323602 -0.000144859396717)
(-0.00191401631942 0.00255851963386 -0.000683008315966)
(-0.00167611822193 0.00250578666791 -0.00111499145961)
(-0.00120871038842 0.00250531954985 -0.00118883093229)
(-0.000647337834038 0.00253449289486 -0.000446969509608)
(0.000916934713699 0.00204243770209 -0.00046240152783)
(0.00179090206747 0.00190881417779 -0.00128302586683)
(0.00250817459853 0.0018631790806 -0.00110889509925)
(0.00292427416411 0.00190282960442 -0.000496130215465)
(0.00309618429491 0.00200925158305 0.000231799527085)