/*--------------------------------*- C++ -*----------------------------------*\
| =========                 |                                                 |
| \\      /  F ield         | OpenFOAM: The Open Source CFD Toolbox           |
|  \\    /   O peration     | Version:  3.0.1                                 |
|   \\  /    A nd           | Web:      www.OpenFOAM.org                      |
|    \\/     M anipulation  |                                                 |
\*---------------------------------------------------------------------------*/
FoamFile
{
    version     2.0;
    format      ascii;
    class       surfaceVectorField;
    location    "3.7";
    object      ddt0(Uf);
}
// * * * * * * * * * * * * * * * * * * * * * * * * * * * * * * * * * * * * * //

dimensions      [0 1 -2 0 0 0 0];

internalField   nonuniform List<vector> 
22672
(
(0.000182506026767 -1.1708586424e-06 -8.73031285382e-05)
(8.05184339188e-06 0.000166008741342 -8.74550939946e-05)
(0.000136654905681 0.00012724876329 -0.000349397687965)
(0.000518060180793 -8.57388039121e-05 -8.71131687961e-05)
(0.000275408396001 7.23731172236e-05 -0.000285232660635)
(0.000458389480425 0.000117154482872 -0.000408682014883)
(0.000872962556408 -0.000123365502556 -4.8633984295e-05)
(0.000718441313609 4.06265028523e-05 -0.000333161509718)
(0.000850794308773 0.000127630291309 -0.000396247659774)
(0.00113899149349 -0.000120265802163 9.34273346918e-06)
(0.0010627753513 5.83098646639e-05 -0.000292165027455)
(0.00115140254976 0.000160432883449 -0.00032488687734)
(0.00125912826025 -7.93389021341e-05 6.48222514026e-05)
(0.00127809982365 0.000122556736906 -0.000229101987903)
(0.00133784550827 0.000215721121974 -0.000242939078014)
(0.00121794565745 -3.3628734642e-05 0.000105765196002)
(0.00130357281047 0.000210506705723 -0.000167176159733)
(0.00134146005648 0.000284248293713 -0.000169152293706)
(0.00106134967768 9.47427539615e-06 0.000132795793891)
(0.00120039429044 0.000273629599526 -0.000122631215107)
(0.0012327039008 0.000323559075366 -0.00011634728801)
(0.000798224135039 5.57020775957e-05 0.0001500721167)
(0.000972143550045 0.000340916231764 -8.87366452665e-05)
(0.000998276517549 0.000373221952297 -7.65324898137e-05)
(0.000467906489194 8.56724001131e-05 0.000156667989817)
(0.000656384700497 0.000390681087507 -7.1399799827e-05)
(0.000673880548435 0.000410041123419 -5.85406561217e-05)
(0.000107887892582 9.57766847924e-05 0.000158699895624)
(0.000296072599054 0.000415578121109 -6.51128948844e-05)
(0.000303103644659 0.000428404766677 -5.32735155918e-05)
(-0.000254217316048 8.58360423591e-05 0.000158978982414)
(-7.92698735698e-05 0.000415698919928 -6.38712335271e-05)
(-8.34016044859e-05 0.000428607419856 -5.10383262523e-05)
(-0.000590240423641 5.59607769399e-05 0.000154736175649)
(-0.00044334937968 0.000390749555741 -6.7732826691e-05)
(-0.000458159889716 0.000410476678905 -5.21862084343e-05)
(-0.000863416881269 9.81910885321e-06 0.00013994151167)
(-0.000767441752162 0.000341318403506 -8.25966927126e-05)
(-0.000790922511706 0.0003740096494 -6.59361259147e-05)
(-0.00103458296951 -3.37250244432e-05 0.000115225623467)
(-0.00100879989202 0.000274112613481 -0.000114117599481)
(-0.00103835561276 0.000324520380145 -0.000101391085998)
(-0.00109471197604 -7.93306841562e-05 7.64393983628e-05)
(-0.00112884836932 0.000211096816172 -0.000156698584504)
(-0.00116378629971 0.000284765819016 -0.000150307238122)
(-0.000999426553324 -0.000119389605801 2.29455262207e-05)
(-0.00112594753441 0.000124688732256 -0.000216884831403)
(-0.00118303951795 0.000218127147243 -0.000220329204031)
(-0.000763676636777 -0.000121649099111 -3.36848963186e-05)
(-0.000938150027172 6.1865448068e-05 -0.000278500413419)
(-0.0010248635867 0.000163912621618 -0.000299014550367)
(-0.000443776573128 -8.31191557851e-05 -7.12800613365e-05)
(-0.000627067163553 4.59092194472e-05 -0.000318712974996)
(-0.000758392875129 0.000132445824256 -0.000368258929655)
(-0.000146266545183 2.18875507029e-06 -7.11418786892e-05)
(-0.000219575006699 7.82300528767e-05 -0.00026986025632)
(-0.000403238091667 0.000122258299644 -0.000379273986634)
(1.17028803725e-05 0.00017153420268 -7.14308793055e-05)
(-0.000118090190069 0.000131686921002 -0.00032003296427)
(8.83676607818e-05 0.000250888970316 -0.000285384626091)
(-7.65692296891e-05 0.000486146596962 -8.81372516988e-05)
(0.000126716942529 0.000433600768032 -0.000409313469205)
(0.000487630031377 0.000207985227136 -0.000531281001557)
(0.000232243401285 0.000455926386021 -0.000531970429099)
(0.000471053653985 0.000445823352164 -0.00078353809065)
(0.000912889150309 0.000230539959533 -0.000576692552879)
(0.000750026666341 0.000474621816673 -0.000649841526328)
(0.000883591397568 0.000490426620889 -0.000859872550382)
(0.00120636148945 0.000310797076422 -0.000530609748828)
(0.00113069011678 0.000552762399647 -0.000605258454919)
(0.00117723787385 0.000576269376188 -0.000788284374522)
(0.0013232964416 0.000424842931952 -0.000461100399038)
(0.00134207382066 0.000677583076709 -0.000517646389031)
(0.00133156466413 0.000693653000453 -0.000671926272772)
(0.0012767232695 0.000531968587655 -0.000395572570841)
(0.00136364248551 0.000813865867493 -0.000432011264325)
(0.00132863869294 0.000812689229136 -0.000556237726697)
(0.00109305791725 0.000620411122622 -0.000344163654265)
(0.00123521884683 0.000920895569777 -0.000366915865428)
(0.00119767320491 0.000905248159055 -0.000462448057947)
(0.000814858043887 0.000693177632832 -0.000310208561794)
(0.00099124091073 0.00101603207358 -0.000323003229015)
(0.000961039392365 0.000986851117456 -0.000395117538351)
(0.000475798159827 0.000739231356927 -0.000293180684529)
(0.00066583115212 0.00108851179321 -0.000299456355167)
(0.000648240857366 0.00104774876995 -0.000356361289072)
(0.000109361651735 0.000754457044024 -0.000287684024036)
(0.000299096563521 0.00112466941598 -0.000291690353037)
(0.000294737595808 0.00107723303355 -0.0003397632969)
(-0.000259218700358 0.000739009069904 -0.000290583042632)
(-8.05705599115e-05 0.00112469885073 -0.000290342348654)
(-7.24356509573e-05 0.0010773714714 -0.0003372707912)
(-0.000603916347281 0.000693222245214 -0.000305065695052)
(-0.000450740940323 0.00108816109559 -0.000296048462845)
(-0.000429783516936 0.00104722833816 -0.000349590684004)
(-0.000893025964191 0.000621030521235 -0.000336655803864)
(-0.000784608720251 0.00101731794938 -0.000316493096457)
(-0.000751154360003 0.000988202207227 -0.000384107248068)
(-0.00109179149949 0.000533218802514 -0.000386041807452)
(-0.0010423456682 0.000922558397732 -0.000358241391153)
(-0.00100117882902 0.000907159374953 -0.00044752726786)
(-0.00115833977632 0.000427663318724 -0.000450022814269)
(-0.00118792209057 0.000816613280149 -0.000421381637183)
(-0.00114928697759 0.000815868194666 -0.000537665110827)
(-0.00106637616841 0.000315905795545 -0.000518330771042)
(-0.00118860003735 0.000683027573047 -0.000505773609816)
(-0.00117495286414 0.000699553716351 -0.000649980625518)
(-0.00080359322748 0.000238177207853 -0.000563528492096)
(-0.00100472754902 0.0005615760143 -0.000592027986279)
(-0.00104898315721 0.000585357905194 -0.00076318395551)
(-0.000413504556021 0.000217213526399 -0.000517293169979)
(-0.000657850142527 0.000486734067845 -0.000635492884717)
(-0.000789788938031 0.000502418714045 -0.000832606643276)
(-5.21270661609e-05 0.000259691160166 -0.000270149256937)
(-0.000175949427465 0.000469015371452 -0.000516806610694)
(-0.000413825621183 0.000458259307099 -0.000754789011264)
(9.71694142895e-05 0.000496983477509 -7.19910588054e-05)
(-0.000106262856903 0.000443165504657 -0.00037915341024)
(5.64816498129e-05 0.00067960091672 -0.000334723054707)
(-0.00011427507952 0.000827698156549 -5.09420252988e-05)
(0.000137309410808 0.000811148492381 -0.000398988154709)
(0.000506070953807 0.000711404228432 -0.00065053095387)
(0.000254415097954 0.000867556044073 -0.00057876894765)
(0.00051570756137 0.000843827953358 -0.000862066680641)
(0.000971419407548 0.000785782916204 -0.000678407428368)
(0.000824025224159 0.000926235697312 -0.000679606148432)
(0.000945413412192 0.000905765931642 -0.000917673185858)
(0.00127421198124 0.000906324632871 -0.000592295095122)
(0.00122681615499 0.00104035002133 -0.000588953403415)
(0.00123153026245 0.00100903190682 -0.000790814971324)
(0.00138041523469 0.0010478415596 -0.000488557254318)
(0.00143044993893 0.00119015410638 -0.000458412292386)
(0.00136302520564 0.00113776718888 -0.000618811809932)
(0.00131446685046 0.00117700926628 -0.000403354558912)
(0.00143221435206 0.00134081314133 -0.000346852109015)
(0.00133996977177 0.00126596672126 -0.000460538377783)
(0.00111530068922 0.00128379692407 -0.000345755440178)
(0.00128134203867 0.00146261163723 -0.000270406961342)
(0.00119148180819 0.0013715202048 -0.000341513619777)
(0.000826452018723 0.00137221490925 -0.000312251022388)
(0.0010212195769 0.00156827566064 -0.00022449515062)
(0.000948990817124 0.00146309338225 -0.000261754309072)
(0.000479174973386 0.00143010992451 -0.000297966023676)
(0.000681263333393 0.00165287116059 -0.000196333274924)
(0.00063716122669 0.0015387714331 -0.000214886854752)
(0.000109471052957 0.00144907863318 -0.000294348677656)
(0.000302590676596 0.00169340964705 -0.000198302784919)
(0.000289130176296 0.00156806496271 -0.000196416570274)
(-0.00026284977823 0.0014296116734 -0.000295807768867)
(-8.46204233233e-05 0.0016937326984 -0.000197332287978)
(-6.84760523449e-05 0.00156763409647 -0.000193894590471)
(-0.000613635541034 0.00137265790174 -0.00030747586425)
(-0.000465351478176 0.00165134625749 -0.000199257670006)
(-0.000418682568779 0.00153182159379 -0.000209661741713)
(-0.000914324168896 0.00128604429571 -0.000338078683746)
(-0.000813002816366 0.001570917228 -0.000217875064797)
(-0.000737773569014 0.00146515748626 -0.000250551078551)
(-0.00112886800716 0.00118013772304 -0.000393581220884)
(-0.00108806247305 0.00146532876672 -0.000261299725692)
(-0.000994457026772 0.0013749563242 -0.000326515103703)
(-0.00121407561938 0.00105315632876 -0.000477132432729)
(-0.00125537825792 0.00134439228387 -0.000335883287493)
(-0.0011596236979 0.00127074986574 -0.000441716139559)
(-0.00113198063393 0.000915303951264 -0.000579470825052)
(-0.00127416315658 0.00119700521225 -0.000445682133152)
(-0.00120393528131 0.00114580812438 -0.000596212005366)
(-0.00085977143745 0.000798845728917 -0.0006639923789)
(-0.00109730127808 0.00105208315894 -0.000573860430596)
(-0.00109998672379 0.00102160031503 -0.000763896964134)
(-0.000430531580132 0.000727072896443 -0.000635006325432)
(-0.000728962585842 0.000942481185821 -0.000662477202612)
(-0.000848628032682 0.000922477809002 -0.000887213472355)
(-1.986326786e-05 0.000694444820864 -0.000318648412563)
(-0.000196652999405 0.00088539518535 -0.000561235388765)
(-0.000456407861118 0.000861951656129 -0.000830224799184)
(0.000135608274907 0.000842325534158 -3.35543129634e-05)
(-0.000115714735192 0.00082629592223 -0.000367194307016)
(7.37912420585e-05 0.00101167117301 -0.000294987918242)
(-0.000111463065138 0.00108302346192 6.05603144935e-06)
(0.000169971396702 0.00109912178645 -0.000330199618268)
(0.000583624868732 0.00107949676544 -0.000607844142212)
(0.000334240777312 0.00114980456342 -0.000534440035611)
(0.000601250187627 0.00112461753711 -0.000793034677527)
(0.0010851248058 0.00117589972725 -0.000590152123479)
(0.000944317890171 0.00121820026244 -0.00059544190111)
(0.00104840132857 0.00117907263183 -0.00079426770716)
(0.00139326193444 0.00131317938137 -0.000455070600679)
(0.00136390306634 0.00133785917639 -0.000456418635465)
(0.00132742176164 0.00127527763778 -0.000606167104499)
(0.00148048541049 0.00146420825851 -0.000316707147082)
(0.00155857352691 0.0014867359868 -0.000284279130274)
(0.00143560493683 0.00139367049516 -0.000383932989119)
(0.0013872465656 0.00160031012558 -0.000213904511444)
(0.00153670319722 0.00163280555558 -0.000147516883616)
(0.00138517140201 0.00150931295154 -0.000198408022942)
(0.00116695208202 0.00171474763654 -0.000149146671784)
(0.00136201724336 0.00175089352411 -5.50207866965e-05)
(0.00121647093965 0.00160623568909 -6.71060971453e-05)
(0.000862207387564 0.0018095554496 -0.000108577403156)
(0.00108157481077 0.00185544670993 2.66189004136e-06)
(0.000967143711418 0.00169053578193 1.90034962006e-05)
(0.000490920100185 0.00187441000015 -9.66700361674e-05)
(0.000720219694876 0.00193761039281 4.15091803726e-05)
(0.000641056178993 0.00175738921802 8.84688847612e-05)
(0.000109119958405 0.00189886522506 -0.000101286395242)
(0.000317362119578 0.00199082576553 4.59205569904e-05)
(0.000282527265026 0.00179490874116 8.66562618489e-05)
(-0.000277361209662 0.00187860856895 -0.000100782189117)
(-9.56135380231e-05 0.00199538009412 4.79330859439e-05)
(-7.10816277049e-05 0.00179761190121 8.72520463956e-05)
(-0.000645380032632 0.00181547210839 -0.000109656870553)
(-0.000503226874093 0.00195106960008 4.08338870075e-05)
(-0.00042325976925 0.00176398361169 7.06101546147e-05)
(-0.000965562333031 0.00171959467427 -0.000141096106743)
(-0.000875256009153 0.0018639329385 1.11287474013e-05)
(-0.000749614649603 0.00169737231919 2.91213394791e-05)
(-0.00120112967606 0.00160419755145 -0.000203601792301)
(-0.00117063613564 0.00175435701806 -4.51709266901e-05)
(-0.00101952350162 0.00161100743737 -5.21069368536e-05)
(-0.00131165773929 0.00146978412193 -0.000304432987916)
(-0.00135925102859 0.00163549767107 -0.000136382374801)
(-0.00120400227987 0.00151406946161 -0.000180017686526)
(-0.00124683244957 0.00132307147634 -0.000440071738696)
(-0.0013985908214 0.00149234031027 -0.000270452627055)
(-0.00127317382432 0.00140124484784 -0.000360536267793)
(-0.000969137883274 0.00119097323003 -0.000572345254308)
(-0.00122928402752 0.00134911687017 -0.000438374246915)
(-0.00119098861601 0.00128806617453 -0.000576116637588)
(-0.000505049127507 0.00109803244728 -0.000588706265944)
(-0.000844948612667 0.00123488351101 -0.000574317895183)
(-0.000947008472571 0.00119693369287 -0.000758927968266)
(-3.57545946658e-05 0.00102933480099 -0.000276141289165)
(-0.000274255346847 0.00116881347711 -0.000512940496702)
(-0.000538762200571 0.00114474827614 -0.000756111175104)
(0.000133423059127 0.00109849611956 2.54147784871e-05)
(-0.000146942503016 0.00111644776376 -0.000294070130717)
(0.000137777904516 0.00121737835761 -0.00023339608592)
(-7.05488526162e-05 0.00119462338314 6.02997445901e-05)
(0.000225082100994 0.00127591336268 -0.000250575798947)
(0.000708405156134 0.00128137137502 -0.00052203779451)
(0.000448440031361 0.00125837986396 -0.000466678391562)
(0.00071844303844 0.00126896943392 -0.000680249285027)
(0.00123476646555 0.00137062835084 -0.000461708413096)
(0.0010864928509 0.00131623105949 -0.0004932424991)
(0.00117723346795 0.00130085326057 -0.000625293267377)
(0.00154162244763 0.00149983163972 -0.00028562716506)
(0.00151585826845 0.00141807180025 -0.000319327900391)
(0.00144578148318 0.00137451950993 -0.000387684341332)
(0.0016093357613 0.00164493774436 -0.000115088866808)
(0.00170370190415 0.00154877228142 -0.000114784420977)
(0.00152980343814 0.00146981178412 -0.000129990314594)
(0.00149107339262 0.00177923996335 1.13668411318e-05)
(0.00165666265037 0.00167478040501 4.67174097131e-05)
(0.00145260238268 0.00156716354125 7.64968506274e-05)
(0.00124882995503 0.00189590344178 9.67877751284e-05)
(0.00146198316719 0.00178415184346 0.000154635664127)
(0.0012652692148 0.00165563333063 0.000209684554161)
(0.000920958077545 0.00199646257833 0.00015274847357)
(0.00116074196917 0.00188690902048 0.000228244195239)
(0.000999556552206 0.00173597567874 0.000297598023239)
(0.0005312859539 0.00207019902149 0.00018409977353)
(0.000775244670771 0.00197352775206 0.000277924520314)
(0.000669618422411 0.00179863682199 0.000355362292042)
(0.000113131328785 0.00210117607951 0.000195140038176)
(0.000340746995039 0.00202728698026 0.000302114773359)
(0.000301785330755 0.00184760228522 0.000383578669749)
(-0.000309999757994 0.00207920182894 0.000189549162069)
(-0.000111145628583 0.00203200689622 0.000306681893059)
(-7.77348975455e-05 0.00185373306487 0.000388480431643)
(-0.000709249821149 0.00200760233373 0.000161619504962)
(-0.000557506859564 0.00198579945735 0.000288433560091)
(-0.00045270148953 0.00181950033642 0.000366376774612)
(-0.00105212434918 0.00190192826594 0.000107053927454)
(-0.000961023739782 0.00189614274513 0.000239604676269)
(-0.000795132822214 0.00174764911459 0.000312184264633)
(-0.00130663052365 0.00178169478132 2.20484908104e-05)
(-0.00127537597696 0.00178534572777 0.000163243354913)
(-0.0010743668442 0.00166014811146 0.000224500965415)
(-0.00143861730115 0.00164814314329 -0.000102402013939)
(-0.00147935671996 0.0016746978545 5.63344757369e-05)
(-0.00127273924465 0.00157051049985 9.30571074849e-05)
(-0.00139041732314 0.00150724612091 -0.000268755135274)
(-0.00153975203123 0.00155092705811 -0.000101645793367)
(-0.0013644355155 0.00147496280466 -0.000107381000372)
(-0.00111349466433 0.00138391031916 -0.00044034688779)
(-0.0013751007936 0.00142602380707 -0.000299642280762)
(-0.00130383809414 0.00138488851573 -0.000355395940703)
(-0.000626100414559 0.00129889191868 -0.000498552125941)
(-0.000981852341058 0.00133011863206 -0.000468669380564)
(-0.0010704367546 0.00131682489946 -0.000585216680902)
(-9.84014928674e-05 0.0012346159313 -0.00021138442905)
(-0.000385769391707 0.00127490293849 -0.000441330427053)
(-0.000652455460863 0.00128774407648 -0.000637343195986)
(9.31792494903e-05 0.00120833908602 8.1403254455e-05)
(-0.000200856709708 0.00129241985681 -0.000210486235031)
(0.000226196481424 0.00123544426575 -0.000172982561052)
(-2.4734812721e-05 0.00114675277872 9.98298731432e-05)
(0.00029389982835 0.00127219961731 -0.000179632426475)
(0.000845624338675 0.00129561543774 -0.000437883096153)
(0.000556098258785 0.00120492738616 -0.000402661374781)
(0.000838007224335 0.00125847375383 -0.000567121609567)
(0.00138713106916 0.00136555594061 -0.000350861986395)
(0.00121705751465 0.00124321418755 -0.000409429204013)
(0.00130663246636 0.00127024980123 -0.000469501778503)
(0.00168920651038 0.00147245973807 -0.000148485156307)
(0.00165436622722 0.0013178155206 -0.000216361871847)
(0.00156301282394 0.0013171753636 -0.000202554575866)
(0.00173549403215 0.00159437815635 4.70218555438e-05)
(0.00184001481931 0.00142484459341 1.29664096885e-05)
(0.00162774776479 0.0013873350929 7.72671795878e-05)
(0.00159695137096 0.00170812046937 0.000189986232708)
(0.00177050665113 0.00153317257977 0.000191680721394)
(0.00152972613347 0.00146634624095 0.000280199527248)
(0.00133356351899 0.00181414761128 0.000286092084237)
(0.00156430992129 0.00163494917609 0.000311170253127)
(0.00133277930616 0.00155258014521 0.000413096948463)
(0.000984900669766 0.00191035182033 0.000353420241984)
(0.00124280841828 0.00173498548338 0.000399970985391)
(0.00105516358204 0.00163656429688 0.000501530164961)
(0.000569973018708 0.00198148824124 0.000395939520143)
(0.000828898200579 0.00182182657615 0.000465248093981)
(0.000709775354305 0.0017048668894 0.000567926207141)
(0.000116413097735 0.00201101093391 0.000413656628242)
(0.000361649262877 0.00187661614759 0.000502237011527)
(0.000319279386531 0.00174909497904 0.000605746625223)
(-0.000344443498145 0.00198996649521 0.000405566291081)
(-0.000126228231987 0.00188081453089 0.000508636413282)
(-8.9374705018e-05 0.00175474464553 0.00061361315011)
(-0.000777838381347 0.00192123374412 0.000366418731398)
(-0.000611482658311 0.0018333004073 0.00048091619086)
(-0.000494765969674 0.00172018626408 0.000587322875321)
(-0.00114409620331 0.00181857045294 0.000295794103728)
(-0.00105186280315 0.00174421131931 0.000412917841862)
(-0.000861324096045 0.00164836027262 0.000519308672996)
(-0.00141489640724 0.00170691967133 0.00019752933984)
(-0.00138422471936 0.00163347603678 0.000313897257025)
(-0.00114958354785 0.00155306002431 0.000423313443578)
(-0.00156291178475 0.00159387202646 5.70906963096e-05)
(-0.00159274267591 0.00152987690287 0.000197094939988)
(-0.00135154219903 0.00146656593354 0.000292838359437)
(-0.00153244746127 0.00147596130763 -0.000132532938855)
(-0.00167176808668 0.00142440033067 2.3642576034e-05)
(-0.00145966810997 0.00138971141957 9.52733887352e-05)
(-0.00125944727223 0.00137475002568 -0.000327964773535)
(-0.00150724231443 0.00132240007715 -0.000196838352948)
(-0.00141508864847 0.00132405641822 -0.000171080286953)
(-0.000758682248777 0.00130900403411 -0.000411447681676)
(-0.00110686041607 0.00125328586214 -0.000382823243347)
(-0.0011937457023 0.00128253432361 -0.000426637562672)
(-0.000184848720552 0.00124885777781 -0.000148542743548)
(-0.000490408676758 0.00121743308938 -0.000374860217768)
(-0.000768024579526 0.00127328241165 -0.000520014296567)
(4.79166108924e-05 0.00115746785942 0.000122018056855)
(-0.000267733611741 0.00128486658999 -0.000136274465017)
(0.000289497097706 0.00112613472422 -0.000129848940586)
(1.82182177752e-05 0.000984935253398 0.000125744183724)
(0.000333257061103 0.00115756515007 -0.000129089747863)
(0.000953649552987 0.00116060328783 -0.000374207482641)
(0.000644555846543 0.00101548583577 -0.000352724500011)
(0.000931013148238 0.00112122220929 -0.000475964716198)
(0.00151095433628 0.00120743474879 -0.000274929089464)
(0.00132456601008 0.00103715248447 -0.000353181708423)
(0.00141347481266 0.00111476467868 -0.000352380579112)
(0.00181028690486 0.00129092549689 -5.49103058508e-05)
(0.00177159201713 0.00108879044821 -0.0001525340541)
(0.00166220921269 0.00114004165597 -7.11777792955e-05)
(0.0018472898457 0.00139515183134 0.000157625275539)
(0.00196083801337 0.00117535876301 0.000100253501242)
(0.00171866192692 0.00119400478451 0.000211962169517)
(0.00169876660909 0.00150009175891 0.000312864741814)
(0.00187909237063 0.00126508186167 0.000292811803193)
(0.00161668638797 0.00126737902086 0.000416501446582)
(0.00141683258623 0.00160254222608 0.000425049154281)
(0.00166651970158 0.00134895538049 0.000429518707137)
(0.00142118268356 0.00135729515733 0.000568246104832)
(0.00104402318756 0.00169639227598 0.000511798837389)
(0.0013211723391 0.00142882000086 0.000539800345931)
(0.00112536928879 0.00144279313394 0.000679691112127)
(0.000603330714205 0.00176436089071 0.000571545585364)
(0.000877528269864 0.00150232238173 0.000624118659817)
(0.000753898855526 0.0015127446932 0.000761219982832)
(0.000118632269513 0.00179098574498 0.000597216796567)
(0.000381114835563 0.00155075878319 0.000638064031936)
(0.00033619266076 0.00155583912585 0.000811756982694)
(-0.000375424763893 0.00177156168429 0.000583986313061)
(-0.000141488177415 0.00155374276895 0.000643699375395)
(-0.000102646133757 0.00156075484535 0.000822342104899)
(-0.000842440954771 0.00170689842589 0.000527415301323)
(-0.00066053780136 0.00151300350477 0.000637473904156)
(-0.000541490071289 0.00152655941925 0.000788385876233)
(-0.00123742400373 0.00160761410935 0.000431020995159)
(-0.00113792292615 0.00143947024781 0.000554581717153)
(-0.000944389569711 0.00145605767841 0.000700514041095)
(-0.00151887049408 0.00149784804825 0.000313462857174)
(-0.00149429318153 0.00135052454057 0.000426519511892)
(-0.00124690161597 0.00135797787498 0.000564764588622)
(-0.00167184114641 0.00139220375294 0.000163646819713)
(-0.00170191496811 0.00125986451067 0.000292198641271)
(-0.00143781461555 0.00126397034662 0.000422770375822)
(-0.00164858831375 0.00129176702606 -4.06628380598e-05)
(-0.00178848045406 0.00117315353687 0.000107946444583)
(-0.00154725527308 0.00119406819578 0.00022704608826)
(-0.00137725122474 0.00121327636983 -0.00025169682276)
(-0.00161905585716 0.00109092601231 -0.000133601481778)
(-0.00150894413251 0.00114397370942 -4.16698921126e-05)
(-0.000862453171912 0.00117030495894 -0.000346235779439)
(-0.00120978940881 0.00104391760527 -0.000325497726177)
(-0.00129502116808 0.00112361096638 -0.000308204745361)
(-0.000246583040881 0.00113642267359 -0.000104299417366)
(-0.000576576503757 0.00102449184704 -0.000323610802016)
(-0.000857530241274 0.00113236731227 -0.000426623422107)
(5.1162217109e-06 0.000992868632879 0.000148218181984)
(-0.000306281749435 0.00116738657358 -8.42837539113e-05)
(0.000356498825474 0.000893091348156 -9.71313757017e-05)
(6.41064766514e-05 0.000718097511306 0.000142012741634)
(0.00038268606281 0.000918615041801 -9.118319965e-05)
(0.00104856137097 0.000910742265381 -0.000331698725794)
(0.000716305231349 0.000732977620274 -0.000320119896594)
(0.00101209846554 0.00087938543979 -0.00041091985729)
(0.00161701507773 0.000938812352662 -0.000230786673059)
(0.00141115784162 0.000742347760275 -0.000322090281747)
(0.00150416410387 0.000864942418084 -0.000274918898559)
(0.00191975896209 0.00100069365302 2.62975299292e-06)
(0.00186791909323 0.000773110941388 -0.000121617377783)
(0.00174894050334 0.000874574982551 1.19232333192e-05)
(0.00195514330207 0.00108501413107 0.000235440028896)
(0.00206645503226 0.00083721345137 0.000155679538444)
(0.00180549897638 0.00091881422894 0.00030208833665)
(0.00180059085044 0.0011692819579 0.000409465768516)
(0.00197726003777 0.000904064745475 0.000364414734845)
(0.00170458673518 0.000981759224728 0.000515294532599)
(0.00149751205981 0.00124675565724 0.000544269898786)
(0.00175869458605 0.000960629089232 0.000520861538109)
(0.00150666293581 0.0010518731404 0.000691544736142)
(0.00109765562196 0.00131617663035 0.00065212016836)
(0.00138999830451 0.00101149700254 0.000651623729347)
(0.00118949809663 0.00111482731121 0.000817691200377)
(0.000625791636217 0.0013785363084 0.000690637106389)
(0.000931687718408 0.00105886135388 0.000680322998325)
(0.000796618903846 0.0011706830051 0.000916135653272)
(0.000120028552747 0.00141005972916 0.000684546610765)
(0.000400409137681 0.00109846532428 0.000680334966073)
(0.000354578869982 0.00121365360186 0.000959019188126)
(-0.000396963858214 0.00138667733783 0.00069718696649)
(-0.000157126478883 0.0011014755675 0.000684479381071)
(-0.000116779629573 0.00121764551232 0.000970217385946)
(-0.00089792993456 0.00132804865938 0.000664640319986)
(-0.000712614353866 0.00106863132965 0.000692812896782)
(-0.000583649398392 0.00118392519614 0.00094614816693)
(-0.00132562616774 0.00125396156657 0.000550080233887)
(-0.00121310772089 0.0010213993808 0.000662612563217)
(-0.00101598746517 0.00112891950256 0.000846298939484)
(-0.00162657368054 0.00116869303471 0.000405255295989)
(-0.00159396420917 0.000964285679929 0.000516476614856)
(-0.00134340033369 0.00105667585852 0.000687328268592)
(-0.00177818470126 0.0010817999464 0.000236498266141)
(-0.00180195122037 0.000900140071355 0.000358060589325)
(-0.00152855509741 0.000976896361815 0.000510946347637)
(-0.00175420546477 0.00100070439035 1.50078008649e-05)
(-0.00189060278694 0.000836088412884 0.000161447170689)
(-0.00163009221734 0.000918116593568 0.000312015623461)
(-0.00147852761708 0.000942561566873 -0.000207402385194)
(-0.00171158451907 0.000774252612396 -0.000103544928659)
(-0.00159088106223 0.000875016972619 3.9112294792e-05)
(-0.00095453035651 0.000917433355831 -0.000302872748754)
(-0.00129325809509 0.000747165861172 -0.000293650370167)
(-0.00138133108655 0.000871185553773 -0.000230056226166)
(-0.000312784813069 0.000900256910239 -7.1093202666e-05)
(-0.000647143900446 0.000739269783512 -0.000290420576649)
(-0.000936552413389 0.000887280065711 -0.00036021851657)
(-4.07341020189e-05 0.000723703861433 0.000164457814636)
(-0.000355276726701 0.000925370102394 -4.59027235881e-05)
(0.000405387403443 0.000574419012244 -8.09757792582e-05)
(9.37139944597e-05 0.000386029071001 0.000147665346746)
(0.000418851207466 0.000591309464482 -7.49521715673e-05)
(0.00111888763996 0.000582409809061 -0.000310511452547)
(0.000761458595326 0.000392622208376 -0.000304370562931)
(0.00107052673531 0.000563719961074 -0.000374621248027)
(0.00169696342023 0.000596458868772 -0.000212920986471)
(0.00146797573254 0.000396007825663 -0.000309642829915)
(0.00156984706764 0.000551350421826 -0.000233130930516)
(0.0020075535941 0.000634133889471 3.1432407668e-05)
(0.00193166956903 0.000410106459157 -0.000111967873639)
(0.0018155067257 0.000554017847388 5.12624130583e-05)
(0.00204402034481 0.00068821799279 0.000284654244392)
(0.00213939238565 0.000443383343879 0.000184613545679)
(0.00187824632534 0.000581935996858 0.000356544653183)
(0.00188500603651 0.000739139449231 0.000475810504437)
(0.00204558746003 0.000477838797961 0.00040524753548)
(0.00177326957752 0.000621955784704 0.000584812161066)
(0.00156785187399 0.000783186249831 0.00062821536867)
(0.00182167186755 0.00050614266854 0.000576688713176)
(0.00157197123794 0.000661790427649 0.000771611485272)
(0.00114455405664 0.000834153326612 0.000679826559312)
(0.00144830593953 0.000524554211247 0.000685470661801)
(0.00124279074393 0.000700210934032 0.000910601055263)
(0.0006625153277 0.000881102072513 0.000670020858009)
(0.000978559068467 0.000559098590625 0.000664210293164)
(0.000841617726101 0.000743430251613 0.000982449862624)
(0.000121948938128 0.000899329994521 0.000680267736379)
(0.000416102787481 0.000583139688598 0.000691887157263)
(0.000370105289783 0.000768839373598 0.00105666105048)
(-0.000430204149908 0.000886457138931 0.000680105311362)
(-0.000168996609626 0.000585793589454 0.000697126030487)
(-0.000127389099181 0.000772069899152 0.00106858237463)
(-0.000946838613909 0.000843633625015 0.000690785140013)
(-0.000756381136009 0.000565240396117 0.000681240601092)
(-0.000624339256273 0.000752523777545 0.00102062964495)
(-0.00140164555391 0.00079076693183 0.000629008944187)
(-0.00127470478377 0.000532624552278 0.000694048248635)
(-0.00107390382748 0.000712026918151 0.000943910055133)
(-0.00171637815594 0.0007404044809 0.000469281908192)
(-0.0016611707085 0.000509679704653 0.000572778199103)
(-0.00141713247125 0.000667485417535 0.000769284767201)
(-0.00186525338894 0.000687890460057 0.000283009493874)
(-0.00187081700067 0.000478363946963 0.000396409775784)
(-0.00159913969435 0.0006210382462 0.000570111153611)
(-0.00184001749022 0.000636320912136 4.28944411649e-05)
(-0.00196069483535 0.000445806439493 0.000190356609986)
(-0.00170123352393 0.000583821278379 0.000363871941825)
(-0.00155477930922 0.000600580105996 -0.000189792913632)
(-0.00177345139871 0.000415496703653 -9.31402987697e-05)
(-0.00165455770513 0.00055791083746 7.15831785337e-05)