/*--------------------------------*- C++ -*----------------------------------*\
| =========                 |                                                 |
| \\      /  F ield         | OpenFOAM: The Open Source CFD Toolbox           |
|  \\    /   O peration     | Version:  3.0.1                                 |
|   \\  /    A nd           | Web:      www.OpenFOAM.org                      |
|    \\/     M anipulation  |                                                 |
\*---------------------------------------------------------------------------*/
FoamFile
{
    version     2.0;
    format      ascii;
    class       volVectorField;
    location    "3.7";
    object      ddt0(U);
}
// * * * * * * * * * * * * * * * * * * * * * * * * * * * * * * * * * * * * * //

dimensions      [0 1 -2 0 0 0 0];

internalField   nonuniform List<vector> 
7968
(
(6.40228728537e-05 5.46897021452e-05 -7.75545628605e-05)
(0.000314179562168 -5.70313997826e-05 -9.70517148221e-05)
(0.000710264468609 -0.000114446186467 -7.7174630846e-05)
(0.00103002378654 -0.000132284796001 -2.00933437442e-05)
(0.00124593338893 -0.000108246785488 3.8778804804e-05)
(0.00126813758584 -5.04309957428e-05 9.0865692473e-05)
(0.00117990647106 -1.68264502903e-05 0.000120664694436)
(0.000960567861111 3.57750245233e-05 0.000144926888664)
(0.00065030395929 7.56291542916e-05 0.000155217340417)
(0.000293775918775 9.57156697047e-05 0.000158118635162)
(-7.86062547456e-05 9.58377237163e-05 0.000159281152147)
(-0.000438860550141 7.58343848043e-05 0.000158676808693)
(-0.000757164573579 3.60871927623e-05 0.00015079553842)
(-0.000989201651514 -1.64489515236e-05 0.000129087480442)
(-0.00109398186517 -5.10010739924e-05 0.000101363761675)
(-0.0010941040114 -0.000107660271123 5.15150298916e-05)
(-0.000905494162054 -0.000131118917514 -5.62398293503e-06)
(-0.000618727253232 -0.000112179258103 -6.17458154258e-05)
(-0.000258407870671 -5.40590309762e-05 -8.08143140226e-05)
(-4.48117742882e-05 5.84365636762e-05 -6.14694606026e-05)
(-4.79191665559e-05 0.000289499457646 -9.73556457401e-05)
(0.00023663726478 0.000212278518663 -0.000473413604177)
(0.000726618196919 0.000203691971009 -0.000589148382357)
(0.00109552695173 0.000257387984216 -0.000564236704821)
(0.00131026629009 0.000364206205282 -0.000496982773866)
(0.00133900806257 0.000485479695497 -0.000425218004687)
(0.00122088213241 0.000578457516836 -0.000365927116923)
(0.00098371925584 0.000662364765618 -0.000322400171024)
(0.000662465451967 0.000723990537505 -0.000298016931527)
(0.00029836928232 0.00075447221404 -0.000288344416161)
(-7.99334969531e-05 0.000754441911786 -0.000287023610396)
(-0.000447838221101 0.000723576265683 -0.000294142453424)
(-0.000777718949315 0.000662868262139 -0.000315988915493)
(-0.00102839815696 0.000579192817423 -0.000357322671423)
(-0.00116371490291 0.000487244824438 -0.00041476092309)
(-0.00115779109111 0.000368081849601 -0.000485284685486)
(-0.000970805929485 0.00026372977772 -0.000551376837043)
(-0.00063540711336 0.000212624673514 -0.000575680127934)
(-0.000180742179437 0.000221802414159 -0.000458906193891)
(6.82175095664e-05 0.000297579940849 -8.13923142446e-05)
(-0.000105219271272 0.00067133677112 -7.89188657366e-05)
(0.000227849572758 0.00068786510147 -0.00059052723743)
(0.000773435173892 0.000734943393918 -0.000710534650084)
(0.00116585331695 0.000836622477058 -0.000646280184569)
(0.00137388138243 0.000976026827539 -0.000538309983222)
(0.00138827693563 0.0011196563306 -0.000438804502431)
(0.00124955558382 0.00123436224101 -0.000367904591876)
(0.00099876258271 0.00133323164644 -0.00032360626443)
(0.000669196862904 0.00141119821181 -0.000300895755776)
(0.000299823848074 0.00144902167738 -0.000295036266598)
(-8.12076271343e-05 0.00144913562931 -0.000293661063559)
(-0.000453643671136 0.00141008775761 -0.000297954449123)
(-0.000791498509327 0.0013352280855 -0.000316997254657)
(-0.00105629320318 0.00123686054504 -0.000359160088557)
(-0.00121212930672 0.00112341493977 -0.000428002329382)
(-0.0012194090162 0.000982897756249 -0.000526262512667)
(-0.00103864920477 0.000847710184503 -0.000632679114431)
(-0.000680293210613 0.000749981310987 -0.000695305620713)
(-0.00017115671258 0.000704164519152 -0.000574707008685)
(0.000126121292501 0.000684725159633 -6.25898076381e-05)
(-0.000123330865123 0.000979138583462 -2.29651908363e-05)
(0.000280980658886 0.00104420379922 -0.000567010639239)
(0.000874615312583 0.00111478976724 -0.000648677624663)
(0.00128777902764 0.00123700972237 -0.000531626599961)
(0.00148701852602 0.00138934907552 -0.000378514578792)
(0.00147615179517 0.00153906747654 -0.000254899692361)
(0.00131312851587 0.00166155280967 -0.00017290930709)
(0.00104367658827 0.0017679424988 -0.000125384012535)
(0.000693329814729 0.00185116843645 -9.17707692333e-05)
(0.000305357508569 0.00189765160057 -0.000101569278029)
(-8.80332239011e-05 0.00190007888654 -0.000101003487148)
(-0.000477059297049 0.00185713828802 -0.000100560865938)
(-0.000834507141665 0.00177380596466 -0.000118752850471)
(-0.00111983176648 0.00166538341901 -0.000163439338843)
(-0.00129862723717 0.00154301171854 -0.000243764222018)
(-0.00132891732906 0.00139655655979 -0.000365101730405)
(-0.00115595338732 0.00124958642728 -0.000515041723898)
(-0.000777632000101 0.00113236006691 -0.000629648761958)
(-0.000222149323673 0.00106370486182 -0.000547763748384)
(0.000145095230792 0.000994964774406 -4.51882118662e-06)
(-9.95952422649e-05 0.00118551054071 3.50772479288e-05)
(0.000387500932008 0.00124924620728 -0.000501869412902)
(0.00101402050623 0.00131349657445 -0.000542206154998)
(0.00144002713969 0.00142776015837 -0.000381210648329)
(0.00163012855831 0.00157190315214 -0.000190043658815)
(0.00159725462598 0.0017179723675 -4.01340516341e-05)
(0.00141090599356 0.00184050759021 6.28677572881e-05)
(0.00111947305113 0.00195129932497 0.000130707816798)
(0.000747109586547 0.00204162586437 0.000174789154894)
(0.0003293667343 0.00209877221232 0.000193410417449)
(-0.000103193856872 0.00210357998083 0.000196869684514)
(-0.000529394463732 0.00205482371068 0.000182228664986)
(-0.000916004895684 0.00196038098927 0.000141010369649)
(-0.00122144052885 0.00184347557393 7.30975093219e-05)
(-0.00141987484827 0.00171991401928 -2.90005040072e-05)
(-0.00146826434596 0.00157637229759 -0.000175803500322)
(-0.00130261470392 0.00143811997448 -0.000361706746805)
(-0.000912265264778 0.00132970069397 -0.000518987005574)
(-0.000326361407991 0.00126808317377 -0.000478117224307)
(0.000121750860823 0.00120114871934 5.53483753206e-05)
(-4.15024398259e-05 0.00120025800707 8.55222358452e-05)
(0.000509379167254 0.00127063055295 -0.000431487350522)
(0.00115896523416 0.00132060035017 -0.000444278820046)
(0.00159168943177 0.00141051155828 -0.000257445129341)
(0.00177727528034 0.00153440794513 -3.95251599437e-05)
(0.00171607070155 0.00165434839493 0.000133568894277)
(0.00151306036413 0.00176189257168 0.000246403594345)
(0.00120201090612 0.00186640267989 0.00032578059771)
(0.000803379767553 0.00195430099145 0.000381059910787)
(0.000352127259896 0.00200867552323 0.000410819155089)
(-0.000119097405513 0.00201334637737 0.000416494127464)
(-0.000585619269126 0.00196658664515 0.000394638480373)
(-0.0010060426041 0.00187588087357 0.000338199007121)
(-0.00132931144987 0.00176126006099 0.000253389224158)
(-0.00153883862016 0.00165257930907 0.000141669479037)
(-0.00161123974876 0.0015351647706 -2.74880627924e-05)
(-0.00144758691957 0.00141675787113 -0.000237577791165)
(-0.00105143945713 0.00133274220648 -0.000418351732219)
(-0.000445177413701 0.00128526588816 -0.000404543608599)
(6.46076113198e-05 0.00121244969386 0.000107458131087)
(-7.96716221604e-06 0.00110607211568 0.000114137505508)
(0.000602817387043 0.00114619735631 -0.00037383537874)
(0.00127514983386 0.00117500924237 -0.000374579564238)
(0.00171704305725 0.00123986027806 -0.000175278590765)
(0.00190275438872 0.00134199073894 6.54580027887e-05)
(0.001824942628 0.00144831294757 0.000249792571737)
(0.00161555950293 0.00155187059525 0.000375936935154)
(0.00128360595102 0.00165321388378 0.000474161397179)
(0.000854416647672 0.00173957069737 0.00054943630278)
(0.00037117127056 0.00178915111519 0.0005936548947)
(-0.000133359064355 0.00179282040664 0.000600778725879)
(-0.000637346062841 0.00175030299298 0.000567193927084)
(-0.00109768302421 0.00166349388778 0.000487636700922)
(-0.00143913801494 0.00155173435744 0.000374405313421)
(-0.00164664676084 0.00144396176358 0.00025252042451)
(-0.00173229645715 0.00134044576551 7.47732387459e-05)
(-0.00156689774576 0.00124308830906 -0.00015609889073)
(-0.00116228141505 0.00118346445253 -0.000347294730613)
(-0.000535639978344 0.0011571454872 -0.000345176805212)
(3.12255834206e-05 0.00111569988153 0.00013657798053)
(4.44036213868e-05 0.000882264105 0.000137350857444)
(0.000686294342985 0.000903918608992 -0.000331613600441)
(0.00137398222531 0.000917565939242 -0.0003317838283)
(0.00182614101194 0.00096005878369 -0.00012978949331)
(0.00201892166908 0.00104132854064 0.000135049023634)
(0.0019332421417 0.00112869974085 0.000335831058279)
(0.00171747992657 0.00120986419597 0.000483100502901)
(0.00135873875008 0.00128364714184 0.000605439319834)
(0.000900639908078 0.00134870614479 0.000698801044208)
(0.000391058406006 0.0014083665 0.000682473198133)
(-0.000149617297203 0.00141175298709 0.00068662005392)
(-0.000683729557287 0.00136160171648 0.000707753908721)
(-0.00117816285255 0.00129449562799 0.000621526758762)
(-0.00154944837624 0.00121342752814 0.000478633734442)
(-0.00175718320586 0.00112395856182 0.000331876882014)
(-0.00184466448429 0.00103964134972 0.000141119674774)
(-0.00167121400554 0.0009617674485 -0.000111104048301)
(-0.001257297443 0.00092335570197 -0.000303700697348)
(-0.00061751306799 0.000911511026074 -0.000302044776594)
(-2.09931672456e-05 0.000889002810194 0.000159858381752)
(8.38093557382e-05 0.000569167092997 0.000146674621704)
(0.000746316156925 0.000579670942411 -0.000308626171431)
(0.00144833349739 0.00058514868665 -0.000312396710344)
(0.00190969721015 0.000607769062077 -0.00011344523751)
(0.00211398842757 0.000660498728723 0.000176310077932)
(0.00202127796395 0.000715937269748 0.000392998436006)
(0.00179990927418 0.00076234164311 0.000558622598526)
(0.00142125788443 0.000804030872899 0.000697808166187)
(0.000962735546839 0.000864275798749 0.000661844982799)
(0.000409759875564 0.000897928366314 0.000678196766502)
(-0.000164635668159 0.000900731643342 0.000682338740762)
(-0.000741499170041 0.000872182654444 0.000677871915349)
(-0.00124805261641 0.000815084613779 0.000703698395238)
(-0.00163848007267 0.000766449265876 0.000554319520788)
(-0.00184671926716 0.000714359709841 0.000384244321592)
(-0.00193654112411 0.000661421222555 0.0001817746917)
(-0.00175195507038 0.000611220612843 -9.59857838832e-05)
(-0.00132921878816 0.000589939609491 -0.000283600018079)
(-0.000676774772064 0.000584912950665 -0.000278796354031)
(-6.04750642313e-05 0.000573712176485 0.000169057246193)
(0.000103618657162 0.000211679040093 0.000148656067941)
(0.000776601071179 0.000214839874888 -0.00030011493277)
(0.00148761800759 0.000215773462494 -0.000306888924213)
(0.00195364196421 0.00022178644828 -0.00011049048448)
(0.00216479637691 0.000238962049038 0.000192917038844)
(0.00206989698772 0.000256202783169 0.000417496660618)
(0.00184343449152 0.00027024608333 0.000594754854611)
(0.00147535402221 0.000285828077849 0.000673133186987)
(0.000994382609809 0.000301503097285 0.000666575636811)
(0.000422445706181 0.000312019341062 0.000705577583855)
(-0.000173357559378 0.000314151220717 0.000711913356099)
(-0.000771263123305 0.000304770407044 0.000684609320277)
(-0.00130135698051 0.000290188255838 0.00068439813185)
(-0.00168386137698 0.000272806304274 0.000591236904518)
(-0.0018949147681 0.000257692577548 0.000408575256003)
(-0.00198484858227 0.000241417956942 0.000198938554104)
(-0.00179494776561 0.000225976039386 -9.02947879931e-05)
(-0.00136885286339 0.000219378978444 -0.000277286010996)
(-0.000707419426355 0.000218021227604 -0.000270044871226)
(-8.05441753677e-05 0.000214217985109 0.00017100094649)
(0.000103477568951 -0.000160091053034 0.000148946959925)
(0.000776074738064 -0.000162683597021 -0.000299848438438)
(0.00148703577829 -0.000164890513479 -0.00030695336617)
(0.0019529057475 -0.000173098402465 -0.000110930564004)
(0.00216394256695 -0.00019270137375 0.00019213774559)
(0.0020690725105 -0.000212632510888 0.000416146957081)
(0.00184270275075 -0.000228989339176 0.000593224879431)
(0.00147471046308 -0.00024718604745 0.000670890396433)
(0.000993748739066 -0.000265241281726 0.000664166304932)
(0.000422504800453 -0.000276887127663 0.000702676797332)
(-0.000172537014092 -0.000278174223872 0.000709339426584)
(-0.000770391160083 -0.000266796618954 0.000682543645625)
(-0.00130064158319 -0.000249342019818 0.000682161440232)
(-0.00168284553797 -0.000229014450033 0.000589810727685)
(-0.00189377256323 -0.000210781134392 0.000407502225842)
(-0.00198363191609 -0.000190896504719 0.000198263398851)
(-0.00179422005352 -0.0001713423267 -9.03845342746e-05)
(-0.0013686845566 -0.000163745040546 -0.000277163860826)
(-0.000707117201744 -0.000162006999953 -0.000269562174942)
(-8.0488451999e-05 -0.000159755749796 0.000171395961444)
(8.34708632673e-05 -0.000518281046867 0.00014761091994)
(0.000744961086436 -0.000528100827159 -0.000307695571635)
(0.00144697751556 -0.000534448805025 -0.000312372296842)
(0.00190802189631 -0.000558441697536 -0.000114217849366)
(0.00211213727344 -0.000612363866206 0.00017455985557)
(0.00201948271091 -0.000668729497979 0.000390226365138)
(0.0017983083963 -0.000715996735287 0.000555187045652)
(0.0014204285706 -0.000759287379872 0.000691318492793)
(0.000962171634059 -0.000820551838654 0.000655327277125)
(0.000410221070782 -0.00085405910842 0.000671646717826)
(-0.000163421651845 -0.000856427856726 0.000675927369913)
(-0.000739953753137 -0.000827087474151 0.0006711795224)
(-0.0012466093723 -0.000768252731434 0.000697033803195)
(-0.00163621962552 -0.000717980733305 0.000550767532196)
(-0.00184396794003 -0.000664783296179 0.000381728501972)
(-0.00193307041876 -0.000610421456018 0.000180412686014)
(-0.00175023673111 -0.000558510632613 -9.24735675962e-05)
(-0.00132940837024 -0.000535817109527 -0.000282838517641)
(-0.000676085067729 -0.000530177644375 -0.000277354324944)
(-6.03393616373e-05 -0.000520331020606 0.000170243881101)
(4.40403126433e-05 -0.000833193304197 0.000139033751808)
(0.000684610572617 -0.000854010910213 -0.000329945868249)
(0.00137249276996 -0.000867836316369 -0.00033135597907)
(0.00182474881993 -0.000910491389798 -0.00013055611181)
(0.00201798537575 -0.000991312155193 0.000133704053647)
(0.00193243752672 -0.00107767615722 0.000334097009483)
(0.00171672603554 -0.00115754271605 0.000481109155273)
(0.0013576129256 -0.00123020955213 0.000602941854991)
(0.000901396504564 -0.00129632531039 0.000690194913817)
(0.000392346847047 -0.00135457685634 0.000675039936153)
(-0.000148123573881 -0.00135732447285 0.00067928262641)
(-0.000682604409149 -0.00130728729926 0.000699331258811)
(-0.00117631946769 -0.00123859656265 0.000619152812918)
(-0.00154829577044 -0.00115878933548 0.000476102178772)
(-0.00175573661694 -0.00107083983252 0.000329859118025)
(-0.00184291355974 -0.000987711571672 0.000139670513991)
(-0.0016696661489 -0.000910987468235 -0.000111366591758)
(-0.00125632843971 -0.000871335313931 -0.000302795355538)
(-0.000616154184215 -0.000859046309459 -0.000299779311401)
(-2.07824069345e-05 -0.000837808235006 0.000161881795114)
(-8.15452758076e-06 -0.00106057815794 0.000116633958439)
(0.000601389413602 -0.00109950456782 -0.000371561795737)
(0.001274416848 -0.00112766411493 -0.000373534647714)
(0.00171712002589 -0.001191411352 -0.000175196744917)
(0.0019039102036 -0.00129197475895 6.53789543904e-05)
(0.00182663359361 -0.00139653729852 0.000250410168346)
(0.00161724494697 -0.00149822552528 0.000377392421944)
(0.00128483007098 -0.00159761682937 0.000475692192805)
(0.000855796167025 -0.00168205248537 0.000550791438301)
(0.000373133166805 -0.00173017015885 0.000594936937117)
(-0.000131109284692 -0.00173305903529 0.000602401868166)
(-0.000635882635166 -0.00169051468237 0.000569134371235)
(-0.00109790156483 -0.00160508392078 0.000489691292242)
(-0.00144066193989 -0.00149514171039 0.000375485216051)
(-0.00164810380904 -0.00138953464765 0.000252609704035)
(-0.00173313510397 -0.0012879545668 7.45601814916e-05)
(-0.00156682116349 -0.00119242927771 -0.000155835013347)
(-0.00116161431264 -0.00113358438804 -0.000345743474939)
(-0.000534328610296 -0.00110802606609 -0.000342105211478)
(3.12564969367e-05 -0.00106824063474 0.000139507216714)
(-4.22777726675e-05 -0.00115931651735 8.83661416724e-05)
(0.000509172269284 -0.00122861058602 -0.000428372332044)
(0.00116018937385 -0.00127744455495 -0.000442569001758)
(0.00159441469909 -0.00136536851987 -0.000256165922785)
(0.00178133383075 -0.0014871504004 -3.81932701699e-05)
(0.00172010965484 -0.00160463312287 0.000136009447324)
(0.00151695745509 -0.00171051686009 0.000249366695251)
(0.00120568542973 -0.00181367543091 0.00032933320543)
(0.000806949104705 -0.00190103223743 0.000385189579348)
(0.000355479644627 -0.00195357212147 0.000414822249663)
(-0.000116467709588 -0.00195721053759 0.000420660646163)
(-0.000585168473058 -0.00191017249225 0.000399398611267)
(-0.00100827138021 -0.00182001089516 0.000342379674725)
(-0.0013330452485 -0.00170665184183 0.000256444847368)
(-0.00154286123361 -0.00159981277187 0.000143850099058)
(-0.00161517202614 -0.0014847740492 -2.60589011689e-05)
(-0.00145020939945 -0.00136850968436 -0.000236025914898)
(-0.00105274478364 -0.00128646135199 -0.000415965640812)
(-0.000445073659094 -0.0012404304112 -0.000400922685441)
(6.53481746841e-05 -0.0011694518873 0.000110781782448)
(-9.93187541238e-05 -0.00115127075571 3.84291159688e-05)
(0.000389103647865 -0.00121434838973 -0.000499400355773)
(0.00101793189887 -0.00127684219537 -0.000540101197096)
(0.00144587287036 -0.00138873520358 -0.000378856822026)
(0.00163742358079 -0.00153062222424 -0.000186703768685)
(0.00160444231306 -0.00167446380027 -3.52547809623e-05)
(0.00141697722051 -0.00179482119865 6.83891915294e-05)
(0.00112449100766 -0.00190511160102 0.000136949336772)
(0.000752669429179 -0.00199754329976 0.000179984993481)
(0.000335094284728 -0.00205075959782 0.000200719023984)
(-0.000100063580445 -0.00205391656609 0.000204370841973)
(-0.000529615369507 -0.00200489280094 0.000188965660803)
(-0.000919680149287 -0.00191037682212 0.000147701636883)
(-0.00122738840353 -0.00179436647609 7.87996590631e-05)
(-0.00142698832052 -0.00167287791129 -2.47985558403e-05)
(-0.00147535861405 -0.00153141260405 -0.000172229861081)
(-0.00130840727586 -0.00139541704111 -0.00035888872045)
(-0.00091630849966 -0.00128952839813 -0.000515756733067)
(-0.000328363399406 -0.00123008298758 -0.000474407757194)
(0.000121036551849 -0.00116489990684 5.93318859742e-05)
(-0.000123152985339 -0.000952416095021 -1.94173921723e-05)
(0.000283554929929 -0.00101682397598 -0.00056496977371)
(0.00088031967936 -0.0010858229558 -0.000646585825939)
(0.00129569624285 -0.00120577189847 -0.000528597511811)
(0.00149614388344 -0.00135597022502 -0.000374559116451)
(0.00148480804868 -0.00150380268659 -0.00024933907803)
(0.00131973820621 -0.00162421619398 -0.000166386311456)
(0.00104628126686 -0.00172926965591 -0.000120105243387)
(0.000699314610371 -0.00181168999954 -0.000101359427589)
(0.000314750110113 -0.00185735714447 -9.56984176655e-05)
(-8.33228608923e-05 -0.00185947860894 -9.35868815478e-05)
(-0.000476302887694 -0.00181665943414 -9.58671089432e-05)
(-0.000837671679021 -0.00173343829876 -0.000111607814594)
(-0.00112636703933 -0.00162554773428 -0.000156141152677)
(-0.00130691944451 -0.00150453642823 -0.00023749509128)
(-0.00133780451854 -0.00135971908115 -0.000360004427842)
(-0.00116392146845 -0.00121483329154 -0.000510673871293)
(-0.000783599738619 -0.00110006839598 -0.000625937252621)
(-0.000225423338534 -0.0010334911049 -0.000544004165855)
(0.000144320755862 -0.000966583657628 -4.56022233987e-07)
(-0.00010475725115 -0.000652866864699 -7.55502940311e-05)
(0.000231088851016 -0.000668966564373 -0.000588679219625)
(0.000780281850733 -0.000714750828549 -0.000708685490846)
(0.00117528807573 -0.00081456180112 -0.000643007904261)
(0.00138452682587 -0.000952041809645 -0.000533336248245)
(0.00139847896614 -0.00109391268722 -0.000432449538996)
(0.00125834601499 -0.00120637957056 -0.000360703234213)
(0.00100568083537 -0.00130268912404 -0.000316133571823)
(0.000676311573322 -0.0013765408492 -0.000294674444424)
(0.000306747193665 -0.00141685257699 -0.000287144885975)
(-7.73850676956e-05 -0.00141813525239 -0.000285553436332)
(-0.000453552597146 -0.00137955535534 -0.000290174336006)
(-0.000795272093144 -0.0013054810439 -0.0003089121747)
(-0.00106329003243 -0.00120779155466 -0.000351179161289)
(-0.00122123163792 -0.00109561996069 -0.000420792716856)
(-0.00122962086462 -0.000956531924062 -0.000519748123683)
(-0.00104819291269 -0.000823092692595 -0.000627695546428)
(-0.000687568421665 -0.000727248378027 -0.0006915805179)
(-0.000175266828914 -0.000683087887053 -0.000571103859288)
(0.000125077331045 -0.000665128945231 -5.85416578304e-05)
(-4.73450433984e-05 -0.000278913861245 -9.40573791901e-05)
(0.000239508644244 -0.00020148728074 -0.000471673824916)
(0.000733216524016 -0.000192163926734 -0.000587545800221)
(0.00110491847131 -0.000244968721821 -0.000561423404782)
(0.00132114464044 -0.000350886054316 -0.00049231042806)
(0.00134948227452 -0.000471142493717 -0.000419196123162)
(0.00123049695951 -0.000562593020921 -0.000359112951908)
(0.000992045663418 -0.000645079358143 -0.000314980639183)
(0.000669736338059 -0.000705179968583 -0.000290274168647)
(0.000304137970666 -0.000736256660468 -0.000280370652799)
(-7.68013544655e-05 -0.000736763640125 -0.000278973058628)
(-0.000447960432146 -0.000706461227426 -0.000286135508973)
(-0.000781409746899 -0.000646209360508 -0.000308091316214)
(-0.0010352463604 -0.000563026191616 -0.000349755743532)
(-0.00117273171522 -0.000471993687833 -0.000407642702267)
(-0.00116839451307 -0.000353719401528 -0.000479044730315)
(-0.000980622276045 -0.000250204224965 -0.000547105438536)
(-0.000642729096875 -0.000199953463175 -0.000572235025653)
(-0.000184876752618 -0.00021004049979 -0.00045579428062)
(6.71067857303e-05 -0.000286662547351 -7.78862547376e-05)
(6.42162563861e-05 -5.16904377615e-05 -7.45811301515e-05)
(0.000315381298152 6.04773822327e-05 -9.49537939e-05)
(0.000714405127096 0.000118287821889 -7.52761842854e-05)
(0.00103649346031 0.000136325667866 -1.80451302739e-05)
(0.00125427127566 0.000112444566471 4.1448440037e-05)
(0.00127632640715 5.48119655027e-05 9.42840367045e-05)
(0.00118805130731 2.1635292204e-05 0.00012427978002)
(0.000968034469944 -3.06946341421e-05 0.000148769954738)
(0.000656792235446 -7.03728916148e-05 0.000159194456624)
(0.000298802867753 -9.06602226285e-05 0.000162131494375)
(-7.58304204473e-05 -9.09267300902e-05 0.000163261135285)
(-0.00043884916831 -7.10348299384e-05 0.000162665366482)
(-0.000760082622791 -3.13103110808e-05 0.00015481561377)
(-0.000994735019873 2.11418294287e-05 0.000133026466091)
(-0.00110113653985 5.5523076583e-05 0.000105368155043)
(-0.00110280295811 0.000111832112701 5.50813805782e-05)
(-0.000913280835288 0.000135231444965 -2.71196971623e-06)
(-0.000624467385144 0.000116191496791 -5.88117259738e-05)
(-0.000261342868579 5.79077658016e-05 -7.77737740634e-05)
(-4.53971990637e-05 -5.48792650055e-05 -5.78425539858e-05)
(0.000209286956391 0.000199807842446 -0.000624863684954)
(0.000602599432617 0.000291340385577 -0.000728519034712)
(0.000991324186942 0.000369706791058 -0.000724206868175)
(0.00127278134864 0.000453150585173 -0.000635559329927)
(0.00142975765949 0.000539689051984 -0.000524661404757)
(0.00141478255483 0.000618927606002 -0.000421605141473)
(0.00128550135338 0.000663944624089 -0.000340080756687)
(0.00103598519105 0.000710668903373 -0.000279851478618)
(0.000697457147981 0.00074445311607 -0.00025066039073)
(0.000312431373593 0.000761093887322 -0.000241019693158)
(-8.81969587964e-05 0.000761377139691 -0.000237633538482)
(-0.000477459241254 0.000745118996601 -0.000240755820655)
(-0.000824680468543 0.000711932129458 -0.000263644119371)
(-0.00108750959861 0.000665489735043 -0.000317483472292)
(-0.00123359076385 0.000620532735076 -0.000393001895523)
(-0.00127197505828 0.000543914588462 -0.000490391612664)
(-0.00114423304848 0.000458944183331 -0.000596404902034)
(-0.000898058536163 0.000377070928755 -0.00068160212982)
(-0.000548068348352 0.00029857565242 -0.000683909263711)
(-0.000191368629624 0.000204937300223 -0.00058022853169)
(0.000301353071743 0.000577702113081 -0.000729696367273)
(0.000705470075781 0.000679368218399 -0.00111961100545)
(0.0010405646352 0.000777161304563 -0.00116439734953)
(0.00125894883043 0.000895150802763 -0.00104582083509)
(0.00135286306903 0.00102309983062 -0.000874137875493)
(0.00131826935042 0.00113989879801 -0.0007063836599)
(0.00117446430008 0.00123203883675 -0.000571298250507)
(0.00093835954618 0.00131133750511 -0.000474893301701)
(0.00063401627366 0.00137150703862 -0.000418248987761)
(0.000291105912977 0.00139999388954 -0.000392034731828)
(-6.49378088211e-05 0.00140030106749 -0.000388072783262)
(-0.000411728823878 0.00137088044686 -0.000407073495132)
(-0.000724589788259 0.00131353618813 -0.000458029023467)
(-0.000973959524114 0.00123512596793 -0.000548813833568)
(-0.00113485907986 0.00114449160007 -0.000678169907422)
(-0.00119211466855 0.00103102561799 -0.000840180252681)
(-0.00112716041953 0.000906986067088 -0.00100656345323)
(-0.000944170799458 0.000792212788073 -0.00112125994665)
(-0.000646909097544 0.000694716233063 -0.00107431317198)
(-0.00028074324811 0.000588751102075 -0.000682909188303)
(0.000379838114953 0.00095096025248 -0.000728418212571)
(0.000803565583617 0.000999790842161 -0.00116759077734)
(0.00111739168729 0.00107658850615 -0.00116877983684)
(0.00129720724149 0.00118144137395 -0.000976816017163)
(0.00135216905872 0.00129950758781 -0.00073160805564)
(0.00129166263418 0.00141227714964 -0.000504818056004)
(0.00113340805472 0.00150867820657 -0.00033043865665)
(0.000899219068688 0.00159295515659 -0.000211426290013)
(0.000605125601445 0.00166634469362 -0.000141444113621)
(0.000278436508272 0.00168710828776 -0.000102990303442)
(-5.57444814389e-05 0.00168613260336 -9.73998840575e-05)
(-0.000383721477545 0.00165355546919 -0.000124948299028)
(-0.00068404864605 0.00159508692552 -0.000192362887666)
(-0.000932620872793 0.00151305214128 -0.000307424921948)
(-0.0011071181157 0.00141808482933 -0.00047624916202)
(-0.00118846157672 0.00130871852994 -0.000696385584668)
(-0.0011613242765 0.00119549048265 -0.000934376975946)
(-0.00101696289113 0.00109497434338 -0.00112075176127)
(-0.000741659044312 0.00101973882935 -0.00111721481255)
(-0.000357550787473 0.000967866721532 -0.000678501233815)
(0.000463273680939 0.00121910502608 -0.000643964106777)
(0.00092151975084 0.00120503130934 -0.00105312459838)
(0.00122218738194 0.00124335552991 -0.000981529785056)
(0.00136706452946 0.00131354558698 -0.000716137054474)
(0.00138419137762 0.00139799194856 -0.000413230052821)
(0.00129419103527 0.0014795584602 -0.000155627173019)
(0.00111981338605 0.00155091860241 2.90245552077e-05)
(0.000890610852476 0.0016131290997 0.000147121529115)
(0.000588782554972 0.00166361003533 0.000207278247618)
(0.000259697025542 0.00169216591826 0.000264017381242)
(-5.41300357184e-05 0.00169514495239 0.000273605452554)
(-0.000369460253346 0.00167082897106 0.000244640990457)
(-0.000664722175684 0.00162093870831 0.000170526827218)
(-0.000919215259685 0.00155663148952 5.17639524303e-05)
(-0.00110937734941 0.00148512723818 -0.000128207859988)
(-0.00121743035007 0.0014059331694 -0.000377541104814)
(-0.00122602387879 0.00132654595525 -0.000669997718484)
(-0.0011163849821 0.00126150735194 -0.000927083178463)
(-0.000855375112823 0.001225791724 -0.000995443229601)
(-0.000438980261467 0.0012379307872 -0.000587045208227)
(0.000549759466995 0.00136631621756 -0.000537041695134)
(0.00104938517978 0.0012886926913 -0.000886417403811)
(0.00134044646733 0.00128820997654 -0.000741090867033)
(0.00145153586046 0.00132127889146 -0.00041803204527)
(0.00142947834776 0.00136772044589 -8.11177042176e-05)
(0.00130795016582 0.00141635474467 0.000185019783061)
(0.00111963245922 0.0014707591011 0.000359050022331)
(0.000879640072298 0.00152065206375 0.000467926397372)
(0.000592127271118 0.0015556478125 0.000538357464975)
(0.000274203931737 0.00159643239219 0.000582838172642)
(-5.22759429235e-05 0.00160388618297 0.000591126556244)
(-0.000376008528384 0.00158417699501 0.000560823703619)
(-0.000674260768032 0.00153491727106 0.00048947842798)
(-0.00092729318309 0.00147682067891 0.000379544760943)
(-0.00112560366797 0.0014211070099 0.000208595600229)
(-0.00126060671543 0.00137355334125 -4.82641442506e-05)
(-0.00130506151849 0.0013316570866 -0.000370116603419)
(-0.00122860828175 0.00130394913443 -0.000680928757274)
(-0.000978549549448 0.00130740500926 -0.000820951655503)
(-0.000523464305062 0.00138369102482 -0.000473694915032)
(0.000629302119603 0.00134414125627 -0.000438298843502)
(0.0011666353166 0.00124631698172 -0.000722820424218)
(0.00145429973638 0.00121989927855 -0.000517877792143)
(0.00153433624984 0.00122383919536 -0.000161506325035)
(0.00147822027891 0.00124026226713 0.000185543235785)
(0.00134338159206 0.00127834411366 0.00042964850797)
(0.00115249827237 0.00134326774638 0.000583133416622)
(0.000908316278714 0.00140672594349 0.00068282635438)
(0.000616170955609 0.00145543281943 0.000767712730383)
(0.000286431518393 0.00148951446859 0.000817585077797)
(-5.96520099553e-05 0.00149614294741 0.000828611782993)
(-0.000403912685024 0.00147378591505 0.000795422794503)
(-0.000716605609071 0.00142083970122 0.000707414028781)
(-0.000969855670429 0.00134486001513 0.000596486530968)
(-0.00116424580513 0.00128055258451 0.000447118363681)
(-0.00130809650152 0.00124425809475 0.00021199167172)
(-0.00138259041147 0.00123135499144 -0.000115735699236)
(-0.00133605198495 0.00123232646665 -0.000454524685464)
(-0.00109087178131 0.00126129896155 -0.000651845320501)