/*--------------------------------*- C++ -*----------------------------------*\
| =========                 |                                                 |
| \\      /  F ield         | OpenFOAM: The Open Source CFD Toolbox           |
|  \\    /   O peration     | Version:  3.0.1                                 |
|   \\  /    A nd           | Web:      www.OpenFOAM.org                      |
|    \\/     M anipulation  |                                                 |
\*---------------------------------------------------------------------------*/
FoamFile
{
    version     2.0;
    format      ascii;
    class       volScalarField;
    location    "3.7";
    object      p_rgh;
}
// * * * * * * * * * * * * * * * * * * * * * * * * * * * * * * * * * * * * * //

dimensions      [1 -1 -2 0 0 0 0];

internalField   nonuniform List<scalar> 
7968
(
4891.77428563
4891.77505786
4891.74072212
4891.68467792
4891.61392927
4891.538572
4891.47090489
4891.41690231
4891.37868766
4891.35690266
4891.35154961
4891.36271385
4891.39058757
4891.43478388
4891.49346997
4891.56088071
4891.62493954
4891.67578075
4891.70670259
4891.70397722
4891.77617857
4891.80544164
4891.7850763
4891.7373037
4891.66915305
4891.59389086
4891.52405923
4891.46854115
4891.42966967
4891.40764796
4891.40231975
4891.41376914
4891.44232283
4891.48807299
4891.54894183
4891.6164012
4891.67772599
4891.7202567
4891.73702986
4891.70545449
4891.74424869
4891.7870204
4891.76877248
4891.71432726
4891.63140373
4891.53855678
4891.45183083
4891.38198171
4891.33305497
4891.30598629
4891.30064637
4891.31715108
4891.35567633
4891.41575424
4891.49352928
4891.57847101
4891.65455191
4891.70341197
4891.71793622
4891.67275346
4891.69050103
4891.74200093
4891.71700231
4891.64456671
4891.53664101
4891.41815319
4891.30986284
4891.22360706
4891.16356535
4891.1312103
4891.12589817
4891.14783332
4891.19723683
4891.27371009
4891.37304913
4891.4834653
4891.58427185
4891.65099528
4891.67207051
4891.61794797
4891.62299069
4891.6766459
4891.63728011
4891.53981631
4891.4042185
4891.26265702
4891.13849954
4891.04250142
4890.97703906
4890.941728
4890.9363062
4890.9609105
4891.01598667
4891.10237833
4891.21762317
4891.35096363
4891.47913072
4891.57052904
4891.60569608
4891.54941539
4891.55141463
4891.60545929
4891.54813428
4891.42491917
4891.26617338
4891.10907367
4890.97682255
4890.87856544
4890.81315478
4890.77794025
4890.77249424
4890.79692804
4890.85206403
4890.94089135
4891.06425857
4891.21306975
4891.36413507
4891.4808516
4891.53392144
4891.47694112
4891.48795004
4891.53981673
4891.46547102
4891.32062194
4891.14594389
4890.98071401
4890.84751422
4890.75386123
4890.69372168
4890.66141653
4890.65602237
4890.67759335
4890.72751497
4890.81192327
4890.93617551
4891.09303121
4891.259848
4891.39788669
4891.46743706
4891.41282052
4891.43843425
4891.48878298
4891.40009631
4891.23889106
4891.05436716
4890.88677435
4890.75821754
4890.67508365
4890.62727486
4890.60339134
4890.598155
4890.61146703
4890.64883261
4890.72277654
4890.84249234
4891.00158881
4891.17810396
4891.33230178
4891.41596776
4891.36282789
4891.40486013
4891.45459561
4891.35595622
4891.18394694
4890.9938259
4890.82625765
4890.70314257
4890.63246251
4890.59938858
4890.58318417
4890.57800643
4890.58376884
4890.60634862
4890.66770128
4890.78212544
4890.94104953
4891.12302143
4891.28792446
4891.38143318
4891.32886833
4891.38767764
4891.4372089
4891.33353425
4891.15617822
4890.96342154
4890.79611961
4890.67606212
4890.61386692
4890.58853147
4890.57558248
4890.57038146
4890.57286819
4890.58773376
4890.64057601
4890.75196482
4890.91054792
4891.09506876
4891.26527179
4891.3637619
4891.31138868
4891.38675874
4891.43633951
4891.33269674
4891.15540162
4890.96274259
4890.79556932
4890.67565056
4890.61365214
4890.58849122
4890.57563709
4890.57043009
4890.57281366
4890.5874904
4890.6401136
4890.75133533
4890.90977006
4891.09417011
4891.26426734
4891.36269096
4891.31026495
4891.40208323
4891.45196069
4891.35340287
4891.18154927
4890.991702
4890.82448695
4890.7017628
4890.6315971
4890.5990093
4890.58303124
4890.57782649
4890.58332196
4890.60536676
4890.66615077
4890.78011673
4890.93862589
4891.1202611
4891.28486669
4891.37819484
4891.32547434
4891.43376112
4891.4843183
4891.39573134
4891.23472356
4891.050556
4890.88343687
4890.755427
4890.67290348
4890.62573216
4890.60216379
4890.59687542
4890.60978801
4890.64643622
4890.71969075
4890.83875004
4890.99723853
4891.17323503
4891.32705392
4891.41048448
4891.35711278
4891.48135744
4891.53345911
4891.45918846
4891.31449669
4891.14014058
4890.97536649
4890.84270569
4890.74964781
4890.68998812
4890.65793185
4890.65245273
4890.67363213
4890.72295803
4890.80665375
4890.93020708
4891.08640513
4891.25266296
4891.39031918
4891.45961287
4891.40474891
4891.54299498
4891.5972455
4891.53994599
4891.41677102
4891.25821389
4891.101448
4890.96963503
4890.87185541
4890.80680754
4890.77172747
4890.76615266
4890.79022317
4890.84484174
4890.93303542
4891.05575808
4891.20396683
4891.35454836
4891.47094787
4891.5236946
4891.46661029
4891.61288751
4891.66678009
4891.62735109
4891.52977247
4891.39414495
4891.25272199
4891.12884072
4891.03320304
4890.96805627
4890.93273504
4890.92711204
4890.95135126
4891.00595764
4891.09180958
4891.20652675
4891.33940647
4891.46725936
4891.55840034
4891.59345978
4891.53697189
4891.67899738
4891.73071635
4891.70561004
4891.63292339
4891.52476338
4891.40619997
4891.29799716
4891.21201056
4891.15240822
4891.11977796
4891.11415238
4891.13567475
4891.1846435
4891.26067941
4891.35963608
4891.46971182
4891.57035728
4891.63700828
4891.65803637
4891.60371807
4891.7316131
4891.77469367
4891.75628384
4891.7014891
4891.6181815
4891.52509499
4891.43824638
4891.36841431
4891.31954893
4891.29229806
4891.286705
4891.30289848
4891.34109587
4891.40085644
4891.47838805
4891.56305345
4891.63908978
4891.68808956
4891.70259463
4891.65711784
4891.76310176
4891.79244133
4891.77190568
4891.72373771
4891.65509659
4891.57950884
4891.50950171
4891.45388567
4891.41494501
4891.39277391
4891.38722731
4891.39840688
4891.42666277
4891.47212603
4891.5327498
4891.59988584
4891.66149147
4891.70407203
4891.72086589
4891.68918388
4891.76090295
4891.76176311
4891.72716437
4891.67077975
4891.59963732
4891.52393163
4891.45605046
4891.40192999
4891.36361611
4891.34168943
4891.3361384
4891.3470526
4891.37463669
4891.41853942
4891.47698256
4891.54427871
4891.60832971
4891.65918376
4891.69006937
4891.68717876
4891.75868582
4891.74599581
4891.69915667
4891.63218692
4891.55482488
4891.47644569
4891.40677462
4891.35200134
4891.31363329
4891.29177567
4891.28630926
4891.29732457
4891.32510368
4891.36976573
4891.43012699
4891.50025341
4891.57064237
4891.63234584
4891.67548314
4891.68649735
4891.74713445
4891.75866488
4891.72123312
4891.66147536
4891.59280949
4891.52450893
4891.46339528
4891.41559729
4891.38200817
4891.36252489
4891.35714918
4891.36594442
4891.38902216
4891.42675966
4891.47855259
4891.53846722
4891.60004712
4891.65440222
4891.68827161
4891.67434298
4891.7021609
4891.72310497
4891.67940141
4891.60952109
4891.53061074
4891.45269983
4891.38360835
4891.32871703
4891.28952061
4891.26730077
4891.26200451
4891.27379544
4891.30232846
4891.34716336
4891.40689316
4891.47626868
4891.54785601
4891.61201256
4891.65194921
4891.62861034
4891.63812707
4891.66611375
4891.61227443
4891.52613882
4891.43172287
4891.34136354
4891.26316019
4891.20075551
4891.15430571
4891.13079529
4891.12575493
4891.14038782
4891.17469232
4891.22693703
4891.29575247
4891.37744584
4891.46415579
4891.54415137
4891.59384294
4891.56316424
4891.56426002
4891.60096983
4891.53680053
4891.43514922
4891.33005184
4891.23588988
4891.16019071
4891.10277914
4891.06168404
4891.03784878
4891.03265824
4891.04619029
4891.07676523
4891.12431736
4891.19057686
4891.27592709
4891.37301514
4891.46804775
4891.52768485
4891.48822355
4891.48983258
4891.53661049
4891.46281826
4891.34868267
4891.23978833
4891.15290231
4891.0893919
4891.045515
4891.01413618
4890.99424436
4890.98916283
4890.99879471
4891.02002338
4891.05426249
4891.1079922
4891.18583616
4891.28648862
4891.3936761
4891.46258833
4891.41295892
4891.42449945
4891.4798439
4891.3980892
4891.27484514
4891.16849632
4891.09368239
4891.04734963
4891.02157503
4891.0026186
4890.98814797
4890.98329751
4890.98792916
4890.99704986
4891.01343023
4891.04937612
4891.1145792
4891.21254696
4891.32861689
4891.40532892
4891.34701638
4891.37435034
4891.43674609
4891.34798812
4891.2174533
4891.11589105
4891.05418834
4891.02587772
4891.01879678
4891.00886126
4890.99628917
4890.99152602
4890.99440779
4890.99481954
4890.99272964
4891.01050305
4891.06197554
4891.15495729
4891.27816842
4891.36179997
4891.29643168
4891.3407513
4891.40803273
4891.31397658
4891.17792017
4891.08019152
4891.02788673
4891.01201805
4891.01400813
4891.00762398
4890.99868131
4890.99394454
4890.99316998
4890.9897786
4890.9789963
4890.98439664
4891.02607868
4891.11493917
4891.24374146
4891.33267276
4891.2624652
4891.32360575
4891.39329401
4891.29638145
4891.15753377
4891.06124479
4891.01305398
4891.00262136
4891.00656577
4891.00393684
4890.99773341
4890.99293628
4890.98938841
4890.98220098
4890.96947718
4890.96948959
4891.00691039
4891.09454904
4891.22585548
4891.317611
4891.2450269
4891.32267044
4891.39245439
4891.29561878
4891.15687945
4891.06075301
4891.01274518
4891.00247797
4891.00656421
4891.00412939
4890.99806202
4890.99325409
4890.98956226
4890.982174
4890.96929811
4890.96911217
4891.0063465
4891.09382516
4891.22495929
4891.31659252
4891.24389223
4891.33791907
4891.40547743
4891.31164102
4891.17588534
4891.07862406
4891.02683672
4891.01146423
4891.01386263
4891.0079232
4890.99928168
4890.99450194
4890.993382
4890.98950881
4890.97829998
4890.9831493
4891.02430169
4891.11282043
4891.24100631
4891.32958028
4891.2590385
4891.36956829
4891.43239028
4891.34395091
4891.21385753
4891.11295314
4891.05198044
4891.02438633
4891.01803021
4891.00849297
4890.99624599
4890.99141817
4890.99389666
4890.99386453
4890.99100832
4891.00797535
4891.05862212
4891.15081941
4891.27338196
4891.35652718
4891.29065571
4891.41772043
4891.47357851
4891.39217764
4891.26941565
4891.16377275
4891.08973432
4891.0441601
4891.01915826
4891.00083662
4890.9866919
4890.98175549
4890.98593343
4890.99433532
4891.00986769
4891.04493169
4891.10919514
4891.20623967
4891.32158565
4891.39775346
4891.33883218
4891.48112704
4891.52842198
4891.45494279
4891.34121008
4891.23294748
4891.14678657
4891.08401357
4891.0408212
4891.00997123
4890.99028531
4890.98508406
4890.99429753
4891.01488898
4891.04833359
4891.10116702
4891.17805492
4891.27777899
4891.38429069
4891.45269109
4891.40242506
4891.55381427
4891.59103286
4891.52703771
4891.42559327
4891.32090964
4891.22732345
4891.1522508
4891.09549758
4891.05508131
4891.03118203
4891.02579232
4891.0389221
4891.0688482
4891.11562288
4891.18105775
4891.26551649
4891.36185304
4891.4563836
4891.51561304
4891.47552622
4891.62626445
4891.65464354
4891.60082366
4891.51468035
4891.42041887
4891.33034611
4891.25253154
4891.19077081
4891.14648989
4891.12117736
4891.11568117
4891.13009815
4891.16365152
4891.21526011
4891.28344941
4891.36451395
4891.45069224
4891.53027207
4891.57966661
4891.54867901
4891.68929675
4891.71047978
4891.66664353
4891.59655036
4891.51754612
4891.43964591
4891.37067018
4891.31600337
4891.27715917
4891.25466402
4891.24912771
4891.26062468
4891.28870197
4891.33304639
4891.39231692
4891.46130977
4891.53251087
4891.59642158
4891.6362086
4891.6126849
4891.73346026
4891.74530518
4891.70767615
4891.64758131
4891.57864984
4891.51016896
4891.44896915
4891.40118929
4891.36762475
4891.34803534
4891.34247637
4891.35100581
4891.37371673
4891.41105453
4891.46249746
4891.52218053
4891.58354114
4891.63775328
4891.6716595
4891.65768891
4891.74492246
4891.73224681
4891.68526289
4891.61797262
4891.54025842
4891.46158832
4891.391742
4891.33689765
4891.2984708
4891.27650181
4891.27086132
4891.28162377
4891.30907838
4891.35340481
4891.41347932
4891.48340347
4891.55370909
4891.61527188
4891.6585974
4891.66931792
4891.79179516
4891.77151819
4891.7190008
4891.6457405
4891.56384482
4891.48248614
4891.41058823
4891.35399132
4891.31441697
4891.29186293
4891.28620777
4891.29751892
4891.32608651
4891.37208955
4891.43412532
4891.50665553
4891.58109271
4891.64871496
4891.69789058
4891.71621703
4891.77269638
4891.78726155
4891.74983574
4891.68848593
4891.6228701
4891.56019419
4891.50523814
4891.4621433
4891.43161214
4891.41348511
4891.40797995
4891.41512523
4891.43489505
4891.46753646
4891.51264368
4891.56637195
4891.62429243
4891.67966055
4891.71335916
4891.69607542
4891.72238436
4891.75184052
4891.70697029
4891.62919492
4891.54860555
4891.47366722
4891.40981235
4891.36063409
4891.32672771
4891.30656879
4891.30093567
4891.30980476
4891.33324598
4891.37222344
4891.4263341
4891.49220151
4891.56480721
4891.63630996
4891.67688182
4891.64456017
4891.65222704
4891.69347413
4891.63213216
4891.52658061
4891.42037831
4891.32584833
4891.24881778
4891.19248129
4891.15756422
4891.13383509
4891.12786094
4891.13859978
4891.16493829
4891.21160446
4891.27890499
4891.36407107
4891.46182153
4891.56066832
4891.61736633
4891.57293119
4891.57408301
4891.63159759
4891.5552321
4891.42401954
4891.29671758
4891.18993082
4891.10863981
4891.05332888
4891.01949787
4891.00019873
4890.99453365
4891.00246792
4891.02680471
4891.0732952
4891.14474718
4891.24138333
4891.35928175
4891.48318591
4891.554507
4891.49348387
4891.49695533
4891.57321054
4891.48448536
4891.33335849
4891.19332342
4891.08548092
4891.01254704
4890.97284192
4890.9486312
4890.93414214
4890.92846152
4890.93150235
4890.94639925
4890.97987126
4891.04361497
4891.14027891
4891.26919194
4891.41201924
4891.49523502
4891.41533405
4891.42964902
4891.52292053
4891.42515375
4891.26026257
4891.11526633
4891.01551092
4890.95908291
4890.93176073
4890.9193641
4890.91137322
4890.90539044
4890.90116996
4890.9044478
4890.92867403
4890.97624527
4891.06487089
4891.19703286
4891.35239461
4891.44426739
4891.34730646
4891.37790779
4891.48479422
4891.38082701
4891.20803459
4891.06360258
4890.97776784
4890.93368207
4890.92582235
4890.92970155
4890.92997268
4890.92376109
4890.91052988
4890.8962988
4890.90301731
4890.93988055
4891.01466491
4891.14547085
4891.30769076
4891.40556548
4891.29506656
4891.34330365
4891.45934287
4891.35191351
4891.17627536
4891.0346358
4890.95797575
4890.92764434
4890.93679164
4890.95439834
4890.9607282
4890.95424329
4890.934372
4890.90549638
4890.89545464
4890.92200505
4890.98554653
4891.11362932
4891.27820223
4891.37956235
4891.2600393
4891.32565059
4891.44621196
4891.33721796
4891.1599243
4891.02142813
4890.9496616
4890.92684636
4890.94458588
4890.96831699
4890.97754985
4890.97089085
4890.94770934
4890.91230968
4890.89351671
4890.91319854
4890.97156447
4891.09655633
4891.2629803
4891.36600383
4891.24204727
4891.32467187
4891.44539453
4891.33652677
4891.15938486
4891.02111147
4890.94963284
4890.92703903
4890.94502689
4890.969002
4890.97838399
4890.97168841
4890.94834043
4890.91271097
4890.89367628
4890.91305867
4890.97116881
4891.09587911
4891.26213329
4891.36499241
4891.24086297
4891.34033083
4891.45683057
4891.34976833
4891.17458803
4891.03352778
4890.95762657
4890.92809727
4890.93809636
4890.95647173
4890.9631667
4890.95647095
4890.93611397
4890.90658326
4890.89576293
4890.92142771
4890.98419016
4891.11137656
4891.27558328
4891.37648934
4891.25646348
4891.37287939
4891.48047874
4891.37703731
4891.20489688
4891.06117423
4890.9762809
4890.93326959
4890.92659969
4890.931603
4890.93239224
4890.92600484
4890.9121956
4890.89698441
4890.90258139
4890.93821679
4891.01192608
4891.14177892
4891.30316165
4891.40032862
4891.28904146
4891.42250777
4891.51666027
4891.41946814
4891.25525048
4891.110933
4891.01201224
4890.95625941
4890.92992366
4890.91848357
4890.91104453
4890.90493627
4890.90010994
4890.9024653
4890.92573399
4890.97236644
4891.06002289
4891.1912363
4891.34564202
4891.43670387
4891.33875978
4891.48777407
4891.56495587
4891.47672912
4891.32612889
4891.18667404
4891.0794852
4891.00728975
4890.96830747
4890.94425167
4890.93012551
4890.92434086
4890.92689661
4890.94149517
4890.97416988
4891.03710822
4891.13284313
4891.26084301
4891.40280212
4891.48526121
4891.4043124
4891.56306333
4891.62147096
4891.54541677
4891.41450329
4891.28764815
4891.18131035
4891.10058432
4891.04570408
4891.01200855
4890.99323315
4890.98759385
4890.99512319
4891.01886662
4891.06464268
4891.13534584
4891.23120352
4891.34826846
4891.47149755
4891.54223599
4891.48017672
4891.63970973
4891.68166745
4891.62044715
4891.5149255
4891.40896696
4891.31479172
4891.23816185
4891.18184648
4891.14500129
4891.12329667
4891.11757296
4891.12789622
4891.15408391
4891.19997418
4891.26668938
4891.35117103
4891.44827016
4891.54670166
4891.60301065
4891.55769839
4891.70882717
4891.73875734
4891.69381061
4891.61581991
4891.53519796
4891.46038192
4891.39671138
4891.34764954
4891.31360029
4891.29373025
4891.28807672
4891.29666796
4891.31966793
4891.35804593
4891.41161147
4891.47696848
4891.5491811
4891.62051288
4891.66090212
4891.62793065
4891.75853981
4891.77336158
4891.73571499
4891.67398861
4891.60813071
4891.54534001
4891.49036259
4891.44730203
4891.41676054
4891.39862146
4891.39299209
4891.3998806
4891.41925427
4891.45143788
4891.4961515
4891.54957569
4891.60729402
4891.66266635
4891.69603272
4891.67860213
4891.77679232
4891.75720281
4891.70443641
4891.63071148
4891.54840657
4891.46674406
4891.3946696
4891.33800428
4891.29836466
4891.27572659
4891.26991249
4891.28097518
4891.30921094
4891.35485671
4891.41662066
4891.48899469
4891.56339121
4891.63101048
4891.67973488
4891.69782829
4891.85861192
4891.8315772
4891.77643944
4891.70053667
4891.61637659
4891.53295618
4891.45907281
4891.40033193
4891.35910964
4891.33558711
4891.32965549
4891.34136257
4891.37096113
4891.41840644
4891.4816707
4891.55549623
4891.63148109
4891.70106502
4891.75202987
4891.77749032
4891.83302628
4891.84668649
4891.81256735
4891.75351428
4891.68955799
4891.62771493
4891.57305414
4891.52905803
4891.49753714
4891.47879875
4891.47314539
4891.48056167
4891.50090362
4891.53388438
4891.57801255
4891.6301048
4891.68549117
4891.73780561
4891.76724125
4891.75053699
4891.78039482
4891.81487822
4891.77367626
4891.6916508
4891.60275591
4891.51755995
4891.44467039
4891.38931352
4891.35288139
4891.33262419
4891.32678223
4891.33544083
4891.36098176
4891.40579235
4891.46816605
4891.54330642
4891.62323761
4891.6982287
4891.73442625
4891.69614502
4891.70801847
4891.75917722
4891.69498033
4891.57060288
4891.43504535
4891.30811978
4891.19165432
4891.09887567
4891.06023899
4891.04473738
4891.03716812
4891.04185398
4891.06883326
4891.15324362
4891.26039017
4891.37615137
4891.50150003
4891.61832246
4891.67719597
4891.62164375
4891.62804991
4891.69936413
4891.61024382
4891.43906511
4891.2473324
4891.03326887
4890.87537625
4890.73227832
4890.7045259
4890.70874061
4890.70212318
4890.68475317
4890.70828279
4890.84432769
4890.98968496
4891.19255308
4891.3706579
4891.53274026
4891.6161096
4891.53987498
4891.54929536
4891.64225595
4891.52964255
4891.31553695
4891.03637608
4890.7865515
4890.55878284
4890.684877
4890.68681109
4890.67759159
4890.66920729
4890.6600159
4890.63903951
4890.52518161
4890.75761331
4890.9852317
4891.25014855
4891.45183275
4891.557904
4891.45974477
4891.48040525
4891.59269671
4891.46131573
4891.19876735
4890.87660658
4890.58895606
4890.64185282
4890.56881695
4890.55393877
4890.55216972
4890.54191114
4890.51892779
4890.52018878
4890.61138973
4890.50432298
4890.83664373
4891.13777907
4891.3838865
4891.50749123
4891.38990345
4891.42690386
4891.55413696
4891.41087872
4891.10822257
4890.74509611
4890.71161466
4890.56524016
4890.52827275
4890.53217142
4890.53785902
4890.52713332
4890.49499517
4890.468153
4890.52672157
4890.57270912
4890.70007105
4891.05084532
4891.3334147
4891.46816798
4891.33573684
4891.39098075
4891.52817466
4891.38000589
4891.07725174
4890.72498545
4890.68988512
4890.56632476
4890.54946786
4890.5719534
4890.58469846
4890.5722417
4890.53321773
4890.48407402
4890.51834097
4890.65834937
4890.67084992
4891.0170477
4891.30163286
4891.44137062
4891.29925299
4891.37260941
4891.51477655
4891.36551159
4891.06835091
4890.73994715
4890.69325676
4890.57985005
4890.57030921
4890.59835708
4890.61470042
4890.60284929
4890.55760583
4890.50252318
4890.52805469
4890.6562745
4890.67959275
4891.00761177
4891.28626122
4891.42731669
4891.28045272
4891.37153785
4891.51399803
4891.36487309
4891.06765969
4890.7401295
4890.69428386
4890.58075823
4890.57127879
4890.59947408
4890.6159192
4890.60436398
4890.55865873
4890.50337612
4890.52894588
4890.65666949
4890.68033371
4891.00705237
4891.28545309
4891.42632219
4891.27916584
4891.38771685
4891.52572776
4891.37796893
4891.07645927
4890.72570394
4890.69165609
4890.5694496
4890.55375285
4890.57766143
4890.59100873
4890.57712089
4890.53727892
4890.4874605
4890.52123135
4890.65937429
4890.67198493
4891.01569232
4891.29912909
4891.43834776
4891.29537811
4891.42139251
4891.5498784
4891.40716664
4891.10601475
4890.74417392
4890.71194579
4890.56842376
4890.53326111
4890.53930553
4890.54596999
4890.53444718
4890.50129092
4890.47321706
4890.53029767
4890.57246252
4890.699951
4891.04800931
4891.32900354
4891.4629885
4891.32922635
4891.47260317
4891.58642553
4891.45562273
4891.19410636
4890.87458977
4890.59454537
4890.63967324
4890.56887512
4890.5557193
4890.55532125
4890.54459189
4890.52057173
4890.52020483
4890.6097665
4890.50311557
4890.83384338
4891.13216888
4891.37721737
4891.49992358
4891.38069658
4891.53928831
4891.63385963
4891.52170136
4891.30793133
4891.03157512
4890.78333719
4890.56533485
4890.70280088
4890.68228895
4890.67416329
4890.66545482
4890.65472686
4890.65371194
4890.52602626
4890.75397601
4890.97914375
4891.24157702
4891.44246262
4891.54775582
4891.44788758
4891.61606315
4891.68887618
4891.6000443
4891.42898763
4891.2374915
4891.02661464
4890.87048805
4890.72898874
4890.70202268
4890.70670234
4890.70005135
4890.68246002
4890.70309487
4890.83763958
4890.98174433
4891.18136555
4891.35915442
4891.52061658
4891.60337874
4891.52555607
4891.69443501
4891.74679147
4891.68270239
4891.55825303
4891.42279642
4891.29598857
4891.18051238
4891.08854023
4891.04965954
4891.0347179
4891.02762353
4891.03169984
4891.05816255
4891.13985885
4891.24719521
4891.36246821
4891.48718863
4891.60359969
4891.66208085
4891.60518516
4891.76573398
4891.80102742
4891.75974797
4891.67744241
4891.58851962
4891.50348971
4891.43084445
4891.37561697
4891.33923261
4891.31910738
4891.31324378
4891.32164194
4891.34666407
4891.39081781
4891.45263161
4891.52715273
4891.606597
4891.68139998
4891.71741448
4891.67812998
4891.81778992
4891.83183908
4891.79747329
4891.73797365
4891.67379373
4891.61193436
4891.55737118
4891.51351994
4891.48204888
4891.46332689
4891.45755748
4891.46470479
4891.48456479
4891.51694555
4891.56050979
4891.61212104
4891.66721642
4891.7195398
4891.74895346
4891.731653
4891.84145224
4891.81618522
4891.76056378
4891.68402643
4891.59934259
4891.51556323
4891.44148825
4891.3826803
4891.34138846
4891.31778065
4891.31169018
4891.32314173
4891.35237756
4891.39942145
4891.46237045
4891.53601754
4891.61200888
4891.68181174
4891.73300067
4891.75660426
4891.96581691
4891.94000871
4891.88911228
4891.8187273
4891.73932221
4891.65973554
4891.58894019
4891.53223
4891.49226485
4891.46916469
4891.46280824
4891.47326283
4891.50079358
4891.5453616
4891.60460788
4891.67364764
4891.74397776
4891.8071384
4891.85322869
4891.87702771
4891.9417801
4891.94255549
4891.90784732
4891.84731918
4891.77932122
4891.71062946
4891.64880664
4891.59746868
4891.56122195
4891.54062036
4891.5347736
4891.54353686
4891.56809795
4891.60759718
4891.6580388
4891.71587397
4891.77401238
4891.82664929
4891.85570683
4891.85110896
4891.89392555
4891.91058316
4891.86483849
4891.77563668
4891.67077499
4891.56442997
4891.4498111
4891.32932543
4891.26689399
4891.248157
4891.24154795
4891.24712306
4891.29827551
4891.409497
4891.5127201
4891.60795192
4891.70161731
4891.78269006
4891.82233116
4891.80062574
4891.82765915
4891.85398816
4891.77957186
4891.62627532
4891.38939307
4891.00543848
4890.50035739
4890.27327287
4890.2416649
4890.25905115
4890.24710252
4890.214449
4890.2445421
4890.48287137
4890.97022518
4891.33325279
4891.55224758
4891.69552005
4891.76365583
4891.73140652
4891.75301831
4891.79075495
4891.6788737
4891.39001475
4890.71481163
4889.84000064
4889.31153607
4889.58221373
4889.77101271
4889.84137649
4889.84111326
4889.76981857
4889.51142387
4889.21678958
4889.87099136
4890.70307192
4891.32640865
4891.59475303
4891.69875229
4891.65422497
4891.67866307
4891.72742605
4891.57886508
4890.99041595
4889.80333554
4889.05603178
4889.35638019
4888.22052407
4888.37430019
4888.65092737
4888.61060469
4888.17377594
4888.27055818
4889.30973403
4888.85378777
4889.89821426
4890.96504594
4891.49309435
4891.63400504
4891.57788125
4891.61338697
4891.67134669
4891.46127167
4890.46578974
4889.31964181
4889.15718911
4885.99380635
4884.74609008
4884.94505482
4885.24262306
4885.17528458
4884.52585166
4884.40092427
4887.1191563
4889.44281329
4889.20560042
4890.5012773
4891.38543488
4891.57663993
4891.51119316
4891.56244267
4891.62618525
4891.33898161
4890.2478934
4889.53486421
4887.52450169
4884.17786671
4883.98532772
4884.19999302
4884.49245297
4884.4720923
4883.91984834
4883.33676406
4885.00609491
4888.9062197
4889.51616922
4890.25719886
4891.27282064
4891.53025289
4891.45913004
4891.52823414
4891.59625626
4891.28273206
4890.23380693
4889.77055991
4887.5291464
4884.64797998
4884.49012176
4885.02217163
4885.30075904
4885.19447516
4884.78332479
4883.8100432
4885.2501013
4888.89322434
4889.73448743
4890.21836024
4891.21663356
4891.498893
4891.42394639
4891.51063621
4891.58146964
4891.27239513
4890.26388291
4889.8789045
4887.99883754
4885.1182824
4884.89170737
4885.30557961
4885.57160203
4885.55406543
4885.02341088
4884.23429318
4885.71275205
4889.17306736
4889.7967861
4890.2411066
4891.20327628
4891.4829449
4891.40563949
4891.50937362
4891.58072582
4891.27255283
4890.26359657
4889.8822124
4888.05362224
4885.13456265
4884.89622418
4885.297012
4885.56044782
4885.58233177
4885.0217066
4884.23992375
4885.7369945
4889.18776169
4889.7939591
4890.24376531
4891.20233726
4891.48186204
4891.4041412
4891.52440863
4891.59367528
4891.28314529
4890.23731463
4889.78305574
4887.61614579
4884.73800112
4884.58245765
4885.14067039
4885.4324281
4885.24665433
4884.83782132
4883.86656043
4885.33585399
4888.9301713
4889.73466185
4890.22440318
4891.21473049
4891.49560192
4891.41948034
4891.55607349
4891.62163917
4891.33772477
4890.25486145
4889.55684719
4887.56704225
4884.3009248
4884.10385442
4884.37060306
4884.6753095
4884.62711267
4884.06702939
4883.4693206
4885.13340236
4888.96547574
4889.53008859
4890.26186188
4891.26995802
4891.52472342
4891.45172828
4891.60452237
4891.66463709
4891.4566627
4890.4684064
4889.35069421
4889.17397903
4885.91961724
4884.73721742
4884.93253543
4885.26533516
4885.17676663
4884.5253199
4884.377961
4887.07261606
4889.48999328
4889.22794293
4890.50179243
4891.38009852
4891.568623
4891.50090707
4891.66744041
4891.71848179
4891.57033365
4890.98641868
4889.80692
4889.10836102
4889.35028287
4888.09149716
4888.28209473
4888.5793747
4888.52636214
4888.03319803
4888.13377915
4889.33166795
4888.90717407
4889.89663842
4890.95845574
4891.48304603
4891.62320318
4891.56484441
4891.7396956
4891.77951978
4891.66790933
4891.38091465
4890.70533226
4889.83446284
4889.33868173
4889.58998777
4889.78349721
4889.85259419
4889.8496544
4889.77235623
4889.51971897
4889.2455321
4889.86354085
4890.69327003
4891.31496302
4891.58186991
4891.68497778
4891.63863958
4891.81263511
4891.84064675
4891.76626677
4891.61265366
4891.3763445
4890.98922528
4890.48876637
4890.27181867
4890.24048098
4890.25910724
4890.25097771
4890.2188973
4890.24456269
4890.4709242
4890.9544359
4891.31849111
4891.53626055
4891.67943415
4891.74719646
4891.71330795
4891.87776015
4891.89554623
4891.84975182
4891.76006985
4891.65490197
4891.54903547
4891.43555493
4891.31602731
4891.25291484
4891.23335746
4891.22735732
4891.23233842
4891.28349823
4891.39310485
4891.49586918
4891.59008314
4891.68328856
4891.76422594
4891.80361653
4891.78066463
4891.92503537
4891.92625057
4891.89125135
4891.83018507
4891.76191212
4891.69322735
4891.63151994
4891.58044023
4891.54412596
4891.52347188
4891.51749132
4891.52610619
4891.55017344
4891.58905271
4891.63878502
4891.69597494
4891.75371861
4891.80630806
4891.83537534
4891.8301121
4891.94919503
4891.92289063
4891.87121948
4891.79990978
4891.71976334
4891.63963778
4891.56849503
4891.51155584
4891.47136981
4891.44808595
4891.44154747
4891.4518073
4891.47907584
4891.52334544
4891.58234716
4891.65126623
4891.72174691
4891.78530606
4891.83181883
4891.85580837
4892.13474728
4892.10828795
4892.06887632
4892.01138152
4891.94595685
4891.8808093
4891.82486252
4891.78199921
4891.75280451
4891.73535452
4891.72845138
4891.73223043
4891.74808295
4891.77795832
4891.82138627
4891.87495823
4891.93047454
4891.97935912
4892.01270169
4892.03689546
4892.11064
4892.08604448
4892.04542291
4891.98196772
4891.90963602
4891.83550972
4891.77003454
4891.63894505
4891.58284464
4891.606346
4891.61137135
4891.58065443
4891.62699208
4891.72580648
4891.77873145
4891.84078935
4891.90180843
4891.95616388
4891.98972103
4892.00947212
4892.07489393
4892.04879821
4891.9934481
4891.90256984
4891.67732836
4891.08565936
4890.57939151
4890.28266515
4890.21783457
4890.24151632
4890.2416173
4890.21157613
4890.27469971
4890.56045733
4891.05415769
4891.62999658
4891.82053174
4891.90254058
4891.95045292
4891.97039434
4892.02229388
4891.99003634
4891.90733301
4891.46765009
4890.46008487
4889.26488967
4888.41885664
4888.03444918
4887.95728989
4887.97244689
4887.96698013
4887.94120916
4888.00097776
4888.44167123
4889.28955851
4890.4375844
4891.40687592
4891.81276162
4891.88842525
4891.91379714
4891.96234804
4891.92332999
4891.67992595
4890.45308926
4888.59606056
4886.8007275
4885.35694016
4883.72281759
4883.40473683
4883.49864138
4883.41702923
4883.14735277
4883.84670889
4885.53813703
4887.13668154
4888.76608195
4890.44149421
4891.61029164
4891.81900048