/*--------------------------------*- C++ -*----------------------------------*\
| =========                 |                                                 |
| \\      /  F ield         | OpenFOAM: The Open Source CFD Toolbox           |
|  \\    /   O peration     | Version:  3.0.1                                 |
|   \\  /    A nd           | Web:      www.OpenFOAM.org                      |
|    \\/     M anipulation  |                                                 |
\*---------------------------------------------------------------------------*/
FoamFile
{
    version     2.0;
    format      ascii;
    class       volScalarField;
    location    "9";
    object      k_0;
}
// * * * * * * * * * * * * * * * * * * * * * * * * * * * * * * * * * * * * * //

dimensions      [0 2 -2 0 0 0 0];

internalField   nonuniform List<scalar> 
7968
(
0.000204581936566
0.000248606036202
0.000282684087537
0.000303461205928
0.0003140823509
0.000317265345217
0.000315985624778
0.000311682786825
0.000306500163331
0.000302197782715
0.000301076550909
0.00030451602838
0.000309401782231
0.000313679853789
0.000315149437981
0.000312181307526
0.000302004917289
0.000281677771241
0.000247978966073
0.000204243202403
0.00024874120971
0.000389780204529
0.000477797648713
0.000524287116904
0.00054247062314
0.000542319536659
0.000532940377367
0.000519445485652
0.000506976699524
0.000499111939453
0.000497850437104
0.000503932222157
0.000515286557279
0.00052831801183
0.000537715875542
0.000538007070496
0.000520500028897
0.000474921316704
0.000387954547064
0.000247811835605
0.000282905097978
0.000477611585891
0.00059482099608
0.000655583221944
0.000678749085431
0.000678026464689
0.000665118049401
0.000647988544787
0.000632870015839
0.000623626820085
0.000622162258347
0.000629219611678
0.000642911215714
0.000659398102773
0.000672197939368
0.000673144166469
0.000650711162821
0.0005910687929
0.000475190537346
0.000281504576554
0.000303656689302
0.000523925121254
0.000655366737947
0.00072251721079
0.000746888698612
0.00074468572586
0.000729551951073
0.000711198247431
0.000698100485065
0.000690205534011
0.000688871438767
0.00069475375372
0.00070616899672
0.000723186725012
0.000738086038721
0.000740534314316
0.00071694783834
0.000651011787959
0.000521020662696
0.0003018592184
0.000314225116725
0.0005420072378
0.000678430843978
0.00074676933743
0.000769563476237
0.000771202934178
0.000767564351213
0.000757466406338
0.000746440658217
0.000738855528038
0.000737414226384
0.00074292991932
0.000752722124581
0.000762476587753
0.000765991515381
0.000762820346869
0.000740690535096
0.000673572061646
0.000538623560487
0.000312065353576
0.000317419465228
0.000541955661436
0.000677765870889
0.000744538840028
0.000770992017403
0.00078624721927
0.000787693214915
0.000779612754018
0.000768673730537
0.000760557059896
0.000758886477313
0.000764688375112
0.000774491815185
0.000782512111666
0.000781473453363
0.000766231542925
0.000738274124105
0.000672578748667
0.000538223234367
0.000315006809177
0.000316125453445
0.000532709112088
0.000665011936033
0.000729478136543
0.000767312230631
0.000787631040084
0.000790329018619
0.000781418488734
0.000768757293306
0.000759137773188
0.000757125770109
0.000764033233585
0.000775475670664
0.00078449916799
0.0007825982745
0.000762782553688
0.000723298861035
0.00065963274066
0.000528730372822
0.000313581344682
0.000311865801299
0.000519567496096
0.000648340121129
0.000711531301528
0.000757530601651
0.000779918448798
0.000781860918192
0.000770408519745
0.000754485968186
0.000742487133502
0.000740041862954
0.000748797942129
0.000763345303933
0.000775054585682
0.000774234610508
0.000752787852632
0.000706369102334
0.00064271527187
0.00051538701882
0.000309293008176
0.000306828090392
0.000507757167648
0.000634095231164
0.000698690997457
0.00074722125538
0.000769923422928
0.000770335117601
0.00075575903635
0.000736272376107
0.00072102006976
0.000717982131886
0.00072947740798
0.000747529399748
0.000762472648036
0.000763482159297
0.000742225692389
0.000694311542313
0.000628145529302
0.000503374090246
0.000304256576667
0.000302873408892
0.000500790797908
0.000626031505285
0.00069179318868
0.000740798495948
0.000763213272147
0.000762414255063
0.000745743017
0.000723303951798
0.000704992059614
0.000701357442986
0.000715569134334
0.000736677055004
0.000753795673615
0.000756201666084
0.00073544934272
0.0006872841711
0.000619787373945
0.000496227277566
0.00030024996231
0.000302725771511
0.000500652996522
0.000625923136257
0.000691697347524
0.000740728736682
0.000763172203822
0.000762399715062
0.000745749483459
0.000723322621595
0.000705013119525
0.000701380949038
0.000715596539035
0.000736696594562
0.000753795497004
0.000756172644124
0.000735383547123
0.00068717629626
0.000619639198113
0.000496031470588
0.000300047187996
0.000306519747365
0.00050738899653
0.000633783135688
0.000698423873713
0.000747021032096
0.000769796743094
0.000770276850789
0.000755755237783
0.00073630602462
0.000721071261454
0.000718040996922
0.000729535750186
0.000747559057032
0.000762453207247
0.000763391674392
0.000742045032439
0.000694028487519
0.000627766804557
0.000502894518403
0.000303847662874
0.000311462330006
0.000518997342108
0.000647806635369
0.000711124718181
0.00075717451426
0.000779659542584
0.000781696947917
0.000770321518735
0.000754456924078
0.000742496438663
0.000740063171863
0.000748804658827
0.0007633035598
0.000774947091006
0.000774033020194
0.000752468551075
0.000705919378595
0.00064213504712
0.000514703859687
0.00030877839546
0.000315686628914
0.000531990400083
0.000664277362486
0.00072884827583
0.000766776237459
0.000787213909667
0.000790021596893
0.000781204140374
0.000768614673816
0.000759039692377
0.000757038775495
0.00076392033128
0.000775308077347
0.000784254550005
0.000782249438098
0.000762305644226
0.000722728403113
0.000658878967405
0.000527917701539
0.000313035973
0.000317002202277
0.000541155610164
0.000676883099327
0.000743716459259
0.000770288528539
0.000785684179881
0.000787245654716
0.000779262728128
0.000768405992164
0.000760340367882
0.000758678911864
0.000764443831412
0.000774178752579
0.000782116723427
0.000780969360858
0.000765583100982
0.000737509895016
0.000671679326274
0.000537341292112
0.00031449583956
0.000313857436939
0.000541176230418
0.000677475520495
0.000745833284422
0.000768684557319
0.000770510498568
0.000766987047441
0.000756982665285
0.000746057601343
0.000738524324746
0.000737086760864
0.000742556859899
0.000752258833754
0.000761922382295
0.000765330029678
0.000762004511701
0.000739767028023
0.000672570123027
0.000537698943689
0.000311616183442
0.000303382804035
0.000523183014393
0.00065445895507
0.000721589885796
0.000745987993936
0.000743830975483
0.000728766744423
0.000710532315964
0.000697598184672
0.000689751438258
0.000688410590433
0.000694239530882
0.000705527695514
0.000722384772145
0.000737221036084
0.000739607677406
0.000715965517079
0.000650017819207
0.000520171657475
0.000301526292979
0.000282726656019
0.000477024734459
0.000594068104871
0.000654778256676
0.000677932911616
0.00067722480011
0.000664350181042
0.000647259949658
0.000632161991727
0.000622913228221
0.000621421872626
0.000628444726121
0.00064209190546
0.000658543910702
0.000671313601458
0.000672235312766
0.000649806479143
0.000590208448083
0.000474500426809
0.000281292703034
0.000248661955404
0.000389428178785
0.000477316698318
0.000523730330201
0.000541839853469
0.000541642627659
0.000532250704087
0.000518752991043
0.000506258775457
0.000498353219385
0.00049704810518
0.000503110095667
0.000514455271779
0.000527494315799
0.000536919064627
0.000537257009524
0.000519832375885
0.000474337115631
0.000387523090886
0.000247714001658
0.000204561672822
0.000248524769631
0.000282531950588
0.000303234305938
0.00031376912018
0.000316872217859
0.000315535538725
0.000311186104504
0.000305954299631
0.00030160282587
0.000300432263988
0.000303866062213
0.000308768205847
0.000313085750099
0.000314621477808
0.000311745877911
0.000301678416443
0.00028144416735
0.000247832398971
0.000204193703437
0.00024447616923
0.000351282852345
0.000430872952188
0.000481069407109
0.000508574437593
0.000519903847569
0.000521004791157
0.000516450148831
0.000510524723891
0.000506265492776
0.000505332785702
0.000508246897244
0.000513395614538
0.0005176980217
0.000516741636843
0.000505769277418
0.000478879758165
0.000429376908197
0.000350353609219
0.000243806909934
0.000351769801954
0.000680691817273
0.000864898669558
0.000968619999908
0.00101774107465
0.00103163660431
0.00102579951507
0.0010109798761
0.000995712598025
0.000985782751687
0.000984213870265
0.000991739249817
0.00100544657446
0.00101951121114
0.00102515799284
0.0010113156178
0.000962801105462
0.000860136374979
0.000677429032677
0.000349765520807
0.00043151025532
0.000864705807034
0.00110735884745
0.00124668632498
0.00131619249673
0.00133970742933
0.00133665833935
0.00132128691793
0.00130381083032
0.00129189799537
0.00128987170112
0.00129864627409
0.00131422903826
0.00132878518468
0.00133160283418
0.0013083148568
0.0012395216414
0.00110139699601
0.000860501537117
0.000428663929367
0.00048167288314
0.000968332587371
0.00124654345123
0.00140927762937
0.001494513618
0.00152867540449
0.00153389620283
0.00152543555945
0.0015098235186
0.00149815545847
0.00149579165414
0.00150380887701
0.00151751218432
0.0015257912167
0.00151972919986
0.00148593369324
0.00140144127927
0.00123986821833
0.000963418819877
0.00047823125846
0.000509126263167
0.00101751293247
0.00131600512827
0.00149437060948
0.00159273064732
0.00163930065228
0.00164553970341
0.00163313217728
0.001615640481
0.00160282692579
0.00159996327612
0.00160825859886
0.00162318308643
0.0016349258136
0.0016291985376
0.00158411558465
0.00148625465361
0.00130887551977
0.00101200256654
0.000505201531114
0.000520472207461
0.00103163548122
0.00133957164818
0.00152839089364
0.00163920821546
0.00168428865772
0.0016886603392
0.00167239369797
0.00165128725648
0.00163613271407
0.00163259980585
0.00164213548628
0.00166000836644
0.001675659789
0.00167253552908
0.00162935165115
0.00152027541157
0.00133220076662
0.00102568642397
0.000516190968993
0.000521633759809
0.00102607558292
0.00133671115245
0.0015335206689
0.00164571688328
0.00168911780229
0.00168964232412
0.00166771246204
0.00164105349393
0.00162228773412
0.00161798555982
0.00162987869605
0.00165253732576
0.00167380165481
0.00167520905216
0.00163478784267
0.0015264179792
0.00132920195738
0.00101978948559
0.000517126620942
0.000517284070871
0.00101181227399
0.00132200674707
0.00152593536066
0.00163456709608
0.00167450650341
0.001669652621
0.00164041984133
0.00160662606067
0.00158429843442
0.00157937118924
0.00159342262664
0.00162230549301
0.00165068847465
0.00165795214066
0.00162172424638
0.00151686171654
0.00131391171339
0.00100515549768
0.000512648831446
0.000511783948029
0.00099752640123
0.00130589975742
0.00151243984086
0.00161947205724
0.00165634803896
0.00164646263169
0.00161037175198
0.00157254312219
0.00154616419436
0.00154045202315
0.00155781699243
0.00158989706064
0.0016246887499
0.00163723563294
0.00160447422928
0.00150128723052
0.00129691210495
0.00099040112598
0.000507046004285
0.000508158992381
0.000988875553501
0.00129577357406
0.00150309649934
0.00160958044544
0.00164482881491
0.00163202395892
0.00159264011847
0.00155131449285
0.00152146747503
0.00151515210297
0.00153535808743
0.00157117634197
0.00160856713449
0.00162414602178
0.00159326397704
0.00149087958138
0.00128618246041
0.00098136056521
0.000503302390074
0.000508024555513
0.000988712777759
0.00129563144161
0.00150301067616
0.00160957014495
0.00164490159864
0.00163217580761
0.00159285995159
0.00155158314123
0.00152175794792
0.00151544955901
0.00153565134458
0.00157144245274
0.00160878063217
0.00162428560168
0.00159331197634
0.00149082854921
0.00128604865872
0.000981172833236
0.000503111781918
0.000511411559397
0.000997040993467
0.00130546509783
0.0015121586444
0.00161940410521
0.00165651235527
0.0016468502413
0.00161095656505
0.00157327105727
0.00154697331835
0.00154128681056
0.00155862788627
0.00159060621193
0.00162524547734
0.00163758915147
0.00160458051162
0.00150113023824
0.00129653834864
0.000989895163584
0.000506563887812
0.00051671814894
0.0010109925903
0.00132123789163
0.00152535435304
0.00163432882138
0.00167460755805
0.00167008558488
0.00164114422584
0.00160758336509
0.00158542277238
0.00158054398048
0.00159452996794
0.00162322509655
0.00165137780901
0.00165834282573
0.00162176571255
0.00151653429592
0.00131328890732
0.00100436870622
0.000511968974202
0.000520956003626
0.00102495615582
0.00133561425423
0.00153266248033
0.00164522263246
0.00168899406928
0.00168990223944
0.00166833142511
0.00164195906316
0.00162337557223
0.00161912679792
0.00163093243485
0.00165339078584
0.00167437323888
0.00167543585228
0.00163462751468
0.00152581674316
0.00132831511591
0.00101876144576
0.000516346469557
0.000519768067295
0.00103029369336
0.00133820037663
0.00152726978118
0.00163843541936
0.00168387298031
0.0016886238702
0.00167272467212
0.0016519204014
0.00163696070644
0.00163348087326
0.00164291447049
0.00166057164713
0.00167593377189
0.00167247070122
0.00162892107252
0.00151945629094
0.00133105486146
0.00102445302706
0.00051539257284
0.000508463766135
0.00101603352656
0.00131445412492
0.0014930372038
0.00159173183066
0.00163865240143
0.00164525754511
0.00163317982975
0.00161593683528
0.0016032882321
0.00160046754086
0.00160867203195
0.00162341051443
0.00163489841079
0.00162884367466
0.00158341226617
0.00148517681408
0.00130749517284
0.0010105932843
0.000504444995866
0.000481122360957
0.000966876730523
0.00124496910306
0.00140786599475
0.0014933957034
0.00152790704937
0.00153354877829
0.00152534107367
0.00150987797462
0.00149831707446
0.00149597656325
0.00150392309671
0.0015174915416
0.00152560229236
0.00151917154227
0.0014850188139
0.00140018001705
0.00123837089063
0.000961969789255
0.000477590167527
0.000431110205629
0.000863428198292
0.00110593411301
0.00124535333646
0.0013150699402
0.00133884378536
0.00133605984434
0.00132091039183
0.00130357129291
0.00129173003359
0.00128971072794
0.00129842951215
0.00131389384873
0.00132827018431
0.00133084149568
0.00130727671633
0.00123822961907
0.00109996324143
0.000859175518334
0.000428185028675
0.000351549946979
0.000679783106685
0.000863831661365
0.000967556703595
0.00101676284298
0.00103078188048
0.00102507175884
0.00101035769978
0.000995142232296
0.000985220277512
0.000983633971082
0.00099113085942
0.00100477760574
0.00101875707934
0.00102429534566
0.00101032421416
0.000961701460771
0.000859004312968
0.000676432910907
0.000349481358917
0.000244437387838
0.000350968827068
0.000430382968269
0.000480467663342
0.000507886752345
0.000519151739371
0.000520205807044
0.000515606908308
0.000509620510946
0.000505298796864
0.000504320683823
0.00050722895595
0.000512395159821
0.000516735678386
0.000515836379048
0.000504941861094
0.000478153676699
0.000428777103145
0.000349943541398
0.000243724735845
0.00028134092952
0.000432249135061
0.000543036151484
0.000613112244502
0.000652785191373
0.000671327497307
0.000676869613866
0.000675907593852
0.00067340500013
0.000671685187798
0.000670967182702
0.00067139641269
0.000672870377276
0.000673231450443
0.000667582714217
0.000649324249562
0.000610284978696
0.00054105296495
0.000431020232211
0.000280396395955
0.000433151464195
0.000856950572502
0.00109464066681
0.00123171036541
0.0013013188826
0.00132695248971
0.00132721261642
0.00131588472075
0.00130316399672
0.00129482044101
0.00129298506392
0.00129824508392
0.00130878511603
0.00131895063186
0.00131834936923
0.00129283192872
0.00122386892926
0.00108803297832
0.000852184568262
0.000429868306694
0.000544226941373
0.00109453803397
0.00140072827996
0.00158090264432
0.00167775237687
0.00171914825264
0.00172699767642
0.00171734466845
0.00170318934411
0.00169277296363
0.00169032675283
0.00169657649997
0.00170801036807
0.00171646582609
0.00170858880256
0.00166749589785
0.00157139128085
0.00139246887875
0.00108827045587
0.000539583090636
0.000614381454337
0.00123171580272
0.00158100390472
0.0017905607814
0.00191001585631
0.00196945866097
0.00199092655004
0.00198712271551
0.00197431289899
0.0019634523286
0.00196038097462
0.00196607707208
0.00197559618634
0.00197835248827
0.00195801318443
0.00189864764736
0.00177994382076
0.00157145034077
0.00122411752709
0.000608758926655
0.000654187630695
0.00130172290948
0.00167811179092
0.00191012383003
0.00205164451093
0.0021232887796
0.00214745380837
0.00214363898383
0.00212917922494
0.00211670985424
0.00211290176396
0.00211880222146
0.00212863003812
0.00213090088336
0.00210826614955
0.00203917369469
0.00189863416263
0.00166740738742
0.00129278239606
0.000647702178364
0.00067298074153
0.00132794509882
0.00171986560017
0.00196964189528
0.0021236193985
0.00219971624308
0.00222282005646
0.00221457655303
0.00219535747996
0.0021798415213
0.00217525651091
0.00218258958086
0.00219501787338
0.00220006799116
0.00217927694748
0.00210778496534
0.00195782459277
0.00170811806854
0.001317742009
0.000665753903014
0.000678862659344
0.00132890516271
0.00172835954215
0.0019920938494
0.00214918831196
0.00222529003721
0.00224356074557
0.00222750659761
0.00220114487646
0.0021813995096
0.00217621023621
0.0021863213184
0.00220343651633
0.00221355784108
0.00219743775332
0.00212869680751
0.00197688657942
0.00171516686081
0.00131753955964
0.000671088623308
0.00067836013804
0.00131858429457
0.00171991394645
0.00199012588313
0.00214852766804
0.00222219633893
0.00223363438642
0.00220835201469
0.00217360069896
0.00214886721442
0.00214318936423
0.00215707290982
0.00218055706626
0.00219746209227
0.00218726713615
0.00212302273571
0.00197194347988
0.00170530569473
0.00130619883188
0.00067029121885
0.000676418617579
0.00130731166697
0.00170767504579
0.00198012980631
0.00213830206479
0.00220881696003
0.00221404562703
0.00218064522267
0.0021382599155
0.00210855904599
0.00210229936357
0.002119899273
0.00214983048201
0.00217356519966
0.00216906002734
0.00210885099308
0.00195937770246
0.00169178175711
0.00129401568607
0.000668239155366
0.000675292040713
0.00130067880097
0.00169965789868
0.0019725175319
0.0021301358755
0.00219863188772
0.00220026659944
0.00216225115865
0.00211512981845
0.00208212696611
0.00207542828673
0.0020955059763
0.0021295106699
0.00215751361418
0.00215650186761
0.00209866059014
0.00195032357382
0.00168331100307
0.00128673308068
0.000667028187009
0.000675186699847
0.00130055504854
0.00169956846824
0.00197250441956
0.00213022268293
0.00219881791824
0.00220052914205
0.00216257179536
0.00211549007085
0.00208250692206
0.00207581315575
0.00209588451622
0.002129878346
0.00215786443261
0.0021568065132
0.00209886704749
0.00195040240605
0.00168326482025
0.00128660067228
0.000666849395336
0.000676074615933
0.00130687628087
0.00170736158794
0.00198005506824
0.00213853088461
0.00220936321066
0.00221486541119
0.00218168135862
0.00213945369819
0.00210984309888
0.00210361030754
0.00212117203543
0.0021510232228
0.00217464950447
0.00216995132376
0.00210942723399
0.00195958385911
0.00169164076273
0.00129362595795
0.000667748869204
0.000677782426723
0.0013177629873
0.00171929420999
0.00198989830178
0.0021488138951
0.00222308044487
0.00223509889477
0.00221027550071
0.00217582920446
0.00215127653297
0.00214565571219
0.00215945748698
0.00218275246488
0.00219935216013
0.00218868139449
0.00212383993322
0.00197216541634
0.00170502111339
0.00130554129461
0.000669565766339
0.00067813334072
0.00132771617001
0.00172739197202
0.00199162923526
0.00214935833957
0.00222628091194
0.00224545781112
0.00223016772791
0.00220432142652
0.00218486494658
0.00217975637374
0.00218973730942
0.00220650421218
0.00221602096473
0.00219907695397
0.00212949243241
0.00197695669831
0.00171464588223
0.00131661130843
0.000670229644578
0.000672211234973
0.00132649494486
0.00171859237947
0.0019688947212
0.00212350415812
0.00220038992427
0.00222445586519
0.0022171188616
0.00219853985095
0.00218338298648
0.00217889605529
0.00218606213827
0.00219803409332
0.00220230872653
0.00218059905073
0.00210827405596
0.00195757972594
0.00170729062797
0.00131655498203
0.000664854497053
0.000653468027705
0.00130012470454
0.00167661294714
0.00190908057454
0.00205123897199
0.00212351736953
0.00214838976307
0.00214530288597
0.00213141754009
0.00211929026676
0.00211558005389
0.00212132001581
0.00213072716435
0.00213236414468
0.00210903616669
0.00203924962089
0.00189804763408
0.00166625058588
0.00129135976156
0.000646838877655
0.000613785136907
0.0012301035692
0.0015794101822
0.00178930797956
0.00190928381877
0.00196936291431
0.00199135728538
0.00198808845081
0.00197571223227
0.00196512461891
0.00196212785432
0.00196768430797
0.00197687391529
0.00197916374575
0.00195829775577
0.00189829365137
0.00177898757525
0.00157002781832
0.00122255338949
0.000608007068873
0.000543802697587
0.00109306199149
0.00139920026153
0.00157957447146
0.00167678739713
0.0017186258378
0.00172689939213
0.00171765605301
0.00170382459181
0.00169361024937
0.00169121718897
0.00169733212091
0.0017085021222
0.00171659678442
0.00170830367626
0.00166672630729
0.00157017176152
0.00139095192795
0.00108673258589
0.000539007169187
0.00043293633277
0.000855816244365
0.00109337265626
0.00123049775838
0.00130027128005
0.0013261260344
0.00132660546658
0.00131548140073
0.00130290024765
0.00129462079931
0.0012927838498
0.00129798644514
0.00130838510674
0.00131837493616
0.00131756777433
0.00129180734773
0.00122262767922
0.00108667744288
0.00085092270468
0.000429520557341
0.000281370467283
0.000431772403002
0.000542312500862
0.000612247640918
0.000651818203098
0.000670283366935
0.000675764271215
0.000674746344777
0.000672167959532
0.000670375557696
0.000669603507282
0.00067001740991
0.000671501776924
0.000671908926424
0.000666332048472
0.000648163063974
0.000609241420448
0.000540170339711
0.000430410751734
0.000280366409837
0.000316176890465
0.000512060642294
0.000650986106087
0.00073805800039
0.000789278845728
0.000816582742982
0.000829708602109
0.000835903331276
0.000839571647363
0.000841625941283
0.000841174581085
0.000838176610358
0.000833504607227
0.000826413730252
0.000812814654351
0.000785540949027
0.000734842715223
0.000648751034796
0.000510911665297
0.000315067485167
0.000513593328756
0.00103399590108
0.00131910746884
0.00148599749144
0.00157600467644
0.00161596145899
0.00162715959817
0.00162543655203
0.00162094054581
0.00161757899664
0.00161565237196
0.00161554131639
0.00161737446284
0.00161745426489
0.00160564730898
0.00156577468151
0.00147644934549
0.00131089518195
0.0010279051939
0.000508847289665
0.000652894634033
0.00131928596257
0.00167562224703
0.00188557968843
0.00200254352624
0.00205850735319
0.00207677196535
0.00207627173298
0.00207039547756
0.00206442370863
0.00206152830493
0.00206246213003
0.00206468158411
0.00206299152387
0.00204464043309
0.00198934120893
0.00187330648376
0.0016647052236
0.00131063430414
0.000646246408055
0.000740241277568
0.00148683887563
0.00188623782564
0.00212394480943
0.00226355437308
0.00234074754008
0.00237056506527
0.00237261632049
0.00236358086169
0.00235433514119
0.00235021170155
0.00235206826292
0.00235526596267
0.00235034826216
0.00232195788416
0.0022471722735
0.00210900237842
0.00187256623172
0.00147542862588
0.000732045018698
0.00079194444875
0.00157798563816
0.00200415492048
0.00226427796582
0.00242695528365
0.00251390303146
0.00254659324835
0.00254624055539
0.00253300937836
0.00252059770474
0.00251547416995
0.00251819745628
0.00252235191911
0.00251663504365
0.00248493326518
0.00240425545653
0.00224613146964
0.00198741664304
0.00156348150343
0.000782246868648
0.000819902344629
0.00161932878464
0.00206119091369
0.00234256394732
0.0025163804932
0.00260688437006
0.00263560898061
0.00262798578974
0.0026081417196
0.00259201904013
0.00258626638071
0.00259082452717
0.00259775494336
0.00259407423483
0.00256308287785
0.00248169191879
0.00231901687159
0.00204109702974
0.0016016511796
0.000808872192604
0.000833692269803
0.00163193438988
0.00208073395043
0.00237539870722
0.00255578121067
0.00264405421375
0.0026642886538
0.00264622849497
0.00261846408277
0.00259827337909
0.00259243154817
0.00260015021218
0.00261177141295
0.00261254642215
0.00258503549516
0.00250587955782
0.00234330817002
0.00205729418532
0.00161141490778
0.000821739113276
0.000840453573787
0.00163172957642
0.00208186451531
0.00238261679695
0.00256449681998
0.00264758767519
0.00265801827822
0.00262891583635
0.00259282000027
0.00256835390688
0.0025627148923
0.00257454837487
0.00259233518948
0.0025991575115
0.00257685014007
0.00250182662618
0.00234204874384
0.0020565252469
0.00160906350235
0.000828187419261
0.000844506047243
0.00162899786437
0.0020783990952
0.00237883167954
0.00255926492281
0.00263727487597
0.00263957706435
0.00260148451635
0.00255808772649
0.00252953644163
0.00252379648158
0.00253925755605
0.00256331890294
0.00257645315297
0.00255954580335
0.00248896831676
0.0023326628813
0.00205063182066
0.00160473888217
0.000832355071681
0.000846863965946
0.00162758635424
0.00207542678443
0.00237434318964
0.00255320979379
0.00262821010506
0.00262602718307
0.00258290832392
0.00253519444368
0.00250408969404
0.00249820396308
0.00251584833544
0.00254367244412
0.00256082764381
0.00254739283829
0.00247963346188
0.00232556030005
0.0020456542922
0.00160224891489
0.000834795406155
0.000846801048081
0.00162755302272
0.00207544413541
0.00237447865926
0.0025534640814
0.00262855440548
0.00262640563366
0.00258329132616
0.00253557839011
0.00250447759766
0.0024985996998
0.00251626371553
0.00254413975575
0.00256137726506
0.00254798292144
0.00248016020954
0.00232592712418
0.00204581786657
0.00160223018994
0.000834635989151
0.000844256285483
0.00162876391299
0.00207839137689
0.00237920081137
0.00256004289634
0.0026384165622
0.00264095100523
0.00260299638987
0.0025596956952
0.0025312172373
0.00252552202898
0.00254100446224
0.00256513470526
0.00257836963665
0.00256142038107
0.00249053523948
0.00233369959255
0.00205105370351
0.00160463549695
0.000831898710877
0.000839994827436
0.0016311560625
0.00208172234116
0.00238315740599
0.00256585728884
0.00264978766618
0.00266090022146
0.00263226924457
0.00259647703452
0.00257221455291
0.00256667738064
0.00257850220218
0.00259627104519
0.00260293701003
0.00258018131868
0.00250436883013
0.00234358630176
0.00205704369192
0.00160881093837
0.000827505816245
0.000833106442289
0.00163103014979
0.00208032047858
0.00237593377965
0.0025575593023
0.00264727575938
0.00266885792457
0.00265186394372
0.00262482580024
0.00260506642182
0.00259938897356
0.00260702410844
0.00261828309344
0.0026183186429
0.00258964244925
0.00250901144101
0.00234496340078
0.00205770639654
0.00161094546482
0.000820936539526
0.000819321216956
0.00161823141934
0.00206050562833
0.00234278176915
0.00251796775038
0.00261028937488
0.00264089669053
0.00263485740862
0.00261611917599
0.00260062279997
0.00259507916084
0.00259943790029
0.00260567242621
0.00260068107546
0.0025678898499
0.00248455652312
0.00232024057008
0.00204115210865
0.0016009165375
0.000808045982448
0.0007914608543
0.00157681186468
0.00200323981939
0.00226405064422
0.00242780917065
0.00251633986586
0.00255093347568
0.0025522759767
0.00254021280981
0.00252847021853
0.00252357979611
0.00252606757899
0.00252940792405
0.0025221685347
0.00248854610966
0.00240609824369
0.00224665682568
0.00198697135948
0.00156246103191
0.000781476834399
0.000739909745171
0.00148565978449
0.001885162058
0.00212333603198
0.00226367939294
0.00234185343362
0.00237290460617
0.00237623002041
0.00236814136402
0.0023594552811
0.00235552105836
0.00235716627201
0.0023596662207
0.00235356170458
0.00232385585899
0.00224792543307
0.00210878766025
0.00187162010156
0.00147417637084
0.000731406679959
0.000652750853611
0.00131817449834
0.00167448669796
0.00188468132908
0.00200211183337
0.0020586877183
0.0020776283534
0.00207792754921
0.00207268768118
0.00206708777267
0.00206428833434
0.00206505546204
0.00206677431635
0.00206432538982
0.00204522607051
0.00198915340893
0.00187245253972
0.00166342996503
0.00130930181823
0.000645819656706
0.000513653714077
0.00103307778395
0.00131805779234
0.00148496337939
0.00157511659369
0.0016153218786
0.00162681968989
0.00162543964089
0.00162120978717
0.0016179922592
0.00161607467711
0.00161585873261
0.00161742302662
0.00161717410925
0.0016050345285
0.00156482220477
0.00147524525084
0.00130959870375
0.0010267393446
0.000508691027914
0.000316398729821
0.000511583902491
0.000650240205488
0.000737129724798
0.000788198483559
0.00081538970644
0.000828439236213
0.000834583772111
0.000838179726924
0.000840156063267
0.000839633789843
0.000836595916508
0.000831897240761
0.00082482492138
0.000811295517153
0.000784134698606
0.000733604382916
0.000647737440341
0.000510238379738
0.000315190478032
0.00035319099615
0.000598716614701
0.000765342423389
0.000870376707957
0.000936174571863
0.000976576706978
0.00100132504167
0.00101738952609
0.00102825620322
0.00103415618544
0.00103395905944
0.00102767554069
0.00101617306527
0.000999139262493
0.000973617503385
0.000933097269596
0.000867321499458
0.000763195030825
0.000598016269245
0.000352113085583
0.000600991819227
0.00122893566781
0.00156094348418
0.00175940953994
0.00187393139639
0.00193417166928
0.00196313830512
0.00197712570563
0.0019841936184
0.00198687742949
0.00198482725524
0.00197852836964
0.00196883825924
0.00195318596595
0.00192348228453
0.00186325469293
0.00174934330899
0.0015520763987
0.00122207079756
0.000594903771351
0.000768025940284
0.00156168969565
0.00196297016347
0.0021990993354
0.0023342117525
0.00240407293719
0.00243534958497
0.00244767059402
0.00244804644215
0.00244485924411
0.00244099482197
0.00243728382282
0.00243167467394
0.00241715210433
0.0023865322956
0.00231861482794
0.0021847805724
0.00195005586175
0.00155090307874
0.000759574941632
0.00087361866872
0.00176152140057
0.00220057151824
0.00245600143641
0.00260878412595
0.00269513758723
0.00273120039969
0.0027376111059
0.00273109470872
0.00272264002972
0.00271697185549
0.00271493045164
0.0027119773886
0.00269908159503
0.00266350428112
0.00258440304581
0.00243639747301
0.00218281788614
0.00174637317243
0.000863057951263
0.000940411125165
0.00187795436381
0.00233749094208
0.00261047053777
0.00278227909251