/*--------------------------------*- C++ -*----------------------------------*\
| =========                 |                                                 |
| \\      /  F ield         | OpenFOAM: The Open Source CFD Toolbox           |
|  \\    /   O peration     | Version:  3.0.1                                 |
|   \\  /    A nd           | Web:      www.OpenFOAM.org                      |
|    \\/     M anipulation  |                                                 |
\*---------------------------------------------------------------------------*/
FoamFile
{
    version     2.0;
    format      ascii;
    class       volScalarField;
    location    "3.2";
    object      ddt0(k);
}
// * * * * * * * * * * * * * * * * * * * * * * * * * * * * * * * * * * * * * //

dimensions      [0 2 -3 0 0 0 0];

internalField   nonuniform List<scalar> 
7968
(
-0.000670499201701
-0.000706081587558
-0.000729866707552
-0.000741144884649
-0.000745845665275
-0.000747795931714
-0.000748803489336
-0.000749972507086
-0.00075116863629
-0.000752204295504
-0.000752206872688
-0.000751173387988
-0.000749979861798
-0.000748814406995
-0.000747808179465
-0.000745856566407
-0.000741152721503
-0.000729871365261
-0.000706089226396
-0.000670502531775
-0.000706083153979
-0.000902248415724
-0.00102599681666
-0.00109245189146
-0.00112636473618
-0.00114247191022
-0.00114955862419
-0.00115364390219
-0.00115667044268
-0.00115855206783
-0.00115855814768
-0.00115668769704
-0.00115367193717
-0.00114959364097
-0.00114250699252
-0.00112639806721
-0.00109247759229
-0.00102601382277
-0.000902268756809
-0.000706093364063
-0.000729863770446
-0.00102598566664
-0.00121783883576
-0.00132570602857
-0.00138383016452
-0.00141282915351
-0.00142605540789
-0.00143276513118
-0.00143707241651
-0.00143951310255
-0.00143951771778
-0.00143708586775
-0.00143279373987
-0.00142609123232
-0.0014128663554
-0.00138386717013
-0.00132574048704
-0.00121786715816
-0.00102601195395
-0.000729877573533
-0.000741123711336
-0.00109239653516
-0.00132566625748
-0.0014596985403
-0.001532806718
-0.00156883797397
-0.00158468942496
-0.0015921356792
-0.00159688233608
-0.00159891495069
-0.00159891791706
-0.00159686192385
-0.0015921649905
-0.00158472672772
-0.00156886973517
-0.00153284208341
-0.00145973437416
-0.00132569996263
-0.00109242664729
-0.000741140440875
-0.000745793836254
-0.00112624797895
-0.00138374574208
-0.00153278225224
-0.00161310784169
-0.00165117039438
-0.00166645420669
-0.00167498194247
-0.00167872471495
-0.00168037818234
-0.00168038097197
-0.00167873460851
-0.00167499721996
-0.00166647117004
-0.0016511756161
-0.00161313267977
-0.0015328102792
-0.0013837742093
-0.00112627378365
-0.00074580980402
-0.000747707409795
-0.0011422956455
-0.00141272334096
-0.00156885273776
-0.00165127466711
-0.00169412535705
-0.00171445423082
-0.00172100871893
-0.00172294288599
-0.00172379031683
-0.00172379390453
-0.00172294886445
-0.00172100926759
-0.00171445076078
-0.00169412026779
-0.00165126017858
-0.00156885873105
-0.00141273409755
-0.00114230535139
-0.000747717727416
-0.00074867919665
-0.00114934115189
-0.00142596678653
-0.0015847892963
-0.00166643150794
-0.00171442156429
-0.00173216909106
-0.00173551377969
-0.00173530693752
-0.00173528676796
-0.00173528980499
-0.00173531331144
-0.00173551215036
-0.00173215160494
-0.00171439795632
-0.00166640880342
-0.00158477926238
-0.00142595426849
-0.00114933054287
-0.000748683268441
-0.00074981478737
-0.00115339834852
-0.0014327087527
-0.00159234562168
-0.00167493945454
-0.00172090412122
-0.00173537720463
-0.00173568888574
-0.00173345364263
-0.00173280760914
-0.00173280273358
-0.0017334452148
-0.00173566878704
-0.00173533971078
-0.00172085499634
-0.00167488880525
-0.00159231240851
-0.00143266494042
-0.00115335948823
-0.000749809715583
-0.000750991944134
-0.00115641336157
-0.00143704358709
-0.00159735133068
-0.00167870953967
-0.00172282619682
-0.00173507324091
-0.00173332242459
-0.0017306707407
-0.00173038903551
-0.00173037000269
-0.00173063995319
-0.00173329082551
-0.00173502089154
-0.00172275199984
-0.00167862353466
-0.00159730376411
-0.00143696419952
-0.00115634080998
-0.000750973511542
-0.000752030820675
-0.00115830898922
-0.00143948325643
-0.00159918068239
-0.00168047699406
-0.00172379077453
-0.00173515471841
-0.0017327511608
-0.00173041284538
-0.00173061187299
-0.00173060354993
-0.00173039486522
-0.00173272063558
-0.00173508752748
-0.00172369235201
-0.00168035871266
-0.00159908863453
-0.00143936716652
-0.00115820127004
-0.000751997034127
-0.000752061785663
-0.00115837452143
-0.00143955007251
-0.00159925557872
-0.00168057934658
-0.00172388097911
-0.001735231725
-0.00173280620218
-0.00173042734558
-0.00173061030951
-0.00173060608599
-0.00173042256727
-0.00173277156655
-0.00173514080252
-0.00172375059312
-0.00168042349531
-0.00159914520097
-0.00143940768258
-0.00115823694591
-0.000752013433495
-0.000751063997138
-0.00115657598314
-0.00143719694172
-0.00159738532898
-0.00167898875625
-0.0017230736478
-0.00173528945898
-0.00173349944576
-0.00173078760427
-0.00173048155628
-0.00173046831721
-0.00173076764301
-0.00173344705779
-0.00173518225539
-0.00172292554118
-0.00167881083267
-0.00159740211703
-0.00143707155328
-0.00115643881294
-0.000751013480945
-0.000749899179725
-0.0011536189914
-0.00143293128289
-0.00159258998321
-0.00167533415579
-0.00172127072509
-0.00173569975331
-0.0017359485523
-0.00173366274305
-0.00173300651148
-0.00173299092207
-0.00173362720252
-0.00173587746775
-0.00173558526984
-0.00172112804558
-0.0016751745345
-0.00159255349856
-0.00143283222113
-0.00115350181601
-0.000749856076813
-0.000748758745668
-0.00114957997543
-0.00142621867802
-0.0015850897969
-0.00166688458189
-0.00171487098236
-0.00173257131012
-0.00173583665899
-0.00173555857258
-0.00173552010376
-0.00173550244699
-0.00173551085853
-0.00173575254294
-0.00173245757482
-0.00171474768863
-0.00166677164911
-0.00158508729783
-0.0014261527495
-0.00114949048447
-0.000748726385933
-0.000747771857325
-0.0011425211968
-0.00141296911676
-0.00156913199279
-0.00165162501387
-0.00169461817871
-0.00171491901629
-0.00172141099997
-0.00172328899164
-0.00172411846137
-0.00172410062243
-0.00172323985386
-0.00172132967368
-0.00171482184023
-0.00169454967133
-0.00165174049891
-0.00156915983577
-0.00141292936945
-0.00114246064164
-0.000747753088214
-0.00074584169242
-0.00112644153918
-0.00138395715189
-0.00153301772337
-0.00161345328946
-0.00165165793776
-0.00166695178092
-0.00167545137805
-0.00167915768161
-0.00168079266475
-0.00168077395063
-0.00167911012055
-0.00167538226183
-0.00166688813651
-0.0016517440536
-0.00161352668923
-0.00153303837264
-0.00138393497674
-0.00112640736889
-0.000745834744782
-0.000741149288694
-0.00109253724076
-0.00132582581104
-0.00145987163207
-0.00153304059051
-0.00156918525765
-0.00158516787904
-0.00159267778482
-0.00159748127619
-0.0015994002872
-0.0015993933964
-0.0015974729259
-0.00159267227113
-0.00158518329187
-0.00156922994078
-0.00153307723138
-0.00145988165508
-0.00132581298027
-0.00109252138445
-0.000741151529222
-0.000729871312809
-0.00102607225689
-0.00121794712319
-0.00132582976026
-0.00138398153905
-0.00141302360739
-0.00142630533212
-0.00143304283506
-0.00143734026122
-0.00143974225772
-0.00143973608994
-0.00143733088142
-0.00143304118836
-0.00142631884657
-0.00141304897268
-0.00138400002451
-0.00132583206703
-0.00121793575666
-0.00102606302845
-0.000729874532986
-0.000706081875942
-0.000902291669194
-0.00102605667701
-0.00109252714314
-0.00112645057255
-0.00114256232373
-0.00114966064321
-0.00115374447513
-0.00115675526585
-0.001158617391
-0.00115861810928
-0.00115676498627
-0.00115376607234
-0.00114969028992
-0.00114259223655
-0.00112646566509
-0.00109252458124
-0.00102604074398
-0.000902277965304
-0.00070608244858
-0.000670492445145
-0.000706072931162
-0.000729854079457
-0.000741127984985
-0.000745825364162
-0.000747766385624
-0.000748766830083
-0.000749927096514
-0.000751115732408
-0.000752147613326
-0.000752149907404
-0.000751123055504
-0.000749939015474
-0.000748781058773
-0.000747779192346
-0.000745832465685
-0.000741129881023
-0.00072985027668
-0.00070607081222
-0.000670494025241
-0.000704392466811
-0.00089957150397
-0.00102249139624
-0.00108753859452
-0.00111934536587
-0.00113284294932
-0.00113731463706
-0.00113857147039
-0.00113915040891
-0.00113962632978
-0.0011396290642
-0.00113915702184
-0.00113858114382
-0.00113732620572
-0.00113285160372
-0.00111934808585
-0.0010875332083
-0.00102247888984
-0.000899564133696
-0.000704394525485
-0.000899551275095
-0.00172995944292
-0.00209904705707
-0.00229968286561
-0.00240703894678
-0.00245912390584
-0.00248016829501
-0.00248674337375
-0.00248828157617
-0.00248865741967
-0.00248865485686
-0.00248827852841
-0.00248674360723
-0.00248017494364
-0.0024591344957
-0.00240705036579
-0.0022996857709
-0.00209903559634
-0.00172993569824
-0.000899540020791
-0.00102245845285
-0.0020990093448
-0.00258254994193
-0.00285664046099
-0.00301138979294
-0.00309265432496
-0.00313044427399
-0.00314579910526
-0.00315171068531
-0.00315354915498
-0.00315354305981
-0.00315169005003
-0.00314578700543
-0.00313043651598
-0.00309265181904
-0.00301139946033
-0.00285665780448
-0.00258256423267
-0.00209900699536
-0.00102244983506
-0.00108747325287
-0.00229955430321
-0.00285655414628
-0.00318024949895
-0.00336731709186
-0.00346732462381
-0.00351513938834
-0.00353418554703
-0.0035371207341
-0.003533274918
-0.00353325521213
-0.00353690806308
-0.00353415690488
-0.00351511012449
-0.00346728844439
-0.00336731113817
-0.00318026995996
-0.0028565834884
-0.0022995653594
-0.00108747247809
-0.00111922851971
-0.00240680344365
-0.00301121398543
-0.0033672516379
-0.0035734666649
-0.00367962549895
-0.00373187677748
-0.00375098433621
-0.00375746533713
-0.00375896909976
-0.0037589596214
-0.00375743313652
-0.00375094994047
-0.00373181573418
-0.00367950866423
-0.00357341275973
-0.00336725316989
-0.00301123791941
-0.00240681136635
-0.00111922853253
-0.00113266949767
-0.00245881007434
-0.00309243952312
-0.00346728879866
-0.00367971340928
-0.00379232247457
-0.00383970161753
-0.00385544227318
-0.0038595575299
-0.00386040022891
-0.00386039632205
-0.00385954349674
-0.00385540883502
-0.00383964169656
-0.00379221642111
-0.00367957598212
-0.00346724632102
-0.0030924351284
-0.00245879438696
-0.00113266114844
-0.00113709381223
-0.00247982048025
-0.00313025062877
-0.00351517900302
-0.00373202378352
-0.00383972491095
-0.00388177825275
-0.00389221483786
-0.00389278688126
-0.00389216114811
-0.0038921580017
-0.00389278209635
-0.00389218624804
-0.00388171330768
-0.00383964176168
-0.00373192748811
-0.00351511685101
-0.00313020953563
-0.00247977126712
-0.00113707177281
-0.00113831344226
-0.00248639150772
-0.00314565085313
-0.0035343235034
-0.00375116937987
-0.00385535497093
-0.00389193105708
-0.00389722984376
-0.00389354175813
-0.00389172713825
-0.00389170211519
-0.0038934908935
-0.00389713115789
-0.00389181540777
-0.00385524087948
-0.00375106359166
-0.00353422802953
-0.00314556118626
-0.00248629840993
-0.00113827113733
-0.00113887742868
-0.00248793713413
-0.00315165757368
-0.00353892799716
-0.0037577954294
-0.00385941407695
-0.00389218965576
-0.00389314581842
-0.00389005126504
-0.00388992095221
-0.00388985554761
-0.00388992306809
-0.00389300882677
-0.00389204373318
-0.003859269014
-0.0037576643868
-0.00353891167339
-0.00315152001166
-0.00248779408736
-0.00113880719414
-0.00113937397358
-0.0024883710043
-0.00315348404304
-0.00353349122162
-0.00375934940814
-0.00386042279573
-0.00389169095346
-0.00389139907379
-0.00388987519266
-0.00389115379704
-0.00389111307342
-0.00388978600247
-0.00389128317357
-0.00389152633358
-0.00386025496407
-0.00375918916079
-0.00353330676469
-0.00315329393212
-0.0024881800131
-0.0011392721217
-0.00113943475396
-0.00248849275832
-0.00315360339961
-0.00353357777425
-0.0037594820019
-0.00386056272502
-0.00389181819907
-0.00389147118047
-0.0038898415447
-0.00389108962753
-0.0038910678306
-0.00388981087524
-0.00389138539796
-0.00389163916756
-0.00386037457239
-0.00375930474882
-0.0035333854707
-0.00315337899925
-0.00248826687504
-0.00113930544952
-0.00113903264527
-0.00248826653763
-0.00315194293485
-0.00353813312692
-0.00375812424892
-0.0038598295504
-0.00389260090984
-0.00389347632041
-0.00389022798854
-0.00389005175467
-0.00389001953737
-0.00389018309854
-0.00389337766076
-0.00389241995097
-0.00385964961169
-0.00375799977256
-0.00353880462747
-0.00315175693328
-0.00248804474982
-0.00113889836767
-0.00113852519701
-0.00248686882384
-0.00314612480263
-0.0035347904689
-0.00375174153906
-0.00385602322432
-0.00389260226756
-0.00389778950452
-0.00389400311893
-0.00389217793788
-0.00389214612671
-0.00389393595984
-0.00389766186385
-0.00389242657573
-0.00385587257793
-0.00375162728846
-0.00353465628982
-0.00314595095842
-0.00248668271657
-0.00113840356973
-0.00113732710315
-0.00248039868164
-0.00313083735121
-0.00351576649331
-0.00373268225628
-0.00384055260934
-0.00388265353025
-0.00389296514162
-0.00389338518229
-0.00389272265486
-0.00389269008543
-0.00389330020088
-0.00389282133757
-0.00388249321214
-0.00384045645686
-0.00373264095049
-0.0035156815175
-0.00313070995781
-0.00248025282765
-0.00113722486325
-0.00113289695307
-0.00245943460981
-0.00309308275822
-0.00346790053616
-0.00368031141512
-0.0037931504846
-0.00384069359477
-0.00385639499313
-0.00386041651995
-0.00386122295244
-0.0038611927568
-0.00386033874848
-0.00385627694514
-0.00384058942864
-0.00379312783442
-0.00368029054596
-0.00346786260469
-0.00309299917873
-0.00245933111823
-0.00113281751283
-0.00111943478358
-0.00240742921473
-0.00301187033987
-0.00336790937149
-0.00357416613479
-0.00368044102616
-0.00373290150334
-0.00375206994426
-0.00375855025935
-0.00375998418329
-0.003759952519
-0.00375847780415
-0.00375197580314
-0.00373283459142
-0.00368038928254
-0.00357416676988
-0.00336788199358
-0.00301181927073
-0.00240736513559
-0.00111937737738
-0.00108764011052
-0.00230013138355
-0.00285717987346
-0.00318089487706
-0.00336801278142
-0.00346811797811
-0.00351608198645
-0.00353518701339
-0.0035385832141
-0.0035342040727
-0.00353417021585
-0.00353855174904
-0.00353509333303
-0.00351600752248
-0.00346808556364
-0.00336799819301
-0.00318087469319
-0.00285715208462
-0.00230009794618
-0.00108760034914
-0.00102257959627
-0.00209950832123
-0.00258311463086
-0.0028572405085
-0.00301203026751
-0.00309335535176
-0.00313121957866
-0.00314660471255
-0.00315251797692
-0.00315428324174
-0.00315426088101
-0.00315246801933
-0.00314654782152
-0.00313117797813
-0.00309333993751
-0.00301202491984
-0.00285723091492
-0.00258309638098
-0.00209948502738
-0.00102254727216
-0.000899620624756
-0.00173033293715
-0.00209949342219
-0.00230017201931
-0.0024075582364
-0.00245966988065
-0.00248074792478
-0.00248733609259
-0.00248885850334
-0.00248921198864
-0.00248920685929
-0.00248885275032
-0.00248733963319
-0.0024807657371
-0.00245969847945
-0.0024075802494
-0.00230017511977
-0.00209947419914
-0.00173030226826
-0.000899594887897
-0.00070439065822
-0.000899642472927
-0.00102259006215
-0.00108764754791
-0.00111945802927
-0.00113295226536
-0.001137422039
-0.00113866937406
-0.00113923419542
-0.00113969930144
-0.0011396977339
-0.0011392346296
-0.00113867196688
-0.00113742372131
-0.00113294859303
-0.00111944473064
-0.00108762485557
-0.00102256379034
-0.000899626116218
-0.000704390615733
-0.000724654894045
-0.00101051367318
-0.00119450728725
-0.00129700784883
-0.00135150678728
-0.00137780957627
-0.00138835690206
-0.00139125446464
-0.00139114270176
-0.00139050273946
-0.0013905074381
-0.00139115594145
-0.001391276201
-0.00138838391615
-0.00137783391092
-0.00135152238292
-0.00129700883175
-0.00119449266002
-0.00101050114202
-0.000724658618418
-0.00101047456539
-0.00206501747748
-0.00254065176012
-0.00281083814903
-0.00296508146806
-0.00304725833519
-0.00308589996171
-0.00310099166027
-0.00310556503006
-0.00310650971529
-0.0031065088063
-0.00310556734313
-0.00310100910794
-0.00308593617768
-0.00304731060343
-0.00296514271877
-0.00281089071069
-0.00254067938052
-0.00206501308528
-0.0010104556095
-0.00119444579668
-0.00254057697703
-0.00314619551562
-0.00350173762569
-0.00371354217885
-0.00383325308686
-0.00389480610886
-0.00392221715223
-0.00393391308605
-0.00393853024957
-0.00393852327208
-0.00393390465753
-0.00392220719988
-0.00389481314041
-0.00383328382686
-0.00371359430176
-0.00350180386164
-0.00314626059646
-0.00254060997176
-0.00119443169132
-0.00129690023668
-0.00281063557423
-0.00350161964062
-0.00391498185059
-0.00416555223031
-0.00430869201294
-0.0043823281662
-0.00440735150142
-0.0044231455341
-0.00443195151096
-0.00443195498477
-0.00442320805122
-0.00440732138498
-0.00438230452401
-0.00430870534833
-0.00416559474081
-0.00391505599988
-0.00350170978174
-0.00281069595236
-0.00129690151836
-0.00135133278864
-0.00296474176148
-0.00371330640998
-0.00416545616825
-0.00443935756504
-0.00459177221473
-0.00466998011927
-0.00470592592144
-0.00472057790951
-0.00472559978657
-0.00472559205079
-0.0047205747419
-0.00470589374258
-0.00466994639243
-0.00459178221589
-0.00443939939616
-0.00416552669577
-0.00371339925292
-0.0029648043572
-0.00135133949308
-0.00137756403245
-0.00304683195518
-0.00383296389937
-0.00430857713982
-0.00459173184232
-0.00475198429088
-0.00484382433025
-0.00489227005304
-0.00490920701324
-0.00491227699147
-0.0049123030479
-0.00490928886929
-0.00489234819651
-0.00484384025027
-0.00475197071956
-0.00459175650626
-0.00430862580078
-0.00383303168506
-0.00304686893421
-0.00137756275457
-0.00138805895522
-0.00308545350295
-0.00389454658867
-0.00438229849122
-0.00466999744921
-0.00484401957011
-0.00495818363403
-0.0050187544177
-0.0050367853956
-0.00503813234302
-0.00503822050638
-0.00503706233102
-0.00501906545154
-0.00495838040074
-0.00484402814592
-0.00466996708099
-0.00438228986043
-0.00389456665235
-0.00308544945697
-0.00138804094
-0.00139092134711
-0.00310055810147
-0.00392199502689
-0.00440721363549
-0.00470607775508
-0.00489269924923
-0.00501863523717
-0.00508237914091
-0.00510085303087
-0.00510280613619
-0.00510291952539
-0.00510121745627
-0.00508276631156
-0.00501894760789
-0.00489274562391
-0.00470601535719
-0.00440715171568
-0.00392195904792
-0.00310050166124
-0.00139087690716
-0.00139080010796
-0.00310515199612
-0.00393364227291
-0.0044220744229
-0.00472069086269
-0.00490946164781
-0.00503585879529
-0.00509957069615
-0.00512047945529
-0.00512508287379
-0.00512515726593
-0.00512074339717
-0.00509993019509
-0.00503615243518
-0.00490948471637
-0.00472058578584
-0.00442188916023
-0.00393353936431
-0.00310503584567
-0.00139071811307
-0.00139019246892
-0.00310613188599
-0.00393835088546
-0.00443183719744
-0.00472584721969
-0.00491220811094
-0.00503620227609
-0.00509996207708
-0.00512329481323
-0.00512983083152
-0.00512991225315
-0.00512356617148
-0.00510033586005
-0.00503642997028
-0.00491216207245
-0.00472570455516
-0.00443166461329
-0.00393819236393
-0.00310595397048
-0.00139006550633
-0.00139028136436
-0.00310627617775
-0.00393848147523
-0.00443204436467
-0.00472593442223
-0.00491198602868
-0.0050354115338
-0.00509872127212
-0.0051218275539
-0.00512833739177
-0.00512843918278
-0.00512214828538
-0.00509911461567
-0.00503558977496
-0.00491187651456
-0.00472575253341
-0.00443178484676
-0.00393828496322
-0.00310606182241
-0.0013901187138
-0.00139103106742
-0.00310553670521
-0.00393403283766
-0.00442310800955
-0.00472100307941
-0.00490879347164
-0.00503353215061
-0.00509600049618
-0.00511641198117
-0.00512095637717
-0.00512105433474
-0.00511673914062
-0.00509639300157
-0.00503369892481
-0.00490868265122
-0.00472078009123
-0.00442235822802
-0.00393382661093
-0.00310534492653
-0.00139086426555
-0.00139124863217
-0.00310114802265
-0.00392253043863
-0.00440779217446
-0.00470664382927
-0.00489243232422
-0.00501633658275
-0.00507836501591
-0.00509629091251
-0.00509819535201
-0.00509828835772
-0.00509658983265
-0.00507871641046
-0.00501649707476
-0.00489235021399
-0.00470654129874
-0.00440762908839
-0.00392240942083
-0.00310099734445
-0.00139109817897
-0.00138843704968
-0.00308619707516
-0.00389523370358
-0.00438292656479
-0.00467088954038
-0.00484492658315
-0.00495797263366
-0.00501707900509
-0.00503453108068
-0.00503582024137
-0.00503588083374
-0.00503472242358
-0.00501727737821
-0.00495801651972
-0.00484484156621
-0.0046708464005
-0.00438289655617
-0.00389516688814
-0.0030860937556
-0.00138831191748
-0.00137795565984
-0.00304768280552
-0.00383379450504
-0.00430936947327
-0.00459268343083
-0.00475326538354
-0.00484533339548
-0.00489347438003
-0.00491010181033
-0.00491308155234
-0.00491308482106
-0.00491013233665
-0.00489347679131
-0.00484525738601
-0.00475318757347
-0.00459264109196
-0.00430936091203
-0.00383377255813
-0.00304762957343
-0.00137786113985
-0.00135171555653
-0.00296564790575
-0.00371421333977
-0.00416633236619
-0.00444031502518
-0.00459286009905
-0.00467119314047
-0.00470718805988
-0.00472173939455
-0.00472672008228
-0.00472668465653
-0.00472165562836
-0.0047070780163
-0.00467109213975
-0.00459280715537
-0.00444032014209
-0.00416636208112
-0.00371423792312
-0.00296564494055
-0.00135165318178
-0.00129724887068
-0.00281153734739
-0.00350255617141
-0.00391591656338
-0.00416652252723
-0.00430974189343
-0.00438345464455
-0.00440848149816
-0.00442391940887
-0.00443291262923
-0.00443287063013
-0.00442378590793
-0.00440836535873
-0.00438338084198
-0.00430972449399
-0.0041665566031
-0.00391597166592
-0.00350261205092
-0.00281157108577
-0.00129721061639
-0.00119473588994
-0.00254142671163
-0.00314712110604
-0.00350269502467
-0.00371453873093
-0.00383431245167
-0.00389592510949
-0.00392336182007
-0.00393500399197
-0.00393958476413
-0.00393956112898
-0.00393494951015
-0.0039233135094
-0.0038959107803
-0.00383434713806
-0.00371460884822
-0.00350277233426
-0.00314718807366
-0.00254147023618
-0.00119470870872
-0.00101066888218
-0.00206572329262
-0.00254146666073
-0.00281170677416
-0.00296598861014
-0.00304821094141
-0.00308691102897
-0.00310203810558
-0.00310660729945
-0.00310752612417
-0.0031075268465
-0.00310662196121
-0.00310208050627
-0.00308699011147
-0.00304832379459
-0.00296611225891
-0.00281181016381
-0.00254153385713
-0.00206575532254
-0.00101065005259
-0.000724680810006
-0.00101071707996
-0.00119478322573
-0.0012973132363
-0.00135182546206
-0.00137813674779
-0.00138869917412
-0.00139159954577
-0.00139148055322
-0.00139083212183
-0.00139083121736
-0.0013914850654
-0.00139161281107
-0.00138871880117
-0.00137815678376
-0.00135183786871
-0.00129731215305
-0.00119477450283
-0.00101071402315
-0.000724684242197
-0.0007252658283
-0.00103962627669
-0.00124827357212
-0.00137056694999
-0.00144036417045
-0.00147752535089
-0.00149390502505
-0.00149742913306
-0.00149444764629
-0.00149084449876
-0.00149085617157
-0.00149448219069
-0.00149748494922
-0.00149397407344
-0.0014775949733
-0.00144042371553
-0.00137060624649
-0.00124828643936
-0.0010396346773
-0.000725274829668
-0.00103956291354
-0.00217935571289
-0.00270972125855
-0.00302687233114
-0.00322000508398
-0.00333278332023
-0.00339270686594
-0.00341982063497
-0.00342909665125
-0.00343091128238
-0.00343091783409
-0.00342912398958
-0.00341988043627
-0.00339279717389
-0.00333289936436
-0.00322014129931
-0.00302701763332
-0.00270983352957
-0.00217941736919
-0.0010395558031
-0.00124817460945
-0.0027096095567
-0.0033837778412
-0.00379769951972
-0.004059071486
-0.00421764149095
-0.00430648917151
-0.00435080722976
-0.00437056334492
-0.00437761383692
-0.00437761166478
-0.0043705709728
-0.0043508381547
-0.00430654577091
-0.00421774116066
-0.00405920820045
-0.00379786126485
-0.00338393368754
-0.00270972049107
-0.00124817877194
-0.00137040960577
-0.00302660825926
-0.00379755591933
-0.00427845115692
-0.00458439977057
-0.00477262846569
-0.00488503063879
-0.00494333805508
-0.00496867876897
-0.00497728966287
-0.00497729925
-0.00496871795149
-0.00494338974826
-0.00488505212514
-0.00477270298289
-0.00458451606199
-0.00427861666814
-0.00379774285144
-0.00302675279897
-0.00137043833593
-0.00144014529044
-0.00321961726921
-0.00405881087923
-0.00458429536227
-0.00492273538552
-0.0051472093848
-0.00529967731109
-0.00538457628197
-0.00541653190338
-0.00542449353386
-0.00542459303112
-0.00541683270941
-0.00538503062005
-0.00530010203392
-0.00514747046586
-0.00492288045733
-0.00458445594215
-0.00405900144302
-0.00321975608001
-0.00144018597744
-0.00147723930897
-0.00333233350139
-0.00421734163135
-0.00477246991487
-0.00514730162714
-0.00542605200463
-0.00561820003555
-0.00571961720877
-0.00575348281384
-0.00575926362737
-0.00575951502691
-0.00575423310815
-0.00572072908363
-0.00561940707343
-0.00542692033942
-0.00514765502739
-0.00477262457401
-0.00421750665785
-0.0033324450808
-0.00147727654926
-0.00149357787637
-0.00339227463652
-0.00430624126466
-0.00488510351335
-0.00529990328158
-0.00561811116493
-0.00582866082944
-0.00593370358752
-0.00596556507875
-0.00596906073246
-0.00596944382284
-0.0059667158982
-0.00593532810669
-0.00583048983967
-0.00561965940566
-0.00530064407646
-0.00488524545312
-0.00430636041702
-0.00339234982685
-0.00149360366363
-0.00149707937922
-0.00341943328643
-0.0043506064861
-0.00494362310769
-0.00538480648288
-0.00571930770327
-0.00593306403069
-0.00603577393203
-0.00606590491042
-0.00606971377551
-0.00607016348093
-0.00606724026508
-0.00603759384614
-0.0059351792482
-0.00572121583347
-0.00538588578797
-0.00494389967681
-0.00435068036016
-0.00341946395385
-0.00149708527795
-0.00149410240472
-0.00342873627277
-0.00437034946148
-0.00496886356844
-0.00541607199601
-0.00575153950702
-0.00596233470196
-0.00606263656605
-0.00609412340256
-0.00610027889426
-0.00610069034191
-0.00609534988976
-0.00606444744931
-0.00596444077097
-0.0057534665852
-0.00541721227124
-0.00496915334145
-0.00437036347029
-0.00342871086733
-0.0014940748155
-0.00149053914972
-0.00343057696167
-0.00437738701454
-0.00497714172888
-0.00542256688641
-0.00575440419226
-0.00596169898408
-0.00606148385706
-0.0060949898528
-0.00610290149455
-0.00610331385191
-0.00609620757229
-0.00606328706403
-0.00596368145207
-0.00575618201807
-0.00542360532608
-0.00497738282803
-0.00437735132233
-0.00343049301475
-0.00149046695138
-0.00149064004816
-0.00343072082421
-0.00437750828321
-0.0049769826877
-0.00542144101988
-0.00575196160196
-0.00595814252541
-0.00605725332902
-0.00609045593414
-0.00609832904948
-0.00609875918265
-0.00609172660144
-0.00605906868678
-0.00596003649136
-0.00575360386227
-0.00542239732772
-0.00497718123299
-0.00437743087278
-0.00343060019178
-0.00149053308519
-0.00149437231901
-0.00342912760567
-0.00437068568785
-0.00496836987716
-0.00541267410698
-0.00574423507986
-0.00595185598715
-0.00605032023411
-0.0060811137544
-0.0060871844337
-0.00608761280438
-0.00608240040535
-0.00605213614182
-0.0059537256704
-0.005745871022
-0.00541366566313
-0.00496859193652
-0.00437061909348
-0.00342902574439
-0.00149425833952
-0.00149747644811
-0.0034200369076
-0.00435110475871
-0.00494322107183
-0.00538094756137
-0.00571038015528
-0.00592001868719
-0.00602026684566
-0.0060496704483
-0.00605340295807
-0.00605383011419
-0.00605094384249
-0.00602205836141
-0.00592189092062
-0.00571201209939
-0.00538192701269
-0.00494351120317
-0.00435110230839
-0.00341997568341
-0.00149737085759
-0.00149404864346
-0.00339304377247
-0.00430685023176
-0.00488521993719
-0.00529778406684
-0.00561151397019
-0.00581820626844
-0.00592085396184
-0.00595195328152
-0.00595538714402
-0.00595577695965
-0.00595311103266
-0.00592247854368
-0.0058198870522
-0.005612914442
-0.00529861052435
-0.00488559504192
-0.00430691428633
-0.00339302924112
-0.00149396379146
-0.00147774884393
-0.00333326052756
-0.004218192217
-0.0047731566546
-0.0051473338903
-0.00542319691988
-0.00561195208241
-0.00571132902962
-0.00574448879947
-0.00575011887922
-0.00575040141824
-0.0057453464367
-0.00571253591269
-0.00561313399232
-0.00542411122319
-0.0051477932592
-0.00477338132745
-0.00421828771787
-0.00333329731947
-0.00147769411671
-0.00144067494318
-0.00322067027359
-0.0040598514331
-0.00458516892025
-0.00492361557471
-0.00514768464102
-0.00529847124919
-0.00538186203889
-0.00541326391626
-0.00542107705138
-0.0054212004792
-0.00541366335522
-0.00538243231277
-0.00529899976543
-0.00514804804065
-0.00492386633209
-0.00458534755511
-0.00405998488435
-0.00322076101475
-0.00144065634825
-0.00137093796741
-0.00302774402029
-0.00379872082881
-0.00427956306802
-0.00458543794021
-0.00477360210779
-0.00488591656529
-0.00494422950592
-0.00496944139909
-0.00497794188473
-0.00497794026617
-0.00496946121268
-0.00494428704757
-0.00488599332381
-0.00477371831209
-0.00458560119629
-0.0042797339031
-0.00379888947127
-0.00302787525861
-0.00137094397313
-0.00124866043777
-0.00271075071859
-0.0033849899041
-0.00379894483307
-0.00406034369567
-0.00421894261094
-0.00430780939692
-0.00435218856583
-0.00437191144827
-0.0043788677666
-0.00437884524655
-0.0043718674951
-0.00435216822819
-0.00430785686703
-0.00421907021916
-0.00406052758822
-0.00379914711051
-0.00338518164918
-0.00271090023679
-0.00124867578809
-0.00103993730927
-0.00218038450884
-0.00271086153961
-0.00302806331345
-0.00322124406187
-0.00333409996677
-0.00339413649106
-0.00342134603719
-0.00343065669246
-0.00343246299143
-0.00343247443103
-0.0034307041147
-0.00342144371139
-0.0033942982651
-0.00333432211203
-0.00322149675759
-0.00302830375138
-0.00271105719605
-0.00218052072154
-0.00103995170596
-0.00072535103427
-0.00104000936365
-0.00124875384067
-0.001371081155
-0.00144090008109
-0.00147809748893
-0.0014945392614
-0.00149811344205
-0.001495163102
-0.00149157597104
-0.00149158480174
-0.00149519635862
-0.00149817289116
-0.00149462004038
-0.00147819010037
-0.0014409890296
-0.00137115081439
-0.00124880513383
-0.00104004947422
-0.000725368074705
-0.000703930955973
-0.00099558174718
-0.00119984124001
-0.00132475285307
-0.0013979857109
-0.00143759508872
-0.00145243669045
-0.0014481861203
-0.00143392302238
-0.00142197691936
-0.00142200334755
-0.00143399984165
-0.00144830834445
-0.00145258555265
-0.0014377506287
-0.00139812863655
-0.00132486977506
-0.00119992558939
-0.000995640783204
-0.00070394927769
-0.000995512226727
-0.00212882527136