/*--------------------------------*- C++ -*----------------------------------*\
| =========                 |                                                 |
| \\      /  F ield         | OpenFOAM: The Open Source CFD Toolbox           |
|  \\    /   O peration     | Version:  3.0.1                                 |
|   \\  /    A nd           | Web:      www.OpenFOAM.org                      |
|    \\/     M anipulation  |                                                 |
\*---------------------------------------------------------------------------*/
FoamFile
{
    version     2.0;
    format      ascii;
    class       volScalarField;
    location    "3.2";
    object      ddt0(epsilon);
}
// * * * * * * * * * * * * * * * * * * * * * * * * * * * * * * * * * * * * * //

dimensions      [0 2 -4 0 0 0 0];

internalField   nonuniform List<scalar> 
7968
(
-0.00058462729156
-0.000648684485349
-0.000694857818308
-0.000719098585691
-0.000729772563112
-0.000733259809846
-0.000733416155348
-0.000732572657222
-0.000731621925169
-0.000731018910108
-0.00073102129419
-0.00073162627164
-0.0007325810891
-0.000733431257266
-0.000733279958584
-0.000729795212537
-0.0007191197041
-0.000694875447919
-0.000648704570592
-0.000584636918457
-0.000648680438402
-0.00098176258428
-0.00121496365134
-0.0013479430374
-0.00141536971102
-0.00144339307732
-0.0014505607568
-0.00144996515869
-0.00144827198607
-0.00144744914849
-0.00144744927856
-0.00144827444464
-0.00144997521936
-0.00145058065724
-0.0014434231696
-0.00141541496362
-0.0013479930989
-0.00121500916746
-0.000981810903
-0.000648701881438
-0.000694841482345
-0.00121493444549
-0.0015961746468
-0.00182468783896
-0.00194784171436
-0.00200365223288
-0.00202160307478
-0.00202377215572
-0.00202261942069
-0.00202197458747
-0.00202196496547
-0.0020225937136
-0.00202375074699
-0.00202158514503
-0.00200364815994
-0.00194786408225
-0.00182473314807
-0.00159622723879
-0.00121498838696
-0.000694867628325
-0.000719051987079
-0.00134783598617
-0.00182461445717
-0.00211685811641
-0.00227587914559
-0.00234657185411
-0.00236769950666
-0.00236850680958
-0.00236622122385
-0.00236416590386
-0.00236414590925
-0.00236609935885
-0.00236844656256
-0.00236763625912
-0.0023465094761
-0.00227585543619
-0.00211687160502
-0.00182465155788
-0.00134788194046
-0.000719080036792
-0.000729682488456
-0.00141517260875
-0.00194771076421
-0.00227586623161
-0.00245027099902
-0.00252237801278
-0.00254925841726
-0.00256039464575
-0.0025610163669
-0.00255990788963
-0.0025598951615
-0.00256098489802
-0.00256034501359
-0.0025491920326
-0.00252223744381
-0.00245018660586
-0.0022758266842
-0.00194770790858
-0.00141519140718
-0.000729704996603
-0.000733125419745
-0.00144313612919
-0.00200354701646
-0.00234672458579
-0.0025226803094
-0.00261720598247
-0.00266050519792
-0.0026698411664
-0.0026673065396
-0.00266436698666
-0.00266435763848
-0.00266727299193
-0.00266977417687
-0.00266041455805
-0.00261709368501
-0.0025225082878
-0.00234661668799
-0.00200348780046
-0.00144311136244
-0.000733134838656
-0.000733242559387
-0.00145028764823
-0.00202162024572
-0.00236815340949
-0.00254940112466
-0.00266055145826
-0.00270072151713
-0.00270313712737
-0.00269502395044
-0.00268929396068
-0.00268928591713
-0.00269499718717
-0.00270307545854
-0.00270061846762
-0.00266042856006
-0.00254926770854
-0.00236801515428
-0.00202151414987
-0.00145022151007
-0.000733238050225
-0.000732362854237
-0.00144968952182
-0.00202391942715
-0.00236927121243
-0.0025606058454
-0.00266986426399
-0.00270299312793
-0.00269743144905
-0.00268302408655
-0.00267432113527
-0.00267430241498
-0.00268298101648
-0.00269735476918
-0.00270288049971
-0.0026697280492
-0.00256046055316
-0.00236913286516
-0.00202378388321
-0.00144958738802
-0.000732343967626
-0.000731386478411
-0.00144798452753
-0.00202281486339
-0.00236728182628
-0.00256131965757
-0.00266736414873
-0.0026947567423
-0.0026828294468
-0.00266448994346
-0.00265410789296
-0.00265407064383
-0.00266442699984
-0.00268276480714
-0.00269466087747
-0.00266723465313
-0.00256117106837
-0.00236717776173
-0.00202267210831
-0.00144785758163
-0.000731352967058
-0.00073077953822
-0.00144715494591
-0.00202212643574
-0.00236496326783
-0.00256037497119
-0.00266461966921
-0.00268920438928
-0.00267425491896
-0.00265414471674
-0.00264266500235
-0.00264265941248
-0.0026541371241
-0.00267423973776
-0.00268914012264
-0.00266451238619
-0.00256024194083
-0.00236490064256
-0.00202199654313
-0.00144701577363
-0.000730734778628
-0.000730820925109
-0.00144721170021
-0.00202215307346
-0.00236498590421
-0.00256047675071
-0.00266472480473
-0.00268931081522
-0.00267434860266
-0.00265419222047
-0.00264270749031
-0.00264272652082
-0.00265424873801
-0.00267438155683
-0.00268926986029
-0.00266463229695
-0.0025603548375
-0.00236498028479
-0.0020220507816
-0.00144707032228
-0.000730769737005
-0.000731476051572
-0.00144812479996
-0.00202286348462
-0.00236720901048
-0.00256161109106
-0.00266767188163
-0.0026950802441
-0.0026831547049
-0.00266477762038
-0.00265441196849
-0.00265442068127
-0.00266482375333
-0.00268318405843
-0.00269504876788
-0.00266759366155
-0.00256150293761
-0.00236737422632
-0.00202282357869
-0.00144800738451
-0.000731427590499
-0.000732470143253
-0.00144989518714
-0.00202401098833
-0.00236927799435
-0.00256104759257
-0.00267036270332
-0.00270351938832
-0.00269795044789
-0.00268354999228
-0.00267490607645
-0.00267490901992
-0.00268356728977
-0.00269794962381
-0.00270348320748
-0.00267030462332
-0.00256098192687
-0.0023694796008
-0.00202402341827
-0.00144980762563
-0.000732429619099
-0.000733352818836
-0.00145054342398
-0.00202178103708
-0.00236825983712
-0.00254994489695
-0.002661212624
-0.00270142552207
-0.0027038263972
-0.00269569748894
-0.00269001543459
-0.00269001112121
-0.00269568567118
-0.00270379292042
-0.00270137708649
-0.00266117190268
-0.00254993747638
-0.00236847778152
-0.00202181138491
-0.00145047498366
-0.000733319193446
-0.000733228436643
-0.00144342398751
-0.00200377947102
-0.00234689882223
-0.00252295255101
-0.00261794912664
-0.00266134716066
-0.00267070603293
-0.00266818570566
-0.00266529137485
-0.00266528313887
-0.00266816197222
-0.00267066156807
-0.00266130443607
-0.00261797721883
-0.00252333265531
-0.00234707961767
-0.00200379079895
-0.00144336460881
-0.000733203451293
-0.000729773542208
-0.00141546978349
-0.0019479820139
-0.00227609196152
-0.0024506413628
-0.00252307165523
-0.0025501547902
-0.00256137555016
-0.00256204130163
-0.002560970657
-0.00256095875178
-0.00256201352818
-0.00256133812115
-0.00255014556854
-0.00252333655146
-0.00245085409805
-0.00227617466973
-0.00194796395983
-0.00141541797676
-0.000729756633688
-0.00071911532007
-0.00134809323241
-0.00182487545582
-0.00211708504431
-0.00227616942592
-0.00234708591584
-0.00236854488476
-0.00236960551432
-0.00236754134992
-0.0023653561471
-0.00236536415444
-0.00236757751695
-0.00236966692574
-0.00236864727678
-0.00234722070206
-0.00227625887669
-0.00211710296895
-0.00182484127788
-0.00134805181235
-0.000719107101111
-0.000694876818303
-0.00121512430652
-0.0015963897545
-0.00182489500592
-0.00194806694762
-0.00200395765772
-0.00202205430373
-0.00202435125007
-0.00202325963348
-0.00202260512084
-0.00202261546365
-0.00202329272766
-0.00202440847784
-0.00202213128095
-0.00200403500333
-0.00194810758633
-0.00182488950348
-0.00159635321067
-0.0012150919077
-0.000694871031855
-0.000648696930557
-0.000981875679837
-0.00121510124154
-0.00134808821954
-0.00141551557378
-0.00144354757786
-0.00145075625368
-0.00145020041051
-0.00144852672477
-0.00144770893366
-0.00144772589078
-0.00144857802474
-0.00145027689487
-0.00145083967142
-0.00144361751359
-0.00141554745231
-0.00134807986415
-0.00121506727095
-0.000981846021426
-0.000648691073768
-0.000584626143262
-0.000648694952432
-0.000694868003676
-0.000719103513634
-0.000729771322536
-0.000733246517144
-0.000733396824047
-0.000732550291374
-0.00073159943338
-0.000731001417594
-0.000731012095821
-0.000731624357985
-0.00073258215261
-0.000733428032923
-0.000733269946904
-0.000729782305296
-0.000719103017569
-0.000694859070268
-0.000648688649312
-0.000584624489561
-0.000642496734334
-0.000949887171484
-0.00117260641714
-0.00130322603405
-0.00137180318008
-0.00140211646657
-0.00141138118122
-0.00141150267271
-0.00140931464294
-0.00140781100562
-0.0014078105912
-0.00140931358662
-0.00141150346914
-0.00141138639831
-0.00140212409909
-0.00137181210542
-0.00130323121895
-0.00117260586079
-0.000949893588521
-0.00064250602396
-0.000949848359396
-0.00110835577733
-0.00130416194506
-0.00142992784018
-0.00149943599803
-0.00153178358248
-0.00154286858898
-0.0015442789827
-0.00154292422532
-0.00154183798155
-0.00154183311292
-0.0015429125
-0.0015442634381
-0.00154285378233
-0.00153177205478
-0.00149942970365
-0.00142992444959
-0.0013041590709
-0.00110835445755
-0.000949845839449
-0.00117253613223
-0.00130412253688
-0.00152226839742
-0.00167129518532
-0.00175792021124
-0.00180051332781
-0.00181653251097
-0.0018196717004
-0.00181869590211
-0.00181756111795
-0.00181755334303
-0.00181867418421
-0.00181964459227
-0.00181650304283
-0.00180048685154
-0.00175790288154
-0.0016712865566
-0.00152226442773
-0.00130411942124
-0.0011725323345
-0.0013030961827
-0.0014298350506
-0.00167124298473
-0.0018421628547
-0.00194481424959
-0.00199711732581
-0.00201824526475
-0.00202331192486
-0.00202218164506
-0.00201996911651
-0.00201995847086
-0.00202212264632
-0.0020232738421
-0.00201819972029
-0.00199706923001
-0.00194477862208
-0.00184214062951
-0.00167123043678
-0.00142982718718
-0.00130309355534
-0.00137159543675
-0.00149928200675
-0.00175781794983
-0.00194477487799
-0.00205897777556
-0.00211838238217
-0.0021451651596
-0.00215401598556
-0.00215481405971
-0.00215386671622
-0.00215385791068
-0.00215478902951
-0.00215397273947
-0.00214510448757
-0.00211830031363
-0.00205891418132
-0.00194473012098
-0.00175778796945
-0.00149926131886
-0.00137158053866
-0.0014018392676
-0.00153157975416
-0.00180038735702
-0.00199708323681
-0.00211840388141
-0.00218728905306
-0.00221985258587
-0.00223038649936
-0.00223132537058
-0.0022302531897
-0.00223024299475
-0.00223129428368
-0.00223033234858
-0.00221977672799
-0.00218719723623
-0.00211830263334
-0.00199700977306
-0.00180033342192
-0.00153153813229
-0.00140179867563
-0.00141106087253
-0.00154263688258
-0.00181641427947
-0.00201824232786
-0.00214512846247
-0.00221981101553
-0.00225403922897
-0.00226404450259
-0.00226408436501
-0.00226247048146
-0.00226245477789
-0.00226404349562
-0.00226397565484
-0.00225394973985
-0.00221970770539
-0.00214502610368
-0.00201815216034
-0.00181633850918
-0.00154257247132
-0.00141099163973
-0.00141115409534
-0.00154403400001
-0.00181957274738
-0.00202334773655
-0.00215395695455
-0.00223028582997
-0.00226396453357
-0.0022724753287
-0.00227105425955
-0.00226877235468
-0.0022687471023
-0.00227099492436
-0.00227238052191
-0.00226385865546
-0.00223017127147
-0.00215384604288
-0.00202324680128
-0.00181947933095
-0.00154394719504
-0.00141105758539
-0.00140895170862
-0.00154267251565
-0.00181862096247
-0.00202251205533
-0.00215475653805
-0.00223121387859
-0.00226398606797
-0.00227102949958
-0.00226884356007
-0.00226636276755
-0.00226632961655
-0.00226876023068
-0.00227091109153
-0.00226385885335
-0.00223108434056
-0.00215463409409
-0.00202242789139
-0.00181851694386
-0.00154256485877
-0.00140883000778
-0.00140746332134
-0.00154161251913
-0.00181749375251
-0.00202004439132
-0.00215386620535
-0.00223019873312
-0.0022624234216
-0.00226877822425
-0.00226639324552
-0.00226396430961
-0.00226392841376
-0.00226629831324
-0.00226864849766
-0.00226227543586
-0.00223005361779
-0.00215373716931
-0.0020199420084
-0.00181738312173
-0.00154148803073
-0.0014073221594
-0.00140752994633
-0.00154166852551
-0.00181753783538
-0.00202008641254
-0.00215392947392
-0.00223026567876
-0.00226248516196
-0.00226883411434
-0.00226644137696
-0.00226400265785
-0.00226396395015
-0.00226633906962
-0.00226869148395
-0.00226231613088
-0.00223009971653
-0.00215378812986
-0.00201998881784
-0.00181742628078
-0.00154153276906
-0.00140737787368
-0.00140912477654
-0.00154282357799
-0.00181873208812
-0.00202244198249
-0.00215493107351
-0.0022313940833
-0.0022641525612
-0.00227117975588
-0.00226898162102
-0.00226648205686
-0.00226644622422
-0.00226888883444
-0.00227104353711
-0.00226398206353
-0.00223122230751
-0.00215478516885
-0.00202250189515
-0.00181863850524
-0.00154269108252
-0.0014089816326
-0.00141140406556
-0.00154424918852
-0.00181975107101
-0.00202351794379
-0.00215419983976
-0.00223054324495
-0.00226421174005
-0.00227269368156
-0.00227124392625
-0.00226893180381
-0.00226890165222
-0.0022711644553
-0.00227257394884
-0.00226406290457
-0.00223039243913
-0.00215407685619
-0.00202346097402
-0.00181967216626
-0.00154413434041
-0.0014112792062
-0.00141136131388
-0.0015428970572
-0.0018166436842
-0.00201846489895
-0.00214541069406
-0.0022201081305
-0.00225432619277
-0.00226429607395
-0.00226429431602
-0.00226265247627
-0.00226262814977
-0.00226422848362
-0.00226419743091
-0.00225421086563
-0.00221999767895
-0.00214532524214
-0.00201842695872
-0.00181657999854
-0.00154279831484
-0.00141125168145
-0.00140216554867
-0.00153186577007
-0.00180065426483
-0.00199733559519
-0.00211865834862
-0.00218760816561
-0.0022201741145
-0.00223068640176
-0.00223159887512
-0.002230511262
-0.0022304934547
-0.00223155102377
-0.00223061654554
-0.00222009928522
-0.00218754897481
-0.00211865212362
-0.00199731145676
-0.00180060014898
-0.00153178230545
-0.00140207015932
-0.00137192337758
-0.00149957450993
-0.00175810283994
-0.00194505222312
-0.00205927349096
-0.00211872033331
-0.00214553304859
-0.00215438944763
-0.002155185638
-0.00215423855025
-0.00215422600901
-0.00215515297217
-0.00215434387833
-0.00214549066991
-0.00211871400304
-0.00205926977018
-0.00194502555397
-0.00175805665067
-0.00149950801917
-0.00137184363708
-0.00130338497773
-0.00143010849334
-0.0016715214442
-0.00184243589638
-0.00194509713417
-0.00199744037684
-0.0020186316656
-0.00202374192473
-0.00202271619302
-0.0020204247652
-0.00202041875267
-0.00202271144364
-0.00202372847444
-0.00201862325473
-0.00199743989805
-0.00194508840232
-0.00184241265587
-0.0016714871676
-0.00143006060545
-0.00130332336338
-0.00117275873256
-0.00130436004943
-0.00152252222771
-0.00167154657048
-0.00175816984469
-0.00180077870143
-0.00181683282729
-0.00182000277311
-0.00181904482323
-0.00181790762146
-0.00181790569416
-0.00181904217079
-0.00182000240859
-0.00181683592703
-0.00180078248547
-0.00175816545104
-0.001671531596
-0.00152249918628
-0.00130432645339
-0.00117270903033
-0.000949980374259
-0.00110854799681
-0.00130438074821
-0.00143014731133
-0.00149964725848
-0.00153199128543
-0.00154308725857
-0.00154450958235
-0.00154315791622
-0.00154207421852
-0.00154207496165
-0.00154316231029
-0.00154451776371
-0.00154309620331
-0.00153199571059
-0.00149964088685
-0.00143012997592
-0.00130435703206
-0.00110851996838
-0.000949943919576
-0.000642504066815
-0.000950038185893
-0.00117281345172
-0.00130344396049
-0.00137201736373
-0.00140232399775
-0.00141159835909
-0.00141173203408
-0.00140955205675
-0.00140805739689
-0.00140806980369
-0.00140958761776
-0.00141177994545
-0.00141164440979
-0.00140235491785
-0.00137202397338
-0.00130342688837
-0.00117278510034
-0.00095001927435
-0.000642499452411
-0.000682032810445
-0.0011438200022
-0.00149482747346
-0.00171285055177
-0.00183666283155
-0.00189861344222
-0.00192324903088
-0.00192871409276
-0.00192693129173
-0.00192454658571
-0.00192454686728
-0.00192693467787
-0.00192872551157
-0.00192326961171
-0.00189863911889
-0.00183669025409
-0.00171286897709
-0.00149483103778
-0.00114382741396
-0.000682045203778
-0.00114375062534
-0.00127580022993
-0.00149120460434
-0.00163954769351
-0.00172818269137
-0.0017745208501
-0.00179445818202
-0.00180035350114
-0.00180052981625
-0.00179960813911
-0.00179960501981
-0.0018005222988
-0.00180034823288
-0.00179445612701
-0.00177452192211
-0.00172818688976
-0.00163955229542
-0.00149120710879
-0.00127580023716
-0.00114374450219
-0.00149470367813
-0.0014911516251
-0.00168297929477
-0.00182849233447
-0.00192036559392
-0.00197065533416
-0.00199352422656
-0.00200101887878
-0.002002237401
-0.00200190404496
-0.00200189835826
-0.00200222352929
-0.00200100260135
-0.00199350907307
-0.00197064471731
-0.00192036191431
-0.00182849448482
-0.00168298377586
-0.00149115094608
-0.00149469503628
-0.00171263648083
-0.00163943564344
-0.00182843574847
-0.0019812326606
-0.00208160170986
-0.00213839819746
-0.0021651953812
-0.00217240734183
-0.00217438985977
-0.00217480494814
-0.00217480020563
-0.00217438953847
-0.00217238255525
-0.00216516585905
-0.00213837360087
-0.00208158435301
-0.00198122454426
-0.00182843432182
-0.00163943286412
-0.00171263230217
-0.00183634288533
-0.00172800370766
-0.00192025258371
-0.00208155292056
-0.00218965204221
-0.00225124857762
-0.00228156179184
-0.00229328342907
-0.00229590468105
-0.00229569760526
-0.00229569294563
-0.00229589415928
-0.00229325639944
-0.00228152072424
-0.00225120944489
-0.0021896193418
-0.00208152818081
-0.0019202375265
-0.00172799067829
-0.00183632468995
-0.00189820310805
-0.00177427938365
-0.00197050351832
-0.00213832473225
-0.00225121372497
-0.00231862314764
-0.00235555735973
-0.00237213608011
-0.00237584622908
-0.00237521032074
-0.00237521719049
-0.00237586363402
-0.00237213895572
-0.00235552268692
-0.00231856460844
-0.00225116022574
-0.00213827867877
-0.00197046767063
-0.00177424622068
-0.00189815118734
-0.00192279910226
-0.00179417413562
-0.00199335884935
-0.00216512541067
-0.00228150192434
-0.00235558138063
-0.00240040234416
-0.00242068156925
-0.00242468578656
-0.00242343911884
-0.00242346269798
-0.00242476325557
-0.00242075046989
-0.00240042130308
-0.00235552238965
-0.00228142484433
-0.00216505445066
-0.00199329981339
-0.00179411585709
-0.0019227095421
-0.0019282501588
-0.0018000467054
-0.00200085032628
-0.00217230087505
-0.00229323730641
-0.00237220345903
-0.00242063134207
-0.00244139009148
-0.0024454711968
-0.00244448545399
-0.00244451435654
-0.00244557211983
-0.00244146389416
-0.00242068258752
-0.00237215809494
-0.00229315312751
-0.00217221558523
-0.0020007708369
-0.00179996045605
-0.00192812617004
-0.00192646175857
-0.0018002228161
-0.00200206003038
-0.00217410273741
-0.00229583892908
-0.0023758371579
-0.00242438487379
-0.00244505990193
-0.00244983893994
-0.00244968637405
-0.00244969904707
-0.00244988649543
-0.00244510667142
-0.00242441720345
-0.00237578534987
-0.00229574734472
-0.00217399486311
-0.00200196237927
-0.00180010700842
-0.00192630613229
-0.00192410098296
-0.00179931955688
-0.00200173400726
-0.00217468658461
-0.00229563346905
-0.00237507306026
-0.002422785967
-0.00244352838487
-0.00244908503629
-0.00244956920268
-0.00244957620196
-0.00244911754624
-0.00244357266968
-0.00242278490358
-0.00237499664912
-0.0022955329759
-0.00217458417192
-0.00200162225298
-0.00179917374554
-0.00192391686808
-0.00192419696085
-0.00179938701249
-0.00200177494767
-0.00217472870579
-0.00229565136192
-0.00237499770785
-0.00242252622703
-0.00244312927187
-0.00244862375307
-0.00244910205623
-0.00244911392545
-0.00244866386494
-0.00244317479406
-0.00242250121866
-0.00237489343884
-0.00229553993285
-0.00217461635897
-0.00200165577796
-0.00179922096795
-0.00192399919993
-0.00192671608991
-0.00180039879407
-0.0020021703031
-0.00217431055325
-0.00229589402535
-0.0023755929232
-0.00242360182163
-0.00244388482035
-0.00244852291977
-0.0024483515193
-0.00244836978795
-0.00244858578216
-0.00244395138505
-0.0024235841312
-0.00237549244462
-0.00229578102362
-0.00217411762903
-0.00200205923115
-0.00180023728275
-0.00192653538887
-0.00192863230574
-0.00180031032064
-0.00200101596163
-0.00217243822876
-0.00229335714069
-0.00237204850476
-0.00241983367223
-0.00244004792293
-0.00244396774625
-0.00244295233385
-0.0024429772014
-0.00244404545511
-0.00244013091919
-0.00241984368667
-0.00237197591881
-0.00229328196498
-0.0021723614336
-0.00200092663321
-0.00180016247774
-0.00192847851097
-0.00192328129848
-0.00179449265275
-0.00199357065588
-0.00216527706326
-0.0022817036026
-0.00235575829797
-0.00240022888226
-0.00242005458863
-0.00242388064972
-0.00242260890304
-0.00242262969956
-0.00242394183023
-0.00242011330882
-0.00240023192528
-0.00235571099616
-0.00228166014783
-0.00216523859624
-0.00199349980088
-0.00179436552799
-0.00192314913353
-0.00189875802897
-0.00177463209851
-0.00197076287025
-0.00213852630676
-0.00225142360667
-0.00231890277827
-0.0023558912293
-0.00237238236267
-0.00237600276446
-0.00237533688211
-0.00237534339686
-0.00237602564529
-0.00237239972859
-0.00235588042999
-0.00231887713944
-0.00225139869342
-0.00213849983604
-0.00197071041677
-0.00177453107079
-0.00189864526532
-0.00183693655598
-0.00172837292857
-0.00192054237601
-0.00208178930299
-0.00218987540534
-0.00225148149016
-0.00228180935484
-0.00229354881814
-0.00229615603424
-0.00229594194976
-0.0022959383791
-0.00229614835362
-0.00229353700981
-0.00228179839035
-0.0022514765252
-0.00218987530444
-0.00208177874052
-0.00192051174473
-0.00172830327613
-0.00183684852112
-0.00171320859511
-0.00163980181176
-0.00182874338514
-0.00198149827623
-0.00208184311618
-0.00213864077471
-0.00216545332168
-0.00217267843066
-0.00217460828529
-0.00217506830403
-0.00217506373937
-0.0021745932632
-0.00217267053508
-0.00216545631936
-0.00213865143522
-0.00208185475329
-0.00198150235113
-0.0018287349072
-0.00163976289086
-0.00171314656691
-0.00149518696722
-0.00149150068921
-0.00168330027697
-0.00182878600988
-0.00192063789466
-0.00197092435885
-0.00199380414273
-0.00200131607048
-0.00200253874607
-0.00200220480122
-0.0020022027236
-0.00200253597888
-0.00200131816641
-0.00199381388565
-0.00197094137434
-0.00192065633184
-0.00182880027064
-0.00168330626219
-0.0014914839137
-0.00149514340487
-0.00114406169313
-0.00127612765698
-0.00149154923801
-0.0016398847153
-0.0017285040051
-0.0017748346877
-0.00179478193532
-0.00180069100453
-0.00180087466161
-0.00179995337668
-0.00179995223289
-0.00180087545397
-0.00180069579483
-0.00179479071179
-0.00177484495081
-0.00172851174491
-0.00163988792784
-0.00149154927334
-0.00127611883294
-0.00114403420316
-0.00068206559934
-0.00114416798997
-0.00149532028251
-0.00171338992062
-0.00183721222415
-0.00189917336768
-0.00192385124228
-0.00192935885505
-0.00192760324339
-0.00192523636873
-0.00192525536868
-0.00192766000799
-0.00192944432257
-0.00192394786204
-0.0018992613082
-0.00183727229345
-0.00171341386236
-0.00149532158351
-0.00114416806218
-0.000682063439538
-0.000696977312185
-0.00122630685964
-0.00164373256347
-0.00191526671005
-0.00207890227943
-0.00216797695516
-0.00220793349355
-0.00221854683286
-0.00221536851979
-0.002210202852
-0.00221021097537
-0.00221539735985
-0.00221860026987
-0.00220800678805
-0.00216806172946
-0.00207899147369
-0.00191534268698
-0.0016437803921
-0.00122634801115
-0.000696996124919
-0.00122620540823
-0.00135301918731
-0.00158518918011
-0.00175147184932
-0.00185614486144
-0.00191526467636
-0.00194362838852
-0.00195332227312
-0.00195386056981
-0.00195214569714
-0.0019521501497
-0.00195387666637
-0.00195335105208
-0.00194366502633
-0.00191530582618
-0.00185618666377
-0.00175151092543
-0.00158522227163
-0.00135304517152
-0.0012262212291
-0.00164355080572
-0.00158512266444
-0.00177538326661
-0.00192842830912
-0.00203115572624
-0.00209208435879
-0.00212317285801
-0.00213562850854
-0.00213895919297
-0.00213909495228
-0.00213909471736
-0.00213896434585
-0.00213564103174
-0.00212318877314
-0.00209210834213
-0.00203118718207
-0.00192846415923
-0.00177541831364
-0.00158515017551
-0.0016435713249
-0.00191496866147
-0.00175133917213
-0.00192836286797
-0.00208421576097
-0.00219339481177
-0.00226091967355
-0.00229870782859
-0.00231499413723
-0.00232008724697
-0.00232073745134
-0.00232074153467
-0.00232010175982
-0.00231501151749
-0.00229870413479
-0.00226092626733
-0.00219340843495
-0.0020842400406
-0.00192839385388
-0.00175136768392
-0.00191500129582
-0.00207850486367
-0.00185594496548
-0.00203102907379
-0.00219333779941
-0.00231086357523
-0.00238941827619
-0.0024400571557
-0.00246570390302
-0.00247335093832
-0.00247404165523
-0.00247407616388
-0.00247344846108
-0.00246584371188
-0.00244017166215
-0.00238946593871
-0.00231086840966
-0.00219334370106
-0.00203104704657
-0.00185596543083
-0.00207852657813
-0.00216750171094
-0.00191499488518
-0.0020919095664
-0.00226081389109
-0.0023894122272
-0.00248554871195
-0.00254877332223
-0.00257972978551
-0.00258806209717
-0.00258803188052
-0.00258811373016
-0.00258829686719
-0.00258006153516
-0.00254911646119
-0.00248576603824
-0.00238946046806
-0.00226080014932
-0.00209190472299
-0.00191499582804
-0.0021674893442
-0.00220744856934
-0.0019433008451
-0.00212296898636
-0.00229864311246
-0.00244004581502
-0.00254869276059
-0.00261763444821
-0.00264902539579
-0.00265640941221
-0.00265551018792
-0.00265562905158
-0.00265676514807
-0.00264949375556
-0.00261815124758
-0.00254910438272
-0.00244019911157
-0.00229860845263
-0.00212293746888
-0.00194327504722
-0.00220740292829
-0.00221807620402
-0.00195296005234
-0.00213540704329
-0.00231496085907
-0.00246566245384
-0.0025795364613
-0.0026487628359
-0.00267846953388
-0.00268531237749
-0.00268485277394
-0.00268498723272
-0.00268570948584
-0.00267895506303
-0.00264934180033
-0.00258004897709
-0.0024659188285
-0.00231496533666
-0.00213534931688
-0.00195290156907
-0.00221800737095
-0.00221490734852
-0.00195349764348
-0.00213871715828
-0.00232000821798
-0.00247305335732
-0.00258731529514
-0.00265528343997
-0.00268419518251
-0.00269201067541
-0.00269286913277
-0.00269297862019
-0.0026923308813
-0.00268464590781
-0.00265583542975
-0.00258782918264
-0.00247333091642
-0.00232001776012
-0.00213863273193
-0.00195339932644
-0.00221481822238
-0.00220975977727
-0.00195182147888
-0.00213885260883
-0.0023205155426
-0.00247323446903
-0.00258633550018
-0.00265306069396
-0.00268213447105
-0.00269116959325
-0.00269300437924
-0.0026931079414
-0.00269147403594
-0.00268258397763
-0.00265356109696
-0.00258679656269
-0.00247347940588
-0.00232051539154
-0.00213875144121
-0.00195168244976
-0.00220964873172
-0.00220985764
-0.00195190213274
-0.00213889212887
-0.0023204479741
-0.00247286956457
-0.00258558630937
-0.00265198034215
-0.0026808585887
-0.00268980234706
-0.0026916286166
-0.00269174257654
-0.00269013249966
-0.00268132279986
-0.00265245067734
-0.0025859943197
-0.00247308440296
-0.00232043568789
-0.00213877269828
-0.00195173032703
-0.00220973893898
-0.00221517300058
-0.00195371617842
-0.0021388261179
-0.00231979429723
-0.0024719386592
-0.00258504725123
-0.00265208880081
-0.00268047911598
-0.00268810110707
-0.00268894076511
-0.00268906351627
-0.00268846246684
-0.0026809738283
-0.00265257426448
-0.00258546978767
-0.00247217493965
-0.00231979356843
-0.00213870056992
-0.00195353392731
-0.00221507200735
-0.00221849183681
-0.00195327856394
-0.00213555998167
-0.00231475039547
-0.00246435979612
-0.00257673697144
-0.00264478807492
-0.00267379484044
-0.00268045747246
-0.00267997712897
-0.00268010837765
-0.00268083897873
-0.00267431457062
-0.0026453138803
-0.00257718657566
-0.0024646055637
-0.0023147715588
-0.00213545771268
-0.00195310847992
-0.00221840826365
-0.00220798975827
-0.00194367557755
-0.00212314596118
-0.00229855311306
-0.00243923178949
-0.00254654850127
-0.00261438852845
-0.00264509803373
-0.00265227285191
-0.00265135669166
-0.00265148378809
-0.00265263895565
-0.00264559585521
-0.00261489066065
-0.00254695349099
-0.00243944868893
-0.00229861514017
-0.00212307014613
-0.00194353275813
-0.00220791847945
-0.00216816306076
-0.00191540525514
-0.00209215367684
-0.00226091129493
-0.00238924121887
-0.0024844755389
-0.00254668936078
-0.00257704887277
-0.00258516892949
-0.00258507570318
-0.00258517470251
-0.00258546032479
-0.00257744880521
-0.0025470704924
-0.00248475867039
-0.00238935826111
-0.00226092913038
-0.00209210420746
-0.00191530326046
-0.00216810307047
-0.00207926434502
-0.00185637960383
-0.00203132487657
-0.00219350306698
-0.00231095213067
-0.00238933903667
-0.00243943176806
-0.00246462568463
-0.00247210129155
-0.00247273989874
-0.00247279165601
-0.00247225832909
-0.0024648421514
-0.00243962907147
-0.00238946444915
-0.00231101745177
-0.00219351880586
-0.00203130982068
-0.00185632787927
-0.00207922725131
-0.00191576489818
-0.0017517893336
-0.00192869700512
-0.0020844678339
-0.0021935654423
-0.00226101914214
-0.00229874753396
-0.0023150508356
-0.00232012509975
-0.00232075076478
-0.00232076169515
-0.00232016126034
-0.0023151056633
-0.00229880378239
-0.00226106973655
-0.00219360949005
-0.00208450004618
-0.00192872009804
-0.0017517837434
-0.00191575097915
-0.00164427888984
-0.00158558142476
-0.00177575914127
-0.00192875378697
-0.00203144527967
-0.00209235155489
-0.00212342529941
-0.0021359041223
-0.00213924416815
-0.00213937250895
-0.00213937128993
-0.00213924693326
-0.00213591743219
-0.00212345413541
-0.00209239517059
-0.00203149747877
-0.0019288085767
-0.00177580947605
-0.00158560772977
-0.00164428123485
-0.00122672472626
-0.00135349158497
-0.00158564926871
-0.00175190859819
-0.00185656405061
-0.00191568666956
-0.00194407841944
-0.00195380693048
-0.00195437303196
-0.00195267651287
-0.00195267767747
-0.00195438375523
-0.00195382965373
-0.00194411406685
-0.00191573193164
-0.00185661533469
-0.00175196048763
-0.00158569935104
-0.0013535279684
-0.00122673067255
-0.000697052619646
-0.00122686642597
-0.00164449448805
-0.00191609189978
-0.00207974915668
-0.00216887073723
-0.0022089400769
-0.00221967036418
-0.00221657517205
-0.002211459443
-0.00221149389719
-0.00221667647781
-0.00221982618983
-0.00220912783443
-0.0021690645424
-0.00207991537444
-0.00191620861257
-0.00164456928145
-0.00122691339091
-0.000697060923162
-0.000689467621176
-0.00121842533654
-0.00165169916612
-0.00194341370001
-0.00212413463595
-0.00222533543378
-0.00226920788842
-0.00227320240969
-0.00225708385992
-0.00224168314894
-0.00224171297132
-0.00225717480826
-0.00227335315986
-0.00226939800697
-0.00222554564287
-0.00212434567658
-0.00194360281279
-0.0016518475903
-0.00121853138491
-0.000689496003569
-0.00121832368756
-0.00134492121401
-0.00158345575976