/*--------------------------------*- C++ -*----------------------------------*\
| =========                 |                                                 |
| \\      /  F ield         | OpenFOAM: The Open Source CFD Toolbox           |
|  \\    /   O peration     | Version:  3.0.1                                 |
|   \\  /    A nd           | Web:      www.OpenFOAM.org                      |
|    \\/     M anipulation  |                                                 |
\*---------------------------------------------------------------------------*/
FoamFile
{
    version     2.0;
    format      ascii;
    class       volScalarField;
    location    "3.2";
    object      epsilon;
}
// * * * * * * * * * * * * * * * * * * * * * * * * * * * * * * * * * * * * * //

dimensions      [0 2 -3 0 0 0 0];

internalField   nonuniform List<scalar> 
7968
(
0.000715185054694
0.000837408840118
0.000932823909375
0.000988227684836
0.00101424797658
0.00102153285403
0.00101869518843
0.0010109966855
0.00100271573984
0.00099642719539
0.000996427991079
0.00100271711996
0.00101100533106
0.00101871798257
0.0010215719998
0.00101430367895
0.000988288831098
0.000932881643803
0.000837462890019
0.000715211692604
0.000837386919001
0.00139564848217
0.0018029052452
0.00204289390563
0.00216096824463
0.00219919807624
0.00219359803694
0.00216978351224
0.00214683860415
0.00213366465429
0.00213363232469
0.00214675651534
0.0021696743779
0.00219349432689
0.00219914346705
0.0021609981502
0.00204299386582
0.00180303326171
0.00139577010132
0.000837437049247
0.000932767216472
0.00180283128139
0.00245036839281
0.00284244680834
0.00304446237605
0.00311799832179
0.00311798099007
0.00308743048075
0.00305683405404
0.00303973475562
0.00303966300733
0.00305664133928
0.00308714672835
0.00311766341154
0.00311773862454
0.00304433686391
0.00284245603337
0.00245045940695
0.00180294551032
0.000932823572173
0.000988115667903
0.00204271147006
0.0028423574535
0.00332959039812
0.00357792072938
0.00366186847761
0.00365372891712
0.00360969126792
0.00356885007498
0.00354753926779
0.00354743588047
0.00356854666252
0.00360921736599
0.00365316666593
0.00366134726246
0.00357756448165
0.00332942261016
0.00284233065282
0.00204276291406
0.000988168101164
0.00101407675631
0.00216072967634
0.00304440528956
0.00357803653144
0.00383437800111
0.00390322206081
0.00392045697315
0.00391272705471
0.00389019365944
0.00387400220625
0.00387392664617
0.00388997854695
0.0039123950305
0.00392003357679
0.00390253187665
0.00383379705315
0.00357765639428
0.00304421246114
0.00216067397787
0.00101410798026
0.00102132474617
0.00219903690814
0.00311821801924
0.00366250631947
0.00390389381939
0.00403805700489
0.00409355782756
0.00409028277185
0.0040653136629
0.00404616422178
0.00404609790768
0.00406512129636
0.00408997589691
0.00409316847482
0.00403757596405
0.00390319605268
0.00366195101123
0.003117869112
0.0021988681648
0.00102132239016
0.00101846884089
0.00219360581131
0.00311866796323
0.00365519405749
0.00392132729354
0.00409403237928
0.00415259506735
0.0041399572027
0.00410442152584
0.00407859970125
0.00407854425115
0.00410425931975
0.00413969154222
0.0041522525756
0.0040936407623
0.00392087812383
0.00365461197355
0.00311825257283
0.00219336264886
0.00101843225012
0.00101075499811
0.00216993840804
0.00308850892324
0.00361187561818
0.00391406500824
0.00409118355472
0.00414029527723
0.00411249974275
0.00406253282053
0.00402768729407
0.00402764059683
0.00406240369077
0.0041122986726
0.0041400549351
0.00409091900087
0.00391376592733
0.00361147688002
0.00308816970147
0.00216969511526
0.00101069488805
0.00100244401344
0.00214699911808
0.00305798075046
0.00357123321822
0.00389177908961
0.00406644999264
0.0041048698398
0.00406255129692
0.00399785582758
0.00395330356424
0.00395327278583
0.00399779585022
0.00406248943433
0.00410481549693
0.00406639935231
0.0038917196223
0.00357119094694
0.00305785220493
0.00214683706893
0.0010023769259
0.000996126239201
0.00213370883251
0.00304063361806
0.00354943093809
0.00387549193123
0.00404734239438
0.00407911075912
0.00402773692011
0.00395328123092
0.00390103797236
0.00390107580702
0.00395338447856
0.00402789633148
0.0040793097966
0.00404756871145
0.00387572968332
0.00354978678125
0.00304079599661
0.00213369008223
0.000996074273305
0.000996173141587
0.00213359738647
0.00304031950187
0.00354896306184
0.00387523824216
0.00404718185328
0.00407904927554
0.00402777296716
0.00395338848008
0.00390122934767
0.00390135074313
0.0039536921599
0.0040281840409
0.00407952795853
0.00404770739825
0.00387579345182
0.00354973735997
0.00304078247793
0.00213373695661
0.000996153457826
0.00100252770792
0.00214671433987
0.00305715330259
0.0035698878575
0.00389112578985
0.00406609315002
0.00410480859409
0.00406277945714
0.00399833404611
0.00395402103544
0.00395415939322
0.00399869931536
0.0040633052403
0.00410545538237
0.00406682063885
0.00389192238326
0.00357106055721
0.0030578325082
0.00214696544414
0.00100252852029
0.00101086480719
0.0021696171452
0.00308746259659
0.00361013537451
0.00391328623939
0.00409084710136
0.00414040548131
0.00411303235049
0.00406345477417
0.00402894635229
0.00402907527095
0.0040637999563
0.0041135568899
0.00414109025976
0.00409163754867
0.00391415197155
0.00361139229935
0.00308819013913
0.00216989464234
0.00101086929574
0.00101861273192
0.00219340387621
0.00311773995439
0.00365354978795
0.00392059379757
0.00409385198442
0.00415296116073
0.00414083623862
0.00410573720409
0.00408025920256
0.00408036938333
0.00410603610942
0.0041413063172
0.00415358684731
0.00409458967737
0.00392140965428
0.00365462700891
0.00311833681614
0.00219361403189
0.0010186029694
0.00102150220871
0.00219906276569
0.00311766768465
0.00366131988538
0.00390265099972
0.00403795285062
0.00409413225443
0.00409142436492
0.00406692270593
0.00404810226677
0.00404819434817
0.00406717415811
0.00409182087904
0.00409466327465
0.00403862219416
0.00390363263508
0.0036620090885
0.00311800145656
0.00219914644362
0.0010214730632
0.00101427310212
0.00216099723651
0.00304428952698
0.00357743124144
0.00383360616254
0.00390295789629
0.003921096797
0.00391397091266
0.00389190621306
0.00387599665586
0.00387607619843
0.00389212352176
0.00391430594852
0.00392153812862
0.00390360714597
0.00383412124009
0.00357769881557
0.00304435905632
0.002160958105
0.00101422958104
0.000988285662482
0.0020431159021
0.00284257175019
0.00332947977112
0.00357763173433
0.00366180657532
0.00365429744506
0.00361098129302
0.00357067935503
0.00354958985174
0.00354967284112
0.00357090233705
0.00361131121861
0.00365468482261
0.00366214887607
0.00357781528389
0.00332950341811
0.00284249528434
0.00204301563536
0.000988241769615
0.000932889838525
0.00180324303755
0.00245073134373
0.00284263648431
0.0030445207588
0.00311812355526
0.00311840736698
0.00308825541571
0.00305797983888
0.00304107810436
0.00304116545851
0.00305819405375
0.0030885368713
0.00311868798478
0.00311833029012
0.00304459888824
0.00284259925435
0.00245063115606
0.00180314648821
0.000932853364121
0.000837461700442
0.00139594596125
0.00180322109265
0.00204314671513
0.00216114835426
0.00219937834388
0.00219388850313
0.00217025305994
0.00214747120734
0.00213441996591
0.00213449337562
0.00214765160999
0.00217048416
0.0021941093448
0.00219953751059
0.00216121790584
0.00204312912194
0.00180315598877
0.00139588335738
0.000837436319721
0.000715205309646
0.000837485007416
0.000932918803099
0.000988320145315
0.00101432773764
0.00102159700913
0.00101875956869
0.00101108016635
0.00100282490224
0.000996568709525
0.000996605619768
0.00100290236632
0.00101116913185
0.00101883699069
0.00102164724309
0.00101434826771
0.000988312556017
0.000932897944177
0.000837467921692
0.000715193833125
0.000819400809223
0.00127530346579
0.00163687986517
0.00187006698248
0.00200268087731
0.00206487213842
0.00208299067113
0.00207796727464
0.00206620149697
0.00205766293759
0.00205764745676
0.00206616400751
0.00207792291523
0.0020829569337
0.0020648665044
0.0020027142981
0.00187012538432
0.00163694408795
0.00127536500381
0.000819431515824
0.00127522884017
0.00153817579811
0.00185442408551
0.00207498017093
0.00220836696991
0.00227728245836
0.00230431273128
0.00230831515802
0.00230380649763
0.00229951517187
0.0022994935677
0.00230375004615
0.00230823791514
0.00230423336525
0.00227722453435
0.00220834884756
0.00207499962447
0.00185446656671
0.00153822528131
0.00127527133306
0.00163673538395
0.00185435504035
0.00219800618315
0.0024491203446
0.00260598237753
0.00268943464543
0.00272360272693
0.00272998855789
0.00272560586216
0.00272099378431
0.00272096594966
0.00272552953447
0.00272987710268
0.00272347672562
0.00268932472874
0.00260591398267
0.00244909678663
0.00219801503144
0.00185437975243
0.00163676657414
0.00186983361439
0.00207484842354
0.00244906336164
0.00272943642804
0.00290802176411
0.00300516549736
0.00304733100491
0.0030573823203
0.00305417020415
0.00305001623365
0.00304998813096
0.00305408511636
0.00305724711743
0.00304716523873
0.00300500084216
0.00290788934304
0.00272934855099
0.00244901435097
0.0020748265731
0.00186983149233
0.0020023855979
0.0022082068593
0.00260591402586
0.00290802357709
0.00310315399186
0.00321440650051
0.00327582906146
0.00330141649824
0.00330618874056
0.00330449307166
0.00330447209712
0.0033061277537
0.00330132266927
0.0032757040865
0.00321423358317
0.00310296712629
0.00290786498204
0.00260579437276
0.00220812252397
0.00200232359745
0.00206458438352
0.00227715434022
0.00268943119139
0.00300526396588
0.00321448707169
0.00335420488623
0.00343554390893
0.00347173430143
0.00348099377186
0.00348053640426
0.00348051889069
0.00348094197161
0.0034716543775
0.00343543654881
0.00335405805056
0.0032142875173
0.00300505040554
0.00268924828291
0.00227700814882
0.0020644511721
0.0020827771727
0.00230426269174
0.00272371930361
0.00304758466147
0.00327594488068
0.00343558915393
0.00352937645282
0.00357120387469
0.0035817407834
0.00358096852251
0.00358095080997
0.00358169023968
0.00357112989396
0.00352927573799
0.00343545482704
0.00327576929423
0.00304735679426
0.0027235071085
0.00230407823142
0.00208258998248
0.00207783388477
0.00230833336473
0.00273020158832
0.00305775578631
0.00330158874864
0.00347182127751
0.00357127217773
0.00361426167097
0.00362342588434
0.00362077664211
0.00362075861517
0.00362337783798
0.00361419307809
0.00357117706495
0.0034716965056
0.00330143686061
0.0030575683347
0.00273001179266
0.00230815248887
0.00207763670161
0.0020660825126
0.0023038302296
0.00272583253366
0.00305455623305
0.00330640189511
0.00348111749086
0.00358185005884
0.00362349000266
0.00362874870002
0.00362278341482
0.00362277555454
0.00362872505125
0.00362344283736
0.00358178215242
0.00348102940735
0.00330630107368
0.00305445282932
0.00272571418664
0.00230369721664
0.00206592745262
0.00205749605775
0.00229949093235
0.00272115279523
0.00305029571687
0.00330471223939
0.00348070699762
0.00358111449888
0.00362087680704
0.00362283378499
0.00361422189154
0.00361422437065
0.00362284016068
0.0036208749735
0.00358110467857
0.00348068431782
0.00330468572596
0.00305028814257
0.00272113716266
0.00229943897361
0.00205742825797
0.00205746156745
0.00229943654794
0.00272106935657
0.00305022215996
0.00330469570691
0.00348072819341
0.00358116139392
0.00362095160942
0.00362294953096
0.00361436446274
0.00361438782237
0.00362299854317
0.00362100924373
0.0035812237053
0.00348078408323
0.00330475958133
0.00305033047849
0.00272116621006
0.00229947485886
0.00205749561391
0.00206600575038
0.00230369662559
0.00272561486977
0.00305432929689
0.00330636242304
0.00348118883477
0.00358199321993
0.0036237013073
0.00362904669977
0.00362314643685
0.00362318112742
0.00362912398013
0.0036237987761
0.00358210290686
0.00348130344357
0.00330650636321
0.00305456426494
0.00272579991551
0.00230379975019
0.00206610896583
0.00207778781854
0.00230819162501
0.00272993997423
0.00305745696086
0.00330156335572
0.00347195171699
0.00357150970299
0.00361460749325
0.00362387231947
0.00362130225163
0.00362133758143
0.00362395910711
0.0036147235425
0.00357164280625
0.00347209919972
0.00330174906613
0.00305774720234
0.00273015611794
0.0023083148605
0.00207790647705
0.00208283907172
0.00230419409556
0.00272351574658
0.0030473157814
0.00327594823232
0.0034357803163
0.00352970065915
0.0035716661525
0.00358232424461
0.00358164218174
0.00358167801503
0.00358241804912
0.00357179652727
0.00352984822066
0.00343594672473
0.00327615137685
0.00304759217775
0.00272370539202
0.00230429090318
0.00208292033631
0.00206480135792
0.00227722074248
0.00268937258982
0.0030051173279
0.00321446239927
0.00335441559842
0.00343592372797
0.00347225896355
0.00348164553629
0.00348128761922
0.00348132556106
0.0034817459778
0.00347240026725
0.00343608647612
0.00335460273657
0.00321468936051
0.00300532062024
0.00268949093432
0.00227726144735
0.00206481866364
0.00200273889283
0.002208417431
0.0026060248568
0.0029080367081
0.00310317323946
0.00321459616077
0.00327621270821
0.00330196224993
0.00330686917206
0.00330526781729
0.0033053077663
0.00330697562559
0.00330211330516
0.00327638796286
0.0032147929685
0.00310334921462
0.00290814768594
0.00260606681427
0.00220840371684
0.00200270108955
0.00187024228136
0.00207516209228
0.00244931562858
0.00272960080074
0.00290814531935
0.0030053580463
0.00304768674316
0.00305792871246
0.00305486595705
0.00305079111823
0.00305083373509
0.00305498042078
0.00305809085905
0.00304786687312
0.00300552029459
0.00290825564131
0.00272965000022
0.00244931305319
0.00207512154125
0.00187018448726
0.00163710995528
0.00185471289754
0.00219834557223
0.00244939395791
0.00260620149553
0.0026896653235
0.00272392350393
0.00273044099156
0.00272617899183
0.00272165562866
0.00272170048625
0.00272629355793
0.00273059412937
0.00272408059017
0.00268979413293
0.00260627962439
0.00244942040061
0.00219833177039
0.00185467227922
0.00163705862616
0.0012754821759
0.00153852160871
0.00185479471791
0.00207531119361
0.00220864686898
0.00227754811601
0.00230462428363
0.00230871485594
0.00230429550421
0.00230007921906
0.00230012261378
0.00230440381429
0.00230885503278
0.00230476214463
0.00227765655555
0.00220871095138
0.00207533127087
0.00185478345345
0.00153849207462
0.0012754457666
0.000819440159213
0.00127561874008
0.00163728258942
0.00187045213968
0.0020030214965
0.00206519601764
0.00208336421262
0.00207844296345
0.00206678340823
0.00205833706904
0.00205840207434
0.00206694357091
0.0020786497823
0.00208357028619
0.00206536465194
0.00200313261138
0.0018705034782
0.00163729431315
0.00127561367894
0.000819422787609
0.000900388937183
0.00157178978467
0.0021281652879
0.00250466023037
0.00273272369098
0.00285229786322
0.00290054101431
0.00290937774737
0.00290365262869
0.00289774504633
0.00289771820883
0.00290358860719
0.00290929902973
0.00290047245726
0.00285227152828
0.00273276177199
0.00250474507523
0.002128266407
0.00157188374549
0.00090042607495
0.00157167778942
0.00180981546785
0.00216759414308
0.00243662069776
0.00261381497152
0.00271767204528
0.00276992589791
0.0027906858346
0.00279604770793
0.00279628965508
0.00279626873403
0.00279599340844
0.00279061073912
0.00276984554602
0.00271760995118
0.00261379268939
0.0024366396414
0.00216764299437
0.00180987812032
0.00157174618454
0.00212794928621
0.00216751607848
0.00247863254821
0.00273283297149
0.00290783864731
0.00301420622055
0.00306992588151
0.00309342759881
0.00310023971095
0.00310086248184
0.00310084433298
0.00310019090974
0.00309335446324
0.00306983564586
0.00301412308612
0.00290778569569
0.00273281487913
0.0024786418342
0.00216754123333
0.00212799404936
0.00250432496223
0.00243648078985
0.00273277418718
0.00298883991219
0.00317086072921
0.00328504297196
0.00334715535264
0.00337547858417
0.00338560020528
0.00338716332493
0.00338715125099
0.00338556668845
0.00337542455141
0.00334705710109
0.00328493631001
0.00317076818862
0.00298876958989
0.00273272423793
0.00243644593333
0.00250430493722
0.00273233302558
0.00261365041817
0.00290775366965
0.00317083029699
0.00336323361671
0.00349043702958
0.00356480899508
0.00360092927743
0.00361364946049
0.00361598264337
0.00361597374398
0.00361361988634
0.00360087847783
0.00356473288355
0.00349033725388
0.00336310915344
0.00317070467417
0.00290763644705
0.00261354288514
0.00273221541206
0.00285196144231
0.00271753363612
0.00301413890938
0.00328501949459
0.00349041743551
0.0036320762213
0.00371854935452
0.00376211103154
0.00377769613873
0.00378078485945
0.00378077544362
0.00377766236321
0.00376205729873
0.00371847491529
0.00363197444778
0.00349028369649
0.00328484877242
0.00301396271305
0.00271735718128
0.00285173763484
0.00290036898875
0.00276985335742
0.00306990180106
0.00334715308145
0.00356477081297
0.00371853537025
0.00381494682012
0.00386396311862
0.00388107597103
0.00388417513302
0.00388416192557
0.00388103362478
0.00386390738153
0.00381486501612
0.00371842270764
0.00356462740934
0.00334696389205
0.00306969711841
0.00276963666177
0.00290007823646
0.00290936980152
0.0027906635258
0.00309341083411
0.00337538496542
0.00360084921097
0.0037620875975
0.00386404181637
0.0039149766058
0.00393116940123
0.00393268298723
0.00393266924029
0.00393112820442
0.00391492528653
0.00386394950115
0.00376196222338
0.00360070815222
0.00337522225861
0.00309322004359
0.00279045173377
0.0029090907332
0.00290367641853
0.00279601073114
0.00310019157372
0.00338548647074
0.00361354131181
0.00377764318604
0.00388115382862
0.00393123148349
0.00394436266573
0.00394334563442
0.00394334782078
0.00394435139853
0.00393117496398
0.00388105999458
0.00377753221528
0.00361342398894
0.0033853578282
0.00310005057269
0.00279585022068
0.00290349279123
0.00289766922638
0.00279618578491
0.00310075979143
0.00338704961202
0.00361588177801
0.00378073484998
0.00388420516098
0.00393270231828
0.00394335281753
0.00394065840171
0.00394064920197
0.00394333309051
0.00393265070913
0.00388413741558
0.0037806626951
0.00361580906652
0.00338698139328
0.00310069823065
0.00279611120146
0.00289764137882
0.00289754913167
0.00279610819365
0.00310068643526
0.00338700934619
0.00361587202533
0.00378075438619
0.0038842480301
0.00393277466773
0.00394348381938
0.00394080441497
0.00394080590972
0.00394346931244
0.00393274550681
0.00388422194484
0.00378073055848
0.00361585260095
0.00338700619525
0.00310070906179
0.00279612586658
0.0028976854815
0.00290338375104
0.00279581517246
0.00310000524035
0.00338539366447
0.00361351504188
0.00377769075082
0.00388126355857
0.0039313997605
0.00394462017718
0.00394363624825
0.00394365411914
0.00394464019027
0.00393141341075
0.00388127645722
0.00377770909927
0.00361354076752
0.00338543141025
0.0031000857452
0.00279589607523
0.00290362796323
0.00290905215422
0.00279043073488
0.00309317215904
0.00337526247313
0.00360080170314
0.00376213459838
0.00386418438398
0.00391523882232
0.00393149494761
0.00393303655687
0.00393305730841
0.00393154057936
0.00391529358513
0.00386423177141
0.0037621871429
0.00360086467437
0.00337532971993
0.00309327823597
0.00279053048262
0.00290931896236
0.00290019155747
0.0027696784637
0.00306968051194
0.00334694182426
0.0035647079375
0.00371859009497
0.00381510902071
0.00386427227895
0.00388147956572
0.00388461931814
0.0038846432876
0.00388154449713
0.0038643572346
0.00381518741325
0.00371866931822
0.00356479832124
0.00334706474757
0.00306978034971
0.00276975342592
0.00290039743745
0.0028520502761
0.00271750164115
0.00301403199705
0.00328487772886
0.00349037441842
0.00363214294473
0.0037187240558
0.00376240498409
0.00377808405685
0.00378123959486
0.00378127077257
0.00377816766813
0.00376251434361
0.0037188281777
0.00363223914476
0.00349046588176
0.00328496861424
0.0030140874774
0.00271752433325
0.00285214718094
0.00273269092529
0.00261378671402
0.00290780058203
0.00317080608526
0.00336320746222
0.00349049726989
0.00356495839678
0.00360117432848
0.00361397692281
0.00361637960867
0.00361641581084
0.00361407179684
0.0036012989796
0.00356508139389
0.00349060190984
0.00336328749362
0.0031708485539
0.00290780663033
0.00261376092074
0.0027326916148
0.0025048518049
0.00243675934999
0.00273297053486
0.00298895082688
0.00317091615098
0.00328510742428
0.00334728661734
0.00337569342124
0.00338589132528
0.0033875298885
0.00338757014828
0.00338599391678
0.00337582755625
0.00334742476383
0.00328521438065
0.00317097502298
0.00298896840545
0.00273295438074
0.00243671541417
0.0025048134362
0.00212850076135
0.00216788929738
0.00247895233921
0.00273307205873
0.00290800335466
0.00301434068505
0.00307008745105
0.00309365748105
0.00310054375705
0.00310123937999
0.00310128506513
0.00310065717519
0.00309380146475
0.0030702241721
0.00301444344821
0.00290805953047
0.00273308870503
0.00247893911579
0.00216785457614
0.00212846902676
0.00157208160201
0.00181023859127
0.00216801701811
0.00243697870291
0.00261409496908
0.00271790866027
0.0027701821005
0.00279101316899
0.00279645359218
0.0027967672736
0.0027968148817
0.00279657061651
0.00279116045226
0.00277032109146
0.00271801501787
0.00261415689283
0.00243700234083
0.00216801555302
0.00181022177527
0.00157206193713
0.000900430392818
0.00157228825233
0.00212880468982
0.00250526262068
0.00273324570944
0.0028527903942
0.00290111874873
0.00291012465663
0.00290456109945
0.00289878163391
0.00289887563916
0.00290479767053
0.00291044218485
0.00290145193536
0.00285308473784
0.00273346116148
0.0025053930667
0.00212887013967
0.00157230959613
0.000900410559414
0.000957112422414
0.00177581422995
0.00247575825766
0.00296378297485
0.00327033764573
0.00344096784227
0.00352085523197
0.00355004462004
0.00355803537332
0.00355972076558
0.00355967848177
0.00355793321376
0.00354991307814
0.00352072760624
0.00344089572838
0.00327036442096
0.00296389274884
0.00247590861874
0.00177595695229
0.000957155678539
0.00177568323144
0.00201820631319
0.00243032153752
0.00275358267974
0.00297682885676
0.00311610900531
0.00319375495128
0.00323187525303
0.00324815891262
0.00325379041552
0.00325376948125
0.00324810477016
0.00323179982161
0.00319367175681
0.00311604184239
0.00297680600479
0.0027536105469
0.00243039092839
0.00201829867118
0.00177579436848
0.00247549663984
0.00243024389385
0.00275531924622
0.00303694231519
0.0032407920882
0.00337259733143
0.00344842158197
0.00348636685424
0.00350173118898
0.00350627028577
0.00350625745959
0.0035016966306
0.00348631167031
0.00344834560942
0.00337251901911
0.00324074200725
0.00303692937714
0.00275533753624
0.00243028411877
0.00247557126809
0.00296338500271
0.00275344572047
0.00303688545642
0.00330230023858
0.00350151697124
0.00363462913106
0.00371376705958
0.00375582320898
0.00377169373248
0.00377543525579
0.00377543072061
0.00377167625449
0.00375578529721
0.00371368903402
0.00363452974178
0.00350142824001
0.00330222947928
0.00303683137682
0.00275340502894
0.00296335481684
0.00326992393343
0.00297667502968
0.0032407044858
0.00350146775165
0.00370459481337
0.00384866091215
0.00393749681057
0.00398285258423
0.00399860412383
0.00400128667333
0.00400128569381
0.00399858795463
0.0039828140849
0.0039374324379
0.00384856749191
0.00370447435685
0.0035013376291
0.00324057154785
0.00297654210459
0.00326975162328
0.00344068772673
0.00311598346119
0.00337250148427
0.00363453235618
0.00384857713174
0.00400363654036
0.00410069022162
0.0041484649642
0.00416311450654
0.0041644798192
0.0041644706842
0.00416307478346
0.00414839779766
0.00410059657746
0.00400351881448
0.00384843901907
0.00363435160115
0.00337230249073
0.00311576700318
0.00344037022068
0.00352084677785
0.00319368663037
0.00344831960081
0.00371361840198
0.00393731907578
0.00410063558897
0.00420221247239
0.00424984548046
0.00426194422652
0.00426124948333
0.00426123030886
0.0042618806838
0.00424975897891
0.00420208720245
0.00410048017219
0.00393715652936
0.0037134178606
0.00344809217728
0.00319342292772
0.00352044995776
0.00355027972331
0.00323184095073
0.00348622295388
0.00375555651528
0.00398258267687
0.00414840206247
0.00424993435545
0.00429469454539
0.00430300215961
0.00429947050461
0.00429945144849
0.0043029398913
0.00429460878785
0.00424979296182
0.0041482238746
0.00398240531876
0.00375537029335
0.0034860042547
0.00323157758483
0.00354991689382
0.0035582840345
0.00324807811271
0.00350150605415
0.00377134312919
0.00399825156537
0.0041629638237
0.00426196465007
0.00430300220144
0.00430688382191
0.00430055134307
0.00430055186258
0.00430685862101
0.00430290726933
0.00426181360476
0.00416279398868
0.00399808255981
0.00377117793066
0.00350132731986
0.00324786500905
0.00355806788749
0.00355976527069
0.00325359858853
0.00350594977302
0.00377504129846
0.00400090965736
0.00416424441391
0.00426109891091
0.00429931974223
0.00430047290521
0.0042927017108
0.00429268586027
0.00430043084434
0.00429922149412
0.00426096799454
0.00416410632361
0.00400076581732
0.00377491605581
0.00350584083437
0.00325347374656
0.00355976937647
0.00355951691893
0.0032534713118
0.00350583746825
0.00377496936428
0.00400087197655
0.00416422882419
0.00426110586162
0.00429936230921
0.00430058202744
0.0042928240561
0.00429281919475
0.00430054295351
0.00429928758449
0.00426101931104
0.00416413292073
0.00400076245662
0.00377489214079
0.00350580271262
0.00325343878215
0.00355973792578
0.00355763812046
0.00324774320258
0.00350120988217
0.00377114596597
0.00399813238803
0.0041629026849
0.00426197187917
0.0043030834028
0.00430706879213
0.00430076751595
0.00430078542477
0.0043070796493
0.00430307351421
0.00426194524703
0.00416285667301
0.00399805984607
0.00377110684204
0.00350122326022
0.00324777199649
0.00355799909415
0.00354945451837
0.00323140161231
0.00348581690678
0.00375525823677
0.00398237352337
0.00414826843862
0.00424992747998
0.00429483866065
0.00430321285849
0.00429970284956
0.00429972772597
0.00430326401303
0.00429489237646
0.00424995423468
0.00414826227251
0.00398233579359
0.00375524962466
0.00348584759509
0.00323144623656
0.00354984125185
0.00352011449085
0.00319326954249
0.00344789575077
0.00371322146789
0.00393705613501
0.00410045601575
0.00420217415415
0.00425000595299
0.00426220370297
0.00426153168916
0.00426156051645
0.00426227981954
0.00425009819804
0.00420223288406
0.00410046839335
0.0039370347626
0.00371324519636
0.00344791507761
0.00319328600079
0.00352041201613
0.00344029707448
0.00311570832589
0.0033721731566
0.00363416999268
0.00384831075507
0.00400344935635
0.00410060116081
0.00414852534935
0.00416327204021
0.00416468263903
0.00416471838918
0.00416336739834
0.0041486388726
0.00410067491352
0.00400346378663
0.0038482944293
0.00363416899891
0.00337215513193
0.00311567294771
0.00344043105504
0.0032699356981
0.00297659590642
0.00324053897818
0.00350121858438
0.00370432076332
0.00384843174221
0.00393730337057
0.0039827351821
0.00399855257743
0.00400128770828
0.0040013286833
0.00399866103559
0.00398286153968
0.00393738819833
0.00384845683934
0.00370430376269
0.00350117377027
0.00324047755957
0.00297651456968
0.00326991993913
0.00296370145267
0.00275355233058
0.00303689690346
0.00330220457261
0.00350132699024
0.00363438940996
0.00371353603788
0.00375563261583
0.00377154276069
0.00377533576515
0.00377538175273
0.0037716565986
0.00375576533384
0.00371363822889
0.00363443094315
0.00350130475315
0.00330215241077
0.00303682563525
0.00275346193739
0.0029636250048
0.00247595038967
0.00243049705184
0.00275549082745
0.00303700562849
0.00324074192396
0.00337245840369
0.00344823695306
0.00348619132492
0.0035015886873
0.00350617935455
0.00350623149279
0.00350171073877
0.00348633071506
0.00344834140803
0.00337250876943
0.00324073813182
0.00303697035217
0.00275543707902
0.0024304314329
0.00247589127974
0.00177606572018
0.00201856622715
0.00243064000637
0.00275379689114
0.00297692048719
0.0031161019577
0.00319370911109
0.00323185685901
0.00324818593044
0.00325386872247
0.00325391690128
0.00324829920365
0.00323198781369
0.00319381386715
0.0031161638523
0.00297693497644
0.0027537802677
0.002430610443
0.00201853301068
0.00177603239192
0.000957100198917
0.00177629951669
0.00247634667128
0.00296426821275
0.0032706685828
0.0034412064026
0.0035211586694
0.00355053335384
0.00355868572907
0.00356048808317
0.00356059521154
0.00355894913791
0.00355088044692
0.00352151700413
0.00344152076376
0.00327088753846
0.00296439548013
0.00247640828798
0.00177631496951
0.00095707183962
0.00100912473578
0.00197454337512
0.00281775218834
0.00341670832492
0.00380270520426
0.00402741372034
0.00414635867357
0.0042087411376
0.00424533477102
0.0042646489973
0.00426458338917
0.00424517056297
0.00420852277567
0.00414613400175
0.00402725635565
0.00380268352525
0.0034168122911
0.00281793300907
0.00197471974567
0.00100917248404
0.00197443651726
0.00222129159856
0.00269819845979
0.00308555142294
0.003361816504
0.0035405488828
0.0036466939668
0.00370613595313
0.00373789626571
0.00375204506994
0.00375201856866
0.00373782612517
0.00370603718094
0.00364658359139
0.0035404531836
0.00336177325298
0.00308557391339
0.0026982781633
0.00222140667319
0.00197458739474
0.00281751064739
0.00269813985523
0.00305541583173
0.00337770869385
0.00361649607197
0.00377474935144
0.0038699996881
0.00392128771324
0.00394442099844
0.00395248004057
0.00395246432065
0.00394438445444
0.00392122317255
0.0038699004409
0.00377462980065
0.00361640929633
0.00337767202933
0.0030554243208
0.00269818415738
0.00281760933589
0.0034163320912
0.00308545008554
0.0033776743353
0.00366636438347
0.00388899333037
0.00404297801154
0.00413918596339
0.00419085654917
0.00420911251017
0.0042124294413
0.00421242368132
0.00420909173598
0.0041908098088
0.00413911481594
0.00404280199578
0.00388884047814
0.00366624627629
0.0033775845472
0.00308538458588
0.00341627683993
0.00380236808157
0.0033617215991
0.00361645250632
0.00388895579047
0.00411125227521
0.0042777474457
0.00438221233103
0.00443187738215
0.00444332897049
0.0044411738765
0.00444117284889
0.00444330692442
0.00443181713078
0.00438209721656
0.00427756674316
0.0041110500317
0.00388875310404
0.00361625887726
0.00336153471845
0.00380211980441
0.00402728565128
0.00354049921886
0.00377470778103
0.00404288133034
0.00427765614886
0.00445379764725
0.00455910556652
0.00460029292503
0.00460174044619
0.00459323328906
0.00459322226872
0.00460169317626
0.00460018736004
0.00455892225897
0.00445356559563
0.00427741941582
0.00404260673616
0.00377443263209
0.00354020598626
0.00402684319708
0.00414656534071
0.00364669577862