/*--------------------------------*- C++ -*----------------------------------*\
| =========                 |                                                 |
| \\      /  F ield         | OpenFOAM: The Open Source CFD Toolbox           |
|  \\    /   O peration     | Version:  3.0.1                                 |
|   \\  /    A nd           | Web:      www.OpenFOAM.org                      |
|    \\/     M anipulation  |                                                 |
\*---------------------------------------------------------------------------*/
FoamFile
{
    version     2.0;
    format      ascii;
    class       volVectorField;
    location    "3.2";
    object      U_0;
}
// * * * * * * * * * * * * * * * * * * * * * * * * * * * * * * * * * * * * * //

dimensions      [0 1 -1 0 0 0 0];

internalField   nonuniform List<vector> 
7968
(
(0.00117284083708 0.00117738193289 -0.00214857772664)
(0.00369109278897 0.000565558115937 -0.00214749117966)
(0.00695630267966 0.000251900600437 -0.00186664410724)
(0.0095013950602 0.000214962453724 -0.00141250899857)
(0.0110171465 0.000447190449747 -0.000961866780776)
(0.0110766723416 0.000850903236808 -0.000602949508863)
(0.0100249821675 0.00123911893004 -0.000387286541187)
(0.00787634433517 0.00164434107856 -0.000246377670186)
(0.00499083095749 0.00194300512964 -0.000190418039683)
(0.00170550657925 0.00209766460005 -0.000176933875713)
(-0.00170795105123 0.00209799018278 -0.000176969674935)
(-0.00499414303092 0.00194392188894 -0.000190597846413)
(-0.00788111500933 0.00164574997911 -0.000246826252474)
(-0.0100312806031 0.00124080471541 -0.000388140606868)
(-0.0110841336738 0.000852602166049 -0.000604168909114)
(-0.0110250486694 0.000448647129048 -0.000963576014792)
(-0.00950816842234 0.000216077500177 -0.00141449179474)
(-0.00696129286822 0.000252916752674 -0.00186890706747)
(-0.00369413869679 0.000566787648594 -0.00215065647076)
(-0.00117321039723 0.0011790113993 -0.00215221615192)
(0.000561559861827 0.0036990846385 -0.00214700531419)
(0.00320109939924 0.0032063855998 -0.00416549641266)
(0.00719408552632 0.00318406478343 -0.00477423925539)
(0.0102744119643 0.00370045845078 -0.0046354032211)
(0.0120597287649 0.00469702368267 -0.00427529894892)
(0.012234321233 0.00591928492093 -0.00391552388055)
(0.0110211188334 0.00706975081679 -0.00365473923816)
(0.00862770223845 0.00807687989268 -0.00349570839672)
(0.0054438743628 0.00878332179253 -0.00344063574736)
(0.00185564046689 0.00913979282739 -0.0034368832794)
(-0.00185578584083 0.00914024977572 -0.00343671685687)
(-0.0054448781966 0.00878461064996 -0.00344025091461)
(-0.00863019233309 0.00807888946359 -0.00349522916305)
(-0.0110254625424 0.00707215793242 -0.00365433769731)
(-0.0122403448452 0.00592165776274 -0.00391552959732)
(-0.0120665547971 0.00469890697043 -0.00427624321138)
(-0.0102803748956 0.00370182541676 -0.00463729976373)
(-0.00719814049182 0.00318559266554 -0.00477685518843)
(-0.00320299517502 0.00320904213844 -0.00416874770985)
(-0.000561440642821 0.00370375645956 -0.00215023127431)
(0.000248722506951 0.0069665188793 -0.00186507006148)
(0.00318134518447 0.00719820450027 -0.00477351484424)
(0.00785679902583 0.00785584222743 -0.00565815151904)
(0.0114657868857 0.00917516430454 -0.00546080943815)
(0.0135419276804 0.011047757228 -0.00491933725494)
(0.0137905785952 0.0131498788907 -0.00435475863475)
(0.012391393713 0.0151074452164 -0.00391993226111)
(0.00967190914383 0.0167574810896 -0.00365493821903)
(0.00608420194558 0.0179157086416 -0.00355383846015)
(0.00207027675853 0.0185013061913 -0.00353935011919)
(-0.00206690617738 0.0185016591646 -0.00353894256921)
(-0.0060817440104 0.0179167279769 -0.00355278331481)
(-0.00967115322225 0.0167591504859 -0.0036532656106)
(-0.0123930770873 0.0151094055775 -0.00391791058718)
(-0.0137947426733 0.0131517929149 -0.00435309480005)
(-0.0135476651917 0.0110493281081 -0.0049188972427)
(-0.0114713187322 0.00917657185985 -0.00546182803526)
(-0.00786076063952 0.0078579588736 -0.00566026439574)
(-0.00318317772019 0.00720223419559 -0.00477621058425)
(-0.000248848492075 0.00697399297426 -0.00186766188875)
(0.000212345789746 0.00950978446153 -0.00140936144173)
(0.00369942099571 0.0102741907013 -0.00463395384573)
(0.00917958200649 0.0114586076488 -0.00546072073066)
(0.0134361867207 0.0134238177729 -0.00495835199365)
(0.0158696424818 0.0160048431243 -0.00400735749511)
(0.0161432151703 0.0188160523355 -0.00302440479693)
(0.0144534803179 0.0214052113777 -0.00223213107254)
(0.0112322999178 0.0235462239114 -0.00171543587654)
(0.00703198427169 0.0250350048963 -0.00147825780277)
(0.00238511803396 0.0257840603243 -0.00141502279401)
(-0.0023792843408 0.0257840830106 -0.00141438198644)
(-0.00702694199066 0.0250350813776 -0.00147653938298)
(-0.01122907655 0.0235463493447 -0.00171232419125)
(-0.0144532751559 0.0214050979934 -0.00222822969556)
(-0.0161462650818 0.0188157540428 -0.00302082628526)
(-0.0158750229791 0.0160045388027 -0.00400527324522)
(-0.0134419256676 0.0134238702376 -0.00495811820292)
(-0.00918405661674 0.0114600462286 -0.00546191216673)
(-0.00370182284786 0.0102784277249 -0.00463591629265)
(-0.000212978323261 0.00951870750435 -0.00141145385647)
(0.000445122766581 0.0110210759841 -0.000957013209216)
(0.00469629155404 0.0120537977698 -0.00427360323679)
(0.0110533012151 0.0135276917298 -0.0049202284951)
(0.016019503686 0.015848157878 -0.00400908734622)
(0.0188412977426 0.0188150518732 -0.00251799428719)
(0.0191056733158 0.0220113925392 -0.000934151587958)
(0.0170494407701 0.0249351159435 0.000369628841032)
(0.0131952059252 0.0273301507942 0.00127166013276)
(0.00822779617887 0.0289934143774 0.00172925710626)
(0.00278423538593 0.0298338119424 0.00188644931968)
(-0.00277748512136 0.0298331301866 0.0018873074731)
(-0.00822189979788 0.0289914091234 0.00173177555814)
(-0.0131913386781 0.0273269710052 0.00127588390814)
(-0.0170488124214 0.0249309627581 0.000374773427064)
(-0.0191084551077 0.0220069736914 -0.000929285359299)
(-0.0188465350793 0.0188110282444 -0.00251456872279)
(-0.0160256435973 0.015845379061 -0.00400747020864)
(-0.0110584663765 0.0135271573511 -0.00492026098322)
(-0.00469947181886 0.0120570021434 -0.00427454595013)
(-0.00044644082673 0.0110300366051 -0.000958291072249)
(0.000847935084084 0.0110759578981 -0.000597513063091)
(0.00591689156648 0.0122239738947 -0.00391456235721)
(0.0131534545004 0.0137717211573 -0.00435814532156)
(0.0188287488478 0.0161157075865 -0.00303073581159)
(0.0220374855914 0.0190710640554 -0.0009408499491)
(0.0222416372028 0.0222053188578 0.00125706336295)
(0.0197680147251 0.0250027118161 0.00309052839107)
(0.015245233877 0.027284051616 0.00436365155356)
(0.00947354905734 0.0288535946055 0.00502780376944)
(0.00319849343133 0.029639077876 0.00527153071793)
(-0.00319308760493 0.0296376865368 0.0052720140925)
(-0.00946861938307 0.028849354126 0.00502948527456)
(-0.0152418892302 0.0272772514961 0.00436716721899)
(-0.0197675886082 0.0249939438108 0.00309529747297)
(-0.0222441677709 0.022195633598 0.00126217470305)
(-0.0220425637675 0.0190620802452 -0.000936468647356)
(-0.0188348286061 0.0161085464945 -0.00302803518011)
(-0.013158795451 0.0137677110125 -0.00435715140974)
(-0.00592029484154 0.0122244997413 -0.00391450469497)
(-0.000849420224424 0.0110829382826 -0.000598086550404)
(0.00123634154454 0.0100210623751 -0.000381038192581)
(0.00706568470165 0.0110101412768 -0.00365485974614)
(0.0151082208996 0.0123736571705 -0.00392663812811)
(0.0214143036923 0.014428089163 -0.00224510444708)
(0.0249595957144 0.0170170636601 0.000352994940888)
(0.0250397090669 0.0197342983497 0.0030809606802)
(0.0221763455521 0.0221431585012 0.00531062935098)
(0.0170297443767 0.0241351014699 0.00687715411249)
(0.0105286221874 0.0254980918037 0.00770634168763)
(0.00354220918162 0.0261722829807 0.00801158924395)
(-0.0035398621383 0.0261704877473 0.00801177688412)
(-0.0105266983179 0.0254926152835 0.00770716620391)
(-0.0170290311398 0.0241259392239 0.00687950648921)
(-0.022177944878 0.0221306307002 0.00531444970287)
(-0.0250433351195 0.0197197198539 0.00308511450773)
(-0.0249647342114 0.0170025855418 0.000357025390224)
(-0.0214200423109 0.0144159244382 -0.00224227103273)
(-0.015113216253 0.0123655217088 -0.00392524309433)
(-0.00706885254471 0.0110073219127 -0.00365410232337)
(-0.00123811656939 0.0100251590477 -0.000380919005334)
(0.00164124234621 0.00787022576066 -0.000239359304799)
(0.00807174658222 0.00861979943048 -0.00349649048513)
(0.01675607829 0.00966143934866 -0.00366384712021)
(0.0235519528244 0.0112178805866 -0.00173348385339)
(0.027353132557 0.0131757345652 0.00124639835076)
(0.0273241972635 0.0152257714083 0.00434728727179)
(0.0241721062286 0.0170137629898 0.00687523388068)
(0.018533355956 0.0185174663945 0.00859150104025)
(0.0114423465698 0.0195677833214 0.00922252754952)
(0.00383700361775 0.0200654969314 0.00944784689532)
(-0.00383937401109 0.0200636887586 0.00944831399207)
(-0.0114449739327 0.0195617831347 0.00922412394877)
(-0.0185369781565 0.0185061682036 0.00859522143224)
(-0.0241778516602 0.0169983037521 0.00687745889815)
(-0.0273304703652 0.0152074172117 0.00434907149544)
(-0.0273588880522 0.0131567405992 0.00124804212375)
(-0.0235570310323 0.0112014105431 -0.00173200023051)
(-0.0167601592737 0.00964946020006 -0.0036628835587)
(-0.00807420468452 0.00861345350493 -0.0034955079038)
(-0.00164284299329 0.00787076466108 -0.000238780089838)
(0.00193982341399 0.00498249874391 -0.00018248239732)
(0.00877810881602 0.00544063695813 -0.00344071961285)
(0.0179134178571 0.00608388826381 -0.00356204969391)
(0.0250382295358 0.0070327495031 -0.00149614291458)
(0.0290139895583 0.00822626912106 0.00170090599386)
(0.028895284452 0.00947115066121 0.0050095235652)
(0.0255389580415 0.0105267943405 0.0077084667934)
(0.0195858434977 0.0114403475544 0.00922964474904)
(0.0120250136211 0.0120231349021 0.00992115503718)
(0.00401589587514 0.012296857102 0.0101413552035)
(-0.00402249391998 0.0122945702762 0.0101425397635)
(-0.0120335723575 0.0120160118933 0.0099234321568)
(-0.0195954343051 0.0114277057213 0.00923171250663)
(-0.025549001057 0.0105099970847 0.00770843993115)
(-0.0289044870187 0.00945144550809 0.0050085441471)
(-0.0290205759452 0.00820546149724 0.00169912387879)
(-0.0250422861135 0.00701435322518 -0.00149702933749)
(-0.0179160735101 0.00606977302494 -0.00356225058205)
(-0.00877948253201 0.00543187020235 -0.00344008613866)
(-0.00194092692491 0.00497988020808 -0.000181667721866)
(0.00209474195001 0.00169344718871 -0.00016831904129)
(0.0091348461967 0.00185556003279 -0.00343534109313)
(0.0184988222069 0.00207841241849 -0.00354479726259)
(0.0257855862591 0.00239844605076 -0.00142884492058)
(0.0298507829851 0.00279835982089 0.00186171371132)
(0.0296763411247 0.00321030493662 0.00525508246389)
(0.0262100156386 0.00355007780623 0.00801383836742)
(0.0200829544186 0.00384090384915 0.0094556364019)
(0.0122997395295 0.00401865983363 0.0101448649691)
(0.00410069491949 0.00410257617588 0.0103497515952)
(-0.00411344530694 0.00409961920463 0.0103499899106)
(-0.0123132767978 0.00401012723386 0.0101453109274)
(-0.0200967419894 0.00382819579656 0.00945563556965)
(-0.0262235463363 0.00353395186509 0.00801156045972)
(-0.0296880057209 0.00319172988492 0.0052512953234)
(-0.0298578883622 0.00277897542547 0.00185620789713)
(-0.0257883365577 0.00238123121995 -0.0014324529309)
(-0.0184998091776 0.00206474951186 -0.00354661209518)
(-0.00913497788592 0.00184624453109 -0.00343554158546)
(-0.00209515500385 0.0016889292747 -0.000167660122779)
(0.0020955774313 -0.00172518275454 -0.000168625422445)
(0.00913525523676 -0.00185502454788 -0.00343414691265)
(0.0184985975311 -0.00205358433058 -0.00354216607226)
(0.0257837589289 -0.00235796898088 -0.00142466850763)
(0.0298461001526 -0.00275276643737 0.00186659353421)
(0.0296696331894 -0.00317086912922 0.00525848283157)
(0.0262031155942 -0.00352273608702 0.0080157705033)
(0.0200777447013 -0.00382892301725 0.00945689395214)
(0.0122960265758 -0.004018231335 0.0101472845126)
(0.00409745000671 -0.00411172975067 0.0103519463869)
(-0.00411561279418 -0.0041135961342 0.010351423237)
(-0.0123141349366 -0.00402441044709 0.0101452896124)
(-0.0200948088538 -0.00383861361028 0.00945451106905)
(-0.0262192333745 -0.00353568024888 0.00801077830866)
(-0.0296827897467 -0.00318562031578 0.00525170995559)
(-0.0298529863074 -0.00276752142549 0.00185770754196)
(-0.0257849361521 -0.00237108791387 -0.0014306504031)
(-0.018497874037 -0.00206400095677 -0.00354544440313)
(-0.00913411982369 -0.00186256390085 -0.00343512415832)
(-0.00209527472711 -0.00172972329655 -0.000168256685819)
(0.00194180540592 -0.00501611782262 -0.000183549601876)
(0.00877909218444 -0.00544384206653 -0.00343741068352)
(0.0179125692218 -0.00606485210098 -0.00355476913875)
(0.0250325427739 -0.00699941629782 -0.00148445625771)
(0.0289996991502 -0.00818875234518 0.00171444776652)
(0.028874351842 -0.00943903170243 0.00501816106209)
(0.0255169406381 -0.0105061733469 0.0077118980224)
(0.0195674937269 -0.0114335876913 0.00923046329589)
(0.0120114084357 -0.012029588258 0.00992149719175)
(0.00400604830124 -0.0123123301183 0.0101400382627)
(-0.00402690552228 -0.0123133610295 0.0101396601828)
(-0.0120324695322 -0.0120322407617 0.00991941792991)
(-0.0195874329307 -0.0114381154737 0.00922745501392)
(-0.0255351766351 -0.01051339165 0.00770456359578)
(-0.0288882139388 -0.00944712349465 0.00500866691095)
(-0.0290058024626 -0.00819599975919 0.00170292889873)
(-0.0250320852187 -0.00700584235026 -0.00149236804311)
(-0.0179101104142 -0.00606977880631 -0.00355904428695)
(-0.00877675401784 -0.0054476102707 -0.00343894287799)
(-0.00194097466662 -0.00501897049548 -0.00018344152161)
(0.00164346303015 -0.00790640755553 -0.000241308181863)
(0.00807276050934 -0.00862892925152 -0.0034921181562)
(0.016753912336 -0.0096518598631 -0.00365378437074)
(0.0235419757463 -0.0111965902885 -0.00171712750774)
(0.0273298878081 -0.0131508439015 0.00126430060545)
(0.0272908323087 -0.0152034517972 0.00435766136735)
(0.0241376216498 -0.0169999458597 0.00687727556917)
(0.0185031044355 -0.0185127112092 0.00859249102741)
(0.0114188384951 -0.0195730489801 0.00921942602787)
(0.00382183180756 -0.020076646716 0.00944092051977)
(-0.003843762679 -0.0200767394362 0.00944045421401)
(-0.0114405487779 -0.0195725466667 0.00921788125401)
(-0.0185237320279 -0.018511682447 0.00859057065295)
(-0.0241564078814 -0.0169998492898 0.00686923821377)
(-0.0273043284169 -0.0152029522108 0.00434689903716)
(-0.027334901929 -0.0131488908711 0.0012521577817)
(-0.0235402211619 -0.011194621941 -0.00172557499731)
(-0.0167501954517 -0.00965008916507 -0.0036581519989)
(-0.00806960513423 -0.00862784402121 -0.00349366848647)
(-0.00164237523327 -0.00790651309752 -0.000241348242443)
(0.00123799368221 -0.0100586890919 -0.000384018697697)
(0.00706595144133 -0.0110253525904 -0.00365071176229)
(0.0151038505353 -0.0123742537187 -0.00391629845433)
(0.0214002682462 -0.0144197775632 -0.00222842420635)
(0.0249303750839 -0.0170050981269 0.000370936942187)
(0.0249982561606 -0.0197215019614 0.00309109902768)
(0.0221331920522 -0.0221345127887 0.00531080619785)
(0.0169930402649 -0.0241331134298 0.0068709588019)
(0.0105006466454 -0.0255016791627 0.00769645674076)
(0.00352437974794 -0.0261784459279 0.00799829496867)
(-0.00354535295855 -0.0261774608256 0.00799755395924)
(-0.0105214917582 -0.0254984819477 0.00769429804772)
(-0.0170133349508 -0.0241278494354 0.00686695406738)
(-0.0221507627718 -0.0221274833976 0.0053038260716)
(-0.0250101913564 -0.0197125763935 0.00308119323845)
(-0.0249340032709 -0.0169944230128 0.00036051310139)
(-0.0213978514737 -0.0144098896168 -0.00223537008283)
(-0.0150997595273 -0.0123662410277 -0.00391957605807)
(-0.00706265190928 -0.0110196961454 -0.00365156195883)
(-0.00123691173431 -0.0100559938576 -0.000383912174269)
(0.00084922664155 -0.011112731335 -0.000601197267158)
(0.00591570441769 -0.0122429842371 -0.00391164631928)
(0.0131464305553 -0.013779825586 -0.00434971083649)
(0.01881178588 -0.0161173169287 -0.0030170933752)
(0.0220059844482 -0.019069021262 -0.000926056821309)
(0.0221974139941 -0.0221997358544 0.00126578218254)
(0.0197208252692 -0.0249969686606 0.00308960522782)
(0.0152036591126 -0.0272809449931 0.00435505356963)
(0.00944238014105 -0.0288529280985 0.0050141744356)
(0.00317965776904 -0.0296387579314 0.00525518074722)
(-0.00319858820414 -0.0296370282281 0.00525473179713)
(-0.00946094589111 -0.0288477506876 0.00501282279327)
(-0.0152212882519 -0.0272724655352 0.0043522970724)
(-0.0197353835822 -0.0249853109422 0.00308439504536)
(-0.0222063815663 -0.0221850159207 0.00125878354265)
(-0.0220079762843 -0.0190525383971 -0.000932369533168)
(-0.0188093708229 -0.0161024068415 -0.00302066093661)
(-0.0131428753404 -0.0137679670215 -0.00435087224522)
(-0.00591299519202 -0.0122346188231 -0.00391139051063)
(-0.000848384348231 -0.011108342421 -0.00060084530885)
(0.000444445564429 -0.01105413577 -0.000962062100479)
(0.0046927072797 -0.0120733120207 -0.00427231285521)
(0.0110433441182 -0.0135394975163 -0.00491445974907)
(0.0160005492808 -0.0158555594564 -0.0039994325369)
(0.0188098864872 -0.018818671061 -0.00250726784836)
(0.0190633329728 -0.0220103785403 -0.000927391182771)
(0.0170036678217 -0.0249303019358 0.000368673887068)
(0.0131539787268 -0.0273230769979 0.0012632739047)
(0.00819674236722 -0.0289843457424 0.00171537384425)
(0.00276603270287 -0.0298228199778 0.00187006020376)
(-0.00278193657866 -0.0298208112044 0.00186993815447)
(-0.00821211343995 -0.0289783249052 0.00171494669816)
(-0.0131680548104 -0.0273131693033 0.00126213254497)
(-0.0170146880808 -0.0249167054624 0.00036638902249)
(-0.0190695440587 -0.021993881159 -0.000930011646078)
(-0.0188111592932 -0.0188012683681 -0.00250862416878)
(-0.0159989614083 -0.0158400176636 -0.00399921982111)
(-0.0110410710607 -0.0135272240943 -0.00491329544189)
(-0.00469111478827 -0.0120646667948 -0.00427088437207)
(-0.000443925638789 -0.0110494210581 -0.000961487347407)
(0.000210615090364 -0.00953545680793 -0.0014140443141)
(0.00369327520903 -0.010290984021 -0.0046335415978)
(0.00916708373837 -0.011470571083 -0.00545730056706)
(0.0134162772226 -0.0134331581647 -0.00495254890344)
(0.0158406255886 -0.0160114853128 -0.00400034210932)
(0.0161060710315 -0.0188179684099 -0.00301912103732)
(0.0144137147899 -0.0214020256751 -0.0022312519068)
(0.0111966642669 -0.023538647546 -0.00171898586735)
(0.00700551392585 -0.0250234858733 -0.00148428985882)
(0.0023696346427 -0.0257696362769 -0.00142179440061)
(-0.00238316887579 -0.0257679623668 -0.00142177216566)
(-0.00701813593228 -0.0250184057051 -0.00148412898865)
(-0.011207553251 -0.0235302292591 -0.00171875342978)
(-0.0144216874494 -0.0213905867255 -0.00223104104165)
(-0.0161102833076 -0.0188044640998 -0.00301842991204)
(-0.015841432671 -0.0159976313326 -0.00399856793933)
(-0.0134153335346 -0.0134210088978 -0.00495006599179)
(-0.00916572996254 -0.0114611287987 -0.00545469975741)
(-0.00369251164518 -0.0102846011668 -0.00463143522077)
(-0.000210323334479 -0.00953210652273 -0.00141339739089)
(0.000246004467411 -0.00698418534867 -0.00186912845682)
(0.00317357768034 -0.00721055923138 -0.00477353657613)
(0.00784307751426 -0.00786572546827 -0.00565641507973)
(0.0114463175648 -0.00918393255478 -0.00545798228335)
(0.0135163521528 -0.0110551837348 -0.00491579228342)
(0.0137599363655 -0.0131542211785 -0.0043515863867)
(0.0123592942998 -0.0151080049842 -0.00391836081707)
(0.00964302029304 -0.0167543875617 -0.00365523064116)
(0.00606238711769 -0.0179094766685 -0.00355506018102)
(0.00205734235206 -0.0184927431631 -0.0035408269858)
(-0.00206976400094 -0.0184915119174 -0.00354094445229)
(-0.00607343616651 -0.0179058394856 -0.00355508876293)
(-0.00965182616199 -0.0167485263985 -0.00365488962906)
(-0.0123651197115 -0.0151003434936 -0.00391742451357)
(-0.0137626245632 -0.0131455450593 -0.00434990744138)
(-0.0135163996677 -0.0110465972689 -0.00491323381625)
(-0.0114451046651 -0.00917670858318 -0.00545497636592)
(-0.00784165661656 -0.00786045235484 -0.00565354368552)
(-0.00317275442721 -0.00720742976688 -0.00477144492347)
(-0.000245553060786 -0.00698271398739 -0.00186845886135)
(0.000558535769164 -0.00370916033664 -0.00215078205137)
(0.00319351314378 -0.00321434615446 -0.00416641878109)
(0.00718134705808 -0.00319141618301 -0.0047741815959)
(0.0102575041587 -0.00370779409614 -0.00463507323503)
(0.012038919487 -0.00470415487856 -0.0042746315599)
(0.012210509082 -0.00592483815828 -0.0039147331998)
(0.0109965387482 -0.00707330092695 -0.00365438695283)
(0.00860555185749 -0.00807825753224 -0.0034961665857)
(0.00542707134787 -0.00878279628611 -0.00344157827187)
(0.0018457013937 -0.0091377771302 -0.00343805424898)
(-0.00185762861894 -0.00913716847015 -0.00343831002572)
(-0.00543735535843 -0.00878109879638 -0.00344212346917)
(-0.00861315098018 -0.00807564873034 -0.00349663148344)
(-0.0110008302881 -0.00707005318628 -0.00365435066889)
(-0.0122117709717 -0.0059213699552 -0.00391397154239)
(-0.0120375914717 -0.00470088244846 -0.00427311891191)
(-0.0102550323843 -0.00370540397443 -0.00463297424413)
(-0.0071788836128 -0.00319000079278 -0.00477209861681)
(-0.00319190180446 -0.00321384865792 -0.00416493794131)
(-0.000557616098823 -0.00370865822971 -0.00215003551023)
(0.00117040969624 -0.0011803184555 -0.00215236046438)
(0.00368628371855 -0.000568595443102 -0.00215076036555)
(0.00694840333387 -0.00025542013778 -0.00187005372583)
(0.00949153046901 -0.000219040823909 -0.00141625312792)
(0.0110053970646 -0.000451843945106 -0.000965676705638)
(0.0110633546386 -0.000855247449927 -0.000606421567703)
(0.0100106975718 -0.00124319493663 -0.000390315532957)
(0.00786281435786 -0.0016475093691 -0.000249182073941)
(0.00497991444388 -0.00194507849869 -0.000193031729522)
(0.00169863601391 -0.00209880789353 -0.00017964321177)
(-0.00170927469216 -0.00209861349865 -0.00018014751311)
(-0.00498846339053 -0.0019445534414 -0.000194483527844)
(-0.00786794392671 -0.00164683866833 -0.000251108247224)
(-0.0100118583997 -0.00124259106288 -0.000392240908467)
(-0.0110611882654 -0.000855233771438 -0.000607795436163)
(-0.011000564661 -0.000451867158359 -0.000966731064072)
(-0.00948566934146 -0.00021969308786 -0.00141636930785)
(-0.00694319467764 -0.000256367537673 -0.00186954275811)
(-0.0036828302961 -0.000569669714213 -0.00215005592619)
(-0.00116869073624 -0.00118074207744 -0.00215084165454)
(0.00194358428101 0.00194855963001 -0.0075766748179)
(0.00525592927801 0.00239414843173 -0.00787310060708)
(0.00864931382672 0.00278446924045 -0.00750341592153)
(0.0111705506661 0.00331728502931 -0.00669505631902)
(0.0125053885464 0.0039503091279 -0.0057871034467)
(0.0123809213403 0.00459582104997 -0.00503230865384)
(0.0110526030616 0.00516331988482 -0.00451379546069)
(0.00861528663885 0.00567089575292 -0.00419985337206)
(0.0054285354804 0.00603313054286 -0.00408563244546)
(0.00184919282508 0.00621893499951 -0.0040699448713)
(-0.00185186739492 0.00621894985637 -0.00406978875606)
(-0.00543197127675 0.00603312346874 -0.00408534125291)
(-0.00861992856586 0.0056708212692 -0.00419972664811)
(-0.011058579287 0.00516304921867 -0.00451414265464)
(-0.0123879377545 0.00459522663036 -0.0050333296068)
(-0.0125124652126 0.00394924196251 -0.00578936078437)
(-0.0111760462155 0.0033160018051 -0.00669832437587)
(-0.00865255525783 0.00278357432047 -0.00750751244446)
(-0.00525719575387 0.00239425791564 -0.00787860965148)
(-0.00194325724795 0.00194966825708 -0.00758254663791)
(0.00239122357789 0.0052629176485 -0.00787115461927)
(0.00591714782693 0.00591915850224 -0.0103490055319)
(0.00930245155073 0.00668070534694 -0.0108102089311)
(0.0117828478681 0.0078165885189 -0.0102690450211)
(0.0130254159798 0.00920314103518 -0.00936798239883)
(0.01287572725 0.0106481182066 -0.00846901601726)
(0.0114347209297 0.0119746405587 -0.00776424752449)
(0.00890071392633 0.0130911416966 -0.00731442767833)
(0.00561209851768 0.0138800743153 -0.00711143852097)
(0.00191542414254 0.014283352661 -0.00705523251402)
(-0.00190885011192 0.0142831880002 -0.00705459401039)
(-0.00560636247745 0.013879518916 -0.00710973939326)
(-0.0088964758644 0.0130902481724 -0.00731194149471)
(-0.0114325367721 0.0119732854667 -0.00776144073242)
(-0.0128756311133 0.0106461197301 -0.00846682317031)
(-0.0130266681296 0.00920046240763 -0.00936746746753)
(-0.0117842888951 0.00781363598552 -0.0102705068567)
(-0.00930325471429 0.00667843495386 -0.0108133554077)
(-0.0059170624618 0.00591874293582 -0.0103534708508)
(-0.00239058551927 0.00526548220311 -0.00787603078111)
(0.00278380535707 0.00865548513897 -0.0074990813382)
(0.00668252350528 0.00930110650334 -0.0108086973931)
(0.010359336007 0.0103528986231 -0.0113916020173)
(0.0129882809519 0.0119586021663 -0.0105780194628)
(0.0142540454678 0.0139354825354 -0.00921519727343)
(0.014036642181 0.0160179398152 -0.00779391389397)
(0.0124153303971 0.0179468287546 -0.00661238033931)
(0.00963638284925 0.0195473098176 -0.00580713943921)
(0.00606524646252 0.0206725335831 -0.00538707008369)
(0.00206953796685 0.0212445510306 -0.00523263694675)
(-0.00205710065458 0.0212442056288 -0.00523151027461)
(-0.00605373220436 0.0206713163025 -0.00538394841755)
(-0.00962664463699 0.019545609561 -0.00580224478304)
(-0.0124083125022 0.0179443352911 -0.00660634133519)
(-0.0140326352999 0.0160145048065 -0.0077882567903)
(-0.0142523813603 0.0139312522021 -0.00921166618493)
(-0.0129877862876 0.0119542039902 -0.0105772096979)
(-0.0103590217723 0.0103494843002 -0.011393139682)
(-0.00668180404852 0.00930019873518 -0.0108117181757)
(-0.0027830453646 0.00865935848747 -0.00750256345139)
(0.00331836673925 0.0111718757784 -0.00668822531009)
(0.00782114922183 0.0117764624256 -0.0102667963569)
(0.0119686527073 0.012976426845 -0.0105782738925)
(0.0148776756302 0.0148615741348 -0.00914982840418)
(0.0162253623995 0.0172031434311 -0.006992764889)
(0.0158990989084 0.0196807004883 -0.00474023874237)
(0.0139956450923 0.0219716754328 -0.00282793824024)
(0.010815870884 0.0238504057432 -0.00148674164875)
(0.00678222504787 0.0251538300892 -0.00075272657043)
(0.00230862959986 0.0258153300127 -0.000458559776191)
(-0.00229310187181 0.0258145652314 -0.000456936789768)
(-0.00676743531965 0.0251515547418 -0.000747954935081)
(-0.0108028969833 0.023846741499 -0.00147924709441)
(-0.0139860896955 0.0219666118164 -0.00281849262915)
(-0.0158932679306 0.0196744006294 -0.00473085055433)
(-0.0162225621784 0.0171962556663 -0.00698587769146)
(-0.014876654089 0.0148548683151 -0.00914630860144)
(-0.011968275815 0.0129711452015 -0.0105777202018)
(-0.00782059282587 0.0117743802429 -0.0102681768755)
(-0.00331790381112 0.0111760395697 -0.00669060708299)
(0.00395257672077 0.0125001942661 -0.00577909144591)
(0.00920900028361 0.0130138230563 -0.0093668525152)
(0.0139472167215 0.0142370112878 -0.00921828658829)
(0.0172214892184 0.0162031545199 -0.00699681334894)
(0.0186861248149 0.0186602362028 -0.00383975264017)
(0.0182208898226 0.021262789353 -0.000551404677393)
(0.0159565780724 0.0236681907077 0.00227034126259)
(0.012269339526 0.0256175937246 0.00425911385746)
(0.00766265013742 0.0269592456494 0.0053603150616)
(0.00260358187311 0.0276425188203 0.005807082636)
(-0.00258758083135 0.0276411600034 0.00580868817993)
(-0.0076474750214 0.026955326046 0.00536523115328)
(-0.0122561190532 0.0256109889928 0.00426766330864)
(-0.0159466922692 0.0236593988125 0.00228138221455)
(-0.0182147197511 0.0212524852512 -0.000539767719786)
(-0.0186831879634 0.0186495235351 -0.00383013476924)
(-0.01722072954 0.0161931712572 -0.00699068277687)
(-0.0139473912791 0.0142290205879 -0.00921554202405)
(-0.00920903937192 0.0130097295332 -0.00936640358768)
(-0.00395272707036 0.0125034193444 -0.00577996071994)
(0.00459773617205 0.0123713199759 -0.00502484227486)
(0.0106533678874 0.0128611703896 -0.00847099043182)
(0.0160286750153 0.014016966032 -0.00780302563689)
(0.0196980428527 0.015873462133 -0.0047538898479)
(0.0212889776871 0.0181900648915 -0.000564245531132)
(0.0206826677411 0.0206499699474 0.00379209040587)
(0.0180430218675 0.0229293211635 0.00747292197283)
(0.0138180981985 0.0247669282791 0.0100383272677)
(0.00860608180057 0.0260300015505 0.0114674100358)
(0.00291969395406 0.0266714024842 0.0120617847809)
(-0.00290610742057 0.026669440831 0.0120630662192)
(-0.00859320016481 0.0260241423132 0.0114713136182)
(-0.0138068406101 0.0247574201262 0.0100456739194)
(-0.018034617633 0.0229166287378 0.00748318908918)
(-0.0206774619823 0.0206351415367 0.00380346349491)
(-0.0212865976907 0.018174673334 -0.000553590719637)
(-0.0196977952407 0.0158592098029 -0.00474607220971)
(-0.0160294745855 0.0140053282205 -0.00779863190287)
(-0.010653884668 0.0128541235873 -0.00846895152844)
(-0.00459812313935 0.0123722680552 -0.00502420099177)
(0.00516516569399 0.0110416472049 -0.004507419001)
(0.011978527648 0.0114214099504 -0.00777023921686)
(0.0179549289498 0.0123984974066 -0.00662922654546)
(0.0219857553109 0.0139738064836 -0.00285452828279)
(0.0236923488517 0.0159295916046 0.00224000972787)
(0.0229618430978 0.0180142217447 0.00745511917715)
(0.0199828506568 0.0199554739905 0.0118397516253)
(0.0152616285575 0.0215353578732 0.0148886884389)
(0.00948191290181 0.0226272570904 0.0165923336417)
(0.00321079493945 0.0231761769913 0.017302284966)
(-0.00320155019814 0.0231738055929 0.0173030429156)
(-0.00947318129609 0.0226201879492 0.0165948375477)
(-0.0152542467357 0.0215237021597 0.0148942756769)
(-0.0199777660861 0.0199394095264 0.0118476620433)
(-0.0229589014474 0.017994924057 0.00746400466184)
(-0.0236911716183 0.0159092518063 0.00224864778418)
(-0.0219861241196 0.0139548079485 -0.00284747806895)
(-0.0179560673952 0.0123827648932 -0.00662476593617)
(-0.0119792283381 0.011410864595 -0.00776745145925)
(-0.00516583489541 0.0110393440874 -0.00450553765159)
(0.00567247721055 0.00860681516265 -0.00419416002486)
(0.0130939711501 0.00889336075455 -0.00732305061552)
(0.0195530607713 0.00962844808384 -0.00582917658113)
(0.0238611943854 0.010806386134 -0.00152300381187)
(0.0256394384114 0.012255661297 0.00421450782111)
(0.0248007783337 0.0138030341168 0.0100078436513)
(0.0215646440833 0.0152493953114 0.0148847916186)
(0.0164467032898 0.0164355745595 0.0183426927109)