/*--------------------------------*- C++ -*----------------------------------*\
| =========                 |                                                 |
| \\      /  F ield         | OpenFOAM: The Open Source CFD Toolbox           |
|  \\    /   O peration     | Version:  3.0.1                                 |
|   \\  /    A nd           | Web:      www.OpenFOAM.org                      |
|    \\/     M anipulation  |                                                 |
\*---------------------------------------------------------------------------*/
FoamFile
{
    version     2.0;
    format      ascii;
    class       volVectorField;
    location    "5.9";
    object      U;
}
// * * * * * * * * * * * * * * * * * * * * * * * * * * * * * * * * * * * * * //

dimensions      [0 1 -1 0 0 0 0];

internalField   nonuniform List<vector> 
7968
(
(0.000679044777193 0.000650552048863 -0.00117929038805)
(0.00256574066434 0.000111248046313 -0.00129283670003)
(0.00522697883058 -0.000110386290369 -0.00120054235196)
(0.00738129110017 -7.38096271722e-05 -0.00093767163894)
(0.00878777228253 0.000210677200681 -0.000668601440617)
(0.00897683324798 0.000670079951481 -0.000434369649846)
(0.00825957568592 0.00103648889172 -0.000301067144392)
(0.00662228453144 0.00143287607956 -0.000199843368239)
(0.00432094681604 0.00172305708237 -0.000159324416065)
(0.00166284808963 0.00187088093751 -0.000151508798463)
(-0.00111328659682 0.00187355958141 -0.000149859964525)
(-0.00378713216353 0.00173027841925 -0.000153772894595)
(-0.00611821204806 0.00144262479789 -0.000189304081956)
(-0.00779809424588 0.00104693227142 -0.000284603578191)
(-0.00856412932605 0.000675624386281 -0.000414861659089)
(-0.00843552166857 0.000222078386188 -0.000643139636274)
(-0.007099155094 -6.18782066913e-05 -0.000910957525771)
(-0.00502263815304 -9.49790339448e-05 -0.00117310650269)
(-0.00244157148815 0.000129340213238 -0.00126595838667)
(-0.0006344441038 0.000671313928459 -0.00115311322319)
(0.000138656591041 0.00248901376963 -0.00129440847318)
(0.00219107332587 0.00211793300525 -0.00326405103137)
(0.00542583051997 0.00226829662773 -0.00394018349986)
(0.00793428795021 0.00292300188161 -0.00394497255504)
(0.00943953902797 0.00398586984916 -0.0037534419583)
(0.00968555949165 0.00519668820352 -0.00352240727698)
(0.00881623631855 0.00626463079132 -0.00333779321505)
(0.00701215205616 0.00716712940181 -0.00321040632109)
(0.00454888904977 0.00780186380838 -0.00315626246601)
(0.0017406029122 0.00812489394169 -0.00314677761469)
(-0.00117887972721 0.00813120533809 -0.00314435581392)
(-0.00400507700939 0.00781888394341 -0.00314839464862)
(-0.00650185817338 0.00719019934235 -0.0031969679852)
(-0.00835131879466 0.00628912127046 -0.00331969979278)
(-0.00927112026531 0.00522323877377 -0.00350162942501)
(-0.00908738985764 0.00402037173728 -0.00373122035928)
(-0.00765226339137 0.00296489763545 -0.00392204975757)
(-0.00522276184881 0.00231804626281 -0.00391884330759)
(-0.00206530017392 0.00217125442796 -0.00324282581685)
(-9.00315712389e-05 0.00254109753147 -0.00126568197797)
(-8.15371423682e-05 0.00511182002629 -0.00121197962157)
(0.00234156580755 0.00531356504884 -0.00394430515413)
(0.00612826875027 0.00601779084395 -0.00472229921533)
(0.00899755676057 0.0073415551582 -0.00455095373747)
(0.0106357786735 0.00911364506465 -0.00411070828764)
(0.0108446840141 0.0110164110517 -0.00365817820606)
(0.00977467277014 0.0127178434715 -0.00331479962701)
(0.00770083833425 0.0141109220788 -0.00310936485505)
(0.00495730221216 0.0150900644584 -0.00303146473264)
(0.00187963529691 0.0155919633795 -0.00301911820459)
(-0.00130232661083 0.0156034896337 -0.00301542691032)
(-0.0044030421357 0.0151207899492 -0.00302045868267)
(-0.00718669641713 0.0141516159207 -0.00309296014493)
(-0.00930866083143 0.0127599440052 -0.00329481628765)
(-0.0104292278808 0.0110612626138 -0.00363514039247)
(-0.0102791289501 0.00916844538746 -0.00408480663093)
(-0.00870978639347 0.00740777720837 -0.0045226308311)
(-0.00592040815431 0.00609532939068 -0.00469376978801)
(-0.00221253118883 0.00539646734157 -0.0039168631477)
(0.000132327221334 0.00518982818572 -0.00117790098775)
(-4.60154404424e-05 0.00723667808339 -0.000949691649685)
(0.00299430831026 0.00779040105649 -0.00395451367815)
(0.00745050411108 0.00885501114266 -0.00455627261987)
(0.0107754452413 0.0106348534793 -0.0040050354217)
(0.0125800971406 0.0128914500026 -0.00313654895313)
(0.0126834824347 0.0152544668554 -0.00229847082654)
(0.0113103803034 0.0173721526755 -0.00165956838787)
(0.00881762805923 0.0190935251629 -0.00127141806734)
(0.00562121733708 0.0202955232867 -0.00111166814623)
(0.00210453919249 0.0209115034865 -0.00107192417585)
(-0.00150491962994 0.0209278221517 -0.00106516057482)
(-0.00505300193662 0.0203387344447 -0.00109311001977)
(-0.00830044267748 0.0191482679298 -0.00124647325734)
(-0.010845832989 0.0174251316714 -0.00163282221917)
(-0.0122663960712 0.0153065458678 -0.00226942293653)
(-0.0122152087492 0.0129522912371 -0.00310199620044)
(-0.0104763000479 0.010710071094 -0.00396476952986)
(-0.00723226523953 0.00894475195348 -0.00451402991941)
(-0.00285805230237 0.00788750199538 -0.00391386821052)
(0.000100338912704 0.00732742608776 -0.000905808424816)
(0.000239197072996 0.00861965373758 -0.000683238749996)
(0.00405665503255 0.00927211234694 -0.00376437263507)
(0.00922237457357 0.0104707566034 -0.00412053164198)
(0.0130315926731 0.0124194021712 -0.00314096290867)
(0.0150120543714 0.0148548426631 -0.0017684865738)
(0.0149854381144 0.0173963265032 -0.000457377303588)
(0.0132526525103 0.0196564068027 0.000576969049011)
(0.0102643260508 0.0214975678405 0.00126047213476)
(0.00650644556372 0.0227908623115 0.00160947935921)
(0.00241203561716 0.0234605627853 0.00173771398278)
(-0.00178043184561 0.0234812917873 0.0017500009746)
(-0.00592033786844 0.0228450065771 0.00164157263475)
(-0.00974734262279 0.0215624518278 0.00129860801338)
(-0.0127961091109 0.019712021756 0.000610609146142)
(-0.0145717713698 0.017444265904 -0.000427186572855)
(-0.0146398789708 0.0149074585845 -0.00173040423261)
(-0.0127186200738 0.012486719616 -0.00309065551691)
(-0.00899133828723 0.0105550273812 -0.0040638806887)
(-0.00391264029582 0.00936548393947 -0.00370834821467)
(-0.000182384980978 0.00870833757352 -0.00062912544267)
(0.000698481766827 0.00879291460418 -0.000452987586799)
(0.00526850156746 0.00950151330038 -0.00353886136612)
(0.0111282701018 0.0106639181184 -0.00367198382381)
(0.0153987902763 0.0125091125257 -0.00230339145446)
(0.0175552306651 0.0148173127146 -0.000454258083364)
(0.017333083558 0.0171666498793 0.00131972366524)
(0.0152266340141 0.0192461978662 0.00269926287394)
(0.0117246540735 0.0209484062723 0.00361856091125)
(0.0073899192703 0.0221481484468 0.00409413322084)
(0.00271689281222 0.0227739187657 0.00426768830378)
(-0.00205125295279 0.0227977589665 0.00428703477062)
(-0.00678808347578 0.0222114432189 0.00414297421225)
(-0.0112163654281 0.0210226425321 0.00366864673551)
(-0.0147871089153 0.0193037009259 0.00272997705627)
(-0.016927321553 0.0172082692179 0.00134084017386)
(-0.0171761005494 0.0148574155045 -0.000424692786857)
(-0.0150700149415 0.0125608293345 -0.00225285806194)
(-0.0108819835381 0.0107312971072 -0.003607846841)
(-0.00511522764647 0.00957694201943 -0.00347467841954)
(-0.000637320262554 0.00886506051454 -0.000392916073547)
(0.00106567609272 0.00806408614519 -0.000322027351145)
(0.00633827004428 0.00862010469047 -0.00335768199908)
(0.0128340826034 0.00958007637225 -0.00333031851168)
(0.0175221611031 0.0111200089678 -0.00166111385146)
(0.0198186848619 0.0130671321077 0.000588573870912)
(0.0194137758209 0.0150437278435 0.00271063564083)
(0.0169820242209 0.0167996524851 0.0043395217305)
(0.013018774974 0.018266026431 0.00544331433421)
(0.00816630256466 0.0193139034815 0.00602547363234)
(0.00298444826333 0.0198513236235 0.00624834028373)
(-0.00228287534338 0.0198743138559 0.00627494899907)
(-0.00754732063456 0.0193776862449 0.00609091963899)
(-0.0125213052142 0.0183451068629 0.00550153896535)
(-0.0165626766245 0.01686048296 0.00436209651822)
(-0.0190204881798 0.0150858609801 0.00271831901772)
(-0.0194374738065 0.0131020025261 0.000606749007377)
(-0.0171811488684 0.0111617532776 -0.00161690939982)
(-0.012574977823 0.0096325449219 -0.00326412718046)
(-0.00617769761466 0.00867897264064 -0.00328846630893)
(-0.00100440852913 0.00812169007819 -0.000260538128426)
(0.0014610639228 0.00641897351111 -0.000222767138442)
(0.00723970177672 0.00680618742974 -0.0032330979356)
(0.0142274554717 0.00749217571708 -0.00312714753179)
(0.0192455355459 0.00860634594695 -0.00127266070676)
(0.0216616622845 0.0100513946071 0.00127757072286)
(0.0211177416102 0.0115091874859 0.00364238925183)
(0.0184494004639 0.0127993084993 0.00546304850336)
(0.0141071406276 0.0138839297976 0.00675669106337)
(0.00880696986663 0.0146481364212 0.00742070576481)
(0.00321122851744 0.0151248962343 0.00740870613336)
(-0.00248176905126 0.015148700476 0.00742650283663)
(-0.00817709543624 0.0147186331721 0.00745099188607)
(-0.0136116265818 0.0139533683288 0.00682802927634)
(-0.018046712329 0.0128597009986 0.00548148882771)
(-0.0207370809299 0.0115524275224 0.00364223969656)
(-0.0212831108946 0.0100856339028 0.00128719598587)
(-0.0188992434208 0.00864353173553 -0.00123189168266)
(-0.0139637786418 0.00753294395032 -0.00306086614202)
(-0.00707737492108 0.00684939981468 -0.00316314580627)
(-0.00140028500139 0.00646172560822 -0.000162637606359)
(0.00174887387477 0.00411459196953 -0.00018352343156)
(0.00786942174111 0.00433797938467 -0.00318136884301)
(0.0152000115998 0.00473895054701 -0.00305320499335)
(0.0204403002756 0.0053922134635 -0.00111835211802)
(0.0229468996281 0.00626586463016 0.00162102904964)
(0.0223078566418 0.00713590914466 0.00411372548483)
(0.0194877323277 0.00789731434381 0.00604235535299)
(0.0148652397846 0.00852607454751 0.00742226911592)
(0.00933090784821 0.00904920788703 0.00761396019573)
(0.00337901783395 0.009322751294 0.00770518454151)
(-0.00262907347194 0.00933805405254 0.00773053925174)
(-0.00868288673439 0.00909061178373 0.00767154031162)
(-0.0143854842856 0.00858520653839 0.00744240511143)
(-0.0190890365621 0.00794359043484 0.00606886414123)
(-0.0219349422605 0.00717260666991 0.00411633178359)
(-0.0225715588945 0.00629630400463 0.00163161452851)
(-0.0200941944786 0.00542373318222 -0.00107508940643)
(-0.014937402515 0.00476976976673 -0.00298610945087)
(-0.00770853111412 0.00436898966892 -0.0031126865813)
(-0.00168964090916 0.004145691553 -0.000125308121473)
(0.00189354526938 0.00145937218233 -0.000176376121937)
(0.00818510607056 0.00153201429015 -0.00317367142667)
(0.0156910463158 0.00166157332774 -0.00304547444115)
(0.0210416562105 0.00187257142214 -0.00108627272908)
(0.0235993170912 0.0021626329057 0.00173594900265)
(0.0229137720786 0.0024479320401 0.00426690691277)
(0.0200069483038 0.00269507781163 0.00623885129498)
(0.0153273026001 0.00290648593419 0.00739077400926)
(0.00959987674964 0.00306627478754 0.00768527224848)
(0.00347504018012 0.00315847277042 0.00783530307734)
(-0.00270883573483 0.00316435568863 0.00786177560656)
(-0.00893874517983 0.0030823947047 0.00775056572661)
(-0.0148338345499 0.00292799792656 0.00743436755702)
(-0.0196059147727 0.00271504266813 0.00627472133366)
(-0.0225422493681 0.00246641850589 0.00427671024449)
(-0.0232250457602 0.00218006902357 0.00175043837352)
(-0.0206964179697 0.00189199723382 -0.00104030725759)
(-0.0154289790852 0.00168152201601 -0.00297648222283)
(-0.00802571671921 0.00155284245516 -0.00310541464065)
(-0.00183545189903 0.00148076114308 -0.000119168385536)
(0.00189358224732 -0.00130751516443 -0.000175493978509)
(0.00818483967265 -0.00137737756355 -0.00317282846194)
(0.0156917657469 -0.00150839165553 -0.00304551255567)
(0.0210430511681 -0.00172144455375 -0.00108699719447)
(0.0236011464824 -0.00201194207172 0.00173492823694)
(0.0229153051808 -0.00229771453184 0.00426503344531)
(0.0200082080648 -0.00254600916848 0.00623638685925)
(0.0153288445369 -0.00275922544418 0.00738685545746)
(0.00960129765487 -0.00292091265563 0.00768246232316)
(0.00347616159837 -0.00301299586584 0.00783314106148)
(-0.00270861053311 -0.00301721308304 0.00785984773738)
(-0.00893919021712 -0.00293279750624 0.00774807372318)
(-0.0148344031639 -0.00277444503078 0.00743036747391)
(-0.0196058731879 -0.00255706633671 0.00627239608323)
(-0.0225422969392 -0.00230398893586 0.00427491179089)
(-0.023225034275 -0.00201273122989 0.00174958386478)
(-0.0206959660491 -0.00171848767688 -0.00104017835819)
(-0.0154282597927 -0.00150131840202 -0.00297527104966)
(-0.00802468668911 -0.00136730764034 -0.00310319997524)
(-0.00183537964997 -0.0012961919374 -0.000117706887172)
(0.00174920009898 -0.00396630972386 -0.000180545143431)
(0.007869165424 -0.00418656208175 -0.00317831989056)
(0.015202914252 -0.0045876432291 -0.00305265296624)
(0.0204454355052 -0.00524061785067 -0.00111975783568)
(0.0229534479543 -0.00611221418876 0.00161917144546)
(0.0223134183302 -0.00697961160217 0.00411015226583)
(0.0194923680471 -0.00773891036188 0.00603726237832)
(0.014870575833 -0.00836757718531 0.00741063121813)
(0.00933502436188 -0.00889122421837 0.00760434194304)
(0.00338232057066 -0.00916419648713 0.00769754987219)
(-0.00262814219457 -0.00917829031771 0.0077235246954)
(-0.00868404925061 -0.00892920641534 0.00766247266217)
(-0.0143878323536 -0.00842107146833 0.00743030420155)
(-0.0190898096485 -0.00777680072125 0.00606383163534)
(-0.0219360554613 -0.00700457684152 0.00411279690854)
(-0.0225728125079 -0.00612666852106 0.00163029836345)
(-0.0200942892106 -0.00525126419743 -0.00107433656976)
(-0.0149365178947 -0.00459356366053 -0.00298256672672)
(-0.00770625831864 -0.00418913151269 -0.00310646585759)
(-0.00168968351946 -0.00396669933591 -0.000120921005494)
(0.00146223047464 -0.00627963436509 -0.00021736892158)
(0.00724108369963 -0.00666327958191 -0.0032276550373)
(0.0142346419689 -0.0073472340578 -0.00312501920808)
(0.0192570565535 -0.00845749807149 -0.0012725763327)
(0.0216759294422 -0.00989667710993 0.00127838927804)
(0.0211306002377 -0.0113472892222 0.00364298514438)
(0.0184608511776 -0.0126304447011 0.00546302293274)
(0.0141153725787 -0.0137091681811 0.0067581986786)
(0.00881565462614 -0.014475926505 0.00740539800123)
(0.00321602096089 -0.0149488792362 0.00739696725112)
(-0.00248054503929 -0.0149716042141 0.00741503199167)
(-0.00818054702233 -0.014542626483 0.00743577023437)
(-0.013614159681 -0.0137723295018 0.00682856472693)
(-0.018051577124 -0.0126819062934 0.00548065245585)
(-0.0207425696344 -0.0113787342258 0.00364242820114)
(-0.0212891508654 -0.00991566030181 0.00128862136877)
(-0.018903249467 -0.00847581936023 -0.00122912558994)
(-0.0139653897963 -0.00736589301562 -0.00305500999871)
(-0.00707590378832 -0.00668130589339 -0.00315371771106)
(-0.00140113482301 -0.00629465008575 -0.000155266707265)
(0.00106801821881 -0.00794030437464 -0.00031433977054)
(0.00634283002172 -0.00849215516319 -0.00335075769845)
(0.0128477139075 -0.00944798254986 -0.00332635041149)
(0.0175428792911 -0.0109809794585 -0.00165767900318)
(0.0198439339467 -0.0129193372267 0.00059467610333)
(0.0194377148404 -0.0148860971777 0.00271964973676)
(0.0170028963225 -0.0166322370853 0.00435031041426)
(0.0130351187487 -0.0180912437877 0.00545592462075)
(0.00817693557399 -0.0191335115709 0.00603917017984)
(0.00299048904296 -0.0196672239148 0.00626177132805)
(-0.00228021365761 -0.0196888716102 0.00628857287697)
(-0.00754972791868 -0.0191927706976 0.00610455870562)
(-0.0125292543896 -0.0181625536652 0.00551357410676)
(-0.016574748005 -0.0166827801983 0.00437227507527)
(-0.0190349468716 -0.0149157898939 0.00272689691289)
(-0.0194525387591 -0.012939365604 0.000613581607293)
(-0.0171927606647 -0.0110055507735 -0.00161068377843)
(-0.0125818765589 -0.00948096489037 -0.00325617383935)
(-0.00617899572779 -0.00852927204288 -0.00327694131859)
(-0.00100664708538 -0.00797372278286 -0.000250674833148)
(0.000699048878885 -0.0086868352745 -0.000445237601926)
(0.00527834457221 -0.00939209192097 -0.00353209540343)
(0.0111510770653 -0.010550139904 -0.00366688239867)
(0.0154314275339 -0.012387307767 -0.0022966355857)
(0.0175937066952 -0.0146862727694 -0.000443097787891)
(0.0173695566171 -0.0170249741988 0.00133680903986)
(0.0152582075152 -0.0190943433471 0.00271975831753)
(0.011749079402 -0.0207885819659 0.0036410718575)
(0.00740633481844 -0.0219832865345 0.00411670457221)
(0.00272621839367 -0.0226056809716 0.0042896509393)
(-0.0020481917841 -0.0226279988288 0.00430910878837)
(-0.00679242557053 -0.0220416446988 0.0041658620016)
(-0.011229247743 -0.0208543666572 0.0036915890515)
(-0.0148077177258 -0.0191406490706 0.00275064838337)
(-0.01695260892 -0.0170533906732 0.00135771507378)
(-0.0172031729619 -0.0147116154328 -0.000412275907991)
(-0.01509285702 -0.0124231152533 -0.0022430069801)
(-0.0108978486484 -0.0106004136825 -0.0035981562392)
(-0.00512204298614 -0.00944913765302 -0.00346267005422)
(-0.000637623602062 -0.0087382424651 -0.000383278842824)
(0.000244450975282 -0.00853694565747 -0.000674491758313)
(0.00407355258474 -0.00918746909492 -0.00375899428501)
(0.0092550935959 -0.0103809756436 -0.00411563208048)
(0.0130759590526 -0.012321724701 -0.00313246084979)
(0.0150628158926 -0.0147490880576 -0.00175361524446)
(0.01503507697 -0.0172823057216 -0.00043637659374)
(0.0132962989797 -0.0195327208279 0.000604284555458)
(0.0102996414269 -0.0213664644566 0.0012922192511)
(0.00653130226359 -0.0226542093442 0.00164385214377)
(0.00242603019357 -0.0233200335226 0.00177364600528)
(-0.00177741103164 -0.0233389554515 0.00178602563763)
(-0.00592852046192 -0.0227029835948 0.00167658032626)
(-0.00976709730397 -0.0214225164802 0.00133178437982)
(-0.0128258993473 -0.0195767051247 0.000639715916698)
(-0.0146084632256 -0.0173166633691 -0.000404204524104)
(-0.0146788633803 -0.0147875497485 -0.00171272332234)
(-0.0127536486761 -0.0123747134194 -0.00307807622177)
(-0.0090181530692 -0.0104509328833 -0.00405378483237)
(-0.00392779349521 -0.00926621271683 -0.00369825088289)
(-0.000188641937753 -0.00860893271742 -0.000618424220433)
(-4.10422569597e-05 -0.007177371136 -0.000942301747872)
(0.00301490222306 -0.00772933864706 -0.0039522350285)
(0.00748923684798 -0.00878956398696 -0.00455341601264)
(0.0108269447743 -0.0105628784413 -0.00399704157062)
(0.0126375096051 -0.0128132093717 -0.0031216206732)
(0.0127390991877 -0.0151705232917 -0.00227701647228)
(0.011359335429 -0.0172819765908 -0.00163348488503)
(0.00885693989254 -0.0189990592668 -0.00124310332053)
(0.00564938110212 -0.020197634806 -0.00108124714789)
(0.0021215101723 -0.0208106922501 -0.00103955922569)
(-0.00149911414956 -0.0208252952199 -0.00103227825735)
(-0.00505929900625 -0.0202358589767 -0.00106072552508)
(-0.00831995986201 -0.0190459520779 -0.00121487223781)
(-0.010877822641 -0.0173248350446 -0.0016028049168)
(-0.0123073360519 -0.0152109830191 -0.00224390128968)
(-0.0122604546039 -0.0128623088646 -0.00308199460677)
(-0.0105190468175 -0.0106267739555 -0.00395097014248)
(-0.0072661163446 -0.00886856056491 -0.0045052530564)
(-0.00287801178614 -0.00781571797505 -0.00390668154905)
(9.39479060397e-05 -0.0072561089474 -0.000897044827392)
(-7.58831362072e-05 -0.00507455152419 -0.00120515575581)
(0.0023641662448 -0.00527447273425 -0.00394518856415)
(0.00617050574374 -0.0059752719469 -0.00472236605018)
(0.00905336216043 -0.00729412170038 -0.00454502460939)
(0.0106975024084 -0.00906132971418 -0.0040972881706)
(0.0109041593967 -0.0109596756384 -0.00363875378106)
(0.00982755803601 -0.0126560597517 -0.00329146818048)
(0.00774424563205 -0.0140453594077 -0.00308366445941)
(0.004989417195 -0.0150215716604 -0.00300400668389)
(0.00189971868939 -0.0155209600322 -0.00299022537092)
(-0.00129495009676 -0.015531244763 -0.00298572271782)
(-0.00440888851135 -0.0150486668822 -0.00299057724975)
(-0.00720651699396 -0.0140803696111 -0.00306312893223)
(-0.00934155176281 -0.0126909623622 -0.00326651905041)
(-0.0104720422798 -0.0109965126817 -0.0036101816061)
(-0.0103281816123 -0.00910854567856 -0.00406464186396)
(-0.00875723994098 -0.00735339343488 -0.00451015679429)
(-0.00595853913613 -0.00604642464619 -0.00468805145523)
(-0.00223540424433 -0.00535126796166 -0.00391300405829)
(0.000124620639858 -0.00514512412311 -0.00117065378387)
(0.000144714350212 -0.00247029394768 -0.00129163235146)
(0.00221323207801 -0.00209712283269 -0.00326664442119)
(0.00546739676338 -0.00224519210611 -0.00394262466689)
(0.00799013871165 -0.00289737544494 -0.00394234578833)
(0.00950203885407 -0.0039578704356 -0.00374250681431)
(0.00974526869089 -0.00516628095627 -0.00350600184769)
(0.00886977613328 -0.00623090253832 -0.00331810029117)
(0.00705661720592 -0.00713118176185 -0.00318844215112)
(0.00458251629183 -0.0077640504432 -0.00313249741446)
(0.00176250563335 -0.00808566052389 -0.00312168752558)
(-0.00116943365792 -0.00809125235295 -0.00311839580074)
(-0.00400881534479 -0.00777897613931 -0.00312219203886)
(-0.00651952423168 -0.00715109758686 -0.00317100783864)
(-0.00838223075391 -0.00625159790346 -0.00329522635231)
(-0.00931223118364 -0.00518881349571 -0.00347989391508)
(-0.00913630420818 -0.00398910017461 -0.00371431344125)
(-0.00769935228165 -0.00293643420664 -0.0039144219773)
(-0.00526027272767 -0.00229222157164 -0.00391627495154)
(-0.00208808440581 -0.00214737234377 -0.00324239441907)
(-9.818001601e-05 -0.00251717051522 -0.00126321678635)
(0.000682819932174 -0.00064383601436 -0.00117793275405)
(0.00258285862859 -0.000103149365987 -0.00129456785371)
(0.00526178785176 0.000119227743768 -0.00120161781841)
(0.00742890299156 8.3078790909e-05 -0.000936391025098)
(0.00884289034062 -0.000201060248818 -0.00066332867091)
(0.00902983005986 -0.000659927176751 -0.00042527832632)
(0.00830864154733 -0.00102532350029 -0.000290558331244)
(0.00666424210781 -0.00142142086407 -0.000188063684671)
(0.00435370899508 -0.0017115632318 -0.000146687254289)
(0.00168527067386 -0.00185925858941 -0.000138332964862)
(-0.00110194255751 -0.00186177093697 -0.00013620985698)
(-0.00378739624719 -0.00171822368762 -0.00013976533103)
(-0.00613055116386 -0.00143037352305 -0.000175162403741)
(-0.0078216738032 -0.00103497735688 -0.000271176299493)
(-0.00859570290492 -0.000664249078091 -0.000402853198911)
(-0.00847419084863 -0.000212312826025 -0.000634408497402)
(-0.00713548621676 7.14656622864e-05 -0.000906718357526)
(-0.00505077073777 0.000104104391625 -0.00117143806137)
(-0.00245627730635 -0.000120318791921 -0.00126465680537)
(-0.000638462652986 -0.000662001539426 -0.00114756773171)
(0.00138958200017 0.00136049225502 -0.00515894035307)
(0.00399704009112 0.00187249899391 -0.0057652776974)
(0.00666645686321 0.00237416375192 -0.00583790208982)
(0.00868993606085 0.00300632289393 -0.00554007872272)
(0.00985496800604 0.00372534409531 -0.00513906351028)
(0.00986976271511 0.00443177822557 -0.00476622862167)
(0.0089372104316 0.00498213194427 -0.00448236519026)
(0.00710345152874 0.00545750684259 -0.0042852223645)
(0.00461095169668 0.00578821874715 -0.00421248227774)
(0.00176496781318 0.00595552834795 -0.00420893092344)
(-0.0011956822255 0.00595929672791 -0.00420410228834)
(-0.00405820711914 0.00579856941232 -0.00419660962027)
(-0.00658225849298 0.0054719326998 -0.00425606637451)
(-0.00846059080559 0.00499810388317 -0.00443885342505)
(-0.00944418941333 0.00444670102907 -0.0047116233971)
(-0.00949326741497 0.00375006205349 -0.00507377522389)
(-0.00840440481838 0.00303430050101 -0.00547058262826)
(-0.00646330446582 0.00240647673618 -0.00576691089178)
(-0.00387929152751 0.00190454774305 -0.00569501104037)
(-0.0013505700448 0.00138713649553 -0.00509018145963)
(0.00190039026223 0.00392157881945 -0.00577057309566)
(0.00461504437366 0.00453841399291 -0.00799349571852)
(0.00710387328801 0.0053459901949 -0.0085016008004)
(0.00890612681293 0.00649257458595 -0.00820568816974)
(0.00983133863131 0.00783813250556 -0.00762508879198)
(0.00976160442092 0.00918757957192 -0.00700503967289)
(0.00874454363472 0.0103719563913 -0.00649056789296)
(0.00690918869611 0.0113399757673 -0.00613341187924)
(0.00448310855408 0.0120180224834 -0.00594942309828)
(0.00172526092604 0.0123668714781 -0.00588685160797)
(-0.00114436493523 0.0123767905687 -0.00588083613593)
(-0.0039208843923 0.0120449389388 -0.00593056298312)
(-0.00638108893673 0.0113768223328 -0.00610124981343)
(-0.00826159927465 0.0104121998273 -0.00644579019721)
(-0.00933130428562 0.00923114147827 -0.00694955836047)
(-0.00946370841145 0.00789088500033 -0.00755985509388)
(-0.0086117581745 0.00655588267278 -0.00813378517352)
(-0.00689207266359 0.00541831744949 -0.00842747665885)
(-0.00448652301609 0.00461272147928 -0.00791885866253)
(-0.00185638514573 0.00398620511776 -0.00568825744292)
(0.00240165615557 0.00654818073271 -0.00585902253595)
(0.00542253735219 0.00698623323824 -0.00851219905038)
(0.00803812791888 0.00792148362381 -0.00885458658946)
(0.00983224195874 0.00934350735764 -0.00811172877692)
(0.0106600067004 0.0110485145458 -0.00696983065712)
(0.0104496833435 0.0127916099672 -0.00579748738638)
(0.00925325307112 0.0143569190606 -0.00482922176931)
(0.00724597309376 0.0156234810951 -0.00416461012752)
(0.00467641826959 0.0165073806118 -0.00379969539426)
(0.00179283549419 0.0169673234302 -0.00365395058202)
(-0.0012002752035 0.0169826798207 -0.00364406693589)
(-0.00410740362386 0.0165486093665 -0.00377132813199)
(-0.00671708886906 0.0156780769714 -0.00412214754136)
(-0.00877137169586 0.0144143566257 -0.00477642892139)
(-0.0100181802158 0.0128513380958 -0.00573298902888)
(-0.0102866137959 0.0111171377039 -0.00689161114785)
(-0.00952874930886 0.00942490683365 -0.00802134563305)
(-0.00781663869884 0.00801498791005 -0.00875836325802)
(-0.00528498876991 0.00708561395713 -0.00841484004071)
(-0.00235309414085 0.00664273804358 -0.00575585824812)
(0.00303447897875 0.00853606396248 -0.00557166980325)
(0.0065686786173 0.00875338867726 -0.00822873215666)
(0.00945903915411 0.0096811542827 -0.00812430739251)
(0.0113341612875 0.0111854011805 -0.0067043427159)
(0.0120865967753 0.0130112976287 -0.00480989252288)
(0.0116813508688 0.0148810775852 -0.00294411574341)
(0.0102144107772 0.0165621885516 -0.00142084336263)
(0.00791428707785 0.017918320147 -0.000384268751418)
(0.00506671742581 0.0188648224414 0.000192217848526)
(0.00192643334438 0.019358405171 0.00043286244984)
(-0.0013171776652 0.0193788441615 0.000449589332736)
(-0.00448987822875 0.018919231085 0.000237167430204)
(-0.00738845543529 0.0179883567991 -0.000325688221641)
(-0.00973992185962 0.0166314217443 -0.0013589393372)
(-0.0112530247974 0.0149463210814 -0.00287324141973)
(-0.011708477168 0.0130811125493 -0.00471982752892)
(-0.0110198747983 0.0112678619161 -0.00659322803345)
(-0.00922527104132 0.00977822881779 -0.00800030454884)
(-0.00642057189461 0.0088596183542 -0.00810052991594)
(-0.00297998509885 0.00864122206061 -0.00543709111933)
(0.00375328950622 0.00967803785614 -0.0051825178011)
(0.00791343399369 0.00965389733676 -0.00765928449884)
(0.0111637905909 0.0104844519277 -0.00699426466661)
(0.0131587742167 0.011915318083 -0.00481990955232)
(0.0138271195589 0.0136594431344 -0.00211136750355)
(0.0131935867926 0.0154558401778 0.00050028602138)
(0.0114312557791 0.0170946650812 0.00258992967524)
(0.00879854513997 0.0184234607281 0.00399790098699)
(0.00560417859247 0.0193566672203 0.00478256035531)
(0.0021139534756 0.0198472470139 0.00511689580657)
(-0.00148271417282 0.0198730221076 0.00514290148921)
(-0.00501876297615 0.0194251107941 0.00484893315058)
(-0.00828220774403 0.018509231505 0.00407315296165)
(-0.0109752199075 0.0171726227979 0.00265432983249)
(-0.0127781353011 0.0155217809469 0.00056210976465)
(-0.0134481085656 0.0137217012567 -0.00202666341509)
(-0.0128335733549 0.0119871374526 -0.00469968162552)
(-0.010916090229 0.0105713962963 -0.00684814478232)
(-0.00775396728642 0.00975107294509 -0.00750227125247)
(-0.00369333910964 0.00977511806816 -0.00501712768804)
(0.00446044405208 0.00967929979054 -0.00482046335401)
(0.00926336092345 0.00956796017418 -0.00704970091666)
(0.0129087375055 0.0102570476181 -0.00582987720729)
(0.0150295431758 0.011493693928 -0.00295440390628)
(0.0156212943113 0.0130105331099 0.000505885213704)
(0.0147984173293 0.0146195621117 0.00376062547823)
(0.0127535403454 0.016106557075 0.00633062039973)
(0.00977720592008 0.0173209470431 0.00805660578439)
(0.00620867919275 0.0181817705562 0.00902214198167)
(0.00232886396857 0.0186417862883 0.00943844533604)
(-0.00166727564537 0.01867255101 0.00947836493532)
(-0.00561066669511 0.0182636374434 0.00912253588473)
(-0.00927482306555 0.0174223422123 0.00816156690622)
(-0.0123247007544 0.0161940492278 0.00639439840123)
(-0.0144045189564 0.0146869072798 0.00379921022804)
(-0.0152485069641 0.0130668925579 0.000563243149873)
(-0.0146949114606 0.0115517750923 -0.00284537438723)
(-0.0126463296764 0.0103274947883 -0.00567525410604)
(-0.00909262312238 0.0096462016337 -0.00687569143481)
(-0.00439204930019 0.00975511811854 -0.00463647222528)
(0.00501188002719 0.00873668025846 -0.00454355733746)
(0.0104482899157 0.00853864545661 -0.00654241568222)
(0.0144759513578 0.0090459367279 -0.00486487851499)
(0.0167109335458 0.0100091735991 -0.00142408627595)
(0.0172570963818 0.0112288404479 0.0026097231659)
(0.0162819582725 0.0125542703453 0.00634903929932)
(0.0139948383818 0.0137974202755 0.00927504320921)
(0.0107120512252 0.01482786362 0.0112490370774)
(0.00679717597985 0.0155781858637 0.012367298368)
(0.0025443861365 0.0159935768205 0.0128622131185)
(-0.00184094455151 0.0160267067502 0.0129210465578)
(-0.00617727556472 0.0156663433496 0.0125169039623)
(-0.01021826787 0.0149360880938 0.0114029480225)
(-0.0135922447657 0.013891004614 0.00935497934605)
(-0.0159114255093 0.0126246286462 0.00636993953629)
(-0.0168953293523 0.0112832663692 0.00263976779598)
(-0.0163734287662 0.0100593113441 -0.00133558181751)
(-0.0142032110972 0.00910171247364 -0.00471273802855)
(-0.0102702520623 0.00859765064178 -0.00636223732187)
(-0.00494034516213 0.0087932578683 -0.00435388905442)
(0.00548595682759 0.00689557102489 -0.00435112184693)
(0.0114137657699 0.00669378505698 -0.00619187606372)
(0.0157401990496 0.00702510076355 -0.00420490596567)