/*--------------------------------*- C++ -*----------------------------------*\
| =========                 |                                                 |
| \\      /  F ield         | OpenFOAM: The Open Source CFD Toolbox           |
|  \\    /   O peration     | Version:  3.0.1                                 |
|   \\  /    A nd           | Web:      www.OpenFOAM.org                      |
|    \\/     M anipulation  |                                                 |
\*---------------------------------------------------------------------------*/
FoamFile
{
    version     2.0;
    format      ascii;
    class       volScalarField;
    location    "9.9";
    object      nut;
}
// * * * * * * * * * * * * * * * * * * * * * * * * * * * * * * * * * * * * * //

dimensions      [0 2 -1 0 0 0 0];

internalField   nonuniform List<scalar> 
7968
(
7.35461642777e-05
8.14357081243e-05
8.7003344523e-05
9.01941762791e-05
9.17191393723e-05
9.2074841071e-05
9.17498572708e-05
9.09474833834e-05
8.99983130553e-05
8.9202920683e-05
8.89463512947e-05
8.95442622053e-05
9.04342785406e-05
9.12429544317e-05
9.16189660142e-05
9.13079618379e-05
8.98792389054e-05
8.67788473916e-05
8.12838389049e-05
7.34471514661e-05
8.14681936834e-05
0.000101973144979
0.000112786218743
0.000118001025366
0.000119824280637
0.000119550341826
0.000118236088447
0.000116425400932
0.000114717398724
0.000113596389034
0.000113369337998
0.000114182870357
0.000115717407359
0.000117475372876
0.000118814986669
0.000119117596836
0.000117405160872
0.000112318335028
0.00010164178392
8.12428256429e-05
8.70471784086e-05
0.000112751103396
0.000125574803972
0.000131606685125
0.000133644087711
0.000133267300359
0.000131676469219
0.000129632162909
0.000127785557918
0.000126608853239
0.000126376283667
0.000127218464096
0.000128864692871
0.000130837040704
0.000132437830799
0.000132860614736
0.000130930197867
0.000125036539444
0.000112361601555
8.67382481375e-05
9.02255065897e-05
0.000117930222877
0.000131565491722
0.000137891993212
0.000139937002929
0.000139465253802
0.000137787688092
0.000135893996328
0.000134466771436
0.000133538212036
0.000133342527982
0.000133992428593
0.00013523165662
0.000136902602212
0.000138572378402
0.000139099882024
0.000137165729527
0.000130980051087
0.000117493223404
8.98530556279e-05
9.17314514914e-05
0.000119727226649
0.000133575159545
0.00013990649957
0.000141834089871
0.000141970062678
0.000141498019706
0.000140389583928
0.000139193810917
0.000138335991074
0.000138136633946
0.000138716699036
0.000139759095461
0.000140813423232
0.000141281246674
0.000140974398628
0.00013913237627
0.00013294025489
0.000119233089814
9.12997449799e-05
9.20861794898e-05
0.000119462976066
0.000133195992383
0.000139420971345
0.000141934716176
0.000143316424156
0.000143372077637
0.000142501520711
0.000141337905644
0.000140446315529
0.000140223457925
0.000140811745512
0.000141830256614
0.00014269262402
0.000142691542365
0.000141315800393
0.000138613285838
0.000132517861678
0.000118918361227
9.16107167247e-05
9.17534866344e-05
0.000118160770497
0.000131618327843
0.000137747887533
0.000141452014057
0.00014335920356
0.000143574541675
0.000142658665591
0.000141345424059
0.000140310735403
0.000140046311851
0.000140730484088
0.000141889750339
0.000142819534599
0.000142702686113
0.000140856428064
0.000136930369228
0.000130900373853
0.00011757004347
9.12509721354e-05
9.09587372109e-05
0.000116401525353
0.000129634840511
0.00013585246143
0.000140375454981
0.000142533082827
0.000142712353808
0.000141572475495
0.000139942670424
0.000138658690144
0.000138335383515
0.000139198102604
0.000140658477405
0.000141832098784
0.000141792760391
0.00013977091582
0.000135279913586
0.000128864560698
0.000115763534535
9.04439682013e-05
9.00448308908e-05
0.000114805650738
0.000127921211955
0.000134519605596
0.000139282922486
0.000141492282485
0.000141544269853
0.00014010602062
0.000138112988013
0.000136481923032
0.000136073623117
0.000137212211362
0.000139030366721
0.000140522063326
0.000140645950188
0.000138617431805
0.000133937328558
0.000127083538948
0.000114117467639
8.95213087966e-05
8.93343470799e-05
0.000113848318005
0.000126931912629
0.000133743588926
0.00013858733527
0.000140787611409
0.000140731342053
0.000139080438419
0.000136784224167
0.000134822181918
0.000134325977396
0.00013574924649
0.000137890340406
0.000139605151138
0.000139860850409
0.000137863416236
0.000133120199719
0.000126040514194
0.000113119039635
8.87927602479e-05
8.93138397705e-05
0.00011383503495
0.000126924491089
0.000133737233454
0.000138584251095
0.000140788192299
0.000140735625579
0.000139088351242
0.000136795668893
0.000134836582855
0.000134341640107
0.000135763347129
0.000137901441474
0.000139612816581
0.000139864509773
0.000137862480351
0.000133114089851
0.000126029815019
0.000113098976262
8.87629074258e-05
9.00007552764e-05
0.000114769650477
0.00012789823412
0.000134500825925
0.00013927267281
0.000141491258996
0.000141552384368
0.000140122885508
0.000138137910649
0.000136513222834
0.000136107415462
0.000137243094917
0.000139054571332
0.000140538617343
0.000140653203761
0.000138613742792
0.000133921293428
0.000127057093603
0.000114069654058
8.94604699322e-05
9.08999218397e-05
0.000116344309836
0.000129592201807
0.000135819398742
0.000140353832437
0.000142523891965
0.000142715628816
0.000141587531281
0.00013996835347
0.000138692649472
0.000138372326485
0.000139231251236
0.000140683451516
0.000141847176613
0.00014179573988
0.000139759693048
0.00013525326424
0.000128823521477
0.000115696373851
9.03673902619e-05
9.16889992686e-05
0.000118086691387
0.000131556023799
0.000137703233827
0.000141415920685
0.000143337280548
0.000143566961842
0.000142664715251
0.000141363601047
0.000140337651306
0.000140076056875
0.000140755811892
0.000141906369723
0.000142825122045
0.000142695033169
0.000140834438719
0.000136902280019
0.000130844710626
0.00011749027834
9.11701760009e-05
9.20240047105e-05
0.000119378489896
0.000133117580891
0.000139357940628
0.000141883492413
0.000143281312539
0.000143352238979
0.000142496033736
0.000141345375729
0.000140462833067
0.000140242490077
0.000140825609225
0.000141834438847
0.000142685067793
0.000142670146997
0.000141278941887
0.000138567211094
0.000132446994628
0.000118830297921
9.15348027067e-05
9.16752525693e-05
0.000119636631911
0.000133486015219
0.000139829199914
0.000141770002164
0.000141922708099
0.000141466080401
0.000140372646923
0.000139190103599
0.000138340735395
0.000138143164216
0.000138717698273
0.000139749632132
0.000140791033943
0.000141245425079
0.000140926979459
0.000139066788568
0.00013285488338
0.000119137090655
9.12319625051e-05
9.01819045359e-05
0.000117845087678
0.000131475101558
0.000137809015561
0.000139864484184
0.000139404035063
0.000137739167813
0.000135864173449
0.000134449959669
0.000133528202594
0.000133332970663
0.000133977230539
0.000135205554965
0.000136860040681
0.000138519900383
0.000139034821777
0.000137086395787
0.000130887998868
0.000117400231499
8.98013980093e-05
8.70166418107e-05
0.00011267715666
0.000125491637048
0.000131525879055
0.000133569224342
0.000133200408348
0.000131618949019
0.000129584530372
0.000127745381072
0.000126571856299
0.000126337318184
0.000127173915897
0.000128812070945
0.000130777004874
0.000132370383287
0.000132784313603
0.000130846298185
0.00012494753529
0.000112278936412
8.6703544682e-05
8.14528749372e-05
0.000101920499527
0.00011272199271
0.000117932833108
0.000119752812124
0.000119478409585
0.000118166827127
0.000116359848659
0.000114652586826
0.000113529085362
0.000113297022677
0.000114106683225
0.000115637504167
0.00011739377031
0.000118733735369
0.000119037232567
0.000117328696897
0.000112245397904
0.000101580829631
8.12246035258e-05
7.3541472196e-05
8.14186362085e-05
8.69735137826e-05
9.0152595397e-05
9.16653244474e-05
9.20104498497e-05
9.16782992436e-05
9.08703574635e-05
8.99146735132e-05
8.91121601255e-05
8.88472651882e-05
8.9442889176e-05
9.03340611605e-05
9.11474506048e-05
9.15326468961e-05
9.12343900904e-05
8.98213745638e-05
8.67348365969e-05
8.12537418303e-05
7.34351904539e-05
8.10695810523e-05
9.69583686841e-05
0.000107278312416
0.000113266608431
0.00011633577521
0.000117467342125
0.000117417859715
0.00011672368824
0.000115889041609
0.000115287469182
0.00011512453601
0.000115494868421
0.000116203057066
0.000116864544704
0.000116944905052
0.00011587235945
0.000112898004138
0.000107012891985
9.67701594469e-05
8.08928681559e-05
9.7054900391e-05
0.000281401738712
0.000369140638985
0.000407145829899
0.000418384185719
0.000415797435962
0.000407296845122
0.000397300606432
0.000388751416854
0.000383546599938
0.00038263512134
0.000386398730938
0.000393977985353
0.000403487212144
0.000411822305843
0.000414407680889
0.000403636437411
0.000366672113446
0.00028056996257
9.66540654933e-05
0.000107390536875
0.000368173139556
0.000510965147073
0.000580074892282
0.000606915626878
0.000610341338013
0.000602589571723
0.000590916114946
0.000579825196025
0.000572716643407
0.000571249486308
0.000575988193046
0.000585571628691
0.000596713363664
0.000604368570675
0.000601369171904
0.000575578292115
0.000508284453584
0.000367804238115
0.000106884636275
0.000113363454918
0.000405580759079
0.000579193417958
0.000668856517281
0.000708479061888
0.000719464682996
0.000717331318188
0.000708028526557
0.000695785570353
0.000687565577187
0.000685544856424
0.000690454220796
0.000700843549578
0.000710801670604
0.000712430021298
0.000702369546152
0.000664108975858
0.000576596361123
0.000405461636815
0.000112790874465
0.000116417586882
0.000416618783315
0.000605543801134
0.000707865024175
0.000756636440231
0.000771208974306
0.000761655771372
0.000745505643532
0.000730532638865
0.000721061403774
0.000718561961714
0.000723849803924
0.000736207098862
0.000751661339286
0.000761917765464
0.000750853094587
0.000703045837825
0.000602944088244
0.000416469373799
0.000115786943621
0.000117548688507
0.0004141212762
0.000608822386824
0.00071855530682
0.000771060586231
0.000776249749167
0.000760458923674
0.00073929688119
0.000721222409317
0.000710091747015
0.000707038222786
0.000712998532711
0.000727739573351
0.00074785809903
0.000764581531616
0.000761940597502
0.000713340059621
0.000606074199482
0.00041377649943
0.000116868293551
0.000117507899045
0.000405832285923
0.000601228488357
0.000716465713979
0.000761937193735
0.000761070405493
0.00074025697608
0.00071459560417
0.000693029094785
0.000679791450324
0.000676116682684
0.000683077269557
0.000700518920467
0.000724892972344
0.000746999535846
0.000751006522466
0.00071155914076
0.000598183306854
0.000405167958489
0.000116787848349
0.000116850113907
0.000396278732957
0.000590227383755
0.000708602902777
0.000747313575402
0.000741740883916
0.000716684514405
0.000686729931197
0.000661421997789
0.00064638983292
0.000642218549757
0.00064973132332
0.00067001431971
0.00069834634687
0.000724895341319
0.000733801070749
0.000699840575213
0.00058625678124
0.000395142399724
0.000116097566175
0.000116095100841
0.000388454330292
0.000580298209645
0.000698224926614
0.000734756976056
0.00072662026071
0.000698562779327
0.000665140023096
0.000638218003525
0.000621556766996
0.000616845128529
0.000625325220451
0.000646326026146
0.000677612166415
0.00070723686367
0.000718996114245
0.0006875426913
0.000575496042441
0.000386805504412
0.000115311091454
0.000115613051889
0.000384134274723
0.000574638069787
0.000692183904646
0.000728085499682
0.00071891476532
0.000689360774522
0.000654402530482
0.000626309061158
0.000608370390999
0.000603315256877
0.00061255638241
0.000634782532906
0.00066690914242
0.000698036733627
0.000711016320506
0.000680512521707
0.00056930144643
0.000382132147013
0.000114798940981
0.00011560005884
0.000384141241928
0.000574672822801
0.000692274208759
0.000728238512337
0.000719138844508
0.00068965897375
0.000654774648646
0.000626751324162
0.000608861646838
0.000603824985385
0.00061305416018
0.000635240846215
0.000667311390221
0.000698367230394
0.000711265507135
0.000680677273699
0.000569392518573
0.000382173200963
0.000114778607101
0.000116057385745
0.00038844776077
0.000580359869741
0.000698431845905
0.000735140175424
0.000727203756069
0.000699354969455
0.000666144999064
0.000639416216525
0.000622896331332
0.000618236500767
0.000626677026657
0.000647556326701
0.000678687236725
0.000708115198127
0.000719653028597
0.000687970636763
0.000575724846052
0.000386903466855
0.000115259648473
0.000116790822799
0.000396205741748
0.000590232758772
0.00070879838034
0.000747769547264
0.000742487329035
0.000717740992795
0.000688107541829
0.000663103685394
0.000648293805064
0.000644201832441
0.000651643277395
0.000671734270303
0.000699819720704
0.000726081854262
0.000734673150636
0.000700382554767
0.000586533705745
0.00039524645138
0.000116025250422
0.000117435761542
0.000405651204619
0.000601106795355
0.000716507640244
0.000762311390296
0.000761760965763
0.000741297850269
0.000716012432022
0.00069479785394
0.000681808697356
0.000678219574591
0.00068508468849
0.000702307179111
0.000726401973312
0.000748197421525
0.000751858636658
0.00071196636453
0.000598397244065
0.000405217000718
0.000116704875324
0.000117472899441
0.000413814782319
0.000608552127876
0.000718491282449
0.000771287973608
0.000776763297199
0.000761301218541
0.000740498411181
0.000722763541824
0.000711876560681
0.000708905678899
0.000714766654324
0.000729292270278
0.000749154545223
0.000765598368952
0.000762645178985
0.000713686465289
0.000606158015572
0.000413715649885
0.000116782668853
0.000116345070744
0.00041618536928
0.00060513834598
0.000707676733058
0.000756731165406
0.000771578164773
0.000762324719458
0.000746475696455
0.000731787514682
0.000722526749822
0.000720099715346
0.000725302394003
0.000737477717801
0.000752724250984
0.000762723760572
0.00075131871051
0.000703227797659
0.000602854133769
0.000416255957595
0.000115704084901
0.000113301142229
0.000405072242237
0.000578723603048
0.000668612203254
0.000708528345608
0.00071982242616
0.000718010102041
0.000708934305952
0.000696916431845
0.000688864254206
0.000686902080509
0.0006917420207
0.0007019809476
0.000711780111667
0.000713140303871
0.000702759963123
0.000664165658537
0.000576370228926
0.000405120715311
0.000112717629966
0.000107342581674
0.000367679863667
0.000510547376926
0.000579882684751
0.000606998551032
0.000610707032077
0.000603223037399
0.000591780161312
0.000580877591324
0.000573897800473
0.00057247891527
0.000577172441244
0.000586632487706
0.000597599550393
0.000605014854448
0.00060171984291
0.00057561040872
0.000508036571573
0.000367419775279
0.000106825928242
9.70264119355e-05
0.000281072632662
0.000368907632633
0.000407087119893
0.000418514994822
0.000416108879273
0.000407765240172
0.000397901394693
0.000389454573541
0.000384317235823
0.000383434787487
0.000387183896186
0.000394703888365
0.000404118463285
0.000412317432492
0.000414717199038
0.000403726190487
0.000366543012517
0.000280293370173
9.66145987076e-05
8.1065711852e-05
9.69117763445e-05
0.000107211295258
0.000113189064195
0.000116251516986
0.000117378862418
0.000117326826454
0.00011662993488
0.000115789702833
0.000115181295857
0.000115012544485
0.000115381152669
0.00011608968639
0.000116753342632
0.000116837747074
0.00011577092909
0.000112804521018
0.000106930368909
9.67074139735e-05
8.08784659359e-05
8.77198650194e-05
0.000108226939839
0.000121039031899
0.000128397647839
0.000132281135399
0.000133949750089
0.000134338168204
0.000134136241678
0.000133838328197
0.000133647850958
0.000133545141883
0.000133549410467
0.000133696938281
0.000133812186142
0.000133408782417
0.000131778726666
0.000127975964265
0.000120723189109
0.000108003440653
8.74869162469e-05
0.000108389157776
0.000355734386771
0.000478941524199
0.000532451269272
0.000548939476877
0.000546679052072
0.000536528999744
0.000524834108294
0.00051527368322
0.000509569746627
0.000508221614008
0.000511651124735
0.000519587791467
0.000530436389197
0.000540358324929
0.000542764224406
0.000526957587146
0.000475001928361
0.00035434904403
0.00010779934605
0.000121227804043
0.000477367017759
0.000695457229753
0.000807079101802
0.000854676347145
0.000866096708277
0.000859252218798
0.000845713130647
0.000832955173779
0.000824752525038
0.000822464998652
0.000826752980777
0.000836509605599
0.000848844871876
0.000855889779998
0.000845427550947
0.00079975157497
0.000691159559339
0.000476717777789
0.000120491715328
0.0001285865592
0.000530042159867
0.00080562378708
0.000960931285119
0.00103799168665
0.00106815787274
0.0010701804981
0.00105824628241
0.00104366244866
0.00103316415151
0.00102981426829
0.00103457279638
0.00104537670205
0.00105617104604
0.00105569027877
0.00102702508846
0.000952826583683
0.00080125323129
0.000529522849317
0.000127750316742
0.000132484064133
0.000546414159653
0.000852469681079
0.0010369429473
0.00113726612278
0.00117529929365
0.00117717853342
0.00116237358735
0.00114443537309
0.00113148141088
0.00112713450074
0.00113252788445
0.00114520111554
0.001158186488
0.00115803436437
0.00112370502295
0.00102795830292
0.000847603274323
0.000545385730201
0.00013154844923
0.000134186891958
0.000544436097654
0.000863768731502
0.00106671268103
0.00117512023283
0.00121362568201
0.00121132929734
0.00119037681109
0.00116709186929
0.00115088402719
0.00114552727814
0.00115223125516
0.00116812672691
0.00118573246398
0.00119036563808
0.00115767893973
0.0010566143864
0.000857948754304
0.000542544024899
0.000133152869075
0.000134627161845
0.000534813286946
0.000857476228815
0.00106968218565
0.001178422464
0.00121367139914
0.0012047376732
0.0011758759523
0.00114613111841
0.00112613217075
0.00111982291267
0.00112840714969
0.00114836266728
0.00117152172765
0.00118264254081
0.00115561829416
0.00105549630338
0.000849990888578
0.000531830184099
0.000133508501058
0.000134499161101
0.000523982150297
0.000845242150436
0.00105994798924
0.00116709500096
0.00119792859655
0.0011819973954
0.00114540822954
0.0011092184071
0.00108536974362
0.00107817359939
0.00108874786018
0.00111298295168
0.00114181359147
0.00115924311069
0.00113842539848
0.00104181871439
0.000836050251601
0.000519832427637
0.000133323043068
0.000134294520445
0.0005156735048
0.000834299170622
0.00104860156607
0.0011539097137
0.00118099350901
0.00115974125884
0.00111724461829
0.00107595519811
0.00104881430688
0.00104082184645
0.00105301877396
0.00108074779701
0.00111426428425
0.00113669680949
0.00112054807281
0.00102733055253
0.000824103517124
0.000510473309269
0.000133085254393
0.000134201496203
0.000511409053052
0.000828426963035
0.00104180415336
0.00114595852612
0.00117104543172
0.00114704444415
0.00110151472154
0.0010573959965
0.00102834281654
0.00101984563777
0.00103295780996
0.00106263889467
0.00109872416518
0.00112386672283
0.00111013484834
0.00101877197051
0.000817328574981
0.000505523730542
0.000132968940924
0.000134195040851
0.000511472175622
0.000828541185653
0.0010419967174
0.00114624843099
0.0011714513935
0.00114757351661
0.00110217498144
0.00105818585718
0.00102922299379
0.00102075523303
0.00103384156151
0.001063462098
0.00109946531517
0.00112450538941
0.00111064544842
0.00101914915392
0.000817581546813
0.000505668170127
0.000132954387408
0.000134269740837
0.000515806206671
0.000834586724184
0.00104910466299
0.00115469476741
0.00118212391036
0.00116124754301
0.00111915275952
0.00107825541735
0.00105138811078
0.00104348474781
0.00105559928635
0.00108313206845
0.00111638144789
0.00113848714838
0.00112195422899
0.00102835474322
0.0008247819281
0.000510851518213
0.000133044553071
0.000134453332121
0.00052407994524
0.00084557503659
0.00106059813232
0.00116819394908
0.00119960910764
0.00118433620879
0.00114843338049
0.00111288101068
0.00108947740917
0.00108242849161
0.00109285799674
0.00111674153907
0.00114508129543
0.0011619090308
0.00114044322169
0.00104324774655
0.000836985388077
0.000520336578937
0.000133262486998
0.000134566989699
0.000534793496834
0.000857702386369
0.00107029262313
0.00117957779839
0.00121558025514
0.00120755878677
0.00117961462176
0.00115066579865
0.00113120162267
0.00112507952996
0.00113348584065
0.00115296497655
0.00117541814746
0.00118568372244
0.00115782395012
0.0010570021226
0.000850972171963
0.000532322250923
0.00013343594249
0.00013412303574
0.000544258805243
0.000863797063289
0.00106714552892
0.00117611901452
0.00121536250984
0.00121401676809
0.00119405202048
0.00117159016044
0.00115593028204
0.00115077286485
0.00115729463813
0.00117266949239
0.00118948222683
0.00119321217991
0.00115970007869
0.00105790218985
0.000858746918936
0.000542893847997
0.000133075481784
0.000132424653227
0.00054606569377
0.000852294627922
0.00103720084502
0.00113808882265
0.00117677337592
0.00117941053343
0.00116541894729
0.00114819352972
0.00113572755305
0.00113156563573
0.00113680346377
0.0011490202811
0.00116135126429
0.00116047351286
0.00112541916257
0.00102899699503
0.000848098734925
0.000545494211106
0.000131471881054
0.000128537718517
0.00052954956498
0.000805313834957
0.000961074091993
0.00103871344757
0.00106952722011
0.00107219201974
0.00106090209066
0.0010468859254
0.00103678523057
0.00103358844488
0.00103821909059
0.00104865626007
0.00105892899141
0.0010578154644
0.00102847371418
0.000953593958065
0.00080144201618
0.000529363577055
0.000127680592073
0.000121194016686
0.000476831504071
0.000695154788065
0.00080722292378
0.000855355941747
0.000867342491072
0.000861046531593
0.000848024892248
0.000835713046904
0.000827807447752
0.00082563560868
0.000829830105489
0.000839294485041
0.000851213315579
0.000857740689578
0.000846666982748
0.000800345741966
0.000691179241401
0.000476381140616
0.000120435205685
0.000108375871151
0.00035536468248
0.000478797417151
0.000532619818329
0.000549446937802
0.000547521460614
0.000537680676448
0.000526266311512
0.000516937279413
0.000511389160243
0.00051010525918
0.000513498051472
0.000521291504293
0.0005319265664
0.000541567751896
0.000543614268855
0.000527396863852
0.000475031072651
0.000354062175713
0.000107763181934
8.77357890851e-05
0.000108168535978
0.000120956346908
0.00012830380888
0.000132180880235
0.000133845802443
0.000134232207197
0.000134028333325
0.00013372523029
0.000133528181897
0.000133419686393
0.000133421180577
0.000133566817304
0.000133682307707
0.000133281227758
0.000131654719766
0.00012785864837
0.000120617417612
0.000107922940861
8.74872182646e-05
9.37221515405e-05
0.000118595514907
0.000133331053349
0.000141681294939
0.000146292507003
0.000148635947941
0.000149746695402
0.000150316307767
0.0001506992529
0.000150919641719
0.000150857555206
0.000150514697719
0.000150003373672
0.000149314312385
0.00014813676316
0.000145795155422
0.000141244313206
0.000132992030776
0.000118379747299
9.34590820325e-05
0.000118835564933
0.00042933259273
0.000579718727514
0.000644538093861
0.000666126390264
0.000666332274562
0.000658349746716
0.000649584630935
0.000643011081098
0.000639032330459
0.000637249446231
0.000638062372371
0.00064240001554
0.00064988219806
0.00065752275077
0.00065763076198
0.00063700258105
0.000574121682599
0.00042714013173
0.000118068430804
0.000133599674675
0.000577868666807
0.000848851933427
0.000987627719638
0.00104942079566
0.00106862928899
0.00106689412983
0.00105886604997
0.00104954307192
0.00104221839924
0.00103882910904
0.00104018232096
0.00104563659483
0.00105153295156
0.00105317403315
0.00103559309181
0.000976403464481
0.000841595222521
0.000575757182977
0.00013265041574
0.000141980220068
0.000642162447992
0.000986332479242
0.00118220610007
0.00128383591769
0.00132952456904
0.00133914681271
0.00133131270161
0.00131858300633
0.00130814108458
0.00130324584375
0.00130494018649
0.00131104893694
0.00131560412343
0.00130741111495
0.00126612044108
0.00116822912138
0.000977269406186
0.000638861478046
0.000140876763455
0.000146645734757
0.000664196173771
0.00104783784323
0.00128310453553
0.0014159742636
0.00147509455386
0.0014877934039
0.00147668964894
0.00145909541641
0.00144501355933
0.00143876558218
0.00144138384716
0.00144929090989
0.00145428957519
0.00144239575605
0.00139041614801
0.00126605141432
0.00103613221784
0.00065868845887
0.000145381774613
0.00014906795276
0.000665303407695
0.00106753118255
0.00132931412275
0.00147686240158
0.00154027290829
0.00154867964305
0.00152990912597
0.00150535583801
0.00148709214733
0.0014798356478
0.00148430469079
0.00149572161798
0.00150392184507
0.00149322359346
0.00143901329945
0.00130527166145
0.00105227863109
0.000657114056929
0.000147640393832
0.000150266566568
0.000658414420587
0.0010670119965
0.00134191738002
0.00149589351913
0.00155631246326
0.0015559256532
0.00152698952632
0.00149467798803
0.00147208183204
0.00146414660745
0.00147122874008
0.00148737585023
0.0015007311224
0.00149430475815
0.00144268919235
0.00130855359987
0.00104823926948
0.000647519605485
0.000148714030081
0.000150913373907
0.000651068748023
0.00106105056183
0.0013394685821
0.00149356080644
0.00154793574953
0.00153800719423
0.0014991898685
0.00145939495916
0.00143257781703
0.00142405471821
0.00143384171003
0.00145498657303
0.0014742157886
0.00147354436543
0.0014269532511
0.00129659171478
0.00103817210739
0.000637610270048
0.000149303136932
0.000151356886061
0.000646422826925
0.00105534514491
0.00133257211519
0.00148427327162
0.00153326993767
0.00151604500924
0.00146982740286
0.00142400694225
0.00139360663218
0.00138440081265
0.00139619576017
0.00142142565459
0.00144580891859
0.00145053194044
0.00140903959971
0.00128297050268
0.00102783603953
0.000630617540782
0.000149734592125
0.000151631888588
0.000644568294535
0.00105195102917
0.00132776122297
0.00147760458775
0.00152364511714
0.00150265121399
0.00145259301514
0.00140352846448
0.00137111430209
0.00136143076394
0.00137424304845
0.00140167114504
0.00142899761875
0.00143689516145
0.00139844961893
0.00127501594272
0.00102211804347
0.000627383616327
0.000149999565238
0.000151630577664
0.000644730554693
0.00105220854497
0.00132810903879
0.00147806820653
0.00152423795266
0.00150337478793
0.00145347117744
0.00140456677565
0.00137226051065
0.00136260457438
0.00137538491262
0.00140276340516
0.00143005572524
0.00143790778075
0.00139935644017
0.00127575968167
0.00102267230638
0.000627705087069
0.000149989644509
0.000151345507233
0.000646812987546
0.00105602560755
0.00133354153517
0.00148561259881
0.00153503731033
0.00151826296942
0.00147256983072
0.00142728395156
0.00139724238105
0.00138813582729
0.00139982710834
0.00142486677254
0.00144906067222
0.00145353808714
0.00141164553512
0.00128505655531
0.00102936502404
0.000631483794207
0.000149704573803
0.000150886463005
0.000651515540725
0.00106197340207
0.00134092705475
0.00149569657092
0.00155087799952
0.00154181519242
0.00150395965467
0.00146510066045
0.00143891277551
0.00143058392572
0.00144019630248
0.0014609433498
0.00147967756514
0.00147837763951
0.00143095904904
0.00129967337245
0.00104035210303
0.000638823200455
0.000149257361579
0.000150230287691
0.000658792724236
0.00106798165324
0.00134361735166
0.00149859145571
0.00156028733189
0.00156130187001
0.00153377328372
0.00150272891926
0.00148097047746
0.00147332494362
0.00148016983084
0.00149566859477
0.00150809529658
0.00150049057152
0.00144751017884
0.00131206624897
0.00105060877094
0.000648821362409
0.000148657872947
0.000149034099934
0.000665551592463
0.00106832577601
0.00133088269489
0.00147958616357
0.00154462571988
0.00155488198663
0.00153786994796
0.00151475770521
0.00149744222612
0.00149053727603
0.00149474249235
0.0015053244288
0.00151218714699
0.00149977931055
0.00144378448611
0.00130854660161
0.00105445848936
0.000658261243166
0.000147579863953
0.000146621914215
0.000664277268763
0.00104837919435
0.00128437553974
0.00141827818377
0.00147892112417
0.00149352452567
0.00148422202595
0.00146802262662
0.0014548563447
0.00144897522002
0.00145136055006
0.00145839976879
0.00146190591536
0.00144815661988
0.00139443750952
0.00126868318222
0.00103777976926
0.000659479341952
0.000145321651842
0.000141970748846
0.000642049609375
0.000986616536165
0.00118318193706
0.001285723191
0.00133253242569
0.00134355371793
0.001337152312
0.00132556323467
0.001315880707
0.00131130333469
0.00131281203166
0.00131819317513
0.00132152981611
0.0013119222321
0.00126927425734
0.00117020590088
0.000978277697315
0.000639197953801
0.000140823715074
0.000133607685674
0.00057760736428
0.000848965678728
0.000988352235788
0.00105094398203
0.00107106930585
0.00107031048471
0.00106324648001
0.00105470797815
0.0010479284778
0.00104476610414
0.00104597764789
0.00105092809868
0.00105602038894
0.00105667251069
0.00103800738784
0.000977762663197
0.00084208131043
0.000575702078678
0.000132613987195
0.00011886526719
0.000429098429334
0.000579779802426
0.000644972708496
0.000667023960219
0.000667758845298
0.000660325095716
0.000652089956326
0.000645959314159
0.000642274895316
0.000640606608289
0.000641340109497
0.000645376531075
0.000652419917007
0.000659526198402
0.000659018315878
0.000637767956564
0.00057434101579
0.000426966056761
0.000118059479756
9.37736856171e-05
0.000118548245789
0.000133258533264
0.000141593845897
0.000146195324809
0.000148533727132
0.000149644487271
0.000150215913298
0.000150596833091
0.000150812256341
0.000150743500092
0.000150395092213
0.000149875884932
0.000149179106327
0.000147997069607
0.000145655513254
0.00014111343953
0.000132877308806
0.000118297262733
9.34838306982e-05
9.97066813711e-05
0.000128909744738
0.000145270318155
0.000154664761799
0.0001602798848
0.000163613859865
0.000165684897656
0.000167072168597
0.00016803084801
0.000168552950667
0.00016851591981
0.000167930689434
0.000166893220035
0.000165394960178
0.000163225640987
0.000159858273358
0.000154310175826
0.000144944108306
0.000128720252463
9.94465286991e-05
0.00012921017897
0.000512574960971
0.000691520309929
0.000770494521261
0.000801545677105
0.000809162867418
0.000808548210008
0.000806661626747
0.000805640609956
0.000804502589254
0.000802091096399
0.000798885465458
0.000796980142504
0.00079741357419
0.000797785312425
0.000790775110936
0.000761182808831
0.000684572731838
0.000509589830182
0.000128328300726
0.000145604064448
0.000689876422723
0.0010109945787
0.00117405272259
0.00125016386368
0.00127926026054
0.00128831658049
0.00128653304576
0.00128116818333
0.00127557172737
0.00127081133021
0.00126776224821
0.00126635961558
0.00126486064228