/*--------------------------------*- C++ -*----------------------------------*\
| =========                 |                                                 |
| \\      /  F ield         | OpenFOAM: The Open Source CFD Toolbox           |
|  \\    /   O peration     | Version:  3.0.1                                 |
|   \\  /    A nd           | Web:      www.OpenFOAM.org                      |
|    \\/     M anipulation  |                                                 |
\*---------------------------------------------------------------------------*/
FoamFile
{
    version     2.0;
    format      ascii;
    class       volScalarField;
    location    "9.9";
    object      rAU;
}
// * * * * * * * * * * * * * * * * * * * * * * * * * * * * * * * * * * * * * //

dimensions      [-1 3 1 0 0 0 0];

internalField   nonuniform List<scalar> 
7968
(
1.05319991876e-05
1.05268545446e-05
1.05269480247e-05
1.05288635846e-05
1.05280416428e-05
1.05177332478e-05
1.05128572737e-05
1.05192620569e-05
1.05226303892e-05
1.05240905283e-05
1.05243463219e-05
1.05234789702e-05
1.05211426201e-05
1.05169782632e-05
1.05093187357e-05
1.05167843638e-05
1.05287518414e-05
1.05268917205e-05
1.05268212381e-05
1.05320049289e-05
1.05267871445e-05
1.05149742157e-05
1.05119396865e-05
1.05123551437e-05
1.05103973477e-05
1.05036505577e-05
1.05006177416e-05
1.05041800807e-05
1.0506973968e-05
1.05082946271e-05
1.05085384701e-05
1.05077577271e-05
1.05056737536e-05
1.0502534262e-05
1.05020166794e-05
1.05075593593e-05
1.05120519039e-05
1.05119714953e-05
1.05150711434e-05
1.0526894564e-05
1.05268406363e-05
1.0511837946e-05
1.05067750144e-05
1.05060780421e-05
1.05042233341e-05
1.04998001746e-05
1.04986048125e-05
1.05018245331e-05
1.05043164921e-05
1.0505955789e-05
1.05062502565e-05
1.0505347089e-05
1.05033804089e-05
1.05001483348e-05
1.0499268518e-05
1.05027849245e-05
1.05058276949e-05
1.05069298388e-05
1.05120875555e-05
1.05269944935e-05
1.05286744105e-05
1.05120393891e-05
1.05058805439e-05
1.05042404806e-05
1.05052918493e-05
1.05009382909e-05
1.04995310109e-05
1.05020875484e-05
1.05043223313e-05
1.05054636403e-05
1.05056803639e-05
1.05049964797e-05
1.05032333116e-05
1.0500821416e-05
1.05005684368e-05
1.05042816344e-05
1.05033720035e-05
1.05060597944e-05
1.05123978332e-05
1.05289293518e-05
1.05241638316e-05
1.05089419286e-05
1.05034628223e-05
1.05047685534e-05
1.05008228744e-05
1.04933946906e-05
1.04903659139e-05
1.04917995435e-05
1.049328288e-05
1.04940402035e-05
1.04943008805e-05
1.04940385375e-05
1.049303144e-05
1.04915882625e-05
1.0492909662e-05
1.04995329085e-05
1.05046892529e-05
1.05035560347e-05
1.05090412831e-05
1.05234138005e-05
1.05157213322e-05
1.05029102441e-05
1.04994544249e-05
1.05009898348e-05
1.04939615699e-05
1.04843235651e-05
1.04815281193e-05
1.04828940349e-05
1.04841576948e-05
1.04846272166e-05
1.0484815656e-05
1.04847607296e-05
1.048392206e-05
1.0482615763e-05
1.04838133444e-05
1.04922860711e-05
1.05003398498e-05
1.04995839737e-05
1.05028387865e-05
1.05148502578e-05
1.0515334339e-05
1.05015829745e-05
1.04992159131e-05
1.05005196036e-05
1.04918966178e-05
1.04824959551e-05
1.04808091058e-05
1.04829881221e-05
1.0484550451e-05
1.04851923462e-05
1.04853146776e-05
1.04848623003e-05
1.04836498409e-05
1.04815817621e-05
1.0481827524e-05
1.04901261258e-05
1.04997695808e-05
1.04996037463e-05
1.05017283473e-05
1.0515372082e-05
1.05203036456e-05
1.05048962452e-05
1.05023172084e-05
1.05032019869e-05
1.04934323327e-05
1.04839286805e-05
1.0483006559e-05
1.04858374539e-05
1.04879138361e-05
1.04911909916e-05
1.04926258104e-05
1.04882492911e-05
1.04865395013e-05
1.04837907131e-05
1.04831979713e-05
1.04915616141e-05
1.05021227252e-05
1.05030247157e-05
1.05051232121e-05
1.05202961301e-05
1.0523119663e-05
1.05073010602e-05
1.05045621559e-05
1.05051938169e-05
1.04947154547e-05
1.04850172359e-05
1.04843762724e-05
1.04877078277e-05
1.04980976214e-05
1.05019641252e-05
1.05024673783e-05
1.05003751552e-05
1.04897946464e-05
1.04853179823e-05
1.04842720577e-05
1.04927959462e-05
1.05041318094e-05
1.05055630652e-05
1.05075681207e-05
1.05231032174e-05
1.05242918344e-05
1.05083454279e-05
1.05058835017e-05
1.05060998389e-05
1.04952137794e-05
1.0485317416e-05
1.04847961984e-05
1.04884217057e-05
1.05014233276e-05
1.0504609265e-05
1.0505126314e-05
1.05029567372e-05
1.04951887037e-05
1.04859624883e-05
1.04845501536e-05
1.04933090326e-05
1.05050674687e-05
1.05065733174e-05
1.05086362963e-05
1.05242787242e-05
1.05242983277e-05
1.05083456572e-05
1.05058789888e-05
1.05060979385e-05
1.04952062636e-05
1.04853133073e-05
1.04847977307e-05
1.04884220355e-05
1.05014016148e-05
1.05045865308e-05
1.05051016308e-05
1.050293171e-05
1.04951380734e-05
1.04859596452e-05
1.04845453488e-05
1.04933025568e-05
1.05050646716e-05
1.05065356652e-05
1.0508638182e-05
1.05242877372e-05
1.05231386286e-05
1.05073067548e-05
1.05045595922e-05
1.05051941392e-05
1.0494699682e-05
1.04850115045e-05
1.04843902766e-05
1.04877196647e-05
1.04980227637e-05
1.05019178675e-05
1.0502415124e-05
1.05003111845e-05
1.04895460918e-05
1.04853192754e-05
1.04842677216e-05
1.04927836586e-05
1.05041285341e-05
1.05054983805e-05
1.0507574387e-05
1.0523128305e-05
1.052033516e-05
1.05049118121e-05
1.05022649422e-05
1.05032151951e-05
1.04934206649e-05
1.04839332612e-05
1.04830451206e-05
1.04858789577e-05
1.04879534557e-05
1.04909705078e-05
1.04924511182e-05
1.04882870392e-05
1.04865743745e-05
1.04838234511e-05
1.04832107553e-05
1.04915617958e-05
1.05021270879e-05
1.05029737412e-05
1.05051360181e-05
1.05203347714e-05
1.05154016211e-05
1.0501608228e-05
1.04991975599e-05
1.05005397766e-05
1.0491904088e-05
1.04825232524e-05
1.04808838206e-05
1.04830808194e-05
1.04846462966e-05
1.04852827177e-05
1.04854032888e-05
1.0484951963e-05
1.04837329315e-05
1.04816489941e-05
1.04818713164e-05
1.04901546389e-05
1.04997758092e-05
1.04995704397e-05
1.05017418924e-05
1.05154398933e-05
1.05156465923e-05
1.05029040089e-05
1.04994537085e-05
1.05010344511e-05
1.04939980827e-05
1.0484390199e-05
1.04816539044e-05
1.04830542851e-05
1.0484331108e-05
1.04848000903e-05
1.0484985545e-05
1.04849266493e-05
1.04840745777e-05
1.04827463051e-05
1.04839173832e-05
1.04923591306e-05
1.05003812261e-05
1.0499582623e-05
1.05028329119e-05
1.05148031495e-05
1.05240512373e-05
1.05089302157e-05
1.05034748875e-05
1.05048304395e-05
1.05008369183e-05
1.0493419859e-05
1.04904400429e-05
1.04919030778e-05
1.04933959822e-05
1.04941525624e-05
1.04944103407e-05
1.04941447909e-05
1.04931274107e-05
1.04916703455e-05
1.04929654992e-05
1.0499562998e-05
1.05047370199e-05
1.05035716443e-05
1.05090342447e-05
1.05233290258e-05
1.05286943514e-05
1.05120577589e-05
1.05059057019e-05
1.05042731923e-05
1.0505310143e-05
1.05008894024e-05
1.04995061086e-05
1.05020693921e-05
1.05042988301e-05
1.05054314917e-05
1.05056436047e-05
1.05049611628e-05
1.05031982299e-05
1.05007861105e-05
1.05005120818e-05
1.05042718108e-05
1.0503464802e-05
1.0506072344e-05
1.05124089103e-05
1.05289378639e-05
1.05268673984e-05
1.05118681281e-05
1.05068156044e-05
1.05061173671e-05
1.0504234386e-05
1.04998038424e-05
1.0498640726e-05
1.05018640566e-05
1.0504321564e-05
1.05059273285e-05
1.05062193339e-05
1.05053185255e-05
1.05033895704e-05
1.05001653272e-05
1.04992541962e-05
1.05027741585e-05
1.05058483906e-05
1.05069522274e-05
1.05121063701e-05
1.05270000514e-05
1.0526818462e-05
1.05150150538e-05
1.05119895672e-05
1.05124069227e-05
1.05103923558e-05
1.05036361476e-05
1.05006619733e-05
1.05042159922e-05
1.05069861812e-05
1.05082926091e-05
1.05085367491e-05
1.05077695712e-05
1.05057073264e-05
1.05025773945e-05
1.05019615679e-05
1.05075038502e-05
1.0512085695e-05
1.0512003872e-05
1.05150939715e-05
1.05269035596e-05
1.05320268301e-05
1.05268811251e-05
1.05269824544e-05
1.05289020061e-05
1.05279815845e-05
1.05177271462e-05
1.05129611123e-05
1.05193079809e-05
1.05226586879e-05
1.05241147099e-05
1.05243733453e-05
1.05235145324e-05
1.0521196401e-05
1.05170542777e-05
1.05093952252e-05
1.05168382982e-05
1.05287808927e-05
1.05269129358e-05
1.05268431496e-05
1.05320310501e-05
1.05305582523e-05
1.05212416499e-05
1.05175849772e-05
1.05172757075e-05
1.05145834761e-05
1.05097572562e-05
1.0508728035e-05
1.05116700203e-05
1.05143833739e-05
1.0515748854e-05
1.05160031491e-05
1.05151953942e-05
1.0513166742e-05
1.05104013212e-05
1.05091467145e-05
1.05128509903e-05
1.05167990869e-05
1.05176505811e-05
1.05213641029e-05
1.05305455196e-05
1.05213387633e-05
1.04809419498e-05
1.04560629205e-05
1.04453448561e-05
1.0440676164e-05
1.0438914504e-05
1.04398946398e-05
1.04432925278e-05
1.04466410906e-05
1.04484351774e-05
1.04487813889e-05
1.04477069097e-05
1.04449726004e-05
1.04415057911e-05
1.04395297938e-05
1.04405994763e-05
1.04453083462e-05
1.04562723715e-05
1.04809930473e-05
1.05212493344e-05
1.05176234332e-05
1.04561946145e-05
1.04152912573e-05
1.03961635963e-05
1.03890933178e-05
1.0387797926e-05
1.0389222608e-05
1.03922897153e-05
1.03953222778e-05
1.03977746611e-05
1.03983193221e-05
1.03968977702e-05
1.03942890416e-05
1.03910475545e-05
1.03890616758e-05
1.03898382092e-05
1.03964947513e-05
1.04154249518e-05
1.04561407619e-05
1.05176385294e-05
1.05170355841e-05
1.04454042281e-05
1.0396313623e-05
1.03734965469e-05
1.03656306448e-05
1.03616285298e-05
1.03614065689e-05
1.03634098452e-05
1.03662423336e-05
1.03684349075e-05
1.03690451528e-05
1.03678179999e-05
1.03654163788e-05
1.0363319567e-05
1.03630716411e-05
1.03667090144e-05
1.03735905997e-05
1.03963610521e-05
1.04452419962e-05
1.05171213881e-05
1.0513629124e-05
1.04407602382e-05
1.03893970986e-05
1.03657682425e-05
1.03525158789e-05
1.03477537871e-05
1.03477526932e-05
1.03502972426e-05
1.03535863876e-05
1.03559795638e-05
1.03566705485e-05
1.03553838002e-05
1.0352621339e-05
1.03498980146e-05
1.0349413249e-05
1.03536373367e-05
1.03665016878e-05
1.03895145225e-05
1.04404465079e-05
1.05136648115e-05
1.05093854908e-05
1.04393538187e-05
1.03883270359e-05
1.03620886616e-05
1.03479355864e-05
1.0343813104e-05
1.03449854884e-05
1.03484344319e-05
1.03523189553e-05
1.03550736166e-05
1.03558538038e-05
1.03543404116e-05
1.03510181204e-05
1.03473825226e-05
1.03457520116e-05
1.0349242412e-05
1.03625517567e-05
1.03884770202e-05
1.04390199775e-05
1.05093201605e-05
1.0509651469e-05
1.04408096442e-05
1.03899900059e-05
1.0362044501e-05
1.03480945437e-05
1.03451980552e-05
1.03473287973e-05
1.03516578075e-05
1.03562547367e-05
1.03593417401e-05
1.03601688285e-05
1.03584916898e-05
1.03545302118e-05
1.03499772251e-05
1.03472968717e-05
1.03496570615e-05
1.03627073407e-05
1.03902717474e-05
1.04406043291e-05
1.05095395868e-05
1.05125079743e-05
1.04441688119e-05
1.03929382439e-05
1.03639679452e-05
1.035055603e-05
1.03486307682e-05
1.03516647805e-05
1.03568210652e-05
1.03618525296e-05
1.03679219802e-05
1.0370279705e-05
1.03642878821e-05
1.03600167431e-05
1.03546974829e-05
1.03511172605e-05
1.03525999822e-05
1.03649720999e-05
1.03936896761e-05
1.04441864199e-05
1.0512473784e-05
1.05148324097e-05
1.04471383939e-05
1.03957163436e-05
1.03663664133e-05
1.03533946075e-05
1.03520481343e-05
1.03557966391e-05
1.03613409076e-05
1.03755062624e-05
1.03830318305e-05
1.03845151351e-05
1.03803187048e-05
1.03661695088e-05
1.03592095785e-05
1.03550088898e-05
1.03558942293e-05
1.03678511679e-05
1.0396898363e-05
1.04472998601e-05
1.05148792035e-05
1.05159019092e-05
1.04485814325e-05
1.03976730109e-05
1.03679541098e-05
1.03551010922e-05
1.03540324755e-05
1.03581482344e-05
1.03639688364e-05
1.03814668514e-05
1.03886422644e-05
1.03900938227e-05
1.03859180471e-05
1.03739802751e-05
1.03617041543e-05
1.03573180561e-05
1.0357900001e-05
1.03697081659e-05
1.03986225198e-05
1.0448698539e-05
1.05159951615e-05
1.05159067573e-05
1.04485681513e-05
1.03976599525e-05
1.03679289843e-05
1.03550656757e-05
1.03539822763e-05
1.0358084572e-05
1.03638935901e-05
1.03813592331e-05
1.03885320368e-05
1.0389978887e-05
1.03857979046e-05
1.03738354158e-05
1.03616223129e-05
1.03572430064e-05
1.03578379926e-05
1.03696622428e-05
1.03985627978e-05
1.04486671534e-05
1.0515998821e-05
1.05148496891e-05
1.04471194389e-05
1.03956908528e-05
1.03663076768e-05
1.03533067146e-05
1.03519202034e-05
1.03556310781e-05
1.03611463689e-05
1.03751916484e-05
1.03827199515e-05
1.03841929113e-05
1.03799829356e-05
1.03656704596e-05
1.03589980795e-05
1.03548153265e-05
1.03557329905e-05
1.03677297069e-05
1.03967732869e-05
1.04472460624e-05
1.05148889233e-05
1.05125416177e-05
1.04441680861e-05
1.0392864567e-05
1.03639101213e-05
1.03504560039e-05
1.03484814841e-05
1.03514661716e-05
1.03565781152e-05
1.03615700048e-05
1.03673350547e-05
1.03697266422e-05
1.0363972857e-05
1.03597261421e-05
1.03544309296e-05
1.03508779826e-05
1.03523975853e-05
1.03648209577e-05
1.03935637331e-05
1.04441409424e-05
1.05124923881e-05
1.0509699959e-05
1.04408384166e-05
1.0389981701e-05
1.03620129507e-05
1.03480193535e-05
1.03450845088e-05
1.03471753845e-05
1.03514601228e-05
1.03560127252e-05
1.03590637431e-05
1.03598704703e-05
1.03581979486e-05
1.03542587481e-05
1.03497322821e-05
1.03470757062e-05
1.03494713204e-05
1.03625713696e-05
1.03901808757e-05
1.04405770636e-05
1.05095755197e-05
1.05094364069e-05
1.04394176027e-05
1.03883834205e-05
1.03621001764e-05
1.03478921797e-05
1.03437416568e-05
1.0344888912e-05
1.03482965254e-05
1.03521264595e-05
1.03548316462e-05
1.03555892634e-05
1.03540854999e-05
1.03507887881e-05
1.03471755425e-05
1.03455620599e-05
1.03490903241e-05
1.03624611626e-05
1.03884476111e-05
1.04390270032e-05
1.05093890904e-05
1.05136556926e-05
1.04408511437e-05
1.03895074636e-05
1.03658271903e-05
1.03524819019e-05
1.03476810163e-05
1.03476425793e-05
1.03501395741e-05
1.03533685723e-05
1.03557090703e-05
1.03563765448e-05
1.03551027473e-05
1.03523710886e-05
1.03496808687e-05
1.03492354937e-05
1.03535059526e-05
1.03664556546e-05
1.03895670632e-05
1.04404833659e-05
1.05136913412e-05
1.05170470788e-05
1.04455007456e-05
1.03964339029e-05
1.03735753339e-05
1.03656236614e-05
1.03615133573e-05
1.03612356072e-05
1.03631774812e-05
1.03659472656e-05
1.03680899367e-05
1.03686791132e-05
1.03674669214e-05
1.03651024572e-05
1.03630552306e-05
1.0362866602e-05
1.03666044115e-05
1.03736391484e-05
1.03964397623e-05
1.04452769624e-05
1.05170860095e-05
1.05176637629e-05
1.04562960039e-05
1.04153891912e-05
1.03962543637e-05
1.03891500288e-05
1.03877566121e-05
1.03891024357e-05
1.0392098765e-05
1.03950511436e-05
1.03974417665e-05
1.03979736651e-05
1.03965629761e-05
1.03940225492e-05
1.03908455404e-05
1.03889434757e-05
1.03898401216e-05
1.03965422484e-05
1.04154606726e-05
1.04561801005e-05
1.05176395514e-05
1.05213865113e-05
1.04810155457e-05
1.04561161942e-05
1.0445356057e-05
1.04406424703e-05
1.04388523617e-05
1.04398026168e-05
1.04431611648e-05
1.04464734181e-05
1.04482380902e-05
1.04485718295e-05
1.0447516985e-05
1.04448129001e-05
1.0441377413e-05
1.04394230999e-05
1.04405094024e-05
1.04452532861e-05
1.04562636181e-05
1.04810181081e-05
1.05212835724e-05
1.05305949355e-05
1.0521255527e-05
1.05176027796e-05
1.05172788113e-05
1.05145677873e-05
1.05097678825e-05
1.05087509238e-05
1.05116673785e-05
1.05143688071e-05
1.05157302981e-05
1.05159857356e-05
1.05151824545e-05
1.05131611258e-05
1.05104144101e-05
1.05091783867e-05
1.05128401434e-05
1.05167608221e-05
1.05176409653e-05
1.05213678996e-05
1.05305831941e-05
1.05250880057e-05
1.05101096686e-05
1.05006242577e-05
1.04978816258e-05
1.04947680504e-05
1.04930096333e-05
1.04933546732e-05
1.049435243e-05
1.04950125996e-05
1.04951575547e-05
1.0495149236e-05
1.04950934257e-05
1.04947233584e-05
1.04939143005e-05
1.04932822839e-05
1.04941337204e-05
1.04970153348e-05
1.05004172929e-05
1.05090471109e-05
1.05251142851e-05
1.05099597736e-05
1.04492468405e-05
1.04147845756e-05
1.04001779891e-05
1.03946519252e-05
1.03937892048e-05
1.03952588822e-05
1.03977221781e-05
1.04001220823e-05
1.04016200719e-05
1.04018907658e-05
1.0400860293e-05
1.03987728283e-05
1.03963559413e-05
1.03947660617e-05
1.03954889037e-05
1.04008147305e-05
1.04152003015e-05
1.04479231225e-05
1.0509691798e-05
1.05001559576e-05
1.04145405379e-05
1.03666237782e-05
1.03393325969e-05
1.03275816968e-05
1.0324550696e-05
1.03254206428e-05
1.03278550708e-05
1.03304273146e-05
1.03322430305e-05
1.03327801784e-05
1.03318312238e-05
1.03298229136e-05
1.03274816404e-05
1.03265476877e-05
1.03294625793e-05
1.03407342667e-05
1.0367512489e-05
1.04155361438e-05
1.0501076558e-05
1.04969383632e-05
1.04000078031e-05
1.03395549627e-05
1.03022175209e-05
1.02818729826e-05
1.02736040965e-05
1.02722224266e-05
1.02741599287e-05
1.02771160897e-05
1.02795227367e-05
1.02803733041e-05
1.02793256472e-05
1.02770325808e-05
1.02751062356e-05
1.02762098655e-05
1.02841274093e-05
1.03040452024e-05
1.03405293094e-05
1.04010854633e-05
1.0498152831e-05
1.04938478511e-05
1.03945795633e-05
1.032796402e-05
1.02821168369e-05
1.0256483954e-05
1.02467763815e-05
1.02458882697e-05
1.02485918693e-05
1.02522080599e-05
1.02551853792e-05
1.0256264176e-05
1.0254994666e-05
1.0252008649e-05
1.02493236786e-05
1.0250165616e-05
1.02593053226e-05
1.02838933703e-05
1.03290937535e-05
1.03956402973e-05
1.04951477578e-05
1.04925939233e-05
1.03937361885e-05
1.03249522161e-05
1.02738901247e-05
1.02468640772e-05
1.02379478295e-05
1.02383798984e-05
1.02421037142e-05
1.02466264137e-05
1.02504059724e-05
1.02517274517e-05
1.02500016508e-05
1.02457136996e-05
1.02413589172e-05
1.02411969579e-05
1.02502205095e-05
1.02760338955e-05
1.03261553174e-05
1.03948728662e-05
1.04937900847e-05
1.04931284967e-05
1.03952054895e-05
1.03258125695e-05
1.02723785353e-05
1.02459688162e-05
1.02388181293e-05
1.024089917e-05
1.02459087531e-05
1.0251721528e-05
1.02564976119e-05
1.02580338817e-05
1.02556832339e-05
1.02497919658e-05
1.02432034184e-05
1.02412789466e-05
1.0249650956e-05
1.02752318478e-05
1.03271976229e-05
1.03964758596e-05
1.04942811696e-05
1.04940121396e-05
1.03975860294e-05
1.03281097341e-05
1.02740065896e-05
1.02485756075e-05
1.02430764896e-05
1.02467611595e-05
1.02534251878e-05
1.02607547874e-05
1.02668925698e-05
1.0268695739e-05
1.02651934986e-05
1.02579291073e-05
1.0249378754e-05
1.02455322538e-05
1.02527749086e-05
1.0277697153e-05
1.03297778866e-05
1.03990260097e-05
1.04952243005e-05
1.0494489619e-05
1.03997708905e-05
1.03304079058e-05
1.02763427346e-05
1.02515822668e-05
1.02471632345e-05
1.02522677736e-05
1.02604951591e-05
1.02703375465e-05
1.02777455439e-05
1.02796105733e-05
1.02753771245e-05
1.02657681502e-05
1.02558383174e-05
1.02505524778e-05
1.02566399565e-05
1.02808118362e-05
1.03322769187e-05
1.04013642539e-05
1.04957706024e-05
1.04945523579e-05
1.04010082552e-05
1.03317145385e-05
1.02778686602e-05
1.02534223198e-05
1.02495336739e-05
1.02554583063e-05
1.02647208485e-05
1.02760186422e-05
1.02840593408e-05
1.02859328801e-05
1.02812609016e-05
1.02708917879e-05
1.02596926543e-05
1.02537044936e-05
1.0259129193e-05
1.02828256776e-05
1.03338218241e-05
1.04026809253e-05
1.04958747138e-05
1.04945541121e-05
1.04010012933e-05
1.03316909921e-05
1.02778181832e-05
1.02533522264e-05
1.02494335066e-05
1.02553263857e-05
1.02645611278e-05
1.02758471946e-05
1.02838934725e-05
1.02857615371e-05
1.02810715889e-05
1.02706926972e-05
1.02595088048e-05
1.02535434143e-05
1.02589965627e-05
1.02827213777e-05
1.03337559982e-05
1.04026530699e-05
1.0495877147e-05
1.04944995215e-05
1.03997571342e-05
1.03303466818e-05
1.02762115428e-05
1.02514001612e-05
1.02469027821e-05
1.02519200049e-05
1.02600669362e-05
1.02698566372e-05
1.02772565758e-05
1.02791027728e-05
1.02748391449e-05
1.0265216347e-05
1.02553416574e-05
1.02501215726e-05
1.02562857301e-05
1.02805329068e-05
1.03321011469e-05
1.04012979783e-05
1.04957752663e-05
1.04940313066e-05
1.03975816728e-05
1.03280384906e-05
1.0273843325e-05
1.02483592572e-05
1.0242805634e-05
1.02464154128e-05
1.0252971149e-05
1.02601981942e-05
1.02662612962e-05
1.02680347161e-05
1.02645556258e-05
1.02573156091e-05
1.02488178217e-05
1.02450182489e-05
1.02523144391e-05
1.02773247214e-05
1.03295491963e-05
1.03989457028e-05
1.04952357132e-05
1.04931587277e-05
1.03952298555e-05
1.03257792526e-05
1.02722330572e-05
1.02457606965e-05
1.02386140408e-05
1.02407012801e-05
1.02456302047e-05
1.02513015191e-05
1.02559576643e-05
1.02574452586e-05
1.02551182794e-05
1.02492998581e-05
1.02427499349e-05
1.02407911434e-05
1.02491683014e-05
1.02748499543e-05
1.03269684803e-05
1.03964097409e-05
1.04943092612e-05
1.04926455343e-05
1.03938011623e-05
1.03249768284e-05
1.02737820982e-05
1.02466563265e-05
1.02377171335e-05
1.02381718119e-05
1.02418410374e-05
1.0246213278e-05
1.0249846934e-05
1.02511118682e-05
1.0249427769e-05
1.024521626e-05
1.02408684477e-05
1.02406697293e-05
1.02497422575e-05
1.02756958244e-05
1.03259750191e-05
1.03948422952e-05
1.04938486114e-05
1.04938791223e-05
1.03946747724e-05
1.03280392259e-05
1.0282042263e-05
1.02562761836e-05
1.02464620313e-05
1.02454901247e-05
1.02480883956e-05
1.02515589906e-05
1.02544041893e-05
1.02554270679e-05
1.02541931713e-05
1.02512849722e-05
1.02486670527e-05
1.02495901534e-05
1.02588664142e-05
1.02836124349e-05
1.03290026762e-05
1.03956538017e-05
1.04951885145e-05
1.04969161217e-05
1.04001217477e-05
1.03396641473e-05
1.03021814168e-05
1.02816530174e-05
1.02732317677e-05
1.02717147088e-05
1.0273513346e-05
1.02763301805e-05
1.02786274541e-05
1.02794292178e-05
1.02784109658e-05
1.02762030181e-05
1.02743897309e-05
1.02756351405e-05
1.02837200965e-05
1.03038148532e-05
1.03405229084e-05
1.04011376868e-05
1.04981194801e-05
1.05001343598e-05
1.04146289773e-05
1.036675076e-05
1.03393679686e-05
1.03274675234e-05
1.0324234272e-05
1.03249447306e-05
1.03272450633e-05
1.03297041768e-05
1.03314436883e-05
1.03319481012e-05
1.03310187516e-05
1.03290790022e-05
1.03268519578e-05
1.03260737732e-05
1.03292087548e-05
1.03406627637e-05
1.03675557031e-05
1.04155802547e-05
1.05010386989e-05
1.05094815427e-05
1.04485944921e-05
1.04148863317e-05
1.04002746318e-05
1.03946757562e-05
1.0393736477e-05
1.03951269306e-05
1.03975150044e-05
1.03998538424e-05
1.04013105766e-05
1.04015663694e-05
1.04005545423e-05
1.03985133835e-05
1.03961660277e-05
1.03946533935e-05
1.03954529597e-05
1.04008545232e-05
1.04152579614e-05
1.04470238369e-05
1.05089556235e-05
1.05250539759e-05
1.05098839174e-05
1.05006782749e-05
1.04979699611e-05
1.04948974073e-05
1.04931635208e-05
1.0493478554e-05
1.04944453701e-05
1.04950859914e-05
1.0495221909e-05
1.04952153117e-05
1.04951719883e-05
1.04948167912e-05
1.04940387814e-05
1.04934482222e-05
1.04942915485e-05
1.04971033508e-05
1.05004518455e-05
1.05088400835e-05
1.05250451531e-05
1.05096508487e-05
1.04966543177e-05
1.04939819753e-05
1.04907467918e-05
1.04886047083e-05
1.04879113803e-05
1.04874546601e-05
1.04869666393e-05
1.04864388055e-05
1.04848504715e-05
1.04837609457e-05
1.0484701466e-05
1.04859706314e-05
1.04870080076e-05
1.04878360825e-05
1.04885803593e-05
1.04902277122e-05
1.04931342792e-05
1.04963436187e-05
1.05096524471e-05
1.04961014792e-05
1.0423230911e-05
1.03924109149e-05
1.03757343921e-05
1.03690290671e-05
1.03677673503e-05
1.03690905348e-05
1.03711303178e-05
1.03729398596e-05
1.03740559135e-05
1.03742616406e-05
1.03735416369e-05
1.03721360974e-05
1.03704485383e-05
1.03693009439e-05
1.03705352367e-05
1.03770327377e-05
1.03933738706e-05
1.04244867074e-05
1.0497145315e-05
1.04928958655e-05
1.03921567019e-05
1.03323333269e-05
1.02971361046e-05
1.02803385076e-05
1.02746012497e-05
1.02743686918e-05
1.0275741237e-05
1.02772612285e-05
1.02783888432e-05
1.02789928186e-05
1.02789443479e-05
1.02782684188e-05
1.02773794565e-05
1.02778590646e-05
1.02834496874e-05
1.02997132805e-05
1.03341355778e-05
1.03938246651e-05
1.04947405561e-05
1.04896742214e-05
1.0375654638e-05
1.02974428436e-05
1.02461818006e-05
1.02197212478e-05
1.0208471071e-05
1.02056564454e-05
1.0206213896e-05
1.02080503812e-05
1.02100532491e-05
1.02111479439e-05
1.02109395635e-05
1.0209564605e-05
1.02087903209e-05
1.02120439411e-05
1.02234939117e-05
1.02493432108e-05
1.02995000041e-05
1.03773118028e-05
1.04916952519e-05
1.04878068452e-05
1.03689886608e-05
1.02807484134e-05
1.02198735364e-05
1.01874279249e-05
1.01737147077e-05
1.01696368221e-05
1.0168972681e-05
1.01706614634e-05
1.01735998828e-05
1.01752223699e-05
1.01746887677e-05
1.01716646534e-05
1.01695225725e-05
1.017424095e-05
1.01902672275e-05
1.02235445373e-05
1.02833197089e-05
1.03708070863e-05
1.04897921203e-05
1.04870404383e-05
1.03676043812e-05
1.02747946454e-05
1.02088454722e-05
1.01747719134e-05
1.01609166065e-05
1.01559237748e-05
1.0153954141e-05
1.01557635939e-05
1.01599819484e-05
1.01621407237e-05
1.01609751542e-05
1.01551953485e-05
1.01498373525e-05
1.01544089091e-05
1.01736892689e-05
1.02123125703e-05
1.02781903732e-05
1.03698009724e-05
1.04891210106e-05
1.04862510427e-05
1.03686472915e-05
1.02743172454e-05
1.02066145342e-05
1.01729641497e-05
1.01600826585e-05
1.01555832867e-05
1.01539268893e-05
1.01567572167e-05
1.01623490186e-05
1.01649645936e-05
1.01629045594e-05
1.0153838597e-05
1.01438571396e-05
1.01463176675e-05
1.01672412439e-05
1.02090853519e-05
1.02783206386e-05
1.03714107803e-05
1.04885300453e-05
1.04853880245e-05
1.037033461e-05
1.02753498011e-05
1.02078750313e-05
1.01752236142e-05
1.01640716669e-05
1.01614005805e-05
1.01618048894e-05
1.01666407075e-05
1.01735622199e-05
1.01763283932e-05
1.01732151067e-05
1.01614114297e-05
1.01475310958e-05
1.01468806566e-05
1.01673393616e-05
1.02098848614e-05
1.02800056051e-05
1.03736922108e-05
1.04878566562e-05
1.04845984509e-05
1.0371734263e-05
1.02762720029e-05
1.02094149193e-05
1.01777087192e-05
1.01680845585e-05
1.01676040073e-05
1.0170900783e-05
1.01784020978e-05
1.01866018607e-05
1.01887529289e-05
1.01841507067e-05
1.01705428146e-05
1.01544479698e-05
1.01515251894e-05
1.01704757094e-05
1.02121952184e-05
1.02817100942e-05
1.03756799992e-05
1.04871966718e-05
1.04841246644e-05
1.03724907521e-05
1.02766483406e-05
1.02102390386e-05
1.01790170639e-05
1.01702305058e-05
1.01711312239e-05
1.01766740556e-05
1.01874233754e-05
1.01975446851e-05
1.01973216126e-05
1.01906591819e-05
1.01758651202e-05
1.01589103197e-05
1.01549128142e-05
1.01728848368e-05
1.02138232844e-05
1.02826620329e-05
1.03768793761e-05
1.04868179922e-05
1.04841406483e-05
1.03724858397e-05
1.02765947612e-05
1.02101568064e-05
1.01788948039e-05
1.01700545579e-05
1.01709153339e-05
1.01764748662e-05
1.01875572904e-05
1.01980782039e-05
1.0197286164e-05
1.01903465931e-05
1.01754989532e-05
1.01585563928e-05
1.01546045812e-05
1.01726354354e-05
1.02136300447e-05
1.02825278948e-05
1.0376842024e-05
1.04868371027e-05
1.04846189497e-05
1.0371715668e-05
1.02761263106e-05
1.02091960046e-05
1.01774053377e-05
1.01676576087e-05
1.01670686917e-05
1.01703217615e-05
1.01780059048e-05
1.0186377275e-05
1.01881664671e-05
1.01832615962e-05
1.01695782187e-05
1.01535276006e-05
1.01507175934e-05
1.01698122114e-05
1.02116737809e-05
1.02813445013e-05
1.03755593145e-05
1.04872167631e-05
1.04853779622e-05
1.03703091058e-05
1.02751525524e-05
1.02076209608e-05
1.01750255603e-05
1.01639379501e-05
1.01613098158e-05
1.01616893583e-05
1.01664443738e-05
1.01732582955e-05
1.01758374687e-05
1.01726472894e-05
1.01608932133e-05
1.01470786748e-05
1.01463379399e-05
1.01666704278e-05
1.02092054999e-05
1.02794958255e-05
1.03735048035e-05
1.04878546341e-05
1.04862192859e-05
1.03686198096e-05
1.02741170021e-05
1.02063800672e-05
1.0172978468e-05
1.01605074047e-05
1.0156385009e-05
1.01548806401e-05
1.01575687071e-05
1.01629327635e-05
1.01654190563e-05
1.01633868608e-05
1.01545021744e-05
1.01444720372e-05
1.01464136013e-05
1.01667663007e-05
1.02083862185e-05
1.02777597981e-05
1.03711935617e-05
1.04885095779e-05
1.04869975996e-05
1.03675787973e-05
1.02746150383e-05
1.02085712117e-05
1.01747143817e-05
1.01613709943e-05
1.01568904775e-05
1.01551632404e-05
1.01568272866e-05
1.01607864469e-05
1.01628472034e-05
1.01617496133e-05
1.01560864637e-05
1.01505010458e-05
1.01544300125e-05
1.01731258491e-05
1.02116052057e-05
1.02776566467e-05
1.03695994118e-05
1.0489091467e-05
1.04877673468e-05
1.03689911167e-05
1.02806032245e-05
1.02195756376e-05
1.01871031885e-05
1.01736420985e-05
1.01698477472e-05
1.01692704099e-05
1.01707856077e-05
1.01734789576e-05
1.01750009722e-05
1.01745239259e-05
1.01715708247e-05
1.01692932894e-05
1.01736876308e-05
1.01895169584e-05
1.02228958393e-05
1.02828833046e-05
1.03706660256e-05
1.04897761334e-05
1.04896086524e-05
1.03756924568e-05
1.02973644517e-05
1.02459085993e-05
1.02192421759e-05
1.02078584062e-05
1.02049987387e-05
1.02054645972e-05
1.02071093852e-05
1.02089139506e-05
1.02099114169e-05
1.02097408332e-05
1.02084586267e-05
1.02077370486e-05
1.0211059215e-05
1.02227016142e-05
1.02488034241e-05
1.02992106364e-05
1.03772539623e-05
1.04916499997e-05
1.04927592909e-05
1.03922331979e-05
1.03323502584e-05
1.02969358911e-05
1.02799116202e-05
1.02739411085e-05
1.02734945336e-05
1.02746670695e-05
1.0276007633e-05
1.02769980293e-05
1.02775371229e-05
1.02775156255e-05
1.02769488079e-05
1.02762336216e-05
1.02769374456e-05
1.02827839939e-05
1.02993261329e-05
1.03340252008e-05
1.03938622399e-05
1.04946181475e-05
1.049595346e-05
1.04233477867e-05
1.03925632206e-05
1.03757573622e-05
1.03688994288e-05
1.03674989127e-05
1.03686768547e-05
1.0370578131e-05
1.03722807681e-05
1.0373326765e-05
1.03735068769e-05
1.03728038981e-05
1.03714780708e-05
1.03699094755e-05
1.03689100295e-05
1.03703120138e-05
1.03769842398e-05
1.03934970789e-05
1.04246384082e-05
1.04969670096e-05
1.05093968974e-05
1.04966163416e-05
1.04941408183e-05
1.04909684019e-05
1.04888244692e-05
1.0488085043e-05
1.04875775746e-05
1.04870591505e-05
1.04865375388e-05
1.04846211099e-05
1.04835248051e-05
1.04847639537e-05
1.04860514275e-05
1.04871250293e-05
1.04880013431e-05
1.04888165553e-05
1.04904914464e-05
1.04933095713e-05
1.04962879911e-05
1.0509299064e-05
1.04820550159e-05
1.04932972198e-05
1.04895805004e-05
1.04871291523e-05
1.04831227946e-05
1.04787259966e-05
1.04765380544e-05
1.04752884869e-05
1.04726805264e-05
1.04710758622e-05
1.04707140158e-05
1.04718819762e-05
1.04741348638e-05
1.04754004879e-05
1.04775446361e-05
1.04818450043e-05
1.04863400322e-05
1.04898708639e-05
1.04937471227e-05
1.04804427732e-05
1.0493151634e-05
1.04121276282e-05
1.03696425987e-05
1.03481575335e-05
1.0338928929e-05
1.03358885716e-05
1.03354533256e-05
1.03358696681e-05