/*--------------------------------*- C++ -*----------------------------------*\
| =========                 |                                                 |
| \\      /  F ield         | OpenFOAM: The Open Source CFD Toolbox           |
|  \\    /   O peration     | Version:  3.0.1                                 |
|   \\  /    A nd           | Web:      www.OpenFOAM.org                      |
|    \\/     M anipulation  |                                                 |
\*---------------------------------------------------------------------------*/
FoamFile
{
    version     2.0;
    format      ascii;
    class       volScalarField;
    location    "9.1";
    object      ddt0(epsilon);
}
// * * * * * * * * * * * * * * * * * * * * * * * * * * * * * * * * * * * * * //

dimensions      [0 2 -4 0 0 0 0];

internalField   nonuniform List<scalar> 
7968
(
-3.13375555285e-05
-3.79639770202e-05
-4.35077998238e-05
-4.71041687289e-05
-4.93047968476e-05
-5.03589754085e-05
-5.07283855536e-05
-5.08772817744e-05
-5.08886735633e-05
-5.0906990349e-05
-5.1108362104e-05
-5.15929569593e-05
-5.18880723369e-05
-5.20074440162e-05
-5.16407611405e-05
-5.04837789432e-05
-4.81620751767e-05
-4.42508116833e-05
-3.83435751289e-05
-3.1354946545e-05
-3.80214123661e-05
-6.8433166179e-05
-9.27217938532e-05
-0.000109088852082
-0.000119089255073
-0.00012452686387
-0.000126941691678
-0.000127652487233
-0.000127799141266
-0.000128114744207
-0.000128966569248
-0.000130228335857
-0.000131185747247
-0.000130932941911
-0.000128515120004
-0.000122797627007
-0.000112338916081
-9.54848305509e-05
-7.03465440027e-05
-3.82124210487e-05
-4.36200367202e-05
-9.27882162535e-05
-0.000132787337175
-0.000160015627315
-0.000177011827433
-0.000186410950421
-0.000190776539233
-0.000192308814242
-0.00019277203066
-0.000193283568911
-0.000194275577868
-0.00019550030556
-0.00019619340102
-0.000194980918001
-0.000190351483721
-0.000180523699305
-0.000163286860066
-0.000136020571396
-9.55465262918e-05
-4.40796472358e-05
-4.72915073103e-05
-0.000109392575739
-0.000160390232396
-0.000195122706703
-0.000216817840837
-0.000228915262813
-0.000234810249576
-0.000237313751612
-0.000238620281749
-0.000239809628401
-0.000240626899003
-0.000241152544272
-0.000241344666543
-0.000239175692414
-0.000232828231549
-0.000220055131011
-0.000198098978827
-0.000163654233027
-0.000112620782955
-4.79815553243e-05
-4.94492606527e-05
-0.000119804548047
-0.000177957752065
-0.000217469809215
-0.000242078817721
-0.000256145516634
-0.000264891907703
-0.000269883137786
-0.00027241409361
-0.000273898299978
-0.000274820605052
-0.00027492160034
-0.0002734391367
-0.000268690819475
-0.000260930286395
-0.000246163941753
-0.000221028301417
-0.000181719356146
-0.000123640734396
-5.03276183022e-05
-5.05144772445e-05
-0.000125596607782
-0.000187981025459
-0.000230279140991
-0.000256818099131
-0.000274696639686
-0.000285684101576
-0.000291574468641
-0.000294711172794
-0.000296647231136
-0.000297924569758
-0.000298225816607
-0.000296537193994
-0.000290915503836
-0.000279707186566
-0.000262731480926
-0.000235501010144
-0.000192940875215
-0.000130155888573
-5.17421702757e-05
-5.08691191704e-05
-0.000128282451068
-0.000192893979917
-0.000236762777512
-0.000266312708145
-0.000286312208042
-0.00029811737023
-0.000304652912133
-0.000308388377886
-0.00031090186532
-0.000312698895164
-0.000313405534175
-0.000311859990456
-0.000305950621864
-0.000293687089958
-0.000273113747301
-0.00024416487991
-0.00019955788047
-0.000133811801718
-5.22854040841e-05
-5.08302285814e-05
-0.000129152848386
-0.000194821516538
-0.000239542629364
-0.000271812804051
-0.000292587961472
-0.000304924729114
-0.000311997132846
-0.000316309130187
-0.000319419693586
-0.000321784325807
-0.000322966685589
-0.000321684198886
-0.000315718122798
-0.000302988427033
-0.000281206920847
-0.000248207802008
-0.000203237539751
-0.000135653632701
-5.25623061747e-05
-5.08102729741e-05
-0.000129296740491
-0.00019550147128
-0.000240798476131
-0.000274721679334
-0.000295891340868
-0.000308601637361
-0.00031612876971
-0.000320938928418
-0.000324520483382
-0.000327377866105
-0.00032901775573
-0.000327985281816
-0.000322024897881
-0.000309025866283
-0.000286611092176
-0.000252279628807
-0.000205279157178
-0.000136547026428
-5.26454497165e-05
-5.0779837746e-05
-0.000129446693085
-0.00019606758972
-0.000241873955956
-0.000276543058597
-0.000297915156517
-0.000310910837781
-0.000318812828761
-0.000323975876687
-0.000327880970537
-0.000331040845455
-0.00033300177739
-0.000332128754285
-0.000326134813487
-0.000312939748363
-0.000290139248291
-0.000255124154033
-0.000206820092847
-0.000137169068035
-5.26385715251e-05
-5.08248908123e-05
-0.00013003802286
-0.000197052170672
-0.000243044704415
-0.000277957046718
-0.000299475241634
-0.000312681737384
-0.000320850542032
-0.000326268768686
-0.000330344483331
-0.000333589189647
-0.000335600542243
-0.000334714132161
-0.000328609016915
-0.000315249758159
-0.000292221281294
-0.000256881197766
-0.000208104517743
-0.000137822010508
-5.26543550845e-05
-5.09084786907e-05
-0.000130978254516
-0.000198286948814
-0.000244202009165
-0.000278771656845
-0.000300350252793
-0.000313653027657
-0.000321932438195
-0.000327474696761
-0.000331593917808
-0.00033476895937
-0.000336478826627
-0.000335396577024
-0.000329171600825
-0.000315727016071
-0.000292657646055
-0.000257344474544
-0.000208929736719
-0.000138469696737
-5.28170657801e-05
-5.10885929424e-05
-0.000131700027034
-0.000199021861129
-0.000244751352292
-0.000278063226214
-0.000299472287042
-0.000312680268187
-0.000320864378197
-0.000326294739923
-0.00033027714632
-0.000333201819888
-0.000334496132275
-0.000333122780241
-0.000326797286486
-0.000313405859403
-0.000290576344834
-0.000255860316974
-0.000208610523343
-0.00013854753513
-5.28455296476e-05
-5.11912309427e-05
-0.000131331516324
-0.000197955751754
-0.000243147563323
-0.000273235577846
-0.00029500950535
-0.000307893218901
-0.000315747714471
-0.00032084097672
-0.000324471657076
-0.000327032148489
-0.000327936320595
-0.00032629259037
-0.000319953826808
-0.000306843850175
-0.000284775756917
-0.000252358857535
-0.000206248155585
-0.000137269506328
-5.25738720365e-05
-5.08402621454e-05
-0.000128744857555
-0.000193298742296
-0.00023715562268
-0.000265013749714
-0.000284660063888
-0.000296836778821
-0.000304125093721
-0.000308690143217
-0.000311834589312
-0.000313970075829
-0.000314535488012
-0.000312741750926
-0.00030660832485
-0.000294248117265
-0.000273839151886
-0.000245527430733
-0.000200040122944
-0.00013367132457
-5.18715108964e-05
-4.97320961025e-05
-0.000122690697155
-0.000182977859932
-0.000224177981962
-0.000250345242336
-0.000265998496383
-0.000276762291708
-0.000283171195735
-0.000287062610753
-0.000289665425046
-0.000291386686628
-0.00029175653077
-0.000290039996179
-0.000284598634902
-0.000273962562789
-0.000258477517673
-0.000230826793009
-0.000188313945817
-0.000126698896553
-5.05249690657e-05
-4.74981052581e-05
-0.000111735326882
-0.000164658892537
-0.000201086808276
-0.000224424556873
-0.00023822004432
-0.000245840618396
-0.000249955436538
-0.000252900891484
-0.000254951408524
-0.000256361277844
-0.000256804673221
-0.000256429388054
-0.000253638723256
-0.000245884905907
-0.00023097582051
-0.00020637464712
-0.000168955626768
-0.0001148808479
-4.8073749708e-05
-4.37252776381e-05
-9.43896159279e-05
-0.000135920035208
-0.000164654890153
-0.00018316904951
-0.000194101295218
-0.000199991493641
-0.0002029247047
-0.00020458391513
-0.000205953417044
-0.000207395814977
-0.000208599256201
-0.000208673229491
-0.000206461375482
-0.000200342048861
-0.000188557908964
-0.000169077559865
-0.000139468797942
-9.68110831186e-05
-4.40486214757e-05
-3.80280890595e-05
-6.91397195039e-05
-9.430538757e-05
-0.000111652555325
-0.000122801291586
-0.000129223941622
-0.000132619310091
-0.000134191922212
-0.000135038411173
-0.000135820295429
-0.000136806178572
-0.000137872817449
-0.000138377327322
-0.000137425515557
-0.000133955765536
-0.000126918050493
-0.000114956669002
-9.67969996227e-05
-7.06567573583e-05
-3.80916614341e-05
-3.13022152117e-05
-3.79542439505e-05
-4.36165656018e-05
-4.73576970281e-05
-4.96041324839e-05
-5.09021269514e-05
-5.14531633693e-05
-5.18275623603e-05
-5.19549594553e-05
-5.20373393385e-05
-5.2185524829e-05
-5.24603013662e-05
-5.27424913275e-05
-5.26818604142e-05
-5.21176591403e-05
-5.07099356122e-05
-4.82392645259e-05
-4.41499167376e-05
-3.81695252141e-05
-3.1201604218e-05
-3.7557800591e-05
-6.53000369559e-05
-8.81606479603e-05
-0.000104199960023
-0.000114645301358
-0.000120835334185
-0.000124068451548
-0.000125367153932
-0.000125898155642
-0.000126359614098
-0.000127102359947
-0.000128024732387
-0.000128499654247
-0.000127485058816
-0.000124290652871
-0.000117983808987
-0.000107370272952
-9.10010834229e-05
-6.72801974032e-05
-3.79171257374e-05
-6.52726505735e-05
-3.34296791075e-05
-4.20417372647e-05
-4.86354604935e-05
-5.31059356197e-05
-5.58233794899e-05
-5.72695731159e-05
-5.79117614409e-05
-5.81564543569e-05
-5.82728149585e-05
-5.83802583947e-05
-5.84259376158e-05
-5.8261761969e-05
-5.7581922689e-05
-5.60699514112e-05
-5.33629858056e-05
-4.90471795326e-05
-4.27240598244e-05
-3.43236506213e-05
-6.72470184129e-05
-8.81973999599e-05
-4.20597252982e-05
-5.20661446058e-05
-6.00117082431e-05
-6.54972454342e-05
-6.88713446579e-05
-7.0686908786e-05
-7.15029543719e-05
-7.17722538377e-05
-7.18062896841e-05
-7.17457744116e-05
-7.15417364789e-05
-7.10657339541e-05
-6.999162817e-05
-6.79597304909e-05
-6.456879261e-05
-5.93895645811e-05
-5.20661911008e-05
-4.27766659277e-05
-9.10103780404e-05
-0.000104412345731
-4.87308491541e-05
-6.01137039099e-05
-6.9266836674e-05
-7.56441205947e-05
-7.96340450983e-05
-8.18687298857e-05
-8.29606853354e-05
-8.33465143239e-05
-8.33858994836e-05
-8.31826559944e-05
-8.27134486095e-05
-8.19124917764e-05
-8.0426990804e-05
-7.78752233874e-05
-7.3830536771e-05
-6.78333216851e-05
-5.95349018591e-05
-4.92391669738e-05
-0.000107644284024
-0.00011512096047
-5.33386180272e-05
-6.57790687857e-05
-7.58359445446e-05
-8.29158074475e-05
-8.75021134165e-05
-9.02496873606e-05
-9.16941865487e-05
-9.22707814721e-05
-9.23513639166e-05
-9.21053172171e-05
-9.14893122859e-05
-9.03645212188e-05
-8.84021745849e-05
-8.53255933844e-05
-8.07391664226e-05
-7.4067361521e-05
-6.49592520044e-05
-5.37981320849e-05
-0.00011883189813
-0.000121622628369
-5.62305776476e-05
-6.93773215638e-05
-8.00525735042e-05
-8.77108089181e-05
-9.29023665896e-05
-9.6090800751e-05
-9.77813635974e-05
-9.85211390846e-05
-9.87084086586e-05
-9.85225284346e-05
-9.79018734548e-05
-9.66662610175e-05
-9.44343879002e-05
-9.08465197709e-05
-8.56415332292e-05
-7.8444294617e-05
-6.8709138722e-05
-5.68630251965e-05
-0.000126069648954
-0.000125170180511
-5.78649885702e-05
-7.14278372075e-05
-8.25093913124e-05
-9.06917441296e-05
-9.62839100086e-05
-9.97170811991e-05
-0.000101611527499
-0.000102527019235
-0.000102869897651
-0.000102819320877
-0.000102294588463
-0.000101081568804
-9.87382724291e-05
-9.48654687128e-05
-8.91514965418e-05
-8.13892070816e-05
-7.12107969469e-05
-5.88546594807e-05
-0.000130556139461
-0.000126866151268
-5.86944993401e-05
-7.2470067158e-05
-8.37839642875e-05
-9.23299122002e-05
-9.81174875147e-05
-0.00010172091632
-0.000103789249258
-0.000104880128305
-0.000105396429574
-0.000105513697544
-0.000105135090129
-0.000104017174811
-0.000101665490202
-9.7658027352e-05
-9.16528434016e-05
-8.34016071718e-05
-7.28373047187e-05
-6.01068534255e-05
-0.000133000087793
-0.00012746910302
-5.90975299429e-05
-7.29704348939e-05
-8.4419001491e-05
-9.311091269e-05
-9.89854843117e-05
-0.00010270523183
-0.000104923347225
-0.000106177238076
-0.000106856580488
-0.000107131107966
-0.000106898365739
-0.000105887199767
-0.000103574868483
-9.95181549012e-05
-9.33587007044e-05
-8.48306778128e-05
-7.38653314575e-05
-6.08936910127e-05
-0.000134369957035
-0.000127833730073
-5.9348260548e-05
-7.32437267157e-05
-8.4737863236e-05
-9.34406497095e-05
-9.93374650096e-05
-0.000103138134086
-0.000105485153146
-0.000106884832152
-0.000107699492581
-0.000108093000301
-0.000107965489242
-0.000107024502713
-0.000104750484042
-0.000100681902369
-9.44508870145e-05
-8.57796793649e-05
-7.45934392662e-05
-6.140808826e-05
-0.000135234324791
-0.000128450722743
-5.95852334552e-05
-7.34361496468e-05
-8.4857536524e-05
-9.35240910187e-05
-9.94087913869e-05
-0.000103256714505
-0.00010570245738
-0.000107220095469
-0.000108136741764
-0.000108601598995
-0.000108519285659
-0.000107590982488
-0.000105327637464
-0.000101259412349
-9.50126756651e-05
-8.62982223372e-05
-7.50305169883e-05
-6.17324577169e-05
-0.000135783968561
-0.000129424662102
-5.9765583349e-05
-7.35096049226e-05
-8.4760133342e-05
-9.33350366804e-05
-9.91647792649e-05
-0.000103008266056
-0.000105497841222
-0.000107084375889
-0.0001080614163
-0.000108553818794
-0.000108463422546
-0.000107503645188
-0.000105240313103
-0.000101189648748
-9.49853086147e-05
-8.63281089647e-05
-7.51205816511e-05
-6.18448203334e-05
-0.000136366578362
-0.000129720341448
-5.9687139909e-05
-7.32757878569e-05
-8.43157745724e-05
-9.26698630785e-05
-9.83700530844e-05
-0.000102128400117
-0.000104573049244
-0.000106146534408
-0.000107120073025
-0.000107596681954
-0.000107473058476
-0.000106472562302
-0.000104227171539
-0.000100251268734
-9.41813868281e-05
-8.57126296102e-05
-7.47204287226e-05
-6.15832765712e-05
-0.00013611643319
-0.000128617468048
-5.90449426274e-05
-7.2394676616e-05
-8.31720110265e-05
-9.11141310253e-05
-9.66186238237e-05
-0.000100201427994
-0.000102502386358
-0.000103969113155
-0.000104868638524
-0.000105290390874
-0.000105131419877
-0.000104120886598
-0.000101949256423
-9.81396843539e-05
-9.23343094951e-05
-8.42456485654e-05
-7.36232249917e-05
-6.06939937398e-05
-0.000134392052551
-0.000125240659783
-5.74597998728e-05
-7.04121251238e-05
-8.08157118959e-05
-8.82409287862e-05
-9.34261928437e-05
-9.67517043396e-05
-9.88301525594e-05
-0.000100117384551
-0.000100887483472
-0.000101230636546
-0.000101047790891
-0.000100080954507
-9.80575971501e-05
-9.45293839887e-05
-8.91445633899e-05
-8.16130311795e-05
-7.13926213897e-05
-5.88649905491e-05
-0.000130318699059
-0.00011851483745
-5.45071576827e-05
-6.68221885562e-05
-7.67037173493e-05
-8.36660422277e-05
-8.82739376491e-05
-9.12781544727e-05
-9.30858696571e-05
-9.41610446006e-05
-9.47833434242e-05
-9.50487606385e-05
-9.48723639569e-05
-9.40248324525e-05
-9.22271224476e-05
-8.91163762042e-05
-8.4354375598e-05
-7.73405388488e-05
-6.76443902341e-05
-5.57358003197e-05
-0.000122746879816
-0.000107261277716
-4.97645148306e-05
-6.11335695181e-05
-7.02545932777e-05
-7.66621259865e-05
-8.08035600288e-05
-8.33215235222e-05
-8.48211384925e-05
-8.56845144964e-05
-8.61791798494e-05
-8.64013453623e-05
-8.62853529816e-05
-8.56558100957e-05
-8.42158660469e-05
-8.1626967242e-05
-7.73411619912e-05
-7.08946505254e-05
-6.19549160783e-05
-5.09148179789e-05
-0.000110866730903
-9.02443096102e-05
-4.29088441736e-05
-5.30339701829e-05
-6.11053400427e-05
-6.67698078586e-05
-7.04064046484e-05
-7.25678682773e-05
-7.37819853251e-05
-7.44628234322e-05
-7.48717764068e-05
-7.51168569816e-05
-7.51360131295e-05
-7.47236566024e-05
-7.35767820675e-05
-7.13672439801e-05
-6.76294284999e-05
-6.1947055753e-05
-5.39956029951e-05
-4.4032372374e-05
-9.31947966091e-05
-6.63151229475e-05
-3.40490743468e-05
-4.29032027427e-05
-4.97549063551e-05
-5.45170663022e-05
-5.7558599767e-05
-5.93559919839e-05
-6.03489522884e-05
-6.09119160945e-05
-6.12823955422e-05
-6.1555494807e-05
-6.16762013091e-05
-6.14424294621e-05
-6.05916461203e-05
-5.88066872587e-05
-5.57036967418e-05
-5.08948632012e-05
-4.40203636341e-05
-3.5077557394e-05
-6.82257173543e-05
-3.76048523224e-05
-6.6291611883e-05
-9.01928375941e-05
-0.00010725440841
-0.000118702534713
-0.000125864543731
-0.000129996372209
-0.000131962969909
-0.000133128562888
-0.000133993911486
-0.000134838751596
-0.000135580734039
-0.000135652218552
-0.000134222411084
-0.000130166044675
-0.000122757063201
-0.000110875493659
-9.31754551223e-05
-6.81941833738e-05
-3.78875343261e-05
-4.24507119535e-05
-8.77518784668e-05
-0.000127157796224
-0.000155327820293
-0.000173583397751
-0.000184096838537
-0.000189170815685
-0.0001909182788
-0.00019107442748
-0.000190821982785
-0.000190690891587
-0.000190467101804
-0.000189607134498
-0.00018681639611
-0.000180808585641
-0.000170087831558
-0.000152793040417
-0.000126638966842
-8.91617085486e-05
-4.3366285628e-05
-8.77292523276e-05
-4.29464591321e-05
-5.39474776207e-05
-6.25858153775e-05
-6.83928215844e-05
-7.17646589112e-05
-7.3338767727e-05
-7.3758583965e-05
-7.35614123514e-05
-7.31216875672e-05
-7.26161830878e-05
-7.20229402734e-05
-7.11786165654e-05
-6.98245067369e-05
-6.7568315424e-05
-6.40281787548e-05
-5.87600195384e-05
-5.14065665397e-05
-4.21310494963e-05
-8.91630592878e-05
-0.000127359040895
-5.40257404063e-05
-6.44294503506e-05
-7.30557634987e-05
-7.89777592395e-05
-8.2476874693e-05
-8.41487199083e-05
-8.45916574413e-05
-8.42970937887e-05
-8.36335171303e-05
-8.27826638135e-05
-8.17465740919e-05
-8.03857374327e-05
-7.8511510022e-05
-7.57869837062e-05
-7.18884632142e-05
-6.6500469027e-05
-5.94603321711e-05
-5.14677076204e-05
-0.000126751249488
-0.000156041377793
-6.284158852e-05
-7.3214466481e-05
-8.20566044305e-05
-8.82279367058e-05
-9.20106920211e-05
-9.39569080899e-05
-9.45441883184e-05
-9.4375648795e-05
-9.36625244149e-05
-9.26120750605e-05
-9.12346164234e-05
-8.94046710431e-05
-8.70368108074e-05
-8.38091889367e-05
-7.94425012078e-05
-7.37006343365e-05
-6.65243536963e-05
-5.89140568332e-05
-0.000153328155488
-0.000175032995281
-6.88950247539e-05
-7.9300720864e-05
-8.83122715452e-05
-9.47506069711e-05
-9.88190296656e-05
-0.000101103471753
-0.000102067754812
-0.000102109439017
-0.000101510280743
-0.000100458475578
-9.89485395424e-05
-9.68677966379e-05
-9.40425694086e-05
-9.02757405323e-05
-8.54477425339e-05
-7.93238222604e-05
-7.18870593464e-05
-6.43059980341e-05
-0.000171445936928
-0.000186401981274
-7.25383217547e-05
-8.2891938063e-05
-9.19793910329e-05
-9.8655074377e-05
-0.000103011727267
-0.000105656880789
-0.000107089648533
-0.000107516327789
-0.000107171820115
-0.000106279398471
-0.000104809697155
-0.00010267341635
-9.96334668063e-05
-9.53839060791e-05
-8.99918183739e-05
-8.3445168423e-05
-7.57276297253e-05
-6.80353551661e-05
-0.000183453985559
-0.000192346976137
-7.43770987498e-05
-8.45579995743e-05
-9.36028501777e-05
-0.000100368367375
-0.000104861956673
-0.000107832719662
-0.000109734715106
-0.000110611633594
-0.000110622791233
-0.000110014127591
-0.000108735511097
-0.000106725143383
-0.000103713404767
-9.92628765615e-05
-9.33989715026e-05
-8.64105259601e-05
-7.83813447315e-05
-7.05493558503e-05
-0.000191222883975
-0.000194937835424
-7.50609403003e-05
-8.4972307006e-05
-9.38958483456e-05
-0.000100560549733
-0.000105025226572
-0.000108252531042
-0.000110572503882
-0.000111900818181
-0.000112313730205
-0.000112055039153
-0.000111052181319
-0.000109265344838
-0.000106381264151
-0.000101947852486
-9.58646873471e-05
-8.85476949117e-05
-8.01505921162e-05
-7.22258345119e-05
-0.000196167668962
-0.000195883412979
-7.51546031394e-05
-8.47221405422e-05
-9.34514351374e-05
-9.98586596269e-05
-0.00010427199944
-0.000107699808815
-0.000110383917519
-0.000112132192547
-0.000112941675081
-0.000113024576855
-0.000112309558551
-0.000110763266394
-0.000108035958106
-0.00010367209899
-9.75426514635e-05
-9.00716697551e-05
-8.15220956734e-05
-7.33909830564e-05
-0.000199408181646
-0.00019640974503
-7.50682814458e-05
-8.42120750524e-05
-9.26090639521e-05
-9.87504653955e-05
-0.000103105343011
-0.000106689392169
-0.000109689980322
-0.000111829335105
-0.000113014708928
-0.000113404954061
-0.000112929889739
-0.000111564574101
-0.000108963263178
-0.000104676932124
-9.85756516461e-05
-9.10711618215e-05
-8.24432591402e-05
-7.41350176749e-05
-0.000201572440035
-0.000197168949051
-7.50275908213e-05
-8.37405237025e-05
-9.17386003518e-05
-9.75590230627e-05
-0.00010176660204
-0.000105397388385
-0.000108621727991
-0.000111095110737
-0.000112621045968
-0.000113283849785
-0.000112994606278
-0.000111737194838
-0.000109219225402
-0.000105019094589
-9.90121209087e-05
-9.15808998571e-05
-8.2985108109e-05
-7.46316724049e-05
-0.000203196319651
-0.000198028211436
-7.50112156878e-05
-8.33207858002e-05
-9.08087576862e-05
-9.63548347809e-05
-0.000100322070661
-0.000103838460832
-0.000107112558636
-0.000109775581197
-0.00011155400097
-0.000112440246126
-0.000112300570052
-0.000111116381043
-0.000108676538749
-0.000104601112719
-9.87724044365e-05
-9.15306046063e-05
-8.30928346691e-05
-7.48495206453e-05
-0.000203900498895
-0.000198162093086
-7.48035298326e-05
-8.27995572916e-05
-8.98081968793e-05
-9.50782092364e-05
-9.86850593478e-05
-0.000101844714402
-0.000104888426717
-0.000107487923187
-0.000109335945391
-0.000110344755493
-0.000110339643135
-0.000109265442994
-0.000106988920888
-0.000103168114126
-9.76753948175e-05
-9.0774385294e-05
-8.26058650786e-05
-7.46137745461e-05
-0.000203329157717
-0.000196251638478
-7.40197258967e-05
-8.18807243505e-05
-8.86039206169e-05
-9.35643063184e-05
-9.67913769153e-05
-9.93718384925e-05
-0.00010188831907
-0.000104132742437
-0.000105824836215
-0.00010681917003
-0.000106914141157
-0.000106020004252
-0.000103998143275
-0.000100570481674
-9.55785467029e-05
-8.91325549721e-05
-8.12817747702e-05
-7.35416800547e-05
-0.000200215409922
-0.000190617087426
-7.21482583081e-05
-8.00795771654e-05
-8.67187186401e-05
-9.13661004698e-05
-9.44584205897e-05
-9.65219153309e-05
-9.83523608163e-05
-0.000100028330386
-0.000101360790361
-0.000102194886362
-0.000102322987272
-0.000101605524385
-9.98629853995e-05
-9.68612978081e-05
-9.24163503899e-05
-8.6454279186e-05
-7.90288382424e-05
-7.13632285523e-05
-0.000193392264521
-0.000179258559039
-6.85891597916e-05
-7.67961117821e-05
-8.35727406592e-05
-8.81294694975e-05
-9.11283553103e-05
-9.29228327367e-05
-9.42233230246e-05
-9.53120675643e-05
-9.61940993429e-05
-9.67648259106e-05
-9.68448531407e-05
-9.62453473401e-05
-9.47286763012e-05
-9.20628901453e-05
-8.80881764902e-05
-8.25273277564e-05
-7.53644849503e-05
-6.76615904735e-05
-0.000181272925946
-0.000159998563936
-6.27484755985e-05
-7.14287678524e-05
-7.85487188584e-05
-8.3277815003e-05
-8.6138120084e-05
-8.78046924391e-05
-8.88508132447e-05
-8.95187715973e-05
-9.00144700779e-05
-9.03264353133e-05
-9.03236394124e-05
-8.980430446e-05
-8.8485738715e-05
-8.6082986681e-05
-8.2438903319e-05
-7.71009228393e-05
-6.99417093001e-05
-6.20024016266e-05
-0.000161978120495
-0.000130685411317
-5.42343906636e-05
-6.36259134133e-05
-7.12366007791e-05
-7.63423235856e-05
-7.93891505009e-05
-8.1047954771e-05
-8.19064482464e-05
-8.23670185893e-05
-8.26722318026e-05
-8.28041872094e-05
-8.2734266821e-05
-8.22845336411e-05
-8.10961538201e-05
-7.88768011696e-05
-7.52955720437e-05
-6.99138193602e-05
-6.25680949737e-05
-5.40254646869e-05
-0.000133211369013
-8.98561261115e-05
-4.34535658577e-05
-5.41585965456e-05
-6.25221354052e-05
-6.818073072e-05
-7.16083383399e-05
-7.34675748643e-05
-7.43723328998e-05
-7.47893076034e-05
-7.50001981635e-05
-7.51144004607e-05
-7.50664085535e-05
-7.46414544935e-05
-7.34996201748e-05
-7.12912081911e-05
-6.76078696073e-05
-6.19611492475e-05
-5.40018912204e-05
-4.39706759779e-05
-9.25811001066e-05
-4.27781878516e-05
-8.98582277107e-05
-0.00013056320034
-0.000159753167175
-0.000179029238288
-0.000190716420899
-0.000197148321508
-0.000200361935204
-0.000201942543868
-0.00020288851617
-0.000203633116874
-0.000204014638126
-0.000203214973308
-0.000200091714985
-0.000193328982467
-0.000181231091016
-0.000161921859627
-0.000133140317844
-9.251735042e-05
-4.35952545597e-05
-4.61121548072e-05
-0.000111168091613
-0.000167282635559
-0.000206250386827
-0.000230362164748
-0.000243104043842
-0.000247990261837
-0.000248101956958
-0.000245887587491
-0.000242963756243
-0.000240081005544
-0.000237179204172
-0.000233510734175
-0.000228062287332
-0.00021914802567
-0.000204912201592
-0.000182981132133
-0.000150461894483
-0.000103952285589
-4.70796998191e-05
-0.00011127829792
-5.49526020225e-05
-6.89537191142e-05
-7.9533634609e-05
-8.62268096646e-05
-8.969492361e-05
-9.08445963605e-05
-9.0500141677e-05
-8.93381822554e-05
-8.78158055141e-05
-8.61711590748e-05
-8.44476360407e-05
-8.25105952873e-05
-8.00913697915e-05
-7.68400618096e-05
-7.24208830101e-05
-6.62689044446e-05
-5.8005300775e-05
-4.78914866865e-05
-0.000104050979234
-0.000167931101088
-6.9110073768e-05
-8.05142975724e-05
-8.9635177212e-05
-9.54720867975e-05
-9.85105130113e-05
-9.95195269365e-05
-9.90921253117e-05
-9.78095685505e-05
-9.60504631232e-05
-9.40202414062e-05
-9.17801940873e-05
-8.92592065615e-05
-8.62881219836e-05
-8.26693247651e-05
-7.81458272223e-05
-7.24562867276e-05
-6.54159332856e-05
-5.7967567975e-05
-0.000150621715738
-0.000207577793868
-7.98193065157e-05
-8.9622662775e-05
-9.77544457727e-05
-0.000103023432452
-0.000105900785676
-0.000107015234602
-0.000106978676101
-0.000105983330287
-0.000104305653304
-0.000102181629893
-9.9637094839e-05
-9.6652334917e-05
-9.30574633174e-05
-8.8908195257e-05
-8.40632307418e-05
-7.84823677066e-05
-7.20210021205e-05
-6.59711305454e-05
-0.000183291341849
-0.000232198407423
-8.65096941901e-05
-9.50924562021e-05
-0.000102428483292
-0.000107333782773
-0.000110128045476
-0.000111807679531
-0.000112552787931
-0.000112279108679
-0.000111042359299
-0.000109154810656
-0.000106576664087
-0.000103431616673
-9.95381848348e-05
-9.46022016674e-05
-8.89244484029e-05
-8.31443317294e-05
-7.69644731823e-05
-7.16664981077e-05
-0.000205335345618
-0.000245082549281
-8.97307252879e-05
-9.72577710082e-05
-0.000103942677278
-0.000108279103259
-0.000111361544535
-0.000113676157873
-0.00011562543112
-0.000116491663451
-0.00011604397652
-0.000114668943091
-0.000112268862993
-0.000109138920785
-0.000105127839136
-9.97658511658e-05
-9.33614346551e-05
-8.66185363613e-05
-8.04482683917e-05
-7.55390030921e-05
-0.000219829001456
-0.000249690881199
-9.038779774e-05
-9.69201615374e-05
-0.000102901840548
-0.00010684355826
-0.000109916171465
-0.000113086825551
-0.000116422418448
-0.000118631671542
-0.000119175792058
-0.000118483522853
-0.000116435848239
-0.000113441096586
-0.000109452806177
-0.000103873792536
-9.69968635084e-05
-8.95989934426e-05
-8.28093156131e-05
-7.81331065178e-05
-0.000229219732441
-0.000249385805765
-8.94526792917e-05
-9.50063184186e-05
-0.000100234235896
-0.000103595268312
-0.000106710146925
-0.000110726765373
-0.000115331318922
-0.000118788211878
-0.000120333351987
-0.000120392821887
-0.000118859388021
-0.000116148920423
-0.000112258579574
-0.000106676750372
-9.95763272552e-05
-9.18361673444e-05
-8.46789062876e-05
-7.99476177765e-05
-0.000235381365761
-0.00024697864607
-8.77800847929e-05
-9.22579772968e-05
-9.66379105904e-05
-9.95981805156e-05
-0.000102813089185
-0.000107510408571
-0.000113084446526
-0.000117522515699
-0.0001199542973
-0.000120753447155
-0.000119816138127
-0.000117539182505
-0.000113863434178
-0.000108355427986
-0.000101217412771
-9.33557088257e-05
-8.60332690906e-05
-8.11943747345e-05
-0.000239582185559
-0.000244551053009
-8.60631165687e-05
-8.93832522345e-05
-9.29652625047e-05
-9.54380764293e-05
-9.86632400007e-05
-0.000103784467201
-0.000110038261834
-0.000115313868907
-0.000118611296761
-0.000120140491963
-0.000119755544602
-0.000117867402897
-0.000114412244261
-0.000109032690268
-0.000101990375065
-9.42045156893e-05
-8.69292371376e-05
-8.20499742402e-05
-0.000242555055706
-0.000243260291881
-8.47349778733e-05
-8.68974571652e-05
-8.95524636485e-05
-9.13661877378e-05
-9.4276490025e-05
-9.94425969402e-05
-0.00010609115357
-0.000112089430656
-0.000116243938005
-0.000118516636249
-0.000118637389187
-0.000117030008957
-0.000113744851662
-0.000108563249119
-0.000101804314247
-9.43510100334e-05
-8.7388163557e-05
-8.27439187653e-05
-0.000244919311997
-0.000243178547481
-8.39331062117e-05
-8.5043314501e-05
-8.66921062687e-05
-8.76872600641e-05
-8.99566279848e-05
-9.4691396631e-05
-0.000101272191619
-0.000107615494445
-0.000112388947489
-0.000115309803166
-0.000115917044054
-0.000114585451336
-0.000111539106472
-0.000106725976535
-0.000100507038139
-9.36796375487e-05
-8.72977891124e-05
-8.30702141299e-05
-0.000246354292137
-0.00024351296647
-8.35231224161e-05
-8.37890760671e-05
-8.42701833515e-05
-8.44980464956e-05
-8.57005976727e-05
-8.93569913789e-05
-9.51551029856e-05
-0.000101182382629
-0.000106078768713
-0.00010935430528
-0.0001104432955
-0.000109577989455
-0.000107115319449
-0.000103100943752
-9.78687943383e-05
-9.20486234118e-05
-8.65228998872e-05
-8.2839538591e-05
-0.000246096893308
-0.000242563621495
-8.31093181517e-05
-8.30367972122e-05
-8.29001380045e-05
-8.23346823381e-05
-8.22175286578e-05
-8.41828597116e-05
-8.84121374158e-05
-9.33593445043e-05
-9.77615695253e-05
-0.000101020242784
-0.000102483315098
-0.000102315980295
-0.000100810420647
-9.79922685329e-05
-9.41057425555e-05
-8.9526966104e-05
-8.49849984396e-05
-8.19364312882e-05
-0.000242963339009
-0.000237922452485
-8.20576423673e-05
-8.23797445817e-05
-8.23462008337e-05
-8.14796730822e-05
-8.04428536518e-05
-8.07505471211e-05
-8.30253377711e-05
-8.63573711057e-05
-8.97238421265e-05
-9.25446249272e-05
-9.4188154061e-05
-9.46774942023e-05
-9.41597593206e-05
-9.25299368279e-05
-8.98877668901e-05
-8.64456658484e-05
-8.26021404031e-05
-7.97857937856e-05
-0.000235245529777
-0.000226423635139
-7.94780099955e-05
-8.10828934946e-05
-8.17799083412e-05
-8.11964559996e-05
-8.02570075861e-05
-7.96093295118e-05
-8.02806410706e-05
-8.19914007246e-05
-8.41201226185e-05
-8.62004410877e-05
-8.77134194986e-05
-8.85417954681e-05
-8.86236405309e-05
-8.77417616266e-05
-8.58414104931e-05
-8.30703419805e-05
-7.94962596589e-05
-7.61167001535e-05
-0.000221183152413
-0.000204242715275
-7.43220203551e-05
-7.82300599292e-05
-8.05535889387e-05
-8.097958457e-05
-8.04521338668e-05
-8.00361003543e-05
-7.97899985474e-05
-8.03403159818e-05
-8.1417796781e-05
-8.27158036894e-05
-8.38526412237e-05
-8.45964838159e-05
-8.4767620813e-05
-8.40492986372e-05
-8.22590726875e-05
-7.9405998077e-05
-7.51414199158e-05
-7.03887037883e-05
-0.000198153509053
-0.000167194462996
-6.56601651764e-05