/*--------------------------------*- C++ -*----------------------------------*\
| =========                 |                                                 |
| \\      /  F ield         | OpenFOAM: The Open Source CFD Toolbox           |
|  \\    /   O peration     | Version:  3.0.1                                 |
|   \\  /    A nd           | Web:      www.OpenFOAM.org                      |
|    \\/     M anipulation  |                                                 |
\*---------------------------------------------------------------------------*/
FoamFile
{
    version     2.0;
    format      ascii;
    class       volScalarField;
    location    "9.1";
    object      epsilon_0;
}
// * * * * * * * * * * * * * * * * * * * * * * * * * * * * * * * * * * * * * //

dimensions      [0 2 -3 0 0 0 0];

internalField   nonuniform List<scalar> 
7968
(
4.18355808736e-05
5.42628775285e-05
6.54997111788e-05
7.31156243966e-05
7.75835237446e-05
7.99602620777e-05
8.08102243544e-05
8.07984936016e-05
8.0510935402e-05
8.00266692598e-05
7.962543509e-05
7.94980548443e-05
7.93791618103e-05
7.89931965916e-05
7.78564387487e-05
7.53836809499e-05
7.09539964495e-05
6.3886931012e-05
5.35064035073e-05
4.16877812314e-05
5.41886875687e-05
0.000113209488883
0.000163311610888
0.000199233982673
0.000223020041769
0.000236569824653
0.000242672530267
0.000243703289712
0.000241971999602
0.000239283938291
0.000236731308464
0.000234545678964
0.000231991563122
0.000227650849642
0.000219691642009
0.00020616952548
0.000184777302841
0.000153081591819
0.000108106160857
5.37070709743e-05
6.52577552178e-05
0.000163455475038
0.000247517848838
0.000308725939304
0.000350086519888
0.000374819308338
0.000386735899893
0.000389650180729
0.00038726748939
0.000382531810485
0.000377234339939
0.000371784421141
0.000365298301571
0.000355774002434
0.000340394029095
0.000316052301565
0.000279295703593
0.000226451771641
0.000152754515842
6.43464944638e-05
7.29212984228e-05
0.00019974937301
0.00030931150701
0.00038974619397
0.000444514311826
0.000477459724567
0.000493339904081
0.000497124827028
0.000493686479207
0.000487220856721
0.000478876983122
0.000469766227321
0.000459813831642
0.000446256810202
0.000425456546499
0.000393383127968
0.000345624314175
0.00027761009402
0.000183546714968
7.14468904137e-05
7.7733176698e-05
0.000224183174214
0.000352022543919
0.000446160795236
0.000509990075149
0.000548008006183
0.000567497582304
0.000573963517547
0.000570232747825
0.000561125859206
0.000549891578654
0.000537644907853
0.00052356234877
0.000504810423755
0.000479209281956
0.000442550726245
0.000388066416827
0.000310274853429
0.000203039909434
7.54913562333e-05
8.03410566169e-05
0.000238947959393
0.00037884572806
0.000481812941978
0.000551014058764
0.000594239010232
0.000616864576622
0.000621460858473
0.000614518212889
0.000602133461359
0.000588362734173
0.000574520874385
0.000559540041066
0.000539896257568
0.000511007569893
0.00046902711928
0.000411142733017
0.000328120984012
0.000213560782659
7.73685168253e-05
8.14212122626e-05
0.000246541937934
0.000393424250424
0.000501257572948
0.000573614761941
0.000620938933193
0.000641916844847
0.000642969224032
0.000632160621859
0.000616581995561
0.00060083729814
0.000586356561743
0.000571859497119
0.000553259953939
0.000525064955579
0.000481771365697
0.000420217782799
0.0003352378178
0.000217523584281
7.8142547874e-05
8.15039574394e-05
0.000249213207218
0.0003993945866
0.00050922657874
0.000584993823672
0.000631334165656
0.000649236805422
0.000646415896421
0.00063198068186
0.000613766194402
0.000596727125656
0.00058230145965
0.000568978145665
0.000552239559922
0.000526059191464
0.00048417297548
0.000421258470399
0.000335629614094
0.000217532379792
7.83947771465e-05
8.12051613295e-05
0.00024918012773
0.000400285059113
0.000510307365251
0.000587148449308
0.000631538569232
0.00064644011974
0.000640409397382
0.000623267332749
0.000603281811063
0.000585593827412
0.000571594597797
0.00055953191287
0.000544620747739
0.000520535624726
0.000480671353464
0.000419117975102
0.000332880294833
0.000215723037542
7.81912519846e-05
8.08568653516e-05
0.000248181426399
0.000398866768927
0.000508088825767
0.000584409498636
0.000626991020261
0.000639812311289
0.000631869439241
0.000613301068822
0.000592510365981
0.000574663311802
0.000561131450019
0.000550014258484
0.000536353222339
0.000513747137863
0.00047549668155
0.000415467354407
0.000329604460649
0.000213724843983
7.7807548221e-05
8.07050752555e-05
0.000247237007853
0.000396683430557
0.000504544121449
0.00057941216741
0.00062087973517
0.000632945154777
0.000624638226351
0.000606046331849
0.000585439396663
0.00056783912469
0.000554582952692
0.000543802889807
0.000530558492227
0.00050852859651
0.000471093555004
0.000412109250272
0.000327163306234
0.000212404485245
7.74826405814e-05
8.09092425153e-05
0.00024644382379
0.000393935875976
0.000500039265651
0.000572691031854
0.000613814149125
0.00062645365791
0.000619267506117
0.000601949899457
0.000582429006696
0.000565482283518
0.000552321222077
0.000541191303432
0.000527491480907
0.000505131336877
0.000467704648812
0.000409245396798
0.000325680188626
0.000211937753573
7.7421830936e-05
8.11301720844e-05
0.000244889096454
0.000389423284732
0.000493175899035
0.000562527926432
0.000603668844872
0.000617829980147
0.00061290834775
0.000597873584485
0.000580138732474
0.000564175253652
0.000551108430103
0.000539328685929
0.000524658805642
0.000501416276962
0.000463558279353
0.000405489509589
0.000323966715106
0.000211546682017
7.74128958449e-05
8.09392743439e-05
0.00024099342271
0.000380784879142
0.000481019444416
0.000545678568779
0.000586242623804
0.000602209644786
0.000600179762059
0.000588125756852
0.000572737607857
0.000558122494808
0.000545368138737
0.000533006127657
0.000517346122184
0.000493233599642
0.000455185503675
0.000398383957682
0.000319858272982
0.000209697627301
7.69612405548e-05
7.97711236241e-05
0.000232754761786
0.000364927380129
0.000459650885985
0.000520831062667
0.000556632340576
0.000573504773194
0.000574292562354
0.000565477608664
0.000552846657417
0.000540035496672
0.000528066064366
0.000515621075241
0.000499534574314
0.000475310465371
0.00043830478254
0.000385590367263
0.000310432089984
0.000204491508979
7.57194240857e-05
7.71348910645e-05
0.000218094826784
0.000338526604215
0.00042476563997
0.000480886365492
0.000511991925744
0.000526055955793
0.000528582054093
0.0005227078674
0.000513006381905
0.000502457190942
0.000491944362251
0.000480348644323
0.000465063560132
0.000442431871765
0.000410007953652
0.000362112522047
0.000292284074649
0.000193666454024
7.36244373708e-05
7.23944876625e-05
0.000194613749075
0.000298007500163
0.000371859966765
0.000420171316188
0.000447288214784
0.000458412864338
0.000458880129453
0.000454139264919
0.000447144443478
0.000439202834086
0.000430937836414
0.000421653312994
0.000410048405053
0.000392408844573
0.00036478842553
0.000322833657789
0.000261705563433
0.000175094957304
6.97060187668e-05
6.48900966556e-05
0.000159966543843
0.000239810402224
0.000296506092229
0.000333439144278
0.000354173451653
0.000362798868694
0.000363352940905
0.000359529692997
0.000354160809074
0.000348843359
0.000343843114845
0.000338198020516
0.000330019417468
0.000316779358783
0.000295476480407
0.00026273463656
0.000214733907514
0.00014634176666
6.29770993583e-05
5.40175123413e-05
0.000111613786922
0.000159730377833
0.000193538712115
0.000215311281521
0.000227140661212
0.000231789556344
0.000231833876118
0.000229530119782
0.000226606974076
0.000223995576692
0.000221809588144
0.000219378582126
0.000215393875599
0.000208187037011
0.000195853863059
0.000176112075134
0.000146687874403
0.000104435429861
5.28912935147e-05
4.1795868036e-05
5.41411983343e-05
6.52262488972e-05
7.26966773704e-05
7.69864530575e-05
7.91668236548e-05
7.99389973031e-05
7.9991767513e-05
7.97357132936e-05
7.92862008264e-05
7.88567560966e-05
7.85442307424e-05
7.82300816599e-05
7.75857767279e-05
7.62574056172e-05
7.37195462093e-05
6.94831253783e-05
6.26853514898e-05
5.26729309618e-05
4.14217581258e-05
5.33723695508e-05
0.000105885337928
0.000153232460911
0.000188971098822
0.000213828197548
0.000229401131741
0.000237621107542
0.000240427422339
0.000239743963302
0.000237530118499
0.0002348576935
0.000232005248421
0.000228363734361
0.000222494632552
0.000212827824363
0.000197794657996
0.000175566104823
0.00014418822371
0.000101848550785
5.27466970156e-05
0.000105953623732
0.000141022598224
0.000184940483533
0.000220725347847
0.000246712619422
0.000263557369691
0.000272837081416
0.000276451366384
0.000276335844424
0.000274133925229
0.000270886768868
0.000266870945517
0.00026160128963
0.00025401524575
0.000242668673315
0.00022601858038
0.000202574068824
0.00017127393392
0.000132752355734
0.000101680894536
0.000153371538727
0.000185240698179
0.0002372471443
0.000281318736085
0.000314069460841
0.000335647803243
0.000347638824566
0.000352260139016
0.000351879034718
0.000348513412846
0.000343513312449
0.000337328962569
0.00032949269679
0.000318845966685
0.000303684214676
0.000282213903007
0.000252887729438
0.000215001614459
0.00017054386049
0.00014383276538
0.000189420829476
0.000221577544184
0.000281964992653
0.000333929529799
0.000372830380467
0.000398491603412
0.000412621609605
0.000417754442538
0.000416770342773
0.000411984194835
0.000404993707719
0.00039651356755
0.000386204266324
0.000372876248917
0.000354484298446
0.000328958156362
0.000294563246021
0.00025071001225
0.000200216548323
0.000174360975148
0.000214930395893
0.000248414112405
0.000315774202371
0.000374012274443
0.000417553437659
0.000446122074264
0.000461832858997
0.000467129358469
0.000464876583538
0.000458149067758
0.000449169332674
0.000438846272555
0.00042669597476
0.000411180326986
0.00039027411769
0.00036196287651
0.000324093012142
0.000275948532832
0.000220826944753
0.000194671692085
0.000231485006487
0.000266428996961
0.000338849270007
0.000401438823628
0.000448022330847
0.00047868458013
0.000494704866623
0.000498509633778
0.000493972458452
0.000484938926655
0.000474142695066
0.000462663788538
0.000449877670867
0.000433860083344
0.000411983956393
0.000381869516127
0.000342012921251
0.000291399964317
0.000233414419599
0.000206692830673
0.000240975832357
0.000277164502099
0.000352759233721
0.000417906196775
0.000466229537413
0.000497556176141
0.000512198702772
0.000513493644913
0.000506192722944
0.000494831546256
0.000482554877452
0.000470549100009
0.000458037903743
0.000442729310937
0.000421476355749
0.000391366451638
0.000350633621758
0.000299029342433
0.000239745290797
0.000212451804771
0.000245371981784
0.000282483390252
0.000359678833969
0.000425916504946
0.000475008998489
0.000505423106745
0.00051787271278
0.00051638627328
0.000506430207286
0.000493088727903
0.000479788747963
0.000467740356456
0.000456012652175
0.000442015413172
0.000422207559683
0.000393254315398
0.000352959403717
0.000301308172611
0.000241819690197
0.000213819983791
0.000246542573165
0.000284259354152
0.000361907597734
0.000428187722506
0.000477033681881
0.00050600812129
0.000516293614739
0.000512448744386
0.000500457032333
0.000485758618661
0.000471919865737
0.000460109037787
0.000449258023266
0.000436584122061
0.000418314636565
0.00039085113627
0.000351712067698
0.000300650448929
0.000241553651356
0.000213068408707
0.000246100643082
0.000284033393888
0.000361359931573
0.000427052043973
0.000475097422497
0.000502759694558
0.000511506491546
0.000506200688323
0.000493093382062
0.000477769447384
0.000463808854853
0.000452315915623
0.000442131898925
0.000430391898691
0.00041325147638
0.000387007220011
0.000349025016345
0.000298858887468
0.000240404755121
0.000211700205125
0.000245152479179
0.000282719762414
0.000359167329204
0.000423888853222
0.000470970457516
0.00049781882901
0.000505956185962
0.000500289648958
0.000487070522629
0.00047182987036
0.00045806942093
0.00044683589134
0.000436955181646
0.000425588344628
0.000408953345386
0.000383379786654
0.000346209034796
0.000296885349199
0.000239160888797
0.000210555751947
0.00024378917536
0.000280432723617
0.000355526977804
0.000418997313948
0.000465032152812
0.000491613523339
0.000500081415565
0.000495121083095
0.000482723928604
0.000468194210996
0.000454892334182
0.000443822867645
0.000433872072716
0.000422334826887
0.000405604773341
0.000380157582275
0.000343423476495
0.00029482995483
0.000237887862924
0.000209717175952
0.000241033187486
0.000276465981398
0.000349676564061
0.000411537668775
0.0004562389664
0.000482844772108
0.000492327939336
0.000488914743177
0.00047810493641
0.000464822968796
0.00045223311196
0.000441322366466
0.000431089027718
0.000419032862727
0.000401825721281
0.000376188520829
0.000339733349372
0.000291924722728
0.000235938704483
0.000208593165997
0.000235504563459
0.000269521698091
0.000340079554992
0.000399706507737
0.000442529580589
0.000468948519248
0.000479662578983
0.000478256806436
0.000469556578103
0.000457968630226
0.000446392262782
0.000435791623849
0.000425309663164
0.000412707060395
0.000395021235103
0.000369299075154
0.000333403889244
0.00028676264374
0.000232101571532
0.000205768091587
0.000225518473559
0.000257971014426
0.000324799601265
0.000381283256173
0.00042186500686
0.000447030086215
0.000458542941462
0.00045910378085
0.000452703888834
0.000443117582789
0.00043289580671
0.000422938413742
0.000412539965495
0.000399757816138
0.000382048793524
0.00035685159196
0.000322314001936
0.000277478958879
0.000224791159417
0.000199506309558
0.000209260255731
0.00024012765607
0.000301905843809
0.000354067432665
0.000391658142644
0.00041481881447
0.000426027836081
0.000427968910647
0.000423670416418
0.000416185543374
0.000407629089296
0.000398777524804
0.000389060600767
0.00037685126283
0.00036001613561
0.000336452272379
0.000304176509911
0.000262005282196
0.000212260782281
0.000187810020792
0.000184855289399
0.000214473624507
0.000269846388482
0.000316372368241
0.000349961577516
0.00037080414568
0.000380916793126
0.000383122077609
0.000380322707562
0.000374793274768
0.000368101511587
0.000360839844015
0.000352547292581
0.000341932084946
0.000327130710786
0.000306096910731
0.000276901891943
0.000238491300661
0.000192839241859
0.000168717266672
0.000150494906338
0.000180113220831
0.000228132993694
0.000267898369827
0.000296459905914
0.000314255358055
0.000323098552619
0.000325382611669
0.00032353361442
0.000319562703922
0.00031473976491
0.000309439238945
0.000303163691079
0.000294709311999
0.000282457133943
0.00026460142416
0.000239429725739
0.000205861874104
0.000165230996927
0.000140173725427
0.000104835317879
0.000138168300199
0.000179371286681
0.000212218041767
0.000235358635989
0.000249656287818
0.000256841601034
0.000258925057776
0.000257882151342
0.000255320493533
0.000252202240469
0.000248750730709
0.000244475769511
0.000238318302357
0.000228892962754
0.000214646811695
0.000193988977963
0.000165622966131
0.000129745754366
0.000100089621966
5.32129793239e-05
0.000104623476488
0.000150071231711
0.000183631530484
0.000206314241647
0.000219924035209
0.000226550809359
0.000228164604799
0.000226849533872
0.000224429552865
0.000221832927297
0.00021923347123
0.000216075100095
0.000211167771876
0.000202889730683
0.00018959591852
0.000169490400103
0.000140438958742
0.000100206146864
5.20718539111e-05
6.53564118134e-05
0.000158568606841
0.000245257776369
0.000312623977314
0.000360863342938
0.000391969113228
0.000408890996753
0.000415149659824
0.00041433259164
0.000409501074026
0.00040265220667
0.000394412615547
0.000384031747276
0.00036967142905
0.000348780068073
0.000318567482057
0.000276259075038
0.000219229344127
0.000145468432974
6.32767493535e-05
0.000158813736669
0.000196375314615
0.000254984489474
0.000305193359373
0.000342999811644
0.000368295247199
0.00038262231982
0.000388338756231
0.0003880239585
0.000383956458998
0.000377667510289
0.000369696123409
0.000359567033693
0.000345997395161
0.000327269080683
0.00030156012058
0.000267445261013
0.000224530776459
0.000175395110919
0.000145095705416
0.000245765478369
0.00025562106762
0.000313655046413
0.000367148618504
0.000408846492861
0.000437321087725
0.000453568743903
0.000459866709626
0.000458938329201
0.00045336766201
0.000444989033782
0.000434551075422
0.000421654484348
0.000404969470862
0.000382779544964
0.000353315506348
0.000315551231504
0.000270198053916
0.00022267039848
0.000217975801572
0.000313828604093
0.000306794239306
0.000368179666154
0.000426909785832
0.000473240709912
0.000504814335571
0.000522358634197
0.000528406750129
0.000525914272073
0.000518001154069
0.000506996616869
0.000493946742863
0.000478480331736
0.000459058699593
0.000433976425964
0.000401155140319
0.000359640188202
0.000310701626108
0.00026162232497
0.000272098022427
0.000363376510349
0.000345944459623
0.000411357153728
0.000474834320323
0.000524749360963
0.000558118787232
0.000575701527061
0.000579670432749
0.000573984575655
0.000562720797
0.000548836438072
0.000533680886883
0.000516803861312
0.000496371283069
0.00046996175725
0.00043522945878
0.000391439962534
0.000339942938648
0.000289126822091
0.000308558129933
0.000396428728888
0.000372997852248
0.000441832753498
0.000508699761447
0.000560607541494
0.000594353940519
0.000609663736246
0.000609477644201
0.000599095170879
0.000583720232691
0.000566947138516
0.000550378414993
0.000533385867732
0.000513680927743
0.000488230532658
0.000454021377119
0.000409697045186
0.000357261503144
0.000305602147177
0.000329939329972
0.000415905157055
0.000389515106985
0.000460666701982
0.000529353802955
0.000581830651189
0.000613910140016
0.000625057326607
0.000619260806562
0.000603404849737
0.000583773083333
0.000564488915244
0.000547277033484
0.000531267248546
0.000513686143718
0.00049087511784
0.000459139641154
0.00041643455525
0.000364507116115
0.000313102586617
0.000339711889816
0.000425272239391
0.000397852874711
0.00047015327041
0.000539246108944
0.000590910240328
0.000620025610235
0.000626189263643
0.000614648242875
0.000593663901771
0.000570391430521
0.000549299884824
0.000532073879951
0.000517598668888
0.000502700332242
0.000483158018576
0.000454771701322
0.000414830129607
0.000364803303582
0.000314444843977
0.000341747795277
0.000428018401335
0.000400553914684
0.000473021683709
0.000541564745124
0.000591585430409
0.000617485427273
0.000619231692351
0.000603047084896
0.000578210506676
0.000552440433626
0.000530340291396
0.000513432206385
0.000500396734748
0.000487836154674
0.000471198967747
0.000445933414271
0.000408923417341
0.000361309121781
0.000312447101153
0.000339707144257
0.000427030672013
0.000399777967866
0.000471672721542
0.000539193629545
0.000587456187944
0.000610880154404
0.000609678437596
0.000590660286173
0.000563672593094
0.000536683362304
0.000514263506473
0.000497748296655
0.000485676928354
0.000474586830846
0.000459843499279
0.000436767881157
0.000402051439239
0.0003565648033
0.000309323369161
0.000336324974256
0.000424026142081
0.000396839918806
0.000467606508798
0.000533835235349
0.000580830862254
0.000603042737183
0.000600775495422
0.000580977522753
0.000553583439251
0.000526532637865
0.000504287537536
0.000488063001246
0.000476349447698
0.000465731281838
0.00045167611157
0.000429587664714
0.000396170960532
0.000352169088153
0.000306312738859
0.000333146305256
0.000419282740969
0.000391980028775
0.000461147592841
0.000525953044812
0.000572211686782
0.000594531038142
0.000593099291071
0.000574528720947
0.000548352843018
0.000522239125381
0.000500524921433
0.000484419511125
0.000472476967403
0.000461415099637
0.000446938712809
0.000424697876558
0.000391589709992
0.000348375000452
0.000303527514192
0.000330511549701
0.000411590051512
0.000384353207177
0.000451437231485
0.000514641545735
0.000560293047449
0.000583656011255
0.000584646425215
0.000569080405642
0.000545605108324
0.000521368038401
0.000500553200642
0.000484468411559
0.000471846724211
0.000459631375939
0.000443890147521
0.000420638654457
0.000387116504062
0.000344205113556
0.000300125849212
0.000327266561005
0.000398643480297
0.000372295111835
0.000436711173464
0.000497811490713
0.000542512261479
0.00056709612993
0.000571408244272
0.000560100639184
0.00054053586062
0.000519086328102
0.000499692665571
0.000483769574265
0.000470316820196
0.000456637725003
0.000439248803201
0.000414613286217
0.000380467238185
0.000337768445315
0.000294520755577
0.000321182083509
0.000377528544334
0.00035374398155
0.000414841864605
0.000473041564238
0.000516126055131
0.000541306862938
0.000548769593948
0.000542059024862
0.000527016416077
0.000509046020355
0.000491703322462
0.00047641846847
0.000462474785624
0.000447620905734
0.000428832397643
0.00040314513027
0.000368826988319
0.000326737459182
0.000284577504865
0.000309351965258
0.000345176984699
0.000326690225379
0.000383964334299
0.000438413293381
0.000479198688123
0.000503776966564
0.000513320238077
0.000510518524726
0.000499814125704
0.000485574234261
0.000470832410258
0.000456888351876
0.000443251218248
0.000428087130296
0.000408854149031
0.000383157777975
0.000349553983958
0.000308979671866
0.00026809706066
0.000288570708907
0.000298685238176
0.000289640741785
0.000343118183948
0.000393198056383
0.000430864663377
0.00045415529754
0.000464216671856
0.000464032904139
0.000456866383165
0.000446149959164
0.000434311021409
0.000422400835497
0.000410053070443
0.000395765837378
0.000377407487928
0.000352980571659
0.000321321301153
0.000282845298378
0.000243198598072
0.00025557696237
0.000235504114579
0.000242327105805
0.000293278344464
0.000339155303467
0.00037331475718
0.000394678740639
0.000404583336001
0.000405653731242
0.000400923030132
0.000393188156701
0.000384246896608
0.00037481087705
0.000364529749056
0.00035217983233
0.000335902763603
0.000313844200613
0.00028466257275
0.000248327280424
0.000208934397325
0.000207133684714
0.000154095832855
0.000187852360624
0.00024057720791
0.000284553632218
0.000316267778467
0.00033592627413
0.000345353962743
0.000347162110442
0.000344116622714
0.000338570000526
0.000332029589227
0.000325009400052
0.000317053108898
0.000306908751218
0.000292830228359
0.000272953952138
0.000245592751256
0.000209780344419
0.000167120176265
0.000140373631595
6.46918611023e-05
0.000153591109286
0.000234183912849
0.000294952754837
0.000336693973179
0.000361865545961
0.000373806751141
0.000376311819411
0.000373087404201
0.000367134011637
0.000360296253553
0.000353122088283
0.00034489386326
0.000333829034445
0.000317490537217
0.000293089523653
0.000257624435847
0.000207888606668
0.0001406925365
6.1945298248e-05
7.92800074434e-05
0.000223143282715
0.000357646133906
0.000463709765582
0.000541105872881
0.000591880584069
0.000619847160562
0.000630164775811
0.000628385114051
0.000619304208842
0.000606114753956
0.000589993585048
0.000570072033212
0.000543719837932
0.000507325986297
0.000456984244284
0.000389233964511
0.000301339593594
0.000191669832826
7.33600868082e-05
0.000223763129239
0.000271664850343
0.000354380524039
0.000427296730479
0.000483699501103
0.000522442349313
0.000544991098276
0.000554315171359
0.000553983207218
0.000547262057452
0.000536422057444
0.00052238216605
0.000504641062373
0.000481529471865
0.000450765321445
0.000410125609983
0.000358336690219
0.000295901088546
0.000227740866336
0.0001909153369
0.000358824241528
0.000355425970831
0.000432642720159
0.000507278323524
0.000567433596317
0.000609719340152
0.00063449730289
0.000644384659699
0.000643075224377
0.000634272163931
0.000620676265215
0.000603499447251
0.000582312489823
0.000555367777243
0.00052036801211
0.000475288080141
0.000419483183973
0.000355239498783
0.000291823757421
0.000298079536292
0.000466100678627
0.000429750741301
0.000508750415389
0.000589065394424
0.00065462275244
0.000700438119757
0.00072613233191
0.000734364890245
0.000729452061572
0.000716361369505
0.000698601415245
0.000677868741224
0.000653634106694
0.000623796142498
0.000585784616496
0.000537203497041
0.000477299968466
0.000409345031327
0.000345599833469
0.000378531253682
0.000545639597542
0.000488022987704
0.000570943400083
0.000656876882546
0.000726731914174
0.000774220244487
0.000797411606377
0.00079935749173
0.000786995471129
0.000767055963907
0.000744084617291
0.000720307957617
0.000694966077054
0.000665269725713
0.000627769149531
0.000578948514756
0.000517704377218
0.000447685032944
0.000383120630401
0.000432141239838
0.000599523176763
0.000529183427052
0.000616051397663
0.000706144623738
0.000778347463952
0.000823664514069
0.00083911096287
0.000830224574963
0.000807013147799
0.000778311115905
0.000749816481482
0.000724129218042
0.000700142188628
0.000673963334574
0.000640751867275
0.000596108005899
0.000537532101357
0.000468122998413
0.000403965261962
0.00046169055033
0.0006315686723
0.000554810851516
0.000644648004394
0.0007370532237
0.000808910835818
0.000847629942239
0.000851408595892
0.000828657113093
0.000792896645154
0.000755085461643
0.000721813910242
0.000695701967999
0.000675156778028
0.000655049217143
0.000628979585309
0.000591264852882
0.00053878328813
0.000472993367458
0.000410832769972
0.000472303472577
0.00064690544889
0.000567938835432
0.000659441455483
0.000752190513124
0.000820991693389
0.000851190247954
0.00084219904173
0.000805510324083
0.000758131526023
0.000712663257995
0.000676060710108
0.000650571825108
0.000634054780215
0.000620477508978
0.00060222086151
0.000572457192461
0.000527263023931
0.00046720835857
0.000408174876632
0.000470505774731
0.000650961517242
0.000572107496652
0.000664085981591
0.000755808554315
0.000820536362404
0.000842889873587
0.000823145743747
0.000775452539907
0.000719520809034
0.000668918185892
0.000630478949751
0.000605801771977
0.000592297651474
0.000583669170036
0.000571685854471
0.000548794526108
0.000510252508147
0.000455907191245
0.000400694709584
0.000462639283682
0.000648302300269
0.000570444924732
0.000661970354817
0.000752102233424
0.000813504706116
0.000830460587292
0.000803855407774
0.000749527545381
0.000688771858263
0.000635575228949
0.000596448542671
0.000572392063816
0.000560482776296
0.000554484913045
0.000546119204772
0.000527604083222
0.000493745268968
0.000443906436426
0.0003923287283
0.000453591970789
0.000641674771827
0.000564900379162
0.00065526155436
0.000743857305846
0.000803496281036
0.000818356359555
0.000789504283132
0.000733230041513
0.000671215503192
0.000617494051545
0.00057835727977
0.00055451442295
0.000542884315107
0.000537351049798
0.00052987673542
0.000512875546756
0.000481178425938
0.000434024248577
0.000385113535702
0.000446009194783
0.000631634399535
0.000555868456642
0.000644388603574
0.000731562499363
0.000791100582744
0.000807271786179
0.000780870866878
0.000727296743882
0.000667347668995
0.00061479846053
0.000575992680845
0.000551802877998
0.000539233648522
0.000532274429215
0.000523273427946
0.000505150180608
0.000473181026725
0.000426825605781
0.000379463030144
0.000440298440652
0.000616506203626
0.000542199067932
0.000628075679268
0.000713587906946
0.000773886209665
0.00079421334074
0.000774587076857
0.000728232376132
0.000673721797432
0.000624134930979
0.000586061059558
0.000560937819853
0.000546184832649
0.000536040375087
0.000523460408649
0.000502102428066
0.000467934607189
0.000420857562325
0.000374132424083
0.000434800862879
0.000592913919119
0.000521626250318
0.00060387331901
0.000686668520181
0.000747305814603
0.000773274211768
0.000763370839351
0.000727817354339
0.000681933431454
0.000637477544015
0.000601095055365
0.000574899350735
0.000556984771136
0.000542339742998
0.000524861899246
0.000499117726181
0.000461697435845
0.000413126730013
0.000366611712972
0.000426154451109
0.000556626898067
0.000491478190763
0.000569096498111
0.00064783533559
0.000706990029293
0.000737837626251
0.000737934880698
0.00071440863078
0.000679025390047
0.00064166831824
0.000608525166816
0.000582166720666
0.000561407734074
0.000542337124233
0.000520077351984
0.000490132453225
0.000449576245444
0.000399893837776
0.00035382397459
0.000409823898568
0.000503403703171
0.00044940770905
0.000521823695043
0.000595325684279
0.000651457376233
0.000683984930392
0.000691612697504
0.000678666791976
0.00065360870902
0.000624258563773
0.000595901015213
0.00057109079366
0.000549214413954
0.000527451782012
0.000502089298366
0.000469394094341
0.00042724851733
0.000377802670564
0.000332541738121
0.000380936329727
0.000429640172781
0.00039411774712
0.00046187086666
0.000529381391384
0.000581321573734
0.000612866826351
0.000624185133831
0.000618663528268
0.000602019341274
0.000580171740573
0.000557353219189
0.000535720874589
0.000514993064509
0.000493112753994
0.000467185284158
0.000434211423387
0.000392871272259
0.000345265844816
0.000300437526818
0.000334920129599
0.000332489171583
0.000326257793538
0.000392112037017
0.000454314746102
0.000501654402878
0.000530986821071
0.000543120373099
0.000541363051247
0.000530420546981
0.000514708561872
0.000497294157757
0.000479810340733
0.000462046679968
0.000442296107327
0.000418247929278
0.000387602861525
0.000348931816901
0.000303149064761
0.000256883984143
0.000267773909402
0.000210112042683
0.000251146129826
0.000322810205787
0.000384079317298
0.000428831601465
0.000456255715804
0.000468246295361
0.000468328731179
0.000460681901307
0.000449021867266
0.000435901787718
0.000422435607506
0.000408242979261
0.000391729760041
0.000370598553786
0.000342430082042
0.000305285584439
0.000258572221253
0.000205191399943
0.000176323890453
7.69969998917e-05
0.000209043884332
0.000329323736475
0.000420774656514
0.000483824154777
0.000521174274693
0.00053733046568
0.000538088463081
0.000529455777283
0.000516397757434
0.000502088038052
0.000487659807146
0.000472274023296
0.000453463192501
0.000427720019883
0.000391073112221
0.000339647277546
0.000269543956354
0.000177008695976
7.0358077274e-05
9.98875676813e-05
0.000316435622322
0.000518342053189
0.000680217760409
0.000801236631995
0.000882772963275
0.000929273154107
0.000947903038242
0.000946773485208
0.000932968235526
0.000911305214895
0.000883698288365
0.000849062078942
0.00080367515008
0.00074231304445
0.000659818271746
0.00055233186764
0.000417672907452
0.000255768089273
8.58015714679e-05
0.000317738262241
0.000381352871095
0.000502041851703
0.000612010645845
0.000700072888362
0.000763028212786
0.000801825458103
0.000820086053102