/*--------------------------------*- C++ -*----------------------------------*\
| =========                 |                                                 |
| \\      /  F ield         | OpenFOAM: The Open Source CFD Toolbox           |
|  \\    /   O peration     | Version:  3.0.1                                 |
|   \\  /    A nd           | Web:      www.OpenFOAM.org                      |
|    \\/     M anipulation  |                                                 |
\*---------------------------------------------------------------------------*/
FoamFile
{
    version     2.0;
    format      ascii;
    class       volScalarField;
    location    "9.1";
    object      rAU;
}
// * * * * * * * * * * * * * * * * * * * * * * * * * * * * * * * * * * * * * //

dimensions      [-1 3 1 0 0 0 0];

internalField   nonuniform List<scalar> 
7968
(
3.30722238889e-06
3.30676118206e-06
3.30664184967e-06
3.30660625615e-06
3.30663136242e-06
3.30631666464e-06
3.30605777016e-06
3.30623130307e-06
3.306348421e-06
3.30639701678e-06
3.30641915255e-06
3.3064262587e-06
3.30641530953e-06
3.30634459847e-06
3.30641742904e-06
3.30657301586e-06
3.30661725763e-06
3.30667246772e-06
3.30679996506e-06
3.30723662209e-06
3.30676842986e-06
3.30540514648e-06
3.30481490301e-06
3.30451386117e-06
3.30435625338e-06
3.30412352065e-06
3.30389615684e-06
3.30389249578e-06
3.30396526303e-06
3.30401548456e-06
3.30405638707e-06
3.3040895933e-06
3.3041091725e-06
3.3041182143e-06
3.30422039053e-06
3.30442538144e-06
3.30464581959e-06
3.30494540679e-06
3.30548756545e-06
3.30677166433e-06
3.30664664994e-06
3.30481393109e-06
3.30396416944e-06
3.30353576042e-06
3.30330750017e-06
3.303069935e-06
3.30286830429e-06
3.30285696547e-06
3.30293512059e-06
3.30301199311e-06
3.30305351043e-06
3.30308073704e-06
3.30310590268e-06
3.30314041813e-06
3.30325722606e-06
3.3034719972e-06
3.30374187407e-06
3.30416384135e-06
3.30494230571e-06
3.30665735756e-06
3.30659785942e-06
3.30449778245e-06
3.30352013318e-06
3.30306089593e-06
3.30275778857e-06
3.30248100608e-06
3.30228465736e-06
3.30228077287e-06
3.30235911266e-06
3.30243265086e-06
3.30249821265e-06
3.30255088882e-06
3.30258915654e-06
3.30263542613e-06
3.30276684105e-06
3.30301565665e-06
3.3033345835e-06
3.30377077228e-06
3.30467272259e-06
3.30662313567e-06
3.30659390592e-06
3.3043007316e-06
3.3032582693e-06
3.30272868038e-06
3.30237084714e-06
3.30206201e-06
3.30184514225e-06
3.30182591772e-06
3.3019022832e-06
3.30198953092e-06
3.30207249651e-06
3.30214685149e-06
3.30221440521e-06
3.30229555817e-06
3.30245433155e-06
3.30272796638e-06
3.3031014566e-06
3.30359840525e-06
3.30454432554e-06
3.3066480577e-06
3.30631849448e-06
3.30405175884e-06
3.3030171869e-06
3.3024531336e-06
3.3020711899e-06
3.30169739358e-06
3.30142730991e-06
3.30140827804e-06
3.30148212134e-06
3.30156599388e-06
3.30164903281e-06
3.30172882093e-06
3.30180743541e-06
3.30190463435e-06
3.30209861532e-06
3.30245002143e-06
3.30286685673e-06
3.30340936134e-06
3.30436057683e-06
3.30634007113e-06
3.3061424357e-06
3.30387817666e-06
3.30285872028e-06
3.30229295194e-06
3.30190868661e-06
3.30147734406e-06
3.30120030049e-06
3.30120784001e-06
3.30129666559e-06
3.30138569526e-06
3.30146727498e-06
3.30154071647e-06
3.30160921996e-06
3.30168953206e-06
3.30186261548e-06
3.30223074057e-06
3.3026940948e-06
3.30323270914e-06
3.30416824121e-06
3.30610839187e-06
3.30630658502e-06
3.30389924513e-06
3.30285030366e-06
3.3022820384e-06
3.30188654654e-06
3.30144355485e-06
3.3011764284e-06
3.30123666963e-06
3.30136864014e-06
3.30148796196e-06
3.30158550338e-06
3.30165916352e-06
3.30171192988e-06
3.30176055932e-06
3.3018894025e-06
3.3022335533e-06
3.30270509562e-06
3.30324139536e-06
3.30418553923e-06
3.30629681399e-06
3.3063742474e-06
3.30393310893e-06
3.3028845474e-06
3.30231796933e-06
3.30192136489e-06
3.30146371515e-06
3.30119737626e-06
3.30129868501e-06
3.30146049867e-06
3.30180278788e-06
3.30192735272e-06
3.30193262524e-06
3.30182909682e-06
3.30186368041e-06
3.30196680695e-06
3.3023024897e-06
3.30277978689e-06
3.3033277727e-06
3.3042664684e-06
3.30639779424e-06
3.30639925899e-06
3.30395262831e-06
3.30291829051e-06
3.30235390019e-06
3.30196388219e-06
3.30149585586e-06
3.30122497318e-06
3.30135206681e-06
3.30170132018e-06
3.30195783066e-06
3.30207327698e-06
3.30210185769e-06
3.30202330719e-06
3.30194285561e-06
3.30203158584e-06
3.30235980065e-06
3.30283852938e-06
3.3033893014e-06
3.30431875606e-06
3.306438434e-06
3.30640382126e-06
3.30396334831e-06
3.3029291957e-06
3.30237813276e-06
3.30199925639e-06
3.30153013652e-06
3.30125472656e-06
3.30138833729e-06
3.30174734174e-06
3.302000389e-06
3.30211737144e-06
3.30215101726e-06
3.30209388094e-06
3.3019939293e-06
3.30208097457e-06
3.30239943984e-06
3.30287185826e-06
3.3034233038e-06
3.30435033163e-06
3.3064570643e-06
3.30638538969e-06
3.30396543841e-06
3.30292770321e-06
3.30238877143e-06
3.3020239874e-06
3.30156581084e-06
3.30128747069e-06
3.30140614606e-06
3.30158417418e-06
3.30194503183e-06
3.30207241272e-06
3.30210674512e-06
3.30202971191e-06
3.30201806565e-06
3.30211512718e-06
3.30242194774e-06
3.30288252442e-06
3.3034338977e-06
3.30436149575e-06
3.30646017171e-06
3.30633185853e-06
3.30395414646e-06
3.30292622001e-06
3.30239396029e-06
3.30204677931e-06
3.30160941412e-06
3.30132714283e-06
3.30141125723e-06
3.30157143515e-06
3.30170823947e-06
3.30187522179e-06
3.30189981172e-06
3.30196298786e-06
3.30202335311e-06
3.30213874274e-06
3.30243592189e-06
3.30288142965e-06
3.30342816948e-06
3.30435321718e-06
3.30644328016e-06
3.30619212017e-06
3.30394785879e-06
3.30295536486e-06
3.30243241082e-06
3.30210330289e-06
3.30168948804e-06
3.30139657938e-06
3.30142870995e-06
3.30155737987e-06
3.30167664077e-06
3.30178053067e-06
3.30187064078e-06
3.30195157237e-06
3.30203653512e-06
3.30217672072e-06
3.30246896484e-06
3.30289863468e-06
3.30342995987e-06
3.3043348775e-06
3.30636329552e-06
3.3063444069e-06
3.30411289784e-06
3.30311373344e-06
3.30259793507e-06
3.30227237983e-06
3.30192520011e-06
3.30163279216e-06
3.3016192935e-06
3.30171922378e-06
3.30181717335e-06
3.30190563917e-06
3.30198965023e-06
3.30207203198e-06
3.30216641909e-06
3.30231816184e-06
3.30259743539e-06
3.30299006731e-06
3.30351125095e-06
3.30441043747e-06
3.30645720759e-06
3.30658602381e-06
3.3043530593e-06
3.30335188196e-06
3.30286536769e-06
3.30256540877e-06
3.30229076016e-06
3.30205214308e-06
3.30202213792e-06
3.30211533451e-06
3.30220589153e-06
3.3022812159e-06
3.30234661456e-06
3.30240921658e-06
3.30248621196e-06
3.30261853465e-06
3.30284905392e-06
3.30319155391e-06
3.30368501636e-06
3.30456955744e-06
3.30661522846e-06
3.30659564884e-06
3.30455066754e-06
3.30362257602e-06
3.30318553642e-06
3.30293584604e-06
3.30270360104e-06
3.30249333148e-06
3.30247754391e-06
3.30257814641e-06
3.30266797649e-06
3.30273835509e-06
3.30279391036e-06
3.30284434119e-06
3.30289653083e-06
3.30299089e-06
3.30318063995e-06
3.30348212635e-06
3.30387824538e-06
3.30474615298e-06
3.30663219004e-06
3.30664738431e-06
3.30485751538e-06
3.30405701224e-06
3.30365899785e-06
3.30346086451e-06
3.30327145312e-06
3.30305345816e-06
3.30301706149e-06
3.30312395749e-06
3.30321698316e-06
3.30327719891e-06
3.30331837147e-06
3.303354849e-06
3.30339896109e-06
3.30348114722e-06
3.30363192355e-06
3.30384648857e-06
3.30426145652e-06
3.30501644919e-06
3.30667826652e-06
3.30677045021e-06
3.30542524714e-06
3.30486626102e-06
3.3045888477e-06
3.30445718122e-06
3.30429534659e-06
3.30404767777e-06
3.30399607761e-06
3.30409949107e-06
3.30416065606e-06
3.30421018856e-06
3.30425151408e-06
3.30428632485e-06
3.30431991437e-06
3.30437991701e-06
3.30451951927e-06
3.30472579756e-06
3.30502153551e-06
3.30554437665e-06
3.30680381509e-06
3.30722893955e-06
3.30676434899e-06
3.30664653037e-06
3.30661578788e-06
3.30664440243e-06
3.30657850462e-06
3.30626256152e-06
3.30618116661e-06
3.30635134734e-06
3.30640952922e-06
3.30644144267e-06
3.3064598081e-06
3.3064715577e-06
3.30647069023e-06
3.30645161495e-06
3.30652091953e-06
3.30662526777e-06
3.30669485595e-06
3.3068245116e-06
3.30724290086e-06
3.30686878845e-06
3.30555122684e-06
3.30495039215e-06
3.30462888266e-06
3.30442139486e-06
3.30417223959e-06
3.3039871765e-06
3.304020333e-06
3.30410362482e-06
3.3041654005e-06
3.30420706139e-06
3.30423395343e-06
3.30425087402e-06
3.30426596868e-06
3.3043210834e-06
3.30449363202e-06
3.30475117604e-06
3.30507499197e-06
3.30562210262e-06
3.30686058758e-06
3.3055622196e-06
3.29907305803e-06
3.29541646737e-06
3.29340142633e-06
3.29219386011e-06
3.29143253509e-06
3.29100397273e-06
3.29087208531e-06
3.29092173433e-06
3.2910458312e-06
3.29120233764e-06
3.29140701137e-06
3.29164726084e-06
3.29196448279e-06
3.29243724615e-06
3.29316358833e-06
3.29429951373e-06
3.29616497561e-06
3.29950823987e-06
3.30560390606e-06
3.30496145812e-06
3.29543636504e-06
3.28981381191e-06
3.28666882204e-06
3.28478884194e-06
3.28365113329e-06
3.2830326324e-06
3.28279892447e-06
3.28283200796e-06
3.28302631737e-06
3.28327859786e-06
3.28358328748e-06
3.28396990168e-06
3.2844920543e-06
3.28525615898e-06
3.28640386433e-06
3.28812087082e-06
3.29098891449e-06
3.29615673855e-06
3.30506118604e-06
3.30462537585e-06
3.29341097482e-06
3.28666150029e-06
3.2828297145e-06
3.28053051937e-06
3.2791703405e-06
3.27846852365e-06
3.27823499472e-06
3.27831122818e-06
3.27856394379e-06
3.27890228883e-06
3.27929029222e-06
3.27975041303e-06
3.28036209645e-06
3.28126792987e-06
3.2826566245e-06
3.28475292926e-06
3.28822406605e-06
3.29437063525e-06
3.30477984638e-06
3.30438215034e-06
3.29218366352e-06
3.2847669534e-06
3.28050871501e-06
3.27797605966e-06
3.27653604673e-06
3.2758611949e-06
3.27571057268e-06
3.27589302554e-06
3.27624818261e-06
3.27666031063e-06
3.27708652081e-06
3.27755555165e-06
3.27817017924e-06
3.27910258098e-06
3.2805696814e-06
3.28287134167e-06
3.28665615467e-06
3.29334465854e-06
3.30460818431e-06
3.30414830087e-06
3.29141719258e-06
3.28358635553e-06
3.27907945089e-06
3.27645620599e-06
3.27505126898e-06
3.27448063188e-06
3.2744661631e-06
3.27478106865e-06
3.27524685085e-06
3.27573354734e-06
3.27618995896e-06
3.27664157886e-06
3.2772038328e-06
3.27808182326e-06
3.27953173926e-06
3.2818796488e-06
3.28579405271e-06
3.29274575274e-06
3.3043988518e-06
3.30403291744e-06
3.29098446095e-06
3.28290732354e-06
3.27828032256e-06
3.27566201115e-06
3.27434967396e-06
3.27391915973e-06
3.27404384105e-06
3.27449245484e-06
3.27506679733e-06
3.27562116769e-06
3.27609912417e-06
3.27652477715e-06
3.27702263816e-06
3.2778128215e-06
3.27917830321e-06
3.28148979076e-06
3.28542445977e-06
3.29246154916e-06
3.30423210379e-06
3.30406514861e-06
3.29079879962e-06
3.28258635775e-06
3.27792271954e-06
3.27535264504e-06
3.2741563544e-06
3.27385335537e-06
3.27411102486e-06
3.27468203393e-06
3.27535051314e-06
3.27595932347e-06
3.27644943332e-06
3.27684619505e-06
3.27728039947e-06
3.27798395783e-06
3.27925200673e-06
3.28147646521e-06
3.28537537238e-06
3.29243576075e-06
3.30425427136e-06
3.30410884194e-06
3.2907553916e-06
3.28249999405e-06
3.27784188438e-06
3.27533783151e-06
3.27423886772e-06
3.27404315042e-06
3.27440803634e-06
3.27507517041e-06
3.276020302e-06
3.27668393276e-06
3.27710669758e-06
3.27732574035e-06
3.27770914838e-06
3.27834377552e-06
3.27953138517e-06
3.2816665578e-06
3.28550026079e-06
3.29254197087e-06
3.30433621561e-06
3.3041376099e-06
3.29078130334e-06
3.28255254114e-06
3.277916131e-06
3.27546764536e-06
3.2744368422e-06
3.27431124444e-06
3.27474073202e-06
3.27563531012e-06
3.27652667033e-06
3.27719438629e-06
3.27763848356e-06
3.27786482365e-06
3.27810742155e-06
3.27870072616e-06
3.27983655786e-06
3.28190814669e-06
3.28567062569e-06
3.29266217287e-06
3.30439151441e-06
3.30415131354e-06
3.29084986215e-06
3.28267140079e-06
3.27807580052e-06
3.27565862777e-06
3.27465642423e-06
3.2745541861e-06
3.27499947642e-06
3.27590836723e-06
3.27679794397e-06
3.27746598324e-06
3.27791188478e-06
3.27815419405e-06
3.27836779573e-06
3.27895048903e-06
3.28006845398e-06
3.28210998719e-06
3.28582375416e-06
3.2927563462e-06
3.30441645796e-06
3.30414684775e-06
3.29096277763e-06
3.28285193291e-06
3.27830519753e-06
3.27589332539e-06
3.27487862146e-06
3.27475231718e-06
3.27516535682e-06
3.27586353823e-06
3.27683412717e-06
3.27749921587e-06
3.27793973329e-06
3.27816676013e-06
3.27847587548e-06
3.27907761651e-06
3.28021082417e-06
3.28225593168e-06
3.28594982942e-06
3.29281856732e-06
3.30441607107e-06
3.3041304254e-06
3.2911319468e-06
3.28313767366e-06
3.27864641632e-06
3.27622312904e-06
3.27516047894e-06
3.27496975232e-06
3.27530872192e-06
3.27593363804e-06
3.2766327419e-06
3.27730865034e-06
3.27773143157e-06
3.27810736831e-06
3.27850692494e-06
3.27915210814e-06
3.28032559844e-06
3.28239792414e-06
3.28608352328e-06
3.29286390869e-06
3.30438561281e-06
3.30412321214e-06
3.29140962817e-06
3.28360313708e-06
3.27919826898e-06
3.27676908999e-06
3.27563308993e-06
3.27535071735e-06
3.27558766307e-06
3.27611474637e-06
3.27673667984e-06
3.27730846831e-06
3.27777911414e-06
3.27817669086e-06
3.27862299337e-06
3.27932524064e-06
3.28054844257e-06
3.28265591886e-06
3.2863090175e-06
3.29294556583e-06
3.30433303265e-06
3.30423305448e-06
3.29188502696e-06
3.2843577414e-06
3.28010697062e-06
3.27770304999e-06
3.27650469624e-06
3.27610990883e-06
3.27623239239e-06
3.27664779073e-06
3.27717853638e-06
3.2776935454e-06
3.27814465586e-06
3.27856085596e-06
3.27905433489e-06
3.27981017376e-06
3.28108042334e-06
3.28319415075e-06
3.28675983496e-06
3.29320868535e-06
3.30437066645e-06
3.30444825189e-06
3.29264684273e-06
3.28553816685e-06
3.28154804936e-06
3.2792480593e-06
3.27802705315e-06
3.27754457329e-06
3.27754531238e-06
3.27784414269e-06
3.27827742405e-06
3.27872612982e-06
3.27914671162e-06
3.27956947279e-06
3.28009682342e-06
3.28088891498e-06
3.28216621652e-06
3.2842141267e-06
3.28762491264e-06
3.29380833167e-06
3.30457681636e-06
3.30468495643e-06
3.29383309407e-06
3.28736040294e-06
3.28377525916e-06
3.28170194571e-06
3.28055357479e-06
3.28003577692e-06
3.27995039292e-06
3.28014308224e-06
3.28047676102e-06
3.28085088732e-06
3.28122636326e-06
3.28163440529e-06
3.28215736854e-06
3.28292284233e-06
3.28412018981e-06
3.28598533482e-06
3.28910523135e-06
3.29480689565e-06
3.30482214542e-06
3.30501156851e-06
3.29576820508e-06
3.29036886869e-06
3.28742515123e-06
3.28573155987e-06
3.28477063258e-06
3.28430138448e-06
3.28418497408e-06
3.28431310515e-06
3.28456620674e-06
3.28485202871e-06
3.2851486545e-06
3.28548313086e-06
3.2859209619e-06
3.28656156855e-06
3.28754543481e-06
3.28905634255e-06
3.29166808147e-06
3.29644676014e-06
3.30509984957e-06
3.30559205198e-06
3.29925299266e-06
3.29573966782e-06
3.29385644485e-06
3.29277179028e-06
3.29212657927e-06
3.29177612219e-06
3.2917020692e-06
3.29181492579e-06
3.29198946363e-06
3.29214082142e-06
3.29234505734e-06
3.29255274141e-06
3.2928111794e-06
3.29319328574e-06
3.29380199134e-06
3.2947936815e-06
3.29646869037e-06
3.29961046892e-06
3.30559672781e-06
3.3068731308e-06
3.3055731086e-06
3.30499391817e-06
3.30469804838e-06
3.30452512275e-06
3.30432503549e-06
3.30411826563e-06
3.30411029735e-06
3.3042132889e-06
3.30429258139e-06
3.30434474527e-06
3.30437957666e-06
3.30440577387e-06
3.30443120715e-06
3.30446602985e-06
3.30458254051e-06
3.30480420369e-06
3.30510887754e-06
3.30560829299e-06
3.30681599932e-06
3.3067515029e-06
3.30494002248e-06
3.30398560483e-06
3.30334794818e-06
3.30303325828e-06
3.30284265364e-06
3.30273443423e-06
3.30269341259e-06
3.3028268586e-06
3.30293145812e-06
3.3029912447e-06
3.30303910051e-06
3.30307919554e-06
3.30312032003e-06
3.30319067378e-06
3.30336144529e-06
3.30370545355e-06
3.30425968055e-06
3.30511224442e-06
3.30676264349e-06
3.30496156274e-06
3.29534505386e-06
3.28966122745e-06
3.28639979908e-06
3.28450625402e-06
3.28334981507e-06
3.28270707688e-06
3.28243186501e-06
3.28254161969e-06
3.28276411007e-06
3.2830209586e-06
3.28334779631e-06
3.28374719242e-06
3.2842731864e-06
3.28503505317e-06
3.2862257652e-06
3.28806034659e-06
3.29097870108e-06
3.29613273958e-06
3.30507417486e-06
3.30401832108e-06
3.28973045972e-06
3.28074035134e-06
3.27551601384e-06
3.27228888729e-06
3.27034098895e-06
3.26929740686e-06
3.26888537169e-06
3.26889670234e-06
3.26917066833e-06
3.26959850602e-06
3.27013216343e-06
3.27079773968e-06
3.27169743989e-06
3.27300427899e-06
3.27497607599e-06
3.27798178117e-06
3.28266125554e-06
3.29088624842e-06
3.30424754774e-06
3.30330820019e-06
3.28643117574e-06
3.2755426432e-06
3.26892547828e-06
3.26486850491e-06
3.26248350544e-06
3.26127652972e-06
3.26087406245e-06
3.26099437977e-06
3.2614140161e-06
3.26198211313e-06
3.26264005247e-06
3.26342233185e-06
3.26447416384e-06
3.26603024441e-06
3.26842730497e-06
3.2721600071e-06
3.27806890993e-06
3.28798875686e-06
3.30366890378e-06
3.30297761557e-06
3.28451822541e-06
3.27227768154e-06
3.26481845664e-06
3.26031356163e-06
3.25777136572e-06
3.25661846281e-06
3.25636527615e-06
3.25666306007e-06
3.25726459765e-06
3.25797426607e-06
3.25871432251e-06
3.25950671685e-06
3.26054962051e-06
3.26216748739e-06
3.26474464754e-06
3.26883771775e-06
3.27543391968e-06
3.2864528048e-06
3.30339928061e-06
3.30278766222e-06
3.28331379382e-06
3.27024193956e-06
3.26230970058e-06
3.25763410009e-06
3.25519329358e-06
3.25424740296e-06
3.25416794806e-06
3.2546493529e-06
3.25544890063e-06
3.25629869931e-06
3.25709222619e-06
3.25781764611e-06
3.25873943819e-06
3.26030818018e-06
3.26291138005e-06
3.26713028684e-06
3.27403120327e-06
3.28563210102e-06
3.30325789186e-06
3.30268292089e-06
3.28260289463e-06
3.26906479001e-06
3.26091224357e-06
3.25626599298e-06
3.25407476988e-06
3.25334345931e-06
3.25342263145e-06
3.25409678653e-06
3.25509992164e-06
3.25608164872e-06
3.25690972718e-06
3.25753855855e-06
3.25827962463e-06
3.25972485286e-06
3.26230344033e-06
3.26649709076e-06
3.27346545922e-06
3.28528397738e-06
3.30319980674e-06
3.30275901581e-06
3.28236465726e-06
3.26848289114e-06
3.26026851448e-06
3.25574736072e-06
3.25378277822e-06
3.25323759915e-06
3.25349920042e-06
3.25437542939e-06
3.25556080741e-06
3.25665079805e-06
3.25750208138e-06
3.25805556263e-06
3.2586488175e-06
3.2599419422e-06
3.26243373603e-06
3.26653081418e-06
3.27342049879e-06
3.28523648294e-06
3.30319999157e-06
3.30282891453e-06
3.28232132558e-06
3.26829351991e-06
3.26009231615e-06
3.25569446067e-06
3.25389962331e-06
3.25353345126e-06
3.25397746866e-06
3.25502392513e-06
3.25634213379e-06
3.25750446724e-06
3.25836751829e-06
3.2588708106e-06
3.25936891161e-06
3.26054308658e-06
3.2629184603e-06
3.26689277952e-06
3.27364669921e-06
3.28535394647e-06
3.30323127866e-06
3.30286420002e-06
3.28237339128e-06
3.26835088063e-06
3.26019154207e-06
3.25588679172e-06
3.25420980653e-06
3.25397171803e-06
3.25453505773e-06
3.25567976162e-06
3.25706222928e-06
3.25825775888e-06
3.2591239012e-06
3.25960061259e-06
3.26004768644e-06
3.26115403925e-06
3.26344757033e-06
3.2673246054e-06
3.27395795579e-06
3.28566340228e-06
3.30340504364e-06
3.30288526722e-06
3.28250032898e-06
3.26856502588e-06
3.26046073815e-06
3.25620839508e-06
3.25458202439e-06
3.25438363427e-06
3.25497115103e-06
3.25612814481e-06
3.257515447e-06
3.25871114747e-06
3.25957413814e-06
3.26004477226e-06
3.26048326619e-06
3.26157746883e-06
3.26384889875e-06
3.26768409084e-06
3.2742458375e-06
3.28584068585e-06
3.30344381802e-06
3.30289534424e-06
3.28269928364e-06
3.26891032263e-06
3.26087480295e-06
3.25663026115e-06
3.25498229263e-06
3.25473246372e-06
3.25525151647e-06
3.25634023763e-06
3.25767747672e-06
3.25884326761e-06
3.25969904746e-06
3.260184527e-06
3.2606566699e-06
3.26179260964e-06
3.26409959559e-06
3.26794671068e-06
3.27448577368e-06
3.28597818303e-06
3.3034518795e-06
3.30289583766e-06
3.28299075762e-06
3.26944032137e-06
3.26149186207e-06
3.25720748577e-06
3.25546328047e-06
3.25509668048e-06
3.25548778821e-06
3.25645153665e-06
3.25768773978e-06
3.25879817582e-06
3.25964651468e-06
3.26017639884e-06
3.2607276116e-06
3.26195278047e-06
3.26432317155e-06
3.26820269906e-06
3.27473767255e-06
3.28606457226e-06
3.30339076985e-06
3.30288906523e-06
3.28342712252e-06
3.27027463292e-06
3.26246686259e-06
3.25812305406e-06
3.25620457579e-06
3.25570022478e-06
3.2559636835e-06
3.25678218804e-06
3.25788246032e-06
3.25891280154e-06
3.25975114033e-06
3.26035212478e-06
3.26103130438e-06
3.26237165529e-06
3.26476609223e-06
3.26865022024e-06
3.27514814412e-06
3.2862846801e-06
3.30338059843e-06
3.30290807421e-06
3.28412267405e-06
3.27159236088e-06
3.26405844863e-06
3.2597363272e-06
3.25761390821e-06
3.25694350348e-06
3.25709805563e-06
3.25777189561e-06
3.25870676788e-06
3.25962945376e-06
3.26044153707e-06
3.26113096791e-06
3.26196571223e-06
3.26338405043e-06
3.26573783422e-06
3.26957391504e-06
3.27593637156e-06
3.28676475074e-06
3.30344622624e-06
3.30311917718e-06
3.28535566321e-06
3.27364214369e-06
3.26660046617e-06
3.262469947e-06
3.26027744369e-06
3.25944384605e-06
3.25946430493e-06
3.25998193578e-06
3.26073625734e-06
3.2615285851e-06
3.26228610822e-06
3.26302984253e-06
3.2639573306e-06
3.26538126736e-06
3.26766134116e-06
3.27135034201e-06
3.27737994056e-06
3.28761734056e-06
3.30358682686e-06
3.30356599521e-06
3.28732630302e-06
3.27678598524e-06
3.2705681612e-06
3.26687445047e-06
3.26483366259e-06
3.26394478941e-06
3.26382048171e-06
3.26416502973e-06
3.26473851587e-06
3.26538908759e-06
3.26605885629e-06
3.26677897733e-06
3.26769337804e-06
3.26904261633e-06
3.27114936356e-06
3.27448289331e-06
3.27986268729e-06
3.28903321884e-06
3.30385652219e-06
3.30415173012e-06
3.29037999933e-06
3.28173775466e-06
3.2768315949e-06
3.27392358146e-06
3.27227537761e-06
3.27150730607e-06
3.27133310448e-06
3.27153044881e-06
3.27192923357e-06
3.27242146576e-06
3.27296027312e-06
3.27356714436e-06
3.27433960936e-06
3.27545245619e-06
3.27715775444e-06
3.27982443701e-06
3.28408349185e-06
3.29165501525e-06
3.30435935502e-06
3.3050319336e-06
3.29573224523e-06
3.2902959229e-06
3.28722886014e-06
3.28553247232e-06
3.28457304462e-06
3.2841125165e-06
3.28399194783e-06
3.28409615309e-06
3.28449305043e-06
3.28477326014e-06
3.28510782897e-06
3.28546335701e-06
3.28590085577e-06
3.28651625092e-06
3.2874899046e-06
3.28909452587e-06
3.29172282825e-06
3.29650682942e-06
3.30510941416e-06
3.30675771055e-06
3.30499517599e-06
3.30411536469e-06
3.30350763582e-06
3.3032270946e-06
3.30306602122e-06
3.30297992984e-06
3.30295779192e-06
3.30298473104e-06
3.30319564488e-06
3.30326829531e-06
3.30331969139e-06
3.30336103947e-06
3.30339896913e-06
3.30344516676e-06
3.30356020835e-06
3.30389481193e-06
3.30438843991e-06
3.30513357159e-06
3.3067339178e-06
3.3064409025e-06
3.30405345019e-06
3.30305091368e-06
3.30249482089e-06
3.30213290923e-06
3.30190023249e-06
3.30177050546e-06
3.30171158764e-06
3.30169473372e-06
3.30170487067e-06
3.30174651151e-06
3.30182172217e-06
3.30192420934e-06
3.30205709454e-06
3.30223731515e-06
3.30248788989e-06
3.30281528335e-06
3.30337975841e-06
3.30436627089e-06
3.30653651931e-06
3.3040445128e-06
3.29220023486e-06
3.28539064289e-06
3.28134783508e-06
3.27883419435e-06
3.27731005696e-06
3.27648987797e-06
3.27616882528e-06
3.27617839827e-06
3.27638038312e-06
3.27670335179e-06
3.2771293972e-06
3.2776741247e-06
3.27840816837e-06
3.27946231095e-06
3.28102620315e-06
3.28338279361e-06
3.28705625944e-06
3.2933228453e-06
3.30435531115e-06
3.30301574744e-06
3.285415489e-06
3.27406493749e-06
3.26719284162e-06
3.26296437081e-06
3.26046228072e-06
3.2591743732e-06
3.25872192075e-06
3.25881926119e-06
3.25922267695e-06
3.25978464278e-06
3.26048220744e-06
3.26133813211e-06
3.26247250183e-06
3.26413340458e-06
3.26665345056e-06
3.27054067667e-06
3.27671604855e-06
3.28707638901e-06
3.30341914296e-06
3.30244062457e-06
3.28138978372e-06
3.26720989695e-06
3.25858041194e-06
3.25334875277e-06
3.25039391264e-06
3.24899162575e-06
3.24855365677e-06
3.24878467415e-06
3.24941723137e-06
3.25019140297e-06
3.251049617e-06
3.25199898821e-06
3.25324888735e-06
3.25522046206e-06
3.25828997893e-06
3.26306421987e-06
3.27071881328e-06
3.28353790159e-06
3.30294044784e-06
3.30208375005e-06
3.27884342286e-06
3.2629149125e-06
3.2532652967e-06
3.24765134582e-06
3.24471821024e-06
3.24340448403e-06
3.24298636593e-06
3.24333305545e-06
3.24422336929e-06
3.24521403686e-06
3.24617125877e-06
3.24700674962e-06
3.2480920055e-06
3.2501399133e-06
3.25355697837e-06
3.25887157426e-06
3.26734566869e-06
3.28153145016e-06
3.30265552952e-06
3.30183915776e-06
3.27724394582e-06
3.26027015107e-06
3.25016132476e-06
3.24464607111e-06
3.24194422465e-06
3.24070684714e-06
3.24025770441e-06
3.24072444055e-06
3.24190203681e-06
3.24311420291e-06
3.24413413789e-06
3.24472307016e-06
3.24543405218e-06
3.24738220659e-06
3.25103285278e-06
3.25674649685e-06
3.26565817346e-06
3.2805147311e-06
3.30250720623e-06
3.30168740201e-06
3.27630802314e-06
3.25878067327e-06
3.24859654391e-06
3.24332732689e-06
3.24087534696e-06
3.23975642662e-06
3.23936567331e-06
3.2400246178e-06
3.24150433835e-06
3.24292041587e-06
3.24397416227e-06
3.24428828908e-06
3.24453130515e-06
3.24623985271e-06
3.25000953736e-06
3.25596380687e-06
3.26508194728e-06
3.28016672005e-06
3.30245625822e-06
3.30160364297e-06
3.27583751214e-06
3.25807180556e-06
3.24795869562e-06
3.24289748074e-06
3.24069117504e-06
3.23976761493e-06
3.23957869339e-06
3.24049902783e-06
3.24225261828e-06
3.24382569003e-06
3.24489431275e-06
3.24502055931e-06
3.24492459134e-06
3.24635681223e-06
3.25009168647e-06
3.25607130463e-06
3.26519472434e-06
3.28023409452e-06
3.30246360185e-06
3.30156538309e-06
3.2756794736e-06
3.25785215519e-06
3.24782277491e-06
3.242934687e-06
3.24095027211e-06
3.24027055927e-06
3.24032887098e-06
3.24148192837e-06
3.24342159256e-06
3.24509396923e-06
3.24616749886e-06
3.2461972668e-06
3.24593719894e-06
3.24719929073e-06
3.25080666849e-06
3.25666841225e-06
3.26565485301e-06
3.28050487961e-06
3.30249584122e-06
3.30155900225e-06
3.27572299288e-06
3.25793740925e-06
3.24799489726e-06
3.2432462065e-06
3.24143304291e-06
3.24093314587e-06
3.24114708433e-06
3.24241143004e-06
3.24442615584e-06
3.2461416386e-06
3.24721517136e-06
3.24719643649e-06
3.24687240461e-06
3.24806179601e-06
3.25158301928e-06
3.25733467055e-06
3.26617502505e-06
3.28081495277e-06
3.30252935386e-06
3.30158061664e-06
3.27589891574e-06
3.25822250345e-06
3.24836752333e-06
3.24369983745e-06
3.24195115333e-06
3.24148816421e-06
3.24170733028e-06
3.24295889729e-06
3.24496132573e-06
3.24666840869e-06
3.24773637541e-06
3.2477065473e-06
3.2473762213e-06
3.24857064894e-06
3.25209579953e-06
3.25782419427e-06
3.26659400018e-06
3.28108426509e-06
3.30256986344e-06
3.30162853844e-06
3.27618607592e-06
3.25867899543e-06
3.24890418812e-06
3.24424878922e-06
3.24245178821e-06
3.24188659026e-06
3.24197720886e-06
3.24311649616e-06
3.24503708725e-06
3.24668860194e-06
3.24774367549e-06
3.24774594521e-06
3.24746558847e-06
3.24873646126e-06
3.252346225e-06
3.25812837149e-06
3.26689544746e-06
3.28130236389e-06
3.30261920144e-06
3.30170472727e-06
3.27662640004e-06
3.25936166741e-06
3.24962859802e-06
3.24489234899e-06
3.2429402278e-06
3.24217962391e-06
3.2420680514e-06
3.24303563418e-06
3.2448291107e-06
3.24641156286e-06
3.24747683009e-06
3.24757915706e-06
3.24745861232e-06
3.24890036322e-06
3.25261509838e-06
3.25843489557e-06
3.26718196742e-06
3.2815127259e-06
3.30266567353e-06
3.30182054026e-06
3.2773145791e-06
3.26042045545e-06
3.25069827977e-06
3.24580229995e-06
3.24362379549e-06
3.2426867964e-06
3.24242696536e-06
3.24323567135e-06
3.24486570886e-06
3.24636602414e-06
3.24745845172e-06
3.24776242127e-06
3.24798072457e-06
3.24968367368e-06
3.25337091651e-06
3.25906167595e-06
3.26765813044e-06
3.28182330941e-06
3.30272533626e-06
3.30199566078e-06
3.27838633089e-06
3.26212324148e-06
3.25253694213e-06
3.24745146481e-06
3.24507149076e-06
3.24407141079e-06
3.24382795812e-06
3.2445396841e-06
3.24595194193e-06
3.24730744145e-06
3.24839330848e-06
3.24897351659e-06
3.24963985122e-06
3.25151539478e-06
3.25497667294e-06
3.26031586525e-06
3.26860521881e-06
3.28240268663e-06
3.30282363938e-06
3.30225244556e-06
3.28002466938e-06
3.26482233585e-06
3.25571308907e-06
3.25057272503e-06
3.24803709587e-06
3.24706447698e-06
3.24695397221e-06
3.24760722691e-06
3.24876136226e-06
3.24991404297e-06
3.2509335608e-06
3.25173804657e-06
3.25272458804e-06
3.25460337686e-06
3.25772743314e-06
3.26259866446e-06
3.27040115234e-06
3.28347984644e-06
3.3029914228e-06
3.30260680171e-06
3.282499098e-06
3.26899751716e-06
3.26087305338e-06
3.25611054373e-06
3.253594119e-06
3.25258934053e-06
3.25251108308e-06
3.25306551536e-06
3.2539555255e-06
3.254885226e-06
3.25578838208e-06
3.25668632908e-06
3.25779959775e-06
3.25954680475e-06
3.26228789471e-06
3.26660289459e-06
3.27358865379e-06
3.28535952062e-06
3.30326865496e-06
3.30319508343e-06
3.28632769156e-06
3.27553932376e-06
3.26909303739e-06
3.26526536266e-06
3.26315595406e-06
3.26224134589e-06
3.26212790246e-06
3.26251437372e-06
3.26314263216e-06
3.263838933e-06
3.26456818724e-06
3.2653731155e-06
3.26637713791e-06
3.26781992685e-06
3.270025078e-06
3.27348592834e-06
3.27906829826e-06
3.28857824113e-06
3.30374348716e-06
3.30420897064e-06
3.29278723294e-06
3.28632666536e-06
3.28257121591e-06
3.28032909903e-06
3.27907051425e-06
3.27850718254e-06
3.27842138905e-06
3.27863143127e-06
3.27898965588e-06
3.27940679159e-06
3.2798558338e-06
3.2803629248e-06
3.28099954426e-06
3.28189163623e-06
3.28322675241e-06
3.28528482046e-06
3.28857050441e-06
3.2943307903e-06
3.3045702704e-06
3.30647744309e-06
3.30419790723e-06
3.30322996381e-06
3.30272903131e-06
3.30241432663e-06
3.3022321497e-06
3.30215325751e-06
3.30214136092e-06
3.3021653988e-06
3.30220501595e-06
3.30225751738e-06
3.30233108198e-06
3.3024253132e-06
3.30254195995e-06
3.30269692387e-06
3.30291422831e-06
3.3032094249e-06
3.30373088876e-06
3.30460575396e-06
3.30656015684e-06
3.30537893659e-06
3.30336711676e-06
3.30237097052e-06
3.30166266476e-06
3.30117343451e-06
3.30086171077e-06
3.30069349998e-06
3.30063455414e-06
3.30065139468e-06
3.300569463e-06
3.30055134831e-06
3.30070108253e-06
3.30083828875e-06
3.30101409262e-06
3.30125835479e-06
3.30160091789e-06
3.30208720736e-06
3.30275021189e-06
3.30372308526e-06
3.30575432464e-06
3.30334110815e-06
3.28936491095e-06
3.28097908758e-06
3.27605372626e-06
3.27301173074e-06
3.27119066885e-06
3.27023641754e-06
3.26988752362e-06
3.26993884617e-06
3.27021925858e-06