/*--------------------------------*- C++ -*----------------------------------*\
| =========                 |                                                 |
| \\      /  F ield         | OpenFOAM: The Open Source CFD Toolbox           |
|  \\    /   O peration     | Version:  3.0.1                                 |
|   \\  /    A nd           | Web:      www.OpenFOAM.org                      |
|    \\/     M anipulation  |                                                 |
\*---------------------------------------------------------------------------*/
FoamFile
{
    version     2.0;
    format      ascii;
    class       volVectorField;
    location    "9.1";
    object      U;
}
// * * * * * * * * * * * * * * * * * * * * * * * * * * * * * * * * * * * * * //

dimensions      [0 1 -1 0 0 0 0];

internalField   nonuniform List<vector> 
7968
(
(5.25017737313e-06 -3.19261727877e-05 4.1189541413e-05)
(0.000427636253045 -0.000228554910676 -8.98556670911e-05)
(0.00121258057684 -0.000321106557396 -0.000104626511133)
(0.00189303978111 -0.000359830755381 -2.88037645102e-05)
(0.00240323553419 -0.000329963384826 6.45588472725e-05)
(0.00262846960407 -0.000244861760971 0.000158683051224)
(0.00257486167948 -0.000161097321873 0.000221506304517)
(0.00228552044056 -7.4264414992e-05 0.000271992411621)
(0.00179506970818 -7.25589717306e-06 0.000299286000736)
(0.00118661066458 2.7362942417e-05 0.000311064395091)
(0.000542094786617 2.91529317377e-05 0.000310892870517)
(-7.02038216982e-05 -4.33448492082e-07 0.000300628816374)
(-0.000586389771739 -5.59829916023e-05 0.000281264258413)
(-0.00094704151415 -0.000128466844445 0.000247264223863)
(-0.00111939783039 -0.000198656001971 0.000202711199708)
(-0.00109225471397 -0.000261718975424 0.000135996535303)
(-0.000856546698273 -0.000282477328291 6.20356992394e-05)
(-0.000506927314016 -0.00024101329801 -5.33324151238e-06)
(-8.20562639196e-05 -0.000156443636753 -2.91179851476e-06)
(8.489661131e-05 -2.16994331694e-06 9.30363628596e-05)
(-0.000179563524427 0.000271112987644 -6.76150714047e-05)
(0.000343461395262 0.000153013168462 -0.00089244384736)
(0.00133720102235 0.000136593743847 -0.00113370357251)
(0.00211077530496 0.000195734943434 -0.00108888964593)
(0.00264355253213 0.000334465710729 -0.000957763287174)
(0.0028575440688 0.000520888173564 -0.000802231574561)
(0.00276630535819 0.000697638934523 -0.000665191584609)
(0.00242592187323 0.000849741920224 -0.000548241793538)
(0.00188774173241 0.000959137627727 -0.000465679374813)
(0.00123364769427 0.00101782429308 -0.000427024292717)
(0.000544537704404 0.00102388895661 -0.000430936620434)
(-0.000109568535875 0.000978743835965 -0.000472529093362)
(-0.000665201275303 0.000887624277974 -0.000542394158611)
(-0.00106402466439 0.000759983991505 -0.000632837405005)
(-0.00126702913046 0.000614918121631 -0.000731928095893)
(-0.00124947060673 0.000466905552006 -0.000836757815852)
(-0.000993482044806 0.000354706539247 -0.000920142401929)
(-0.000565151228223 0.000307196694204 -0.000936962100288)
(2.23913332397e-05 0.000310817886676 -0.000727945318629)
(0.000248195392429 0.000374742780455 -3.69408804918e-05)
(-0.000273172716966 0.000888887434188 -7.41402181064e-05)
(0.000339324810692 0.000966931945737 -0.00113440161601)
(0.0014383335681 0.00104652406476 -0.00135713168601)
(0.00225549498656 0.00119312693267 -0.00123814242846)
(0.00279041247721 0.00141028836138 -0.00103891738063)
(0.0029858095994 0.00166724086121 -0.000833855401157)
(0.00286970126301 0.00190892749324 -0.000661629790057)
(0.00250224946984 0.00211674605184 -0.000527195072726)
(0.00194107414932 0.00227063420224 -0.000438838147196)
(0.00126590507591 0.00235699410725 -0.000399754156361)
(0.000556268442383 0.00237290849041 -0.000408329599371)
(-0.000119190663631 0.00232032100073 -0.000459249810496)
(-0.000698243471906 0.00220611494726 -0.000542937570828)
(-0.00112292906267 0.00204221279593 -0.000655905095578)
(-0.00135114840415 0.00184770553281 -0.00078851903409)
(-0.00134938952465 0.00163920371301 -0.000935579751978)
(-0.00109176266133 0.00145431880986 -0.00107194695513)
(-0.000630377938706 0.00131763636186 -0.00114288567866)
(3.8373856599e-05 0.00121745914799 -0.00094346631495)
(0.000325161166848 0.00109058655459 -5.72092658489e-05)
(-0.000315418421578 0.00141339194242 9.29757828459e-08)
(0.00039861768845 0.00158252814614 -0.00110842114763)
(0.00159108965048 0.00170097921899 -0.00126121662448)
(0.00245314030658 0.00188759655992 -0.00105869787258)
(0.00299486493207 0.00214222914416 -0.000793306933621)
(0.00317025506268 0.00243586372217 -0.000540901709085)
(0.00302238954875 0.00271362731314 -0.000336359317547)
(0.00261841173358 0.00295485841434 -0.000182443933426)
(0.00202249171386 0.00313668660242 -8.9986521887e-05)
(0.00131459113316 0.00324302717708 -5.06462042215e-05)
(0.000572563454309 0.00327069098235 -6.1366730795e-05)
(-0.000137093574623 0.00322126879342 -0.000115863877289)
(-0.000752552529291 0.00310209608528 -0.000207750513442)
(-0.00121600594458 0.00292705219239 -0.000343134360825)
(-0.00147989160656 0.00271484162374 -0.000508482472469)
(-0.00150233202655 0.00248272409239 -0.000700870152398)
(-0.00124613624077 0.00226592818037 -0.000897705661051)
(-0.000753963385649 0.00208790467275 -0.00104178620923)
(-1.31549892288e-05 0.00194086595057 -0.000905656280728)
(0.000355133931538 0.00171536632891 5.68170083834e-06)
(-0.000287923418175 0.00179643420887 8.43129179112e-05)
(0.000531789900175 0.00198635337503 -0.00100480918128)
(0.00180575106441 0.00210666326252 -0.00109350109288)
(0.00271019983562 0.00229666002478 -0.000825199936729)
(0.00325673032301 0.00255206558644 -0.000502390543793)
(0.00341144267072 0.00284840946209 -0.00020461095596)
(0.00322821610662 0.00313179142269 3.01100284257e-05)
(0.00277857523767 0.00338132986424 0.000203521849308)
(0.00213525654334 0.00357332679634 0.000309964575873)
(0.00138159462805 0.00369142978856 0.000353971932625)
(0.000593799750559 0.00373031942805 0.000342660227779)
(-0.000162781312802 0.00369224939288 0.000282008709266)
(-0.000827706348002 0.00358497631841 0.00017641954806)
(-0.00134077538909 0.0034219902623 2.37034128208e-05)
(-0.00164726982167 0.00322061833733 -0.000168850967704)
(-0.0016998934936 0.00299802609219 -0.000402845936517)
(-0.00145251225018 0.00278688769976 -0.000652952296226)
(-0.00093564778671 0.00260518934209 -0.000858061708304)
(-0.000133857990651 0.00245006036761 -0.000784765349828)
(0.000326633658742 0.00219078532599 8.77126381452e-05)
(-0.00021216952675 0.0019320950591 0.000164268662974)
(0.000706636831167 0.00210876664479 -0.00087779405637)
(0.00205514048959 0.00221179905551 -0.000921031820436)
(0.00299933553279 0.00237954374437 -0.000606012609795)
(0.00355251938796 0.00261083586297 -0.000238545060357)
(0.00368573660278 0.00288200004291 9.48432484534e-05)
(0.00346594167353 0.00314419297613 0.000355129993532)
(0.00296934880077 0.00338183048229 0.00054553734299)
(0.00227247567134 0.00356910345732 0.000662491165779)
(0.0014633469493 0.00368882012367 0.000710842263344)
(0.000619859558949 0.00373555447688 0.000699975280989)
(-0.000192456059912 0.00371226384316 0.000636559808184)
(-0.000912701388414 0.00362686817797 0.000524132813255)
(-0.00147850534961 0.00349276066445 0.000359964499028)
(-0.00183142892146 0.0033266506223 0.000146529232494)
(-0.0019186947693 0.00314183558718 -0.000116242113876)
(-0.00168284929156 0.00296309242758 -0.000406957793447)
(-0.00114756901446 0.00280701642514 -0.000656524138836)
(-0.000293356479411 0.00266912040866 -0.000631958729485)
(0.000254598355358 0.00240913082795 0.000173077321333)
(-0.000134538335338 0.0018278408987 0.000216441337194)
(0.00087280918013 0.001969935909 -0.000764125088608)
(0.00228936119667 0.00204726687807 -0.000775758219881)
(0.0032719128404 0.00218102961432 -0.000429306892935)
(0.00383491743348 0.00237374042396 -3.17261538027e-05)
(0.00395010809552 0.00260370838142 0.000328439781134)
(0.00370088532153 0.0028319911544 0.000606714466209)
(0.00316075658923 0.00304432540387 0.000811433300552)
(0.00241199267013 0.00321544630642 0.000936142754642)
(0.00154833105947 0.00332927429611 0.000986459588863)
(0.000650938156688 0.00338097121809 0.000974019256383)
(-0.000213540309401 0.00337394030366 0.000907032653407)
(-0.000984107135695 0.00331502962477 0.000789712736521)
(-0.00159686698568 0.00321649411031 0.000618564296447)
(-0.00198925091922 0.00309308595986 0.000394922567868)
(-0.00210785500784 0.00295643002357 0.000115474364132)
(-0.0018859655202 0.00282384715544 -0.000198675173945)
(-0.00133722010955 0.00270561031039 -0.000476952598198)
(-0.000444307310904 0.00259467339205 -0.000490283794307)
(0.000179166567549 0.00235925658495 0.000231730157509)
(-5.38280583987e-05 0.00151276753125 0.000259061548844)
(0.00101747798925 0.0016122746054 -0.000665760916627)
(0.00248991399142 0.00166351539409 -0.000661781516415)
(0.00350655275125 0.00175900080764 -0.000296449884368)
(0.00408017320459 0.0019033616424 0.000120586267761)
(0.00418614846159 0.00208215671043 0.00049806957149)
(0.00391525862393 0.00226240924401 0.000790166785009)
(0.00333889816024 0.00243435051325 0.00100863220131)
(0.0025443630661 0.00257551610935 0.00114098301187)
(0.00163172649715 0.00267383584592 0.0011918880181)
(0.000686730941964 0.00272660183365 0.00117745730062)
(-0.000222278254141 0.00273856985711 0.00110719499333)
(-0.0010350351464 0.0027141370501 0.000985383412606)
(-0.00168626578942 0.00266097125379 0.000809270760908)
(-0.0021100300068 0.00259052422635 0.000580283160513)
(-0.00225289098734 0.00251076357554 0.000292928875169)
(-0.00204443318484 0.00243240425968 -3.633884722e-05)
(-0.00148873728833 0.00235869845825 -0.000327638857479)
(-0.000569600482068 0.00228020258509 -0.000364598392151)
(0.000101881785138 0.00209143855833 0.000277122290176)
(8.51180782453e-06 0.00102565835803 0.000284055790655)
(0.00112235463218 0.00108407380912 -0.000595334183286)
(0.00263638161224 0.00111399146951 -0.000585472534982)
(0.00368078895048 0.00117390552658 -0.000211752286406)
(0.00426580887088 0.00126836785834 0.000214763155059)
(0.00436791024032 0.00138934576935 0.000602376940953)
(0.00408362374366 0.00151368892479 0.000902684108285)
(0.0034808685759 0.00163581701249 0.0011304627448)
(0.0026529665253 0.0017412120007 0.00126033696838)
(0.00170262529123 0.00182329757993 0.00129613474994)
(0.000720356031743 0.00187540810482 0.00127648330251)
(-0.000218958098903 0.00190408728445 0.00120868921296)
(-0.00105190590937 0.00191219116653 0.00110045950844)
(-0.00172988162758 0.00190820910228 0.000924792774776)
(-0.00217565626258 0.001893192477 0.000696649423483)
(-0.00233679540352 0.00187178448525 0.000409925866913)
(-0.00214063403396 0.00184676845718 7.75477488881e-05)
(-0.0015866694563 0.00181688880572 -0.000216873959771)
(-0.000655603862474 0.00176906694979 -0.000265853761116)
(4.01405708831e-05 0.0016306872087 0.000304712674658)
(4.26206512177e-05 0.000436927255922 0.000292790242497)
(0.00117852789903 0.000455830732809 -0.000561122197658)
(0.00271683210188 0.000467608676829 -0.000550787830378)
(0.00377919423217 0.00049552173981 -0.000176153497943)
(0.00437388630392 0.000540983653339 0.000254697112306)
(0.00447705494859 0.000601631504417 0.000647135606161)
(0.00418793656207 0.000666902858131 0.000950376829486)
(0.00357240157736 0.000734945901857 0.00118100870776)
(0.00273016608653 0.00079976767691 0.0012986255586)
(0.00175990579332 0.000857073391366 0.00134034847516)
(0.000763434220498 0.000909079585158 0.00131720505211)
(-0.000188850471992 0.000958007902277 0.00124299311112)
(-0.00103339894358 0.00100551729772 0.0011354876071)
(-0.00171798436877 0.00104958869567 0.000971007836156)
(-0.00217578289497 0.00108874804874 0.000747920992251)
(-0.00234854289381 0.00112273519082 0.000466910908401)
(-0.00216416662438 0.00114767445078 0.000138369547272)
(-0.00162067158336 0.00115687443993 -0.00015528033484)
(-0.000695993967889 0.00113906295801 -0.000207662095164)
(5.02629010825e-06 0.00105495887078 0.000316874412829)
(4.61410605461e-05 -0.000182870350582 0.000288742778321)
(0.00118404782604 -0.000201609416595 -0.000564765196721)
(0.00272744997167 -0.00020616381343 -0.000557239108692)
(0.00379617058192 -0.000209668196978 -0.000183809649072)
(0.00439744963615 -0.000212720373712 0.00024654183951)
(0.00450596721933 -0.000213314705714 0.000639443489925)
(0.00422103325171 -0.000207649390896 0.000942066495746)
(0.00360882027813 -0.00019435287631 0.00117159494717)
(0.00276964722893 -0.00017311808106 0.00128657280272)
(0.00180371949859 -0.000135662954308 0.00132569704963)
(0.000813352656574 -8.22957590338e-05 0.00130047550413)
(-0.000131727871373 -1.32611257888e-05 0.00122590261818)
(-0.000970894391958 7.0136847368e-05 0.00111900075869)
(-0.00165042316356 0.00016158095691 0.00096119393377)
(-0.00210910616485 0.000253065770664 0.000744310560282)
(-0.00228719156468 0.000339614233947 0.000470789834931)
(-0.00211478694409 0.000411309012253 0.000149826228818)
(-0.00158953174432 0.00045588770277 -0.00013907022751)
(-0.000688619526443 0.000468183221408 -0.00019158885192)
(-1.56110278873e-06 0.000439866917325 0.000314827560137)
(1.89345728386e-05 -0.000763573505803 0.000272104962336)
(0.00113846074671 -0.000818335321642 -0.000604183403284)
(0.00266827152022 -0.000840676881402 -0.000602153918272)
(0.00373179414577 -0.000877311247085 -0.000232692098274)
(0.0043365148873 -0.000930760139621 0.000192660543457)
(0.00445497422098 -0.000993072709635 0.000581906676218)
(0.00418342282864 -0.0010463875793 0.000881056658842)
(0.00359108595331 -0.00108606207881 0.00110625332821)
(0.00277296631446 -0.00110230757316 0.00122847251676)
(0.00183445446947 -0.00108678124175 0.00125848257316)
(0.000869649534496 -0.00103169047542 0.00123362633472)
(-5.01324323886e-05 -0.000942863661088 0.00116383997016)
(-0.000865350311437 -0.00082369028905 0.00106266551296)
(-0.00153069175693 -0.000689547814924 0.000903355067958)
(-0.0019787374715 -0.000548749989531 0.000692633426619)
(-0.00215600795511 -0.000412132929379 0.000427062069222)
(-0.00199570058857 -0.000295065004274 0.000116914177592)
(-0.00149484865345 -0.000214763699305 -0.000162096685969)
(-0.000632663517193 -0.000172566834682 -0.000212215961446)
(2.01328764271e-05 -0.000148350358026 0.000301532461625)
(-3.51595271054e-05 -0.00124150679872 0.000241347279729)
(0.00104562345682 -0.00133010681009 -0.00067466265423)
(0.00254384284479 -0.00137292331878 -0.000682941935221)
(0.00359200871491 -0.00144660112731 -0.000324853934501)
(0.00419805703552 -0.00155252729005 9.05478793723e-05)
(0.00433183042142 -0.00167563790702 0.000471050518411)
(0.00408243172234 -0.00178605928664 0.000763099370794)
(0.00352420434085 -0.00187561436155 0.000979779482703)
(0.00274595792929 -0.00192438033045 0.00110692259218)
(0.00185318650275 -0.00192236383383 0.00114999224361)
(0.000932772940569 -0.00186940748085 0.00112575307124)
(5.46811505112e-05 -0.00176340107656 0.00106148574268)
(-0.00073053325929 -0.00161856821628 0.000951132678813)
(-0.00136582231044 -0.00144407083461 0.00079587592902)
(-0.0017938981802 -0.00125664832148 0.00059301542581)
(-0.00196308080289 -0.00107150845472 0.000338352387676)
(-0.00181234593356 -0.000909090909065 4.37779823119e-05)
(-0.00134098549641 -0.000790249227496 -0.000220044716651)
(-0.000531677807951 -0.00071864120246 -0.000262343538536)
(6.65530727641e-05 -0.000647781386582 0.000278649480456)
(-0.000107502636351 -0.00155384239294 0.000196626610272)
(0.000913841210973 -0.00167587467476 -0.000767421932608)
(0.00236515552048 -0.00174293052877 -0.000794173964588)
(0.00339058766372 -0.00185633163653 -0.000457226960523)
(0.00399779028656 -0.00201401650493 -6.18509636292e-05)
(0.00415233928953 -0.0021935943342 0.000302046014359)
(0.00393343088384 -0.00235612425843 0.000582432218634)
(0.00341943041661 -0.00248930620399 0.000787709144826)
(0.00269411134869 -0.0025704537084 0.000910022814983)
(0.00185737559188 -0.0025855577196 0.000955734784783)
(0.000992292140727 -0.00253209760664 0.000940522475679)
(0.000164691100198 -0.00241575893872 0.000878779378632)
(-0.000572267442155 -0.00224489333853 0.000776254998141)
(-0.00116666468393 -0.00203596280798 0.000631334345985)
(-0.00156558435976 -0.00180713889195 0.00044091606936)
(-0.00171977325095 -0.00157715081941 0.000202978605574)
(-0.00157529635619 -0.0013716987461 -6.78921703292e-05)
(-0.00113822270444 -0.00121415010507 -0.000309659387414)
(-0.000393845021136 -0.00111284572571 -0.000333348742758)
(0.000131869177932 -0.00100067147276 0.000246009364136)
(-0.00017784757371 -0.00166389259948 0.000144615313496)
(0.000761959865057 -0.00181385643407 -0.000870732593685)
(0.00215243462712 -0.00190487930233 -0.000929062701731)
(0.00314897902099 -0.00205365898598 -0.000625198214423)
(0.00375589003316 -0.00225403960228 -0.000261083451121)
(0.00393870938303 -0.00248154705751 7.65047347949e-05)
(0.00375801715675 -0.00268499163325 0.000341184040866)
(0.00329559012458 -0.00285034892163 0.000534776381591)
(0.00262908906674 -0.00295474656447 0.000652842026441)
(0.00185293352478 -0.00298356483311 0.00070043767891)
(0.00104762561512 -0.00293424929974 0.000690829201721)
(0.00027790611215 -0.00281225346148 0.000636409959842)
(-0.000404798413675 -0.00262723852727 0.000542896233684)
(-0.000951144253844 -0.0023961137017 0.000410709480099)
(-0.00131285015801 -0.00213743868572 0.000237510936849)
(-0.0014459327668 -0.00187294733154 2.39817129735e-05)
(-0.00130442148097 -0.0016318760342 -0.000212886433322)
(-0.000905058541841 -0.00144203180085 -0.000421454753414)
(-0.000235815677291 -0.00131254243479 -0.000414356135141)
(0.000199559084136 -0.00116684948174 0.000206908762974)
(-0.000243697964515 -0.00155593013469 6.87250590919e-05)
(0.000603740298422 -0.00171398353161 -0.000982587350835)
(0.00192423673737 -0.00181943104301 -0.00108334300861)
(0.002887608081 -0.00199073802242 -0.000826721953842)
(0.00349510020703 -0.0022194435983 -0.000507601275653)
(0.00370805720437 -0.00247875840887 -0.000205602276873)
(0.00357220491161 -0.00271236691498 3.58598022372e-05)
(0.0031650293322 -0.00289969916648 0.000215518527015)
(0.00255955021619 -0.00302040632997 0.000328288191044)
(0.0018447715748 -0.0030605385578 0.000377774868611)
(0.00109935107049 -0.00301773381886 0.000374282710867)
(0.000388336275191 -0.00289733871335 0.000328619624896)
(-0.000238135989914 -0.00270875540885 0.000246856134803)
(-0.00073324883511 -0.00246831502568 0.000132543666799)
(-0.00105341345764 -0.00219427566291 -1.57135890557e-05)
(-0.00116076958489 -0.00190970424616 -0.000193394170177)
(-0.00102120156195 -0.00164915664226 -0.000386900756329)
(-0.000660494193019 -0.00144118550938 -0.000548490471602)
(-7.24464962948e-05 -0.00129590879535 -0.000500800321454)
(0.000261142432872 -0.00113659799114 0.000151963289094)
(-0.000264356492108 -0.0012214010178 -1.27559819176e-05)
(0.000484834018034 -0.00135822636664 -0.00107259321997)
(0.0017254275421 -0.00145984976138 -0.00122943227943)
(0.00265008257788 -0.00162900174807 -0.00103680760198)
(0.00325656501281 -0.00186093963638 -0.000774486506338)
(0.00349639564293 -0.00212501089001 -0.000517779753674)
(0.00340255992189 -0.00236451348967 -0.000305269568312)
(0.00304799505398 -0.00255736460553 -0.00014386836965)
(0.00249672436064 -0.00268436880071 -4.03315470671e-05)
(0.00183426039401 -0.00273219117681 9.5684854286e-06)
(0.00114026887584 -0.00269992322619 1.16463071954e-05)
(0.000480588805471 -0.00259212935357 -2.44528200357e-05)
(-9.49057037789e-05 -0.00241679171375 -9.02566487618e-05)
(-0.000540719712799 -0.00218700701813 -0.000179274822563)
(-0.000819310821964 -0.00192237334067 -0.000294754903812)
(-0.000902638164334 -0.0016458323352 -0.000429302757332)
(-0.000764989713673 -0.00139209949075 -0.000567915937661)
(-0.000444341677364 -0.00119151358333 -0.000670123971149)
(6.10452600072e-05 -0.00104934191518 -0.000570749575432)
(0.00029190411794 -0.00089747230231 9.44477830446e-05)
(-0.000219308115929 -0.00076023144575 -8.642789341e-05)
(0.000436211269974 -0.000814562136664 -0.00109190461446)
(0.00158329136354 -0.000878754307663 -0.00130780599587)
(0.00246293265429 -0.00101130918052 -0.00119304368276)
(0.00306283138263 -0.00121089281474 -0.0009952878022)
(0.00332495970234 -0.00144628224185 -0.000785662735825)
(0.00326630905755 -0.00166175171854 -0.000604539718231)
(0.00295344110075 -0.00183634907655 -0.00046112467654)
(0.00244315528327 -0.00195503282725 -0.000361368069445)
(0.00181922764995 -0.0020053723868 -0.00030984795411)
(0.00116221482599 -0.00198664563057 -0.000303115168364)
(0.000540850337415 -0.00190259672338 -0.000332107943023)
(6.20246503579e-06 -0.00175930523711 -0.000385977849491)
(-0.00039927949721 -0.0015664789443 -0.000454983911418)
(-0.000643016288956 -0.00134346219333 -0.000536185497149)
(-0.000704860957716 -0.00111033853522 -0.000624130851259)
(-0.000571292590214 -0.000900647995999 -0.000703912341857)
(-0.000289366092162 -0.000742875126926 -0.000738626193125)
(0.000133928054245 -0.000636124817999 -0.00058557061852)
(0.0002778858519 -0.000541225797644 5.31321091999e-05)
(-0.000127890092042 -0.000217480429796 -8.6492925347e-05)
(0.000444769355204 -9.53546777788e-05 -0.000866751291853)
(0.00148603421955 -7.13482105567e-05 -0.00109379888582)
(0.00231860333503 -0.000123981163462 -0.00104709402438)
(0.00291207936399 -0.000252635333646 -0.000914569041897)
(0.00319160385192 -0.000425419325667 -0.000754496662761)
(0.00315753614741 -0.000589400907774 -0.000609890518542)
(0.00287459409589 -0.000725348215891 -0.000487714644019)
(0.00239147106346 -0.00082043622657 -0.000397396982404)
(0.00179350258547 -0.000867177854039 -0.000350239969697)
(0.00116160334683 -0.00086584943196 -0.000343912269779)
(0.000565692299666 -0.000818024595231 -0.000368667731899)
(5.84802878907e-05 -0.000727180583849 -0.00041355578754)
(-0.000318965318138 -0.000600007765256 -0.000466425414541)
(-0.000537454882318 -0.000453078336915 -0.000521201394297)
(-0.000583259171708 -0.00030252434938 -0.00057298642594)
(-0.000451574617596 -0.000178599036769 -0.00060693194486)
(-0.000201726000961 -0.00010891277119 -0.000594128432326)
(0.000146293181762 -8.45556971346e-05 -0.00042511645409)
(0.000229226569826 -0.000115811362371 7.69292870373e-05)
(4.35585543411e-05 4.30553248299e-05 9.78654758141e-06)
(0.000523362376186 0.000227252754646 -0.000120442831138)
(0.00136213191865 0.00031418626638 -0.000134607304529)
(0.00209607699902 0.000349009456693 -6.07005224135e-05)
(0.00265840109542 0.000320731647143 3.3065313556e-05)
(0.00294166871414 0.00024349356797 0.000128846264206)
(0.00293401862779 0.000163227693663 0.000196870717151)
(0.00269889780631 8.50487905689e-05 0.000247710573257)
(0.00226259949306 2.12352542849e-05 0.000276126498845)
(0.00171148525358 -1.44177505303e-05 0.000285952281228)
(0.00112426944438 -2.12031113228e-05 0.000281709711135)
(0.000568877969844 -1.95987960903e-06 0.000267532282968)
(9.72129861786e-05 3.99336212325e-05 0.000246660243242)
(-0.0002484466528 9.78697387827e-05 0.000221839777741)
(-0.000440767863139 0.000158311311891 0.000191623444039)
(-0.000475453031353 0.000212664331422 0.000151448047081)
(-0.000354630699633 0.000236555995881 0.00010885518671)
(-0.000154723843317 0.000215874837929 7.53602705462e-05)
(8.18131262227e-05 0.000167655814724 9.59340117292e-05)
(0.000120879599941 6.9500936065e-05 0.000186973239717)
(0.000322845348099 0.000297327479422 -0.00071268683431)
(0.000985801587088 0.000445307105882 -0.00109021995441)
(0.00171384096727 0.000562075073408 -0.0011751665495)
(0.00224366494676 0.000650382533225 -0.00103901324386)
(0.00257933261357 0.000718372398219 -0.00082619615595)
(0.00268101910085 0.00077452889409 -0.000600545843641)
(0.00255708779726 0.00081527366287 -0.000404224114229)
(0.00223332774143 0.00084389829295 -0.000244094884021)
(0.00175454204678 0.00086159930594 -0.000135436420699)
(0.00118388713622 0.000871934202213 -8.45813809328e-05)
(0.000582607689621 0.000876173835771 -8.6571020227e-05)
(4.86384016614e-06 0.000872811962781 -0.000134115698444)
(-0.000502060307344 0.000860312791464 -0.000217366564734)
(-0.00089384816789 0.000834807058671 -0.000329639300039)
(-0.00113751132869 0.000797179064156 -0.000461694481485)
(-0.00122124455999 0.000745563202975 -0.000607654312128)
(-0.00114294856749 0.000680360827747 -0.000748433469185)
(-0.000933579845532 0.000593369397117 -0.000838938244681)
(-0.00057725527028 0.000461491088809 -0.00076391183156)
(-0.000211885900877 0.000268126516546 -0.00046379940964)
(0.000528587081453 0.000832171844252 -0.00105405945072)
(0.00116949628257 0.000931875171535 -0.00191709269418)
(0.00176719950646 0.00101577868796 -0.00205863509358)
(0.00218202698945 0.00110934156612 -0.00188105281908)
(0.00242910979882 0.001211936666 -0.00159916901739)
(0.00249004399022 0.00131977653289 -0.00130252348782)
(0.00236796183341 0.00142153580497 -0.00103992862504)
(0.00208413799721 0.00151088025439 -0.000832921185329)
(0.00167405175798 0.00158057847295 -0.000694624436809)
(0.00118410496553 0.00162606759336 -0.000632145388558)
(0.000662447886741 0.00164586130968 -0.000642024568256)
(0.000154501622847 0.00163912575622 -0.000715496721691)
(-0.000300440450246 0.00160602645053 -0.000841402920007)
(-0.000666974478886 0.00154778983479 -0.00100795236191)
(-0.000917408301888 0.00147127165847 -0.00120230975867)
(-0.00103787257428 0.00138163443092 -0.00140857624355)
(-0.00102519561554 0.00128557758497 -0.00159380299445)
(-0.000895421068054 0.00118087620547 -0.00169389524729)
(-0.000628343523278 0.00105056597711 -0.00154250415454)
(-0.000320877281769 0.000850293295976 -0.000821546705175)
(0.000669598508407 0.00137889089531 -0.00114002911982)
(0.00128742688351 0.0013632681075 -0.00206829655363)
(0.00182869262401 0.00139510344858 -0.00214756433167)
(0.00218513434227 0.00147667383995 -0.00188639575964)
(0.00238668194761 0.00159620747395 -0.00153003133434)
(0.0024230475692 0.00173949199532 -0.00117387058048)
(0.00229804454681 0.00188692315984 -0.000867274654677)
(0.00202956223062 0.00202325192096 -0.000632442687239)
(0.00164846065552 0.00213304233585 -0.000479822631759)
(0.00119409541655 0.0022083967276 -0.000412200276677)
(0.000707446888544 0.00224461715859 -0.000424607266016)
(0.000228692374912 0.00224076307795 -0.000508647275785)
(-0.000207474057832 0.002199285775 -0.000654836337409)
(-0.000569135782724 0.00212455500363 -0.000853252275216)
(-0.000830116918159 0.00202843672746 -0.00109395244617)
(-0.000975931885681 0.0019216978834 -0.00135979021516)
(-0.00100078964565 0.00181772106939 -0.00161456854894)
(-0.000916316406439 0.00172438073413 -0.00178621848625)
(-0.000691697614993 0.00163750469205 -0.00168657300139)
(-0.000414722388194 0.00153324538384 -0.000909951851658)
(0.000766982170606 0.00175011063523 -0.00103040847618)
(0.00139308180733 0.00163153721174 -0.00192899192643)
(0.00192115210052 0.00161018810897 -0.00192807529729)
(0.0022544513634 0.00167030319949 -0.00158078811377)
(0.00243483551901 0.00179169634144 -0.00114587787766)
(0.00245755516462 0.00195308097211 -0.000726719949367)
(0.00232699269691 0.00212821998117 -0.000373107870584)
(0.00205819624681 0.00229572046271 -0.000106030880064)
(0.00168075647516 0.00243610798736 6.64985422836e-05)
(0.00123194129492 0.0025352547865 0.000144200492633)
(0.000748837097093 0.00258561010992 0.000133693306227)
(0.000269770269077 0.00258615210578 4.32991363832e-05)
(-0.000173318568287 0.00254156089035 -0.000119733827924)
(-0.000548058578856 0.00246182060758 -0.000347582341159)
(-0.00082716566099 0.00236089389838 -0.000633705746891)
(-0.000995985089969 0.00225374430681 -0.000961683982603)
(-0.00104634605483 0.00215921121219 -0.00129392754989)
(-0.000984478158254 0.00209167293177 -0.00154979214296)
(-0.000771474107752 0.002057702767 -0.00153145613396)
(-0.000488013726984 0.00204169047585 -0.000794141145135)
(0.000840854756963 0.00195681561055 -0.000858327247683)
(0.00150016895625 0.00175731357403 -0.00170017030665)
(0.00204342843688 0.00169483902421 -0.0016273073992)
(0.00237741812144 0.00173469305905 -0.00120222780231)
(0.00255317596886 0.00185084885386 -0.000694851809291)
(0.00256967308373 0.00201787982079 -0.000214066663036)
(0.00243224720194 0.00220689481642 0.000188694038068)
(0.00215534516296 0.00239248820783 0.000492491999833)
(0.00176542528703 0.0025523252647 0.000689441615007)
(0.00129879190632 0.00266761171768 0.000781142714989)
(0.000794302457907 0.00272892306116 0.000775460075148)
(0.000291038973233 0.00273504559382 0.000680856570731)
(-0.000176152779246 0.00269237777386 0.000503406553088)
(-0.000574612984926 0.0026150939781 0.000247616375733)
(-0.000878121485443 0.00251846960429 -8.0744830781e-05)
(-0.00106929893531 0.00242113778866 -0.000465850396595)
(-0.0011364510858 0.00234387176901 -0.000869367959063)
(-0.00108104561553 0.00230498192677 -0.00120425374165)
(-0.000857278695655 0.00231716721544 -0.00126228785433)
(-0.000542763048535 0.00237471347244 -0.000597154273453)
(0.00090039932739 0.00196473879611 -0.000678920502298)
(0.00160904838279 0.00172706472649 -0.00145963526342)
(0.00218490120898 0.00164168886567 -0.00132990363297)
(0.00253548432138 0.00166684985072 -0.000843137364081)
(0.002718005039 0.00177407814784 -0.000275006332925)
(0.00273541475146 0.00193820949012 0.000260527587024)
(0.00259223832196 0.00212942746914 0.000709275639573)
(0.00230057014529 0.00232081005239 0.00105045675171)
(0.00188696824994 0.00248781318393 0.00127489793014)
(0.00138878438591 0.0026110248262 0.00138337268889)
(0.000847733214978 0.00267965137158 0.00138394650089)
(0.000306106389304 0.00269258020854 0.00128578085159)
(-0.000197815794188 0.00265729135635 0.00109498321995)
(-0.000629423210275 0.00258814332301 0.000815211571419)
(-0.000959936099452 0.00250229616876 0.000452199148591)
(-0.00117025232444 0.00241959959562 2.05020525731e-05)
(-0.00124804146991 0.00236194153647 -0.000440325225806)
(-0.00118847377444 0.00234711344716 -0.000838628981368)
(-0.000941181861027 0.00238985866765 -0.000959843096871)
(-0.000584221658528 0.00248572409777 -0.000376267983117)
(0.000943699583209 0.00178389354527 -0.000523168161977)
(0.00171021815246 0.00154629488972 -0.0012474585323)
(0.00232766815647 0.0014569283135 -0.00107715687828)
(0.00270412920047 0.00147367988778 -0.000545312892191)