/*--------------------------------*- C++ -*----------------------------------*\
| =========                 |                                                 |
| \\      /  F ield         | OpenFOAM: The Open Source CFD Toolbox           |
|  \\    /   O peration     | Version:  3.0.1                                 |
|   \\  /    A nd           | Web:      www.OpenFOAM.org                      |
|    \\/     M anipulation  |                                                 |
\*---------------------------------------------------------------------------*/
FoamFile
{
    version     2.0;
    format      ascii;
    class       volVectorField;
    location    "9.3";
    object      ddt0(rho,U);
}
// * * * * * * * * * * * * * * * * * * * * * * * * * * * * * * * * * * * * * //

dimensions      [1 -2 -2 0 0 0 0];

internalField   nonuniform List<vector> 
7968
(
(-0.0488638346003 -0.0392157794417 0.090701802416)
(-0.110734077808 -0.0339468740809 0.0716415230558)
(-0.16387400223 -0.0303866535899 0.059167707254)
(-0.214394263369 -0.0289418831389 0.0529103694983)
(-0.251761036387 -0.028366774885 0.0477581791855)
(-0.27555327255 -0.0291847780885 0.0416514724281)
(-0.289573692567 -0.0294612357429 0.0348117369729)
(-0.286173264035 -0.0292355003654 0.0267392069971)
(-0.27445648706 -0.0281269274863 0.0224671079644)
(-0.254116678439 -0.0269219607357 0.0190546697272)
(-0.229106012254 -0.0262323670513 0.0166359641024)
(-0.200883456902 -0.0259162889907 0.0153579307175)
(-0.17236064746 -0.0263025735168 0.0149864242815)
(-0.1471935883 -0.0271961443003 0.0166097090009)
(-0.124036106764 -0.0289586944792 0.0177505675195)
(-0.107186224396 -0.031277980067 0.0194309574133)
(-0.0912652030959 -0.0344041286423 0.0204303244207)
(-0.0743831479336 -0.0377380296836 0.0216723810433)
(-0.0563427759558 -0.0431125416868 0.0256424771395)
(-0.0175278403426 -0.0504246651122 0.0366913866878)
(-0.0417282613319 -0.097901898044 0.0757113120085)
(-0.0899558678313 -0.0854267682739 0.0558321810888)
(-0.157344784268 -0.0822330485252 0.0657609899149)
(-0.227261050411 -0.0854817514597 0.073579844784)
(-0.286403844743 -0.0917461934474 0.07318689103)
(-0.323301030668 -0.0998637506979 0.0681747806532)
(-0.336306953526 -0.104004160596 0.0583993322241)
(-0.326017868427 -0.106645665328 0.0463735814127)
(-0.297452218547 -0.104064202956 0.0358690017863)
(-0.256922326169 -0.100720567371 0.028875412155)
(-0.211299483196 -0.0972548468039 0.0252711391805)
(-0.165557109851 -0.0935446988483 0.0251792601968)
(-0.125153463156 -0.0899054854951 0.0271517387077)
(-0.0959643853856 -0.0860702235003 0.0305061929523)
(-0.0775097044391 -0.0825801028144 0.0333734451692)
(-0.0715157290512 -0.0788296985367 0.0348173353069)
(-0.0717850375966 -0.0786179487491 0.0318934587813)
(-0.0711413877617 -0.0828467132044 0.023914373488)
(-0.0646173244187 -0.0954112902198 0.0120355661716)
(-0.0212790660678 -0.117687822049 0.0153087209966)
(-0.03980455109 -0.165724580528 0.0679276929843)
(-0.0855796003593 -0.169908744257 0.0698820596804)
(-0.167942369412 -0.18470054513 0.0993779217392)
(-0.252006821793 -0.204102269055 0.112387762822)
(-0.318566626216 -0.223817458794 0.109391599385)
(-0.358547020731 -0.237048407382 0.0967644883743)
(-0.369116455901 -0.244134037349 0.0803122524732)
(-0.351638976898 -0.245259176681 0.0631487913445)
(-0.312581760814 -0.239900707984 0.0490325732576)
(-0.259968244298 -0.232918881114 0.0402203929754)
(-0.202363606685 -0.224733487354 0.0365564129712)
(-0.145990247622 -0.21595805966 0.0380649252969)
(-0.0978349540781 -0.207089868417 0.0431809227993)
(-0.0642733432716 -0.197558841747 0.0503881880488)
(-0.0456006937686 -0.18676524294 0.0574382632144)
(-0.0434878320296 -0.174182364778 0.0622461931472)
(-0.0517699434029 -0.163782985161 0.0601399099746)
(-0.0628602085711 -0.157657374791 0.0472086337849)
(-0.0702777917606 -0.160218020253 0.0187898263876)
(-0.0263161474649 -0.176097594424 0.00184296885893)
(-0.0396160774736 -0.231013755831 0.0647480075812)
(-0.0895077966251 -0.254846264711 0.0797867320958)
(-0.186149793857 -0.284208701526 0.113621738411)
(-0.279065724001 -0.31300447938 0.120046847029)
(-0.349996118771 -0.339297174242 0.106730936837)
(-0.388915199665 -0.357974954478 0.0854118046023)
(-0.393783066512 -0.367026606813 0.0629804743654)
(-0.367513904616 -0.367666456837 0.042226229762)
(-0.319927153441 -0.360719190139 0.0260643220036)
(-0.259577622509 -0.349949978458 0.0190884802914)
(-0.193590682689 -0.338027842977 0.0172086300216)
(-0.130642927875 -0.32581373499 0.0200348062855)
(-0.0774306548661 -0.313541316987 0.031139241297)
(-0.0402041463499 -0.300393530121 0.0421861443103)
(-0.0203424113701 -0.285615912 0.0542870085238)
(-0.0202160722642 -0.26771480629 0.0651602065805)
(-0.034294772067 -0.251378443022 0.0695040803234)
(-0.0539742519951 -0.238004971017 0.0590806650867)
(-0.0734975990335 -0.229823594308 0.0241539056475)
(-0.0306170728227 -0.232072272119 -0.00689779986908)
(-0.039007696921 -0.286878803678 0.0612109573297)
(-0.0971099963836 -0.329912458589 0.0807994128681)
(-0.205931531449 -0.36799223422 0.110787914631)
(-0.305306130559 -0.40160008873 0.1068189714)
(-0.377386343414 -0.429419422045 0.0836737160579)
(-0.411827751335 -0.447488633447 0.0541392608187)
(-0.409500460917 -0.454554867234 0.0272212774213)
(-0.375423506603 -0.45243988343 0.00527158098582)
(-0.319955654079 -0.443267901703 -0.00914679466297)
(-0.253230285489 -0.429161311537 -0.0153214416008)
(-0.183519894789 -0.415071457254 -0.0148692193109)
(-0.117337167961 -0.402081706095 -0.00839079495699)
(-0.0612362842045 -0.389726706961 0.00343894890424)
(-0.021794160458 -0.376730424576 0.0189825901848)
(-0.000565568804576 -0.36166701603 0.0363754338006)
(-0.000616578826988 -0.343393962945 0.0531032880522)
(-0.019095828172 -0.324952200747 0.0636264260565)
(-0.0453182558635 -0.307081391947 0.0593464328357)
(-0.0750632374633 -0.29080625151 0.0237681363699)
(-0.0346381177352 -0.27974188168 -0.0148386351594)
(-0.0376833720543 -0.329751772075 0.0569456455645)
(-0.10547488214 -0.385581512175 0.0742152803567)
(-0.223048553406 -0.426576034446 0.0970748463173)
(-0.326779303886 -0.459143021795 0.0843239127407)
(-0.397730957875 -0.483022479169 0.0528164906802)
(-0.426164580428 -0.49564501961 0.0179028052723)
(-0.416378646666 -0.497638794322 -0.0113917437876)
(-0.374564632471 -0.491139065546 -0.0329182670926)
(-0.31328322218 -0.478182673844 -0.0446344131525)
(-0.2435710013 -0.462803867553 -0.0479653259703)
(-0.173175725495 -0.448843127193 -0.0450544888567)
(-0.107060785389 -0.437627447448 -0.0367646982774)
(-0.0504498264805 -0.428372595886 -0.0239460944035)
(-0.00957004829172 -0.419059921863 -0.00643779400254)
(0.0126657976245 -0.407878852814 0.0136239824539)
(0.0120188415813 -0.392890071015 0.0346563234367)
(-0.00874599816665 -0.377004209741 0.0508913828533)
(-0.039585721171 -0.358026457832 0.0512696638051)
(-0.0774148951563 -0.338147589251 0.0183870795987)
(-0.0402779764609 -0.317226596076 -0.0214549676076)
(-0.0377232100626 -0.354704206026 0.0519492122912)
(-0.111463115263 -0.414288551547 0.0630404592052)
(-0.233787034242 -0.452799731752 0.0790628598233)
(-0.339473794477 -0.480137873491 0.0599620290501)
(-0.407613164765 -0.497335825228 0.0236646896863)
(-0.429994262638 -0.503472766489 -0.0134668406729)
(-0.41409269091 -0.500505893576 -0.0425575146443)
(-0.366508850781 -0.490296594615 -0.0617843868023)
(-0.302316336294 -0.475092586404 -0.0699382576117)
(-0.232765709401 -0.45934475437 -0.0702389035894)
(-0.164550270802 -0.44684017868 -0.0657146533244)
(-0.100860304404 -0.438567308402 -0.0572064816494)
(-0.0454751968761 -0.433318355691 -0.0450381015859)
(-0.00449030091333 -0.428862871515 -0.0277467505117)
(0.0180407991422 -0.42307417634 -0.0072162894239)
(0.0181389742996 -0.413461313647 0.016852717108)
(-0.00418499641519 -0.40107669584 0.0360383343852)
(-0.0379832786859 -0.385579508577 0.0393349499655)
(-0.0798608935505 -0.367254425553 0.0100370884658)
(-0.043405648082 -0.342321493098 -0.0294816600399)
(-0.0382626936784 -0.361825503765 0.0456193745742)
(-0.115348529036 -0.417681090137 0.0495843972079)
(-0.238674967054 -0.449237065327 0.060006629901)
(-0.344163872698 -0.468775676946 0.0369579789002)
(-0.409161585049 -0.478344507935 -0.00169815051297)
(-0.426259758386 -0.478102480965 -0.0383741302446)
(-0.40540282766 -0.470977481216 -0.0655074173871)
(-0.35368340785 -0.458296905326 -0.0813642112477)
(-0.28854865049 -0.44260145765 -0.0848470776175)
(-0.221287173468 -0.428972504031 -0.0807052396261)
(-0.157388988788 -0.419017299333 -0.0750146612686)
(-0.0981588812236 -0.413195248107 -0.0684647449296)
(-0.0453105184381 -0.411612347469 -0.0585855942327)
(-0.00512778936021 -0.411642150785 -0.0432418189245)
(0.0174683038665 -0.410836765894 -0.0240773143392)
(0.0188317959215 -0.406643997831 0.000227337021353)
(-0.00433157548043 -0.399296916339 0.019976614503)
(-0.0403623203215 -0.388585585279 0.026172290972)
(-0.0819486785567 -0.374494825459 2.88225962568e-05)
(-0.0461902601017 -0.351492062002 -0.0391109358498)
(-0.0411303454346 -0.357930436486 0.0363283907395)
(-0.119394677564 -0.398317582885 0.0364615297729)
(-0.239243245176 -0.4190794805 0.0432015329875)
(-0.342884259392 -0.430155266699 0.0193124694077)
(-0.404621904365 -0.433044619538 -0.0203804859348)
(-0.417606867514 -0.428369743545 -0.0551571068933)
(-0.393415828794 -0.419543728768 -0.0794479215504)
(-0.339512588238 -0.407235583809 -0.0910742626417)
(-0.276920072792 -0.395713736987 -0.0840433293138)
(-0.211836136094 -0.382519476863 -0.0811302829912)
(-0.153549059482 -0.374985395067 -0.07587648711)
(-0.0989277470728 -0.372493691819 -0.070753522652)
(-0.0487275624343 -0.373794089328 -0.0646070058334)
(-0.0099219567022 -0.376147159948 -0.0524453769756)
(0.0124608813755 -0.37839545562 -0.0356706614764)
(0.0149244108325 -0.378541097085 -0.0124703437312)
(-0.00784480950604 -0.376112160936 0.00721452199669)
(-0.04482009248 -0.370125043302 0.0132316774158)
(-0.0850978813701 -0.361702256443 -0.00877308943441)
(-0.0484736095123 -0.348510506367 -0.0476875258188)
(-0.0414598669839 -0.344583434302 0.0331016123737)
(-0.119176851309 -0.362141081394 0.0269613299115)
(-0.236872735307 -0.370063174954 0.0311567489713)
(-0.338303822463 -0.372822451844 0.00791449376236)
(-0.397275260477 -0.370411226745 -0.0318499223323)
(-0.407769327011 -0.363757871941 -0.0644320852448)
(-0.382120819259 -0.355667782649 -0.0862322654036)
(-0.328600212653 -0.346264889857 -0.0938857242655)
(-0.266404132099 -0.337242402638 -0.0857720579167)
(-0.206218935811 -0.330110168806 -0.0809426649399)
(-0.152573101414 -0.326294338552 -0.0743269350901)
(-0.101816963613 -0.325509614457 -0.0706354552052)
(-0.0551607295832 -0.32689270115 -0.0682977067809)
(-0.015995703262 -0.329827997787 -0.0570812798226)
(0.00595434846585 -0.33291361046 -0.042233705919)
(0.00922880446644 -0.335631621239 -0.0204237680111)
(-0.0125898590162 -0.33674404746 -0.00143492794714)
(-0.0486547583092 -0.336145325918 0.00336806710533)
(-0.0877578331 -0.334260750512 -0.0168204569301)
(-0.0508895697458 -0.333772710971 -0.0550246659906)
(-0.0421563733843 -0.318123285804 0.0304718732827)
(-0.11862955599 -0.312738613254 0.0206892720226)
(-0.233454344778 -0.30850286499 0.0242302380662)
(-0.332326567126 -0.303203412441 0.0015992347546)
(-0.389572452182 -0.29698789328 -0.036680463056)
(-0.39951455577 -0.290224749589 -0.0674650003575)
(-0.374488396478 -0.284450685797 -0.0879837602835)
(-0.322297872031 -0.279522400592 -0.0946012734141)
(-0.262232032629 -0.275573804886 -0.0859310918588)
(-0.204704397722 -0.274369328604 -0.0807589392449)
(-0.153442508121 -0.273867610267 -0.0742733590466)
(-0.104734531626 -0.274099941965 -0.0711570760327)
(-0.0599229232382 -0.275435210564 -0.0696482546171)
(-0.0212400435844 -0.276997367044 -0.0586376698973)
(0.00038125205159 -0.279790713233 -0.0444554261577)
(0.0038483298912 -0.284338721467 -0.0236247611263)
(-0.0172874872904 -0.288232132166 -0.00516554716645)
(-0.0518426532352 -0.292622542683 -0.000761447410909)
(-0.08928529195 -0.298354597442 -0.020997420377)
(-0.0520489623132 -0.309726847582 -0.0603935364933)
(-0.0420740804762 -0.28205844729 0.0301175701674)
(-0.116872907426 -0.256844785786 0.0184500701551)
(-0.229642845019 -0.241330932912 0.0223079468409)
(-0.326381652316 -0.229385229723 9.58581639356e-05)
(-0.383179672949 -0.219705685983 -0.0353576284621)
(-0.394232260433 -0.2131135061 -0.0650867602183)
(-0.371740495976 -0.209731436198 -0.0855312411193)
(-0.321777713311 -0.209257764719 -0.0939524558045)
(-0.265399651655 -0.208460706419 -0.0832780489674)
(-0.207096725805 -0.21412385944 -0.0817063810788)
(-0.156052239501 -0.217218669795 -0.0770044153488)
(-0.107619006572 -0.218572592845 -0.0735180021821)
(-0.0622487664147 -0.219429310224 -0.0687364444854)
(-0.0255597298404 -0.220545126034 -0.0576835647061)
(-0.00449534942994 -0.223330128811 -0.0427611348758)
(-0.0012185499301 -0.229500979842 -0.0220334334589)
(-0.0210864616054 -0.236184005292 -0.00402058514127)
(-0.0540079524252 -0.245257553423 8.5834321999e-05)
(-0.0899513340121 -0.257727025531 -0.0212570125321)
(-0.0519939655783 -0.278969744674 -0.0630847233467)
(-0.0431476742894 -0.241116093262 0.0283241579632)
(-0.11580702264 -0.202465368232 0.0190348269076)
(-0.224888618378 -0.177831777887 0.0253725719796)
(-0.319000470801 -0.159771326362 0.00545562776019)
(-0.37605641076 -0.146211342552 -0.0273259544327)
(-0.390152093433 -0.138465675731 -0.0566361280728)
(-0.371799825857 -0.136122618708 -0.0777227153767)
(-0.326118410576 -0.138336270114 -0.0886071365238)
(-0.270241339105 -0.144412260157 -0.0885714603776)
(-0.213702746497 -0.150240204357 -0.0826746279979)
(-0.160103156392 -0.154987989696 -0.0762010028893)
(-0.110243459315 -0.158821502185 -0.072175974991)
(-0.0650425332511 -0.161269420279 -0.0648846572687)
(-0.0297112908042 -0.163956950096 -0.0527295914672)
(-0.00902201675263 -0.168181976198 -0.036730835151)
(-0.00640733486101 -0.176541346 -0.0166072084822)
(-0.0254958748064 -0.186460415855 0.000354179364502)
(-0.0561550481771 -0.199734997127 0.00495942883366)
(-0.0896304266641 -0.216208351248 -0.0187822389118)
(-0.0507362600091 -0.244697492595 -0.0639355717453)
(-0.0445954080508 -0.199956598863 0.027395662034)
(-0.113470108435 -0.154488764507 0.0216068105967)
(-0.217271054695 -0.123779013459 0.0318842200386)
(-0.308564162957 -0.100344243435 0.0163342028118)
(-0.366622940819 -0.0825698835068 -0.0126762301104)
(-0.384656201751 -0.072732735091 -0.0415513969561)
(-0.371725834887 -0.0699918244314 -0.0631546732991)
(-0.331488164051 -0.0730243738061 -0.076263387569)
(-0.27885202669 -0.0809721542583 -0.079868162489)
(-0.222736940839 -0.09035945192 -0.0778366709184)
(-0.167818173627 -0.098096426602 -0.0729827059324)
(-0.116237337408 -0.103403422223 -0.0660185292891)
(-0.0707747639934 -0.108121515585 -0.0565093664417)
(-0.0359321737445 -0.11323638074 -0.0429720976652)
(-0.0158915893198 -0.120495347541 -0.0265677920002)
(-0.0137793265463 -0.132090628075 -0.0078508721487)
(-0.0314018662903 -0.145747686593 0.00663041045784)
(-0.0580269682407 -0.161136508307 0.0101745177588)
(-0.0892483048517 -0.179338056511 -0.0171789020188)
(-0.0495194773289 -0.210137179004 -0.0630714578641)
(-0.0455749839572 -0.162513485618 0.0272882529736)
(-0.109275356706 -0.117339375962 0.0242347424104)
(-0.205950605173 -0.083926849098 0.0393178758589)
(-0.293337187936 -0.0568991660943 0.0295444090438)
(-0.352651181338 -0.0353532164119 0.00494539140373)
(-0.375598949115 -0.023110540041 -0.0211413893534)
(-0.368831290992 -0.01918545497 -0.0420310020714)
(-0.334999533003 -0.0219865009734 -0.056718054396)
(-0.286424804115 -0.0305481626524 -0.0631887425447)
(-0.231800583759 -0.0411849412446 -0.063600236075)
(-0.176618292543 -0.0509226068948 -0.059888237496)
(-0.124754060616 -0.0588769597696 -0.0527473458496)
(-0.0795590127575 -0.0666345133847 -0.0424258846481)
(-0.0454879688589 -0.0747743212065 -0.0288838249757)
(-0.0263853384454 -0.0852332272376 -0.0134294123592)
(-0.0247461380462 -0.0998686471577 0.0027255164994)
(-0.0392995447877 -0.115489326528 0.0150092262356)
(-0.0609837320136 -0.131951791232 0.0143074853994)
(-0.0888020394843 -0.150058557658 -0.0156296203227)
(-0.0476073171224 -0.173901930262 -0.0606827199578)
(-0.0471136904756 -0.129278682714 0.0271578637686)
(-0.103037911858 -0.0923416309676 0.0249756144013)
(-0.190538408993 -0.0606216334727 0.0447923336668)
(-0.272967112626 -0.0330991899442 0.0424039122937)
(-0.332690125846 -0.0100556247884 0.0249608602225)
(-0.361036926134 0.00441453299643 0.00327273492139)
(-0.360781224025 0.00918476713897 -0.0155977281471)
(-0.334540863434 0.00709512972788 -0.0304299372681)
(-0.291476753017 -0.00109574382842 -0.0389591286437)
(-0.240053621912 -0.0123371501569 -0.0415521132873)
(-0.186389476718 -0.0234508833387 -0.0393717145897)
(-0.135892456216 -0.0334832985002 -0.033187948862)
(-0.0921157441678 -0.0435548962053 -0.0235101530379)
(-0.0593698156012 -0.0545138471732 -0.0115531973525)
(-0.0415035268905 -0.0672025477532 0.000893547945475)
(-0.0390973823627 -0.0827692553052 0.0134898622651)
(-0.0498294169613 -0.0982583455638 0.0206121997615)
(-0.0665381892642 -0.113628085619 0.0163650880821)
(-0.086140404034 -0.128032169615 -0.014984585194)
(-0.0423164410669 -0.142277342321 -0.0597054758921)
(-0.0474934608088 -0.100356413981 0.0271727829401)
(-0.0970476058399 -0.077090138785 0.0219418952589)
(-0.173585725945 -0.0512544940243 0.0443123055899)
(-0.249886521704 -0.0271325913677 0.0500332171695)
(-0.308551339368 -0.00622261616891 0.0408158778441)
(-0.341140215955 0.0074497152192 0.0255150556096)
(-0.347766732808 0.0118285013622 0.00986634246077)
(-0.328835114075 0.00974912674622 -0.00373867837282)
(-0.29225271246 0.00123470112999 -0.013941635549)
(-0.246031624476 -0.0100635554485 -0.0184114242509)
(-0.195852154949 -0.0215157620355 -0.0182110025839)
(-0.14809831595 -0.032093199171 -0.0142320373973)
(-0.107137877025 -0.0426706908916 -0.00743656733264)
(-0.0762044439776 -0.0533717880585 0.00270707967414)
(-0.0582202072088 -0.0652688415331 0.0117024377896)
(-0.0546661479092 -0.0787603369059 0.0188642762088)
(-0.0615374822498 -0.0919624138616 0.0215516999328)
(-0.0715349145316 -0.101976747638 0.0131639534965)
(-0.0824302604673 -0.109168538702 -0.017428199472)
(-0.037482741554 -0.111814581535 -0.0559549290717)
(-0.0469058340872 -0.0739459260442 0.0272349803769)
(-0.0938577898097 -0.0653355314906 0.0135290081195)
(-0.158925764335 -0.0495224101417 0.0330190740858)
(-0.227610052198 -0.0328783919654 0.0439821749878)
(-0.28288829836 -0.0179617398366 0.0428105882422)
(-0.316723268164 -0.00839009150872 0.033998879968)
(-0.328839332188 -0.00684920814123 0.022544837617)
(-0.317650074596 -0.00982537526446 0.0100496615494)
(-0.288907967718 -0.0183759528521 0.000446962022436)
(-0.249389674753 -0.0285617636071 -0.0048678425072)
(-0.204875357721 -0.0384749756729 -0.00614551964439)
(-0.161775814031 -0.0475350404904 -0.00445842771015)
(-0.123986681383 -0.056046403545 -0.000103730338885)
(-0.095290887273 -0.0639240428187 0.0052866234465)
(-0.0777852426038 -0.0720710493191 0.0103605802476)
(-0.071680389411 -0.0811607702512 0.0133708975997)
(-0.0725332239704 -0.0891660822863 0.0115013130052)
(-0.0749993183754 -0.0926173634707 0.00164501047024)
(-0.0761187938611 -0.0902705637357 -0.0236009740585)
(-0.0317208048053 -0.0801439303909 -0.0503174733008)
(-0.047949144994 -0.0481663408801 0.031090742897)
(-0.0983060143951 -0.0497407387305 0.00435105242973)
(-0.151945712971 -0.0477232143107 0.00914795923973)
(-0.210098643409 -0.0434307972873 0.0159242539459)
(-0.258380001647 -0.0389168220432 0.0167037057342)
(-0.2897300855 -0.0376729953153 0.0121217347834)
(-0.305877978619 -0.040234667426 0.00520092335034)
(-0.300919599246 -0.0440220922039 -0.00476646465434)
(-0.280765374208 -0.0506792723443 -0.0128764971544)
(-0.250582035508 -0.0574677702933 -0.0179100123384)
(-0.214876974094 -0.0642106086052 -0.0206798831697)
(-0.178997997635 -0.0705104236835 -0.0209496193467)
(-0.145862167092 -0.0764315426647 -0.0191314826758)
(-0.118911268846 -0.0816798263627 -0.0171248971638)
(-0.10020321079 -0.0830049730735 -0.0156409945924)
(-0.0906377734667 -0.0850290752604 -0.0148546667299)
(-0.084473644913 -0.0828539979735 -0.0161465833474)
(-0.0765473187018 -0.0777295727509 -0.0218591360624)
(-0.0671598266162 -0.0665871691561 -0.0337449602519)
(-0.0251109052063 -0.0477944290499 -0.0419255966963)
(-0.0502768830477 -0.0124618465129 0.041578122046)
(-0.11397619266 -0.0104750196888 0.0212342865246)
(-0.161612927689 -0.0111176018687 0.00979387730193)
(-0.205846239737 -0.0113032949777 0.0038930715351)
(-0.241846919581 -0.0119910000936 -0.00153413086832)
(-0.263882023634 -0.0151412444587 -0.00664506178913)
(-0.281766325051 -0.0206348633038 -0.0113825295348)
(-0.28114480365 -0.0229595773919 -0.0186419406793)
(-0.272548283471 -0.0272479347367 -0.0258206815212)
(-0.257666881121 -0.0318602005572 -0.0332290222911)
(-0.237113846974 -0.0352698271796 -0.0390700857167)
(-0.213393166756 -0.0380272744567 -0.043238627723)
(-0.187681248442 -0.0401888791125 -0.0453395890407)
(-0.159888084435 -0.041436584016 -0.0451392875474)
(-0.135219551859 -0.0387176000076 -0.0483328538007)
(-0.115546902234 -0.0370233358084 -0.0465985271376)
(-0.0967034146882 -0.0316303289178 -0.0447880225128)
(-0.0771228468236 -0.0273486397553 -0.0410016275994)
(-0.0566399900156 -0.0209129065136 -0.036044253867)
(-0.0185081687594 -0.0114979816533 -0.0266163831714)
(-0.0347290004211 -0.0229104026732 0.203671555327)
(-0.100347452068 -0.02324298257 0.178705159919)
(-0.176327042892 -0.0286203706916 0.168261457337)
(-0.252518001919 -0.0382912146203 0.16094734447)
(-0.310255134365 -0.0474755042787 0.147716600926)
(-0.343105087895 -0.053072173745 0.127516749427)
(-0.352903600671 -0.0547683906125 0.105790812219)
(-0.337644927071 -0.0531349175194 0.0838600891648)
(-0.304290757587 -0.050463672319 0.0662553901529)
(-0.261300476587 -0.0472774332043 0.0530011220916)
(-0.214340822459 -0.0446248741194 0.0445717431268)
(-0.167300662652 -0.0425213224692 0.0412972291042)
(-0.124098155512 -0.040979232507 0.0412318109232)
(-0.0907859033066 -0.0393026998496 0.0443992031915)
(-0.0693792383902 -0.0363435693265 0.0479781763961)
(-0.0595873165169 -0.0314048792627 0.0513568223932)
(-0.0598912497677 -0.0258145263039 0.0517006516567)
(-0.0647983266361 -0.0221760897693 0.0488361057815)
(-0.0644880677045 -0.0271645904096 0.0473490862226)
(-0.0298856142908 -0.0445918600482 0.0576846349193)
(-0.0213387397244 -0.0857834661079 0.186412803047)
(-0.109674951444 -0.115956826684 0.22526734427)
(-0.206303724577 -0.139598984317 0.251562467524)
(-0.293072142941 -0.161891567257 0.255785484136)
(-0.356539524008 -0.180135235864 0.240871610916)
(-0.391771233351 -0.193024586868 0.215897903325)
(-0.397692112945 -0.199306786567 0.184073003017)
(-0.376360471526 -0.199068999848 0.151489143824)
(-0.33329620933 -0.195084280738 0.124368349734)
(-0.276379802196 -0.189109090479 0.105867861455)
(-0.213816917014 -0.182976687378 0.0962372993159)
(-0.152337088323 -0.176710478602 0.0951053277937)
(-0.0974637732173 -0.169879490244 0.10008304928)
(-0.0545421991034 -0.162294561771 0.108559144388)
(-0.0267777462128 -0.15255739227 0.11732130299)
(-0.0140348036214 -0.139961967251 0.122652350577)
(-0.0137996708202 -0.125783987126 0.120166590549)
(-0.0223573296919 -0.113025385873 0.105199976238)
(-0.0342586010072 -0.108229098689 0.0738040971576)
(-0.0227304044824 -0.115892903319 0.0289413987001)
(-0.0220911331697 -0.177800176004 0.183373755444)
(-0.125618934661 -0.226220213443 0.258262961222)
(-0.229192988782 -0.255892138679 0.292640177566)
(-0.31941038057 -0.282064673795 0.289539803249)
(-0.38380179583 -0.304125683875 0.263821562686)
(-0.417885285105 -0.320071383389 0.226712786338)
(-0.421352939237 -0.32935629452 0.185738744202)
(-0.396770444657 -0.332769273603 0.147506381024)
(-0.349663846106 -0.330675220696 0.117155994599)
(-0.288103704073 -0.324111184304 0.0976985176419)
(-0.220254536077 -0.316338512734 0.0894852848956)
(-0.153225086473 -0.308217516851 0.0920155198421)
(-0.0929875598886 -0.294829334787 0.102779060083)
(-0.04466726428 -0.282719187639 0.117366971863)
(-0.0114916168346 -0.267730899382 0.133853665972)
(0.00591736279467 -0.249926793295 0.146490649313)
(0.00926657453929 -0.230797468022 0.149885340422)
(0.00150996110217 -0.212405945638 0.137055486066)
(-0.0154428229263 -0.198581760695 0.0941283394925)
(-0.0171905796339 -0.187359008898 0.0145482962317)
(-0.0308548998438 -0.270900356486 0.181584979753)
(-0.146390910499 -0.32619748196 0.266048073607)
(-0.25386054756 -0.356695852233 0.292553993327)
(-0.345704486214 -0.382565626848 0.276695296672)
(-0.4080480087 -0.40406203114 0.237261775417)
(-0.439091514811 -0.420657461931 0.18713564258)
(-0.439458581055 -0.431527518613 0.137052366353)
(-0.411469385359 -0.435927997096 0.0944233640894)
(-0.359987303945 -0.434603927251 0.0621224332154)
(-0.295017016699 -0.428979559298 0.044074884436)
(-0.22570248836 -0.420652596943 0.039072920865)
(-0.153252559807 -0.410441255217 0.045938428486)
(-0.089330584956 -0.397686722586 0.0626264208836)
(-0.0399062192105 -0.383126700342 0.0848792742292)
(-0.00192309498659 -0.365896582029 0.109719661655)
(0.0202475114308 -0.34661514013 0.132291108902)
(0.0272914839815 -0.325945830017 0.145532987848)
(0.0200064075055 -0.305229846787 0.140558275521)
(-0.000310645695448 -0.286456842268 0.0990081377063)
(-0.010723225217 -0.262667706632 0.00344357766701)
(-0.0401208140339 -0.347490438739 0.171970021943)
(-0.164631432173 -0.403987478205 0.253109017189)
(-0.276333146613 -0.432097313444 0.268592709802)
(-0.369356903232 -0.453710696334 0.239049735571)
(-0.430206217235 -0.471997589889 0.185002658009)
(-0.458207796353 -0.486956226779 0.122672798607)
(-0.45374033137 -0.496734569609 0.0652660366517)
(-0.420799122419 -0.500430515023 0.0194666471442)
(-0.366171717579 -0.498890864035 -0.0114489256785)
(-0.298254449547 -0.494043980193 -0.0266732255775)
(-0.225117099099 -0.48585923066 -0.0280230462447)
(-0.152569907186 -0.474803300147 -0.0170720531571)
(-0.0868191411676 -0.465463988144 0.00381517369204)
(-0.032437945216 -0.451171937905 0.0322159330724)
(0.00795578228719 -0.4350211629 0.0652389336977)
(0.0327082765982 -0.417080776971 0.0972631338198)
(0.0418927681505 -0.397846747783 0.120904818009)
(0.0348670904799 -0.378396064164 0.124261326482)
(0.0108081429701 -0.357173599548 0.0884713137113)
(-0.00514172765068 -0.325497896786 -0.0117524817042)
(-0.0461969880743 -0.399122211467 0.154607580007)
(-0.177680261348 -0.454078523967 0.226595887785)
(-0.293856421258 -0.478200896011 0.231257459238)
(-0.38859358943 -0.494795455685 0.18929058741)
(-0.44893417343 -0.50894336931 0.123969578333)
(-0.473820640172 -0.520185842149 0.052964394218)
(-0.464855866129 -0.527437052866 -0.00887328654427)
(-0.427057021101 -0.52995020775 -0.0548301741056)
(-0.368273886243 -0.527868990911 -0.0828007655851)
(-0.29713541741 -0.522556285652 -0.0940807795583)
(-0.221566974624 -0.515019926617 -0.091798289488)
(-0.147983904191 -0.506221837577 -0.0780370069596)
(-0.0810211804154 -0.49719516957 -0.0546336276936)
(-0.0247635679768 -0.486066734699 -0.0233178745086)
(0.0172901489994 -0.473388230275 0.0145320023388)
(0.0439360788622 -0.45882686261 0.05352885509)
(0.053681555873 -0.442898189485 0.0855233424245)
(0.0455941076514 -0.426348057959 0.0966416898569)
(0.0180062713463 -0.405831559353 0.0664973134241)
(-0.00220161519196 -0.370309606672 -0.0311060015144)
(-0.0482658402203 -0.424046331946 0.134203859387)
(-0.184558514563 -0.474043325496 0.192968446528)
(-0.304825553774 -0.493699219345 0.188535673348)
(-0.402064128639 -0.505601059515 0.137498927823)
(-0.462107576753 -0.515328555672 0.0643926709396)
(-0.484493865531 -0.522403363356 -0.0104334432441)
(-0.471649053219 -0.526363179499 -0.0728147206833)
(-0.429335331138 -0.526539298327 -0.116167254157)
(-0.366674065542 -0.523194932772 -0.139466194327)
(-0.292884352596 -0.517468794221 -0.146111851002)
(-0.21590057698 -0.510809948383 -0.140805720245)
(-0.141893707235 -0.504223664535 -0.126160259135)
(-0.0743773023588 -0.497909411054 -0.103163393454)
(-0.0172061719878 -0.490556285751 -0.0715542043806)
(0.0255634311069 -0.481900458381 -0.032554994033)
(0.0526750566348 -0.471675206882 0.009835557691)
(0.0617486475788 -0.460550930615 0.0470692095804)
(0.0517140822798 -0.447067695188 0.0635365321363)
(0.0218779948857 -0.429235244401 0.0383843593827)
(-0.00111227055044 -0.39540928183 -0.0547900555414)
(-0.0471248932932 -0.425281009259 0.111202085305)
(-0.185430555669 -0.465320899376 0.157856586396)
(-0.30926032189 -0.480570231769 0.146934262349)
(-0.408966556058 -0.488396250057 0.0906993106286)
(-0.469399225779 -0.49406864391 0.0142099131907)
(-0.489869547162 -0.497242395249 -0.0610168816127)
(-0.473907564311 -0.497739269643 -0.121132718152)
(-0.428091211035 -0.495421173206 -0.159961179301)
(-0.362415239184 -0.490766634178 -0.177644013817)
(-0.286957346888 -0.484835666723 -0.179326140538)
(-0.209736953598 -0.47915731014 -0.171519948084)
(-0.136290308989 -0.474794919847 -0.157563991244)
(-0.0691248554883 -0.47156846083 -0.137387735732)
(-0.0118783124581 -0.468330468317 -0.108470394749)
(0.0309553150345 -0.464046425739 -0.0711695344488)
(0.0575504691774 -0.45828206934 -0.0286900836622)
(0.0661355324483 -0.451379980028 0.0101098189459)
(0.0546750161101 -0.441647314834 0.0299525812192)
(0.021890544457 -0.427244509006 0.00791230617741)
(-0.00164482174616 -0.399231524495 -0.0803178356958)
(-0.0425202828534 -0.401534212076 0.0868935362675)
(-0.180581377383 -0.431002976778 0.126018714097)
(-0.30842525025 -0.442527775889 0.110932862631)
(-0.41019319988 -0.447480489812 0.0527675325542)
(-0.471294189502 -0.450183403495 -0.0235308899054)
(-0.490613397848 -0.450223628076 -0.0966985841503)
(-0.472694716772 -0.447916031368 -0.153037745048)
(-0.424698377932 -0.443626953666 -0.186577695088)
(-0.357172169662 -0.438071889756 -0.199028739951)
(-0.281406112823 -0.432254877506 -0.196995728084)
(-0.205290760371 -0.428002463885 -0.186788416978)
(-0.133291294081 -0.425742074889 -0.174241131824)
(-0.066914924466 -0.425018251359 -0.157640449322)
(-0.0101671769877 -0.42516077623 -0.133244910622)