/*--------------------------------*- C++ -*----------------------------------*\
| =========                 |                                                 |
| \\      /  F ield         | OpenFOAM: The Open Source CFD Toolbox           |
|  \\    /   O peration     | Version:  3.0.1                                 |
|   \\  /    A nd           | Web:      www.OpenFOAM.org                      |
|    \\/     M anipulation  |                                                 |
\*---------------------------------------------------------------------------*/
FoamFile
{
    version     2.0;
    format      ascii;
    class       volVectorField;
    location    "9.4";
    object      ddt0(rho,U);
}
// * * * * * * * * * * * * * * * * * * * * * * * * * * * * * * * * * * * * * //

dimensions      [1 -2 -2 0 0 0 0];

internalField   nonuniform List<vector> 
7968
(
(-0.0208051753485 -0.016090102004 0.0398070520603)
(-0.0325496319474 -0.0087977826048 0.0205489889195)
(-0.0410181056049 -0.00501410187255 0.00960179329109)
(-0.0489619600203 -0.00334727266564 0.00575848065922)
(-0.0511946414868 -0.00321927862983 0.00390690837112)
(-0.0462277787502 -0.00289262840599 0.00263294867547)
(-0.0386512958179 -0.00335782578565 0.000376338666279)
(-0.0222617677473 -0.00300768548233 -0.00194140791016)
(-0.00492039160335 -0.00230911035834 -0.00192376045063)
(0.0127311791516 -0.00148676440907 -0.0014733081262)
(0.0282089190196 -0.00110963448834 -0.000554454011277)
(0.0409029895366 -0.001100996542 0.0008700620224)
(0.0490469006473 -0.00175284300719 0.00256625771491)
(0.0498255107876 -0.00284267072828 0.00553237639329)
(0.0454913318887 -0.00436726001654 0.00799842101466)
(0.0332246526379 -0.00632202590424 0.0106672364001)
(0.0187675058905 -0.00917921422494 0.0124365118799)
(0.00522988675709 -0.012940118558 0.014370021537)
(-0.0077254765731 -0.019117993582 0.0187582377887)
(-0.00143223543539 -0.0283120330822 0.0298443101806)
(-0.011638694523 -0.0318570964104 0.0251283403205)
(-0.00989378399012 -0.0162033012278 0.00625257340193)
(-0.0345800833083 -0.0130828919984 0.0182835632544)
(-0.0626666326115 -0.016318693994 0.0288727456315)
(-0.0855772704825 -0.0232308923718 0.0326507351638)
(-0.0934466240828 -0.0310047314621 0.0318579129016)
(-0.0859494180674 -0.0358680709475 0.0272043537714)
(-0.0627979756504 -0.0386234769609 0.0203860943208)
(-0.029228726707 -0.0370316921902 0.0146193734822)
(0.00871319613608 -0.0345970413417 0.0117051680929)
(0.0449228356819 -0.0318755290252 0.0114656737771)
(0.075219894023 -0.0288413811451 0.0139668059193)
(0.0953924741245 -0.0258165445842 0.0177651483414)
(0.100745525767 -0.0222681151877 0.0223124758042)
(0.0923871463289 -0.0185850803791 0.0257948336043)
(0.0694921903465 -0.0145126436913 0.0274068498646)
(0.0382728483588 -0.0140243922652 0.0245168415441)
(0.00756268162343 -0.018624924986 0.016992677314)
(-0.0184583505445 -0.0317530515436 0.00582956260398)
(-0.00704507860524 -0.0557580844259 0.00931061613486)
(-0.00817243468349 -0.0589862496685 0.0188564148395)
(-0.00420851304558 -0.0616182632247 0.021338450748)
(-0.0453591675751 -0.0765409208807 0.0525892762724)
(-0.0875254639481 -0.0961093307018 0.0682659725444)
(-0.118553971002 -0.116158102173 0.069445787923)
(-0.129872007553 -0.130881884959 0.0617104495691)
(-0.119657622654 -0.139105994477 0.0506276102478)
(-0.0895296665118 -0.141340285129 0.0388574690248)
(-0.0456904210193 -0.13735021658 0.029641439979)
(0.00434253013248 -0.131886593495 0.0250968513276)
(0.0526690700795 -0.124823018256 0.0248559566453)
(0.0936280895009 -0.116970116929 0.0289444752664)
(0.121788605042 -0.109128169999 0.035412915965)
(0.131860007484 -0.0998880583859 0.0437243988136)
(0.123849190095 -0.0892667167906 0.0511958820184)
(0.0971731666149 -0.076850746425 0.0560209089579)
(0.0581047427786 -0.0665168795134 0.0538587098643)
(0.0159300461181 -0.0604127972923 0.0414400031007)
(-0.0240692674812 -0.0627582874851 0.014193239323)
(-0.0122602189199 -0.0784980282291 -0.00253304763828)
(-0.00745260718977 -0.085467570363 0.0174564939623)
(-0.00768516845333 -0.109897567971 0.033218801162)
(-0.0636344899081 -0.139234700715 0.0686747993734)
(-0.114891830791 -0.168247840591 0.0780448546234)
(-0.150838455132 -0.195189860508 0.0694066810228)
(-0.161425625056 -0.215163480651 0.0536203930466)
(-0.145583766083 -0.225663135321 0.0369501261648)
(-0.106836187801 -0.227974346161 0.0218227151746)
(-0.0548216150664 -0.22287834659 0.0105183087928)
(0.00293736352917 -0.213896815849 0.00819168924241)
(0.0598992595229 -0.203587670001 0.00979758661546)
(0.107344559824 -0.192758282627 0.0159709511642)
(0.140860940353 -0.181569154212 0.0259827092485)
(0.155122442462 -0.169171231438 0.0387397890394)
(0.148480734459 -0.154859998219 0.0510811209874)
(0.120039063493 -0.137263550163 0.0616188668416)
(0.0753476659683 -0.121047920665 0.0655596725803)
(0.0248159107382 -0.10767670153 0.0554330962711)
(-0.0273351069438 -0.0992384915911 0.0218356965886)
(-0.0167219609621 -0.101047194509 -0.0090067600366)
(-0.00745074979663 -0.108252948899 0.0162734453333)
(-0.0159696210036 -0.15308696877 0.0375969139738)
(-0.0836661330131 -0.1912825951 0.069237540338)
(-0.14177809115 -0.225369645519 0.0686855314703)
(-0.179264947657 -0.254054149023 0.0507842633499)
(-0.185714351268 -0.273558678852 0.0273453379555)
(-0.163088900586 -0.282514855543 0.00650988224791)
(-0.116839424216 -0.282611507312 -0.00964484718787)
(-0.0568111896524 -0.275735844218 -0.0189710706619)
(0.00733750631951 -0.263680412081 -0.0209018503002)
(0.0679200753669 -0.251645948851 -0.0172050837682)
(0.119066233784 -0.24042836585 -0.00843309108985)
(0.155717128011 -0.229052164715 0.00447078341503)
(0.172285839845 -0.21714816156 0.0205481633591)
(0.167424886187 -0.202814457316 0.0376517427153)
(0.139107165793 -0.18497514355 0.0536190025269)
(0.0903586186612 -0.166824290093 0.0633260435204)
(0.033575464831 -0.148942061608 0.0589673230135)
(-0.0286597687683 -0.132480180278 0.0246471681217)
(-0.0206959837792 -0.120416613089 -0.0139601459643)
(-0.0069943629171 -0.124138375829 0.0149485612007)
(-0.0254239943596 -0.181727810195 0.0350195117848)
(-0.101430685277 -0.223168918837 0.0597288108962)
(-0.164279601227 -0.256423603034 0.0508752272771)
(-0.201031176331 -0.281301758377 0.0250076964219)
(-0.202011752214 -0.295829064529 -0.00338683560213)
(-0.172315002882 -0.300111030908 -0.0262547511434)
(-0.118500031674 -0.296122607261 -0.0418557136078)
(-0.0526617533602 -0.28576011727 -0.0484774227753)
(0.0145676877767 -0.272877165638 -0.047695776288)
(0.0760699533911 -0.261200483641 -0.0417130355508)
(0.1276524501 -0.251919695419 -0.0313928727275)
(0.165183452259 -0.244035108708 -0.0174478317766)
(0.18334854992 -0.235926533322 0.000233944592321)
(0.179870741082 -0.225685491242 0.0197977516116)
(0.151254880531 -0.211382810408 0.0396637616149)
(0.100456592635 -0.19587430827 0.0547638092167)
(0.0392732887703 -0.177086454289 0.054707684955)
(-0.0304824226252 -0.157053731346 0.022994338338)
(-0.025931156096 -0.135083545164 -0.0174239559719)
(-0.00771335652603 -0.129055934194 0.0133833964385)
(-0.0324942121819 -0.189898612149 0.0281967211245)
(-0.113107845384 -0.229084357392 0.0463618495117)
(-0.178122011203 -0.257334551288 0.0316072457536)
(-0.212718307799 -0.275850777968 0.00127711021574)
(-0.208236428515 -0.284118994173 -0.0290840773315)
(-0.172634363832 -0.283596597327 -0.051566233368)
(-0.113153620222 -0.276074296266 -0.0648455834029)
(-0.0443481573684 -0.263614610764 -0.0679466799161)
(0.0228776263865 -0.250476934662 -0.0641945212361)
(0.0824532907661 -0.24033528016 -0.0566936826435)
(0.131964245747 -0.234150611881 -0.0462922329533)
(0.168599447884 -0.230611878381 -0.0331336082487)
(0.187141408277 -0.227594898907 -0.0159199716236)
(0.184221367068 -0.222977175026 0.00387976477247)
(0.156724793897 -0.214402126139 0.0266317763249)
(0.10472257576 -0.20278459702 0.0442115178235)
(0.0408914057152 -0.187527766908 0.0467456850048)
(-0.0326362124499 -0.169047967544 0.0182796688497)
(-0.0289209578388 -0.143689810416 -0.0221138876868)
(-0.00859117149499 -0.124761149363 0.0113609739046)
(-0.0371072775596 -0.180048295913 0.0193485767499)
(-0.119048875206 -0.212166848408 0.0320450938808)
(-0.184333430651 -0.23277081193 0.0136485146368)
(-0.21624607099 -0.243990610664 -0.0186769497268)
(-0.206872820583 -0.245887289074 -0.0486078643605)
(-0.166639084712 -0.241185709358 -0.0691040590024)
(-0.103123832163 -0.231158029468 -0.0791012398054)
(-0.0332798894286 -0.218108542314 -0.0776901631323)
(0.0318418451842 -0.20689038782 -0.0697319226618)
(0.0872893790589 -0.199275163461 -0.0611408210884)
(0.132604254172 -0.195741659014 -0.0526161129736)
(0.166983776176 -0.196201645155 -0.0418220751394)
(0.184974623563 -0.198012512684 -0.0266645799795)
(0.182362309343 -0.198759306055 -0.00836194536997)
(0.156230069673 -0.195959814389 0.0144664119568)
(0.103898607925 -0.189849158881 0.032712818127)
(0.0383920965834 -0.179718879418 0.0375140850539)
(-0.035012881445 -0.165726918344 0.0118869147297)
(-0.0319294450825 -0.142679880494 -0.0280983021154)
(-0.0103192905652 -0.113483127783 0.00950723841431)
(-0.0402119454579 -0.153874010505 0.0110455731803)
(-0.120503514264 -0.175504875982 0.0197515278011)
(-0.184609328709 -0.187751411594 0.00044697163713)
(-0.213763246433 -0.192365355787 -0.0326254894192)
(-0.200594498826 -0.189821236067 -0.0606625274099)
(-0.157239917468 -0.183274508572 -0.0783215545869)
(-0.0915609280889 -0.173383843733 -0.0842301142171)
(-0.0239897872055 -0.164064914413 -0.0731008398982)
(0.0390191615419 -0.153320195543 -0.0657910401426)
(0.0889448385983 -0.148033310157 -0.0577502438557)
(0.129694488738 -0.147851587961 -0.0506063524165)
(0.161454639362 -0.151444670322 -0.0436468642006)
(0.178292392536 -0.155979874422 -0.0316802560232)
(0.175679273576 -0.160239313384 -0.0158594365814)
(0.150866703368 -0.162232878121 0.00571912018696)
(0.0992564117161 -0.16135734358 0.0237265226008)
(0.0333288160497 -0.156554232751 0.0281899773957)
(-0.0385529437033 -0.148640190685 0.00622165470864)
(-0.0344090194957 -0.135285734241 -0.0334216167518)
(-0.0115461597176 -0.0997685435559 0.0102771642038)
(-0.0414875585501 -0.118157958233 0.00498593510694)
(-0.119396561716 -0.126971763772 0.011325534326)
(-0.181553556642 -0.130893092132 -0.00725064792048)
(-0.208354191678 -0.130050266947 -0.0401985184713)
(-0.192930707094 -0.125251743594 -0.0660441742438)
(-0.1482440946 -0.119141076049 -0.0812583642831)
(-0.0828662504639 -0.111823614071 -0.0833817398344)
(-0.0158556098897 -0.104909504436 -0.0704716651483)
(0.042458848751 -0.0998133861928 -0.0621851776289)
(0.0876718806792 -0.0981924314869 -0.0528198711726)
(0.124427652615 -0.0997199513971 -0.0471206174412)
(0.152813174719 -0.103640186864 -0.0435111864145)
(0.169873032795 -0.109099916713 -0.0327608719353)
(0.166977848425 -0.114679924259 -0.0189401501304)
(0.143190076361 -0.119732484874 0.00113954019769)
(0.0928678959317 -0.122858771827 0.018308368528)
(0.0283091220366 -0.123672830332 0.0216368230232)
(-0.041765663199 -0.122853446754 0.00122703346045)
(-0.0369529131803 -0.122192061406 -0.0378491847213)
(-0.0119507366022 -0.079710250429 0.00675478927909)
(-0.0407898696345 -0.0754211333471 0.00187042959003)
(-0.11662145938 -0.0720146926829 0.00797735334528)
(-0.176723635567 -0.0678459623091 -0.0103020352087)
(-0.202108308589 -0.0629925541967 -0.0417490477065)
(-0.186374647224 -0.0577194056908 -0.0659344205197)
(-0.142477520906 -0.0535606086926 -0.0799643342168)
(-0.0785302854289 -0.0503888386904 -0.0811267098806)
(-0.0137052263009 -0.0482384701544 -0.0676853750779)
(0.0418644863197 -0.0490649103884 -0.0591157055762)
(0.0845257803386 -0.0506975222819 -0.0498973607298)
(0.119037391453 -0.0533472080285 -0.0447846801824)
(0.145412729063 -0.0572667085076 -0.0420101783974)
(0.16188395353 -0.0617089366025 -0.0315151851837)
(0.158682105278 -0.0673661749121 -0.0184106856765)
(0.135309414317 -0.0746219747016 0.000621235535319)
(0.0862331947275 -0.0809387329034 0.0171237457384)
(0.02359853787 -0.0872184173367 0.0197511298169)
(-0.0442419442956 -0.0942513124326 -0.000540325038415)
(-0.03829385625 -0.105757957117 -0.0404922748187)
(-0.0130327816023 -0.0549577875125 0.00901372227416)
(-0.0406619713015 -0.0313838781567 0.00180244454589)
(-0.113723306892 -0.0168739358632 0.00831698216641)
(-0.171792594212 -0.00603121547256 -0.00927702907598)
(-0.196895417417 0.00243775762885 -0.0381808518595)
(-0.182418673115 0.00786157154269 -0.061385264394)
(-0.141196765004 0.00997541183327 -0.0753953121428)
(-0.0797579652556 0.00905415872702 -0.0782669653659)
(-0.0186115154077 0.00795264328705 -0.0637518748678)
(0.0373345497528 0.000675717583305 -0.0576711887533)
(0.079584249067 -0.00461016412449 -0.0502535195156)
(0.113569813608 -0.0084341552014 -0.0447245447807)
(0.140248927818 -0.0119314246416 -0.0388637720181)
(0.154541463556 -0.0162074452318 -0.0284246369982)
(0.150778515394 -0.0221804383281 -0.0147344740453)
(0.127373953602 -0.0313838991191 0.00410618781651)
(0.0797746693714 -0.0408400291721 0.0201080682466)
(0.0194103942854 -0.0521663638781 0.0225306836738)
(-0.046021957091 -0.0660936027676 0.000960809150442)
(-0.0385858261725 -0.0877637880466 -0.0415360411807)
(-0.0143443883021 -0.0327408532864 0.00974306126323)
(-0.0400469412714 0.00546611976376 0.00432912923389)
(-0.109516542242 0.0293991402121 0.0131442383211)
(-0.16514555336 0.0464946691363 -0.00223962696004)
(-0.190589368535 0.0590639749865 -0.0288029909333)
(-0.179262534032 0.0659204486376 -0.0517135062311)
(-0.142320788037 0.0673021735312 -0.0664509044687)
(-0.085435235049 0.0640193584601 -0.0717083576329)
(-0.0253331723958 0.0565982372951 -0.0670027222387)
(0.0285326058943 0.0489018762832 -0.0574704037067)
(0.0731383682983 0.0423420374369 -0.0476770202947)
(0.108165113712 0.0356931553892 -0.0422794061207)
(0.134269634724 0.0303986270808 -0.034204634402)
(0.147102503965 0.024530435491 -0.0224494264387)
(0.142822131976 0.0168701008887 -0.00767231081171)
(0.118934666247 0.00524690016894 0.0106100593042)
(0.07261383673 -0.00764394441179 0.0256113184678)
(0.0151183006321 -0.0231170506734 0.0282688176795)
(-0.0470784150357 -0.0413807672485 0.00453231176248)
(-0.0377309451093 -0.0702348895158 -0.0410626858977)
(-0.015703018716 -0.0133989858281 0.0109370236123)
(-0.0376890617809 0.0320173510161 0.00830097336841)
(-0.102189971791 0.0621583520673 0.0207511403847)
(-0.155195509536 0.084760400644 0.00940057358665)
(-0.181717268497 0.101720399344 -0.0137629500568)
(-0.174425331592 0.110852200558 -0.0363484296013)
(-0.14300705686 0.112871892497 -0.0517328124148)
(-0.0918287658973 0.109000644854 -0.059210580076)
(-0.0353770049339 0.0999302375267 -0.0580784159762)
(0.0175624803414 0.0889702587328 -0.0522342495734)
(0.0629564599583 0.0791362846873 -0.0445811417026)
(0.0994362209794 0.071301683882 -0.0359348168798)
(0.125383456905 0.0636119428592 -0.0257154637378)
(0.137464125085 0.0552295175277 -0.0126051985656)
(0.132447830904 0.0445279015984 0.00263783152369)
(0.108240280565 0.0297103293231 0.0196228334761)
(0.0638486011915 0.013333095125 0.0323162998068)
(0.0108752153483 -0.00455202807621 0.0339427499606)
(-0.0480312933513 -0.0246534920526 0.00687013486427)
(-0.0367572640667 -0.0556429959239 -0.0394820189541)
(-0.0164861914413 -0.000708920565816 0.0124522052623)
(-0.0333766556419 0.0446205429859 0.0118187212849)
(-0.0910918484378 0.07748930278 0.0287359743179)
(-0.140335683291 0.103792496833 0.0227249613551)
(-0.168140731127 0.124628352368 0.00356826423509)
(-0.165835078848 0.136398593204 -0.0164711560364)
(-0.140677960187 0.139704952853 -0.0313800677415)
(-0.0961731784435 0.136203625867 -0.0405063870473)
(-0.0442048009938 0.12663317222 -0.0422408788513)
(0.00676766462745 0.114555306305 -0.038837981106)
(0.0519013498873 0.102860718655 -0.0323417295451)
(0.0882057611031 0.0923983738787 -0.0235104162808)
(0.113543920867 0.0818061828061 -0.0124457805529)
(0.124610782926 0.0705455058248 0.000714092629923)
(0.118639627455 0.056827058108 0.0151212420226)
(0.0943636188393 0.0393000614627 0.0296565230611)
(0.053173594836 0.0211082433475 0.0398459767648)
(0.00539276286668 0.00220770336437 0.0378744711679)
(-0.0488254844955 -0.0176324858437 0.00852306704649)
(-0.0350649549714 -0.0421898792498 -0.0369394033123)
(-0.0178114893843 0.00563372505394 0.0135187494332)
(-0.0270290704629 0.04272506117 0.0130430932091)
(-0.0759289455543 0.0739122864898 0.0344423572882)
(-0.120287652538 0.100811748143 0.0353208760029)
(-0.1484614999 0.123266561134 0.0227871111279)
(-0.151646655605 0.137367503885 0.00668104065058)
(-0.133183885713 0.141701653475 -0.00644353140531)
(-0.0964571536854 0.138994119984 -0.0159265052434)
(-0.050393873277 0.12968469723 -0.0197460813146)
(-0.0030435182381 0.11715046714 -0.018547120909)
(0.0400924549627 0.104244924819 -0.0135644327401)
(0.0746575459374 0.091905892578 -0.00559919318526)
(0.0983150139352 0.0791847244845 0.00489991655005)
(0.107838891932 0.0657688754563 0.016567682687)
(0.100727800604 0.050221477033 0.0281589352685)
(0.0773408199524 0.0319519955603 0.03902130541)
(0.0401215882958 0.0140308131973 0.0445354853903)
(-0.00216481606262 -0.00335786788328 0.0393451552429)
(-0.0477571092274 -0.0192485105478 0.00873491376764)
(-0.0304200309635 -0.0344533494848 -0.0356957160325)
(-0.0181354974552 0.00596904286259 0.0144925876504)
(-0.0210754609592 0.0287396421185 0.0103562693581)
(-0.0592274747106 0.0541229600692 0.0341593444263)
(-0.0974850021821 0.0777500289211 0.0426786471108)
(-0.124599411594 0.0982710949243 0.0378021308657)
(-0.132000241243 0.111629069338 0.0275914134842)
(-0.120506782156 0.115782434559 0.0172056502765)
(-0.0915496339141 0.113196065987 0.0086115886303)
(-0.052283468511 0.104001609596 0.00341157758844)
(-0.0102944484468 0.0916616442953 0.00266233823125)
(0.028921544885 0.0787494306752 0.00567961005277)
(0.0603241154152 0.0662696079102 0.0115805887852)
(0.0813073486907 0.053532810008 0.0194729885876)
(0.0889900941778 0.0404171688027 0.0287349759693)
(0.0814977768508 0.0260644609721 0.037022310974)
(0.0593884792487 0.0101669264375 0.0430073804632)
(0.0263888451727 -0.004966551738 0.0444011701576)
(-0.00882981128059 -0.0166063989821 0.0354508212002)
(-0.0451414468839 -0.0250164376447 0.00567239597072)
(-0.0259026088075 -0.028299348704 -0.032376049346)
(-0.0182275447678 0.00323494308472 0.0153958384793)
(-0.0186307778957 0.0105687047787 0.00270458038711)
(-0.0448484530704 0.0261082118308 0.0236611813597)
(-0.075425262914 0.0424678554122 0.0371040680473)
(-0.0991043181813 0.0573527241446 0.0397836564229)
(-0.107783369309 0.0666012562187 0.0356033527869)
(-0.101834676805 0.0680971035342 0.0289842353213)
(-0.0805298086872 0.0648761369013 0.0212750085815)
(-0.0492923644575 0.0561521107009 0.0159880528177)
(-0.0144797157458 0.0451993954528 0.0142407261298)
(0.0187828387942 0.0341706318246 0.0156740020314)
(0.0453268244228 0.0237445031976 0.0192402383454)
(0.0625226612927 0.013772881461 0.0245288907301)
(0.0676900294973 0.0038063300567 0.0299007930672)
(0.0600541131458 -0.00670630625187 0.0345022479829)
(0.0406714950533 -0.017689791334 0.0366816770685)
(0.0139221878883 -0.0270452485572 0.033872866993)
(-0.0135256050242 -0.0317578353758 0.0236687801313)
(-0.0395697100463 -0.0303661907224 -0.000930801175386)
(-0.0203098391335 -0.0208397319641 -0.0271565949032)
(-0.0201601685964 -0.00173480291571 0.0198794926286)
(-0.0239201083596 -0.00613218938213 -0.00571705006916)
(-0.0379762549487 -0.00439617822179 0.00105658323515)
(-0.057826620883 -0.000541633085054 0.0104528250683)
(-0.0746369098888 0.0038066888825 0.0148486332237)
(-0.0809284189056 0.00565203913431 0.0148337877047)
(-0.0787319212305 0.00350951409647 0.0123984243202)
(-0.0637481672529 -4.89788236928e-05 0.00685299392065)
(-0.0413586986178 -0.0070658446285 0.00274406788139)
(-0.0161741535083 -0.0144761895084 0.00111523553)
(0.0081142869524 -0.0218784840795 0.00101751143155)
(0.0273924326207 -0.0288740155945 0.00251017223524)
(0.0398471955554 -0.0351557290109 0.00509957675853)
(0.0426099956398 -0.0396697803425 0.00694928750242)
(0.0358467392319 -0.0444598034682 0.00873982264983)
(0.0204927875832 -0.0479777253956 0.00905432234388)
(0.000988045071649 -0.0471265497145 0.00680621740107)
(-0.0160345085343 -0.0424872139118 0.000706163919622)
(-0.0313099540441 -0.0317669846836 -0.0111409393119)
(-0.0138879308809 -0.0127446226584 -0.0190972397522)
(-0.0246044862692 0.0025315896991 0.0310833024749)
(-0.0417750693305 0.00235244580077 0.0116410386251)
(-0.047920566826 0.00141381364102 0.00199330179749)
(-0.0537989152695 0.000783068686071 -0.0012049580555)
(-0.0571625440787 -0.000245470556052 -0.00302710885556)
(-0.0534733664134 -0.00272963893797 -0.00449645509142)
(-0.053324079893 -0.00778222511799 -0.00543159730723)
(-0.043252204234 -0.00994365182475 -0.00905463009678)
(-0.0328529812058 -0.0144268394136 -0.0121287497528)
(-0.0229111591233 -0.019249133209 -0.0159836152937)
(-0.0136552355266 -0.0228482602411 -0.0190796172971)
(-0.0062129350239 -0.0256963606381 -0.0214584500905)
(0.000199880532326 -0.0276604228518 -0.0231523528507)
(0.00135627182017 -0.0275745732789 -0.0257002102356)
(-0.00151454712634 -0.0270610570851 -0.0248597012857)
(-0.00551054831286 -0.0259402953688 -0.0228502698693)
(-0.0118706307376 -0.0212063395706 -0.0212749925176)
(-0.0166132190265 -0.0168317695781 -0.0179503558681)
(-0.0202810023863 -0.010324964522 -0.0133776389414)
(-0.00668325625015 -0.000316105018099 -0.00436931646977)
(-0.0073355895251 -8.4175877926e-06 0.0561070805315)
(-0.022033511976 0.000344549042289 0.03299398414)
(-0.0506430429083 -0.00545737259421 0.0278182012367)
(-0.0821525422368 -0.0149998211807 0.0282349483316)
(-0.102019071045 -0.0237787124754 0.0250432886743)
(-0.104677998218 -0.0285689015024 0.0177366493218)
(-0.0920722396148 -0.0296984199535 0.00938530724906)
(-0.0639796146836 -0.0281723542636 0.00186076443774)
(-0.0268999620834 -0.0252810324717 -0.00270943510442)
(0.0123851894192 -0.0220673355218 -0.00413716285378)
(0.0486266324007 -0.0195614918374 -0.00222931304022)
(0.0788776029815 -0.0177824580967 0.0031268153822)
(0.10038839318 -0.0166923002101 0.0101108356008)
(0.108640048313 -0.0153137058904 0.0185279017412)
(0.102403038613 -0.0128147905057 0.0261533938952)
(0.0827172790387 -0.00829972863679 0.0324257020046)
(0.0519786646555 -0.00306634317156 0.0347664661166)
(0.0165674601851 0.00027597546974 0.0333635712414)
(-0.0146494901643 -0.00439999114781 0.0324256105838)
(-0.013309029969 -0.0220444906511 0.0425932053762)
(0.00655676919711 -0.0191432811299 0.0410181352056)
(-0.0310362237168 -0.0483502658973 0.0834655387769)
(-0.0804791441957 -0.0724144463741 0.115276021299)
(-0.121736984556 -0.0941581702114 0.127551162563)
(-0.146722246573 -0.111734546705 0.123803686783)
(-0.151633110127 -0.123865434852 0.111076231759)
(-0.136225807928 -0.129775235377 0.0932100217696)
(-0.102730532479 -0.129999401898 0.0748363636737)
(-0.0562697282345 -0.126340196993 0.0610361073586)
(-0.00385528469717 -0.120834344262 0.0545426428172)
(0.0472473664488 -0.115313990846 0.0552825682895)
(0.0914189393423 -0.109798700662 0.0626174325071)
(0.124448599794 -0.104218608046 0.0743797497367)
(0.142170243563 -0.0971573543679 0.0878312249987)
(0.142276043909 -0.088150518621 0.0999426303509)
(0.125865388857 -0.0762625244261 0.107334998994)
(0.0960237656018 -0.0627160600665 0.106033381628)
(0.0576547801152 -0.0504475926784 0.0922640557224)
(0.0141318088281 -0.0449821969431 0.061844184771)
(-0.00719006231515 -0.0523863090605 0.0170214871958)
(0.00562698886953 -0.0689389503671 0.042724230587)
(-0.0472297874637 -0.116448551295 0.120237360599)
(-0.10357593013 -0.146063470838 0.159978054749)
(-0.147761138804 -0.171638791635 0.164796487722)
(-0.17365156078 -0.19319331021 0.150303391762)
(-0.177620642324 -0.209059381051 0.126264784815)
(-0.160095775055 -0.218678097215 0.0994644733)
(-0.123703843343 -0.222676865822 0.0755528602578)
(-0.073511247436 -0.221798579098 0.0587642770615)
(-0.0167067318661 -0.216315619705 0.0514374842884)
(0.0394794861117 -0.209625587222 0.0535394201452)
(0.0886361990197 -0.201638270508 0.0644005987245)
(0.127025728721 -0.192434538725 0.0815868843071)
(0.15056826912 -0.180232028493 0.101108540055)
(0.156064113964 -0.165902455466 0.1206402607)
(0.144442642563 -0.148887284767 0.135209079772)
(0.11796606146 -0.130506415235 0.139768658495)
(0.081123793734 -0.112701162148 0.128314531267)
(0.0331721856249 -0.0984260607254 0.0869521420785)
(-0.00142034582588 -0.0866690627128 0.00772804787664)
(-0.0028751631136 -0.1220940868 0.0470030778801)
(-0.0673423189628 -0.17580408234 0.134215226291)
(-0.127740969644 -0.205633300205 0.165968483536)
(-0.173372415779 -0.230619878194 0.158609665885)
(-0.197492284033 -0.251591915274 0.130931014206)
(-0.198883481832 -0.268138482406 0.094588876602)
(-0.178538531701 -0.279516268301 0.0590315867639)
(-0.139329908687 -0.285058936971 0.0306390595031)
(-0.0851984854078 -0.285256046879 0.0119599573642)
(-0.0249556188134 -0.281413566734 0.00617292996313)
(0.0334736608795 -0.274935159631 0.0113012397981)
(0.0851997443862 -0.266474776567 0.0263840182626)
(0.127202342177 -0.255383849077 0.0492452429423)
(0.154740196036 -0.242287665778 0.0758171859384)
(0.164175808053 -0.226454061393 0.103487361272)
(0.157198775023 -0.208370887968 0.127631636129)
(0.134589597892 -0.18883803583 0.141774571612)
(0.0987296005104 -0.169090001866 0.137897500153)
(0.0478126916702 -0.150547630738 0.0983213566547)
(0.00489901232346 -0.126942228752 0.00333830254384)
(-0.0117560498494 -0.164096916391 0.0449177358128)
(-0.0849330203574 -0.218769329615 0.13025885025)
(-0.14981815909 -0.246178801472 0.151204909924)
(-0.196665532664 -0.267147587375 0.130677291671)
(-0.219579688249 -0.285350487198 0.0889523818)
(-0.218309306498 -0.300405945354 0.0411883267112)
(-0.193957679392 -0.311104930259 -0.00140790787924)
(-0.150221344086 -0.316626275363 -0.0327936783136)
(-0.0932485747414 -0.316923964486 -0.0502865856619)
(-0.030564074253 -0.314458727987 -0.0537755480942)
(0.0307669730944 -0.308764315672 -0.0453008680331)
(0.0854389414676 -0.301036271696 -0.0265127815781)
(0.129440157952 -0.290579703955 0.000368254446878)
(0.159144627661 -0.279109496991 0.0328708689628)
(0.172069655194 -0.264766909613 0.0683826755731)
(0.168086000559 -0.248331478406 0.101539796675)
(0.147821888786 -0.230417102929 0.12576207198)
(0.112639567289 -0.212089103212 0.129950128473)
(0.0582125159483 -0.191472716309 0.096070656056)
(0.0101236919489 -0.160337241298 -0.0036616237237)
(-0.0174271223311 -0.187371787747 0.0368640338208)
(-0.0975478546071 -0.240514364291 0.114495618815)
(-0.167321496353 -0.264124995099 0.124924564999)
(-0.216162112939 -0.280409421001 0.0924456834957)
(-0.238725778459 -0.294713383493 0.0390258637886)
(-0.234745786132 -0.306764466516 -0.0162142063302)
(-0.206661205044 -0.31555539183 -0.0629142746702)
(-0.158519303509 -0.320178630958 -0.0945415727377)
(-0.0976585760938 -0.320494889627 -0.109298651328)
(-0.0319389098182 -0.31774133133 -0.109180492017)
(0.0317409884647 -0.312821628013 -0.0974430509731)
(0.0881289227515 -0.306567837791 -0.0762243825523)
(0.13358920761 -0.299152998123 -0.047233433853)
(0.164977330414 -0.290097363022 -0.0119117620816)
(0.179782670168 -0.279069854101 0.0281006440111)
(0.177788064792 -0.266016020157 0.0679658748245)
(0.158358564355 -0.251632634208 0.100207071673)
(0.122405510581 -0.236215728476 0.111901358056)
(0.0646616255868 -0.216571708165 0.0835934728312)
(0.0126410035152 -0.181893691674 -0.0142185466896)
(-0.0190676276979 -0.190826601251 0.0271403635873)
(-0.104147677751 -0.239445191006 0.0926289690322)
(-0.178569137517 -0.258960831733 0.0943096654459)
(-0.229994101465 -0.270945599382 0.0533224372279)
(-0.252896847258 -0.28105568997 -0.00666460796657)
(-0.247180940777 -0.289706472412 -0.0665144946736)
(-0.215625407193 -0.295710266565 -0.113897300696)
(-0.163281422477 -0.298363786943 -0.143220222418)
(-0.0986757663667 -0.297684000861 -0.153675724972)
(-0.0303206476853 -0.294673527561 -0.149245319207)
(0.0348774204471 -0.290667508345 -0.13480170116)
(0.0920037437189 -0.286538040005 -0.11298944807)
(0.138242699842 -0.282365725608 -0.0846536252536)
(0.17070477441 -0.277097142235 -0.0493737382998)
(0.186582784125 -0.270281094569 -0.00827402854331)
(0.185096747297 -0.261595849374 0.0348831561959)
(0.165149801881 -0.251897003704 0.0720448648449)
(0.12761725497 -0.239910711593 0.088811151642)
(0.0675482649816 -0.223077630519 0.0651491009778)
(0.0130819936675 -0.19007065608 -0.0286236551106)
(-0.017795122207 -0.176426993584 0.0160556800269)
(-0.105323560637 -0.217221261301 0.0697718217928)
(-0.183756253813 -0.232949540969 0.0651564617549)
(-0.237794888298 -0.241456421494 0.0192995284122)
(-0.261648859927 -0.248020737603 -0.0437891532892)
(-0.2547044615 -0.253012639894 -0.104342918818)
(-0.220401708332 -0.255772609814 -0.149737375841)
(-0.164761163216 -0.256039639221 -0.175047328254)
(-0.0971860189952 -0.254150517615 -0.180221086586)
(-0.0270814770306 -0.250977925032 -0.171170592319)
(0.038541254469 -0.24789387814 -0.154518695781)
(0.0953282869349 -0.245871655276 -0.133605916416)
(0.141412361524 -0.244884616112 -0.10812452645)
(0.174137493913 -0.243782391013 -0.0756770679636)
(0.190312951361 -0.24154972601 -0.0363659151873)
(0.188724198425 -0.237655229871 0.00682626914457)
(0.168201389431 -0.23225537987 0.045473158992)
(0.129278441568 -0.22424707388 0.0651606956241)
(0.0666938082208 -0.211072255176 0.0442133475221)
(0.0120953918009 -0.183620172677 -0.0445347347895)
(-0.0146529073521 -0.145633083947 0.00570294609931)
(-0.102752381067 -0.177738989725 0.0503001943587)
(-0.184219676105 -0.190142885513 0.0417690361712)
(-0.240394141806 -0.195970328374 -0.00589608368342)
(-0.265276554705 -0.199877943169 -0.0693237627089)
(-0.25769368064 -0.201804754985 -0.128174012976)
(-0.221715854754 -0.201790254056 -0.170042799501)
(-0.164092413707 -0.199964621834 -0.190350197423)
(-0.0948032915873 -0.197121013432 -0.190563921353)
(-0.0242296573628 -0.193831506943 -0.178310768477)
(0.0405783346659 -0.19199259255 -0.159486111572)
(0.096093713031 -0.191971646574 -0.140014696929)
(0.141468861887 -0.193553571838 -0.11804956009)