/*--------------------------------*- C++ -*----------------------------------*\
| =========                 |                                                 |
| \\      /  F ield         | OpenFOAM: The Open Source CFD Toolbox           |
|  \\    /   O peration     | Version:  3.0.1                                 |
|   \\  /    A nd           | Web:      www.OpenFOAM.org                      |
|    \\/     M anipulation  |                                                 |
\*---------------------------------------------------------------------------*/
FoamFile
{
    version     2.0;
    format      ascii;
    class       surfaceScalarField;
    location    "9.4";
    object      meshPhiCN_0;
}
// * * * * * * * * * * * * * * * * * * * * * * * * * * * * * * * * * * * * * //

dimensions      [0 3 -1 0 0 0 0];

internalField   nonuniform List<scalar> 
22672
(
0
0
0
0
0
0
0
0
0
0
0
0
0
0
0
0
0
0
0
0
0
0
0
0
0
0
0
0
0
0
0
0
0
0
0
0
0
0
0
0
0
0
0
0
0
0
0
0
0
0
0
0
0
0
0
0
0
0
0
0
0
0
0
0
0
0
0
0
0
0
0
0
0
0
0
0
0
0
0
0
0
0
0
0
0
0
0
0
0
0
0
0
0
0
0
0
0
0
0
0
0
0
0
0
0
0
0
0
0
0
0
0
0
0
0
0
0
0
0
0
0
0
0
0
0
0
0
0
0
0
0
0
0
0
0
0
0
0
0
0
0
0
0
0
0
0
0
0
0
0
0
0
0
0
0
0
0
0
0
0
0
0
0
0
0
0
0
0
0
0
0
0
0
0
0
0
0
0
0
0
0
0
0
0
0
0
0
0
0
0
0
0
0
0
0
0
0
0
0
0
0
0
0
0
0
0
0
0
0
0
0
0
0
0
0
0
0
0
0
0
0
0
0
0
0
0
0
0
0
0
0
0
0
0
0
0
0
0
0
0
0
0
0
0
0
0
0
0
0
0
0
0
0
0
0
0
0
0
0
0
0
0
0
0
0
0
0
0
0
0
0
0
0
0
0
0
0
0
0
0
0
0
0
0
0
0
0
0
0
0
0
0
0
0
0
0
0
0
0
0
0
0
0
0
0
0
0
0
0
0
0
0
0
0
0
0
0
0
0
0
0
0
0
0
0
0
0
0
0
0
0
0
0
0
0
0
0
0
0
0
0
0
0
0
0
0
0
0
0
0
0
0
0
0
0
0
0
0
0
0
0
0
0
0
0
0
0
0
0
0
0
0
0
0
0
0
0
0
0
0
0
0
0
0
0
0
0
0
0
0
0
0
0
0
0
0
0
0
0
0
0
0
0
0
0
0
0
0
0
0
0
0
0
0
0
0
0
0
0
0
0
0
0
0
0
0
0
0
0
0
0
0
0
0
0
0
0
0
0
0
0
0
0
0
0
0
0
0
0
0
0
0
0
0
0
0
0
0
0
0
0
0
0
0
0
0
0
0
0
0
0
0
0
0
0
0
0
0
0
0
0
0
0
0
0
0
0
0
0
0
0
0
0
0
0
0
0
0
0
0
0
0
0
0
0
0
0
0
0
0
0
0
0
0
0
0
0
0
0
0
0
0
0
0
0
0
0
0
0
0
0
0
0
0
0
0
0
0
0
0
0
0
0
0
0
0
0
0
0
0
0
0
0
0
0
0
0
0
0
0
0
0
0
0
0
0
0
0
0
0
0
0
0
0
0
0
0
0
0
0
0
0
0
0
0
0
0
0
0
0
0
0
0
0
0
0
0
0
0
0
0
0
0
0
0
0
0
0
0
0
0
0
0
0
0
0
0
0
0
0
0
0
0
0
0
0
0
0
0
0
0
0
0
0
0
0
0
0
0
0
0
0
0
0
0
0
0
0
0
0
0
0
0
0
0
0
0
0
0
0
0
0
0
0
0
0
0
0
0
0
0
0
0
0
0
0
0
0
0
0
0
0
0
0
0
0
0
0
0
0
0
0
0
0
0
0
0
0
0
0
0
0
0
0
0
0
0
0
0
0
0
0
0
0
0
0
0
0
0
0
0
0
0
0
0
0
0
0
0
0
0
0
0
0
0
0
0
0
0
0
0
0
0
0
0
0
0
0
0
0
0
0
0
0
0
0
0
0
0
0
0
0
0
0
0
0
0
0
0
0
0
0
0
0
0
0
0
0
0
0
0
0
0
0
0
0
0
0
0
0
0
0
0
0
0
0
0
0
0
0
0
0
0
0
0
0
0
0
0
0
0
0
0
0
0
0
0
0
0
0
0
0
0
0
0
0
0
0
0
0
0
0
0
0
0
0
0
0
0
0
0
0
0
0
0
0
0
0
0
0
0
0
0
0
0
0
0
0
0
0
0
0
0
0
0
0
0
0
0
0
0
0
0
0
0
0
0
0
0
0
0
0
0
0
0
0
0
0
0
0
0
0
0
0
0
0
0
0
0
0
0
0
0
0
0
0
0
0
0
0
0
0
0
0
0
0
0
0
0
0
0
0
0
0
0
0
0
0
0
0
0
0
0
0
0
0
0
0
0
0
0
0
0
0
0
0
0
0
0
0
0
0
0
0
0
0
0
0
0
0
0
0
0
0
0
0
0
0
0
0
0
0
0
0
0
0
0
0
0
0
0
0
0
0
0
0
0
0
0
0
0
0
0
0
0
0
0
0
0
0
0
0
0
0
0
0
0
0
0
0
0
0
0
0
0
0
0
0
0
0
0
0
0
0
0
0
0
0
0
0
0
0
0
0
0
0
0
0
0
0
0
0
0
0
0
0
0
0
0
0
0
0
0
0
0
0
0
0
0
0
0
0
0
0
0
0
0
0
0
0
0
0
0
0
0
0
0
0
0
0
0
0
0
0
0
0
0
0
0
0
0
0
0
0
0
0
0
0
0
0
0
0
0
0
0
0
0
0
0
0
0
0
0
0
0
0
0
0
0
0
0
0
0
0
0
0
0
0
0
0
0
0
0
0
0
0
0
0
0
0
0
0
0
0
0
0
0
0
0
0
0
0
0
0
0
0
0
0
0
0
0
0
0
0
0
0
0
0
0
0
0
0
0
0
0
0
0
0
0
0
0
0
0
0
0
0
0
0
0
0
0
0
0
0
0
0
0
0
0
0
0
0
0
0
0
0
0
0
0
0
0
0
0
0
0
0
0
0
0
0
0
0
0
0
0
0
0
0
0
0
0
0
0
0
0
0
0
0
0
0
0
0
0
0
0
0
0
0
0
0
0
0
0
0
0
0
0
0
0
0
0
0
0
0
0
0
0
0
0
0
0
0
0
0
0
0
0
0
0
0
0
0
0
0
0
0
0
0
0
0
0
0
0
0
0
0
0
0
0
0
0
0
0
0
0
0
0
0
0
0
0
0
0
0
0
0
0
0
0
0
0
0
0
0
0
0
0
0
0
0
0
0
0
0
0
0
0
0
0
0
0
0
0
0
0
0
0
0
0
0
0
0
0
0
0
0
0
0
0
0
0
0
0
0
0
0
0
0
0
0
0
0
0
0
0
0
0
0
0
0
0
0
0
0
0
0
0
0
0
0
0
0
0
0
0
0
0
0
0
0
0
0
0
0
0
0
0
0
0
0
0
0
0
0
0
0
0
0
0
0
0
0
0
0
0
0
0
0
0
0
0
0
0
0
0
0
0
0
0
0
0
0
0
0
0
0
0
0
0
0
0
0
0
0
0
0
0
0
0
0
0
0
0
0
0
0
0
0
0
0
0
0
0
0
0
0
0
0
0
0
0
0
0
0
0
0
0
0
0
0
0
0
0
0
0
0
0
0
0
0
0
0
0
0
0
0
0
0
0
0
0
0
0
0
0
0
0
0
0
0
0
0
0
0
0
0
0
0
0
0
0
0
0
0
0
0
0
0
0
0
0
0
0
0
0
0
0
0
0
0
0
0
0
0
0
0
0
0
0
0
0
0
0
0
0
0
0
0
0
0
0
0
0
0
0
0
0
0
0
0
0
0
0
0
0
0
0
0
0
0
0
0
0
0
0
0
0
0
0
0
0
0
0
0
0
0
0
0
0
0
0
0
0
0
0
0
0
0
0
0
0
0
0
0
0
0
0
0
0
0
0
0
0
0
0
0
0
0
0
0
0
0
0
0
0
0
0
0
0
0
0
0
0
0
0
0
0
0
0
0
0
0
0
0
0
0
0
0
0
0
0
0
0
0
0
0
0
0
0
0
0
0
0
0
0
0
0
0
0
0
0
0
0
0
0
0
0
0
0
0
0
0
0
0
0
0
0
0
0
0
0
0
0
0
0
0
0
0
0
0
0
0
0
0
0
0
0
0
0
0
0
0
0
0
0
0
0
0
0
0
0
0
0
0
0
0
0
0
0
0
0
0
0
0
0
0
0
0
0
0
0
0
0
0
0
0
0
0
0
0
0
0
0
0
0
0
0
0
0
0
0
0
0
0
0
0
0
0
0
0
0
0
0
0
0
0
0
0
0
0
0
0
0
0
0
0
0
0
0
0
0
0
0
0
0
0
0
0
0
0
0
0
0
0
0
0
0
0
0
0
0
0
0
0
0
0
0
0
0
0
0
0
0
0
0
0
0
0
0
0
0
0
0
0
0
0
0
0
0
0
0
0
0
0
0
0
0
0
0
0
0
0
0
0
0
0
0
0
0
0
0
0
0
0
0
0
0
0
0
0
0
0
0
0
0
0
0
0
0
0
0
0
0
0
0
0
0
0
0
0
0
0
0
0
0
0
0
0
0
0
0
0
0
0
0
0
0
0
0
0
0
0
0
0
0
0
0
0
0
0
0
0
0
0
0
0
0
0
0
0
0
0
0
0
0
0
0
0
0
0
0
0
0
0
0
0
0
0
0
0
0
0
0
0
0
0
0
0
0
0
0
0
0
0
0
0
0
0
0
0
0
0
0
0
0
0
0
0
0
0
0
0
0
0
0
0
0
0
0
0
0
0
0
0
0
0
0
0
0
0
0
0
0
0
0
0
0
0
0
0
0
0
0
0
0
0
0
0
0
0
0
0
0
0
0
0
0
0
0
0
0
0
0
0
0
0
0
0
0
0
0
0
0
0
0
0
0
0
0
0
0
0
0
0
0
0
0
0
0
0
0
0
0
0
0
0
0
0
0
0
0
0
0
0
0
0
0
0
0
0
0
0
0
0
0
0
0
0
0
0
0
0
0
0
0
0
0
0
0
0
0
0
0
0
0
0
0
0
0
0
0
0
0
0
0
0
0
0
0
0
0
0
0
0
0
0
0
0
0
0
0
0
0
0
0
0
0
0
0
0
0
0
0
0
0
0
0
0
0
0
0
0
0
0
0
0
0
0
0
0
0
0
0
0
0
0
0
0
0
0
0
0
0
0
0
0
0
0
0
0
0
0
0
0
0
0
0
0
0
0
0
0
0
0
0
0
0
0
0
0
0
0
0
0
0
0
0
0
0
0
0
0
0
0
0
0
0
0
0
0
0
0
0
0
0
0
0
0
0
0
0
0
0
0
0
0
0
0
0
0
0
0
0
0
0
0
0
0
0
0
0
0
0
0
0
0
0
0
0
0
0
0
0
0
0
0
0
0
0
0
0
0
0
0
0
0
0
0
0
0
0
0
0
0
0
0
0
0
0
0
0
0
0
0
0
0
0
0
0
0
0
0
0
0
0
0
0
0
0
0
0
0
0
0
0
0
0
0
0
0
0
0
0
0
0
0
0
0
0
0
0
0
0
0
0
0
0
0
0
0
0
0
0
0
0
0
0
0
0
0
0
0
0
0
0
0
0
0
0
0
0
0
0
0
0
0
0
0
0
0
0
0
0
0
0
0
0
0
0
0
0
0
0
0
0
0
0
0
0
0
0
0
0
0
0
0
0
0
0
0
0
0
0
0
0
0
0
0
0
0
0
0
0
0
0
0
0
0
0
0
0
0
0
0
0
0
0
0
0
0
0
0
0
0
0
0
0
0
0
0
0
0
0
0
0
0
0
0
0
0
0
0
0
0
0
0
0
0
0
0
0
0
0
0
0
0
0
0
0
0
0
0
0
0
0
0
0
0
0
0
0
0
0
0
0
0
0
0
0
0
0
0
0
0
0
0
0
0
0
0
0
0
0
0
0
0
0
0
0
0
0
0
0
0
0
0
0
0
0
0
0
0
0
0
0
0
0
0
0
0
0
0
0
0
0
0
0
0
0
0
0
0
0
0
0
0
0
0
0
0
0
0
0
0
3.89592192112e-09
-4.57577671789e-09
2.44511374605e-10
7.01224834962e-09
-1.25569033254e-08
6.08810387947e-10
7.01092096353e-09
-1.57045407722e-08
6.52561436791e-10
7.00959351552e-09
-1.52521142808e-08
5.02791602985e-10
7.00826613045e-09
-1.47997286045e-08
3.53062593724e-10
7.00693869658e-09
-1.43473836831e-08
2.03374348079e-10
3.89345155695e-09
-1.08434655334e-08
5.83337563264e-11
0
-3.7962856065e-09
-5.93350073919e-12
0
0
0
0
0
0
0
0
0
0
0
0
0
0
0
0
0
0
0
0
0
0
0
0
0
0
0
0
0
0
0
0
1.07545528249e-08
-1.33980080768e-08
5.9417468166e-10
3.26595076853e-08
-4.80125937458e-08
2.11074403027e-09
4.39392322541e-08
-7.68632579637e-08
3.08475001592e-09
4.39057510222e-08
-8.34432460795e-08
2.66790738754e-09
4.38722692396e-08
-8.10358316395e-08
1.71936870089e-09
4.38387873814e-08
-7.86295677977e-08
7.71940038544e-10
4.38053049802e-08
-7.62244545579e-08
-1.74378695909e-10
3.25308345201e-08
-6.55500506746e-08
-9.35389836729e-10
1.07282460454e-08
-3.83557837059e-08
-9.5850281622e-10
0
-1.03487572652e-08
-3.50849411795e-10
0
0
0
0
0
0
0
0
0
0
0
0
0
0
0
0
0
0
0
0
0
0
0
0
0
0
3.64565014124e-09
-4.82905960058e-09
1.72478362647e-10
3.84207866881e-08
-4.0617192864e-08
1.76979458268e-09
8.28691293967e-08
-1.03437400046e-07
4.20648171583e-09
1.01988931866e-07
-1.44874629348e-07
4.64167523566e-09
1.01941417701e-07
-1.52518616634e-07
2.97235097762e-09
1.01893903412e-07
-1.48114366659e-07
7.17623101642e-10
1.01846389094e-07
-1.4371395893e-07
-1.53441187732e-09
1.01798874366e-07
-1.39317393389e-07
-3.78375397091e-09
8.26385105231e-08
-1.22795365389e-07
-5.32010514922e-09
3.82982348957e-08
-8.11152772901e-08
-4.65682193961e-09
3.64157490642e-09
-3.04868539675e-08
-2.05663072748e-09
0
-3.5451041816e-09
-2.43739065779e-10
0
0
0
0
0
0
0
0
0
0
0
0
0
0
0
0
0
0
0
0
0
0
0
9.95745576488e-09
-8.69272150211e-09
3.43062737006e-10
6.10542887324e-08
-5.46632211692e-08
1.85646658393e-09
1.15209681439e-07
-1.27321733906e-07
3.01661959199e-09
1.37569867033e-07
-1.72843722645e-07
1.69210699243e-09
1.3763391359e-07
-1.80598283121e-07
-1.17406627915e-09
1.37697960944e-07
-1.75384654144e-07
-4.34708292525e-09
1.37762009588e-07
-1.70176412766e-07
-7.51855310113e-09
1.37826059215e-07
-1.64973558973e-07
-1.06884767467e-08
1.15457911358e-07
-1.46185285264e-07
-1.2431505205e-08
6.11111237307e-08
-9.92039756262e-08
-1.0285091837e-08
9.95281738672e-09
-4.05984062842e-08
-4.83738756367e-09
0
-6.3510820452e-09
-8.17277134114e-10
0
0
0
0
0
0
0
0
0
0
0
0
0
0
0
0
0
0
0
0
0
0
0
1.23616965495e-08
-8.69318629828e-09
1.9998989619e-10
6.5720884101e-08
-5.46755988556e-08
4.53893780661e-10
1.20311537824e-07
-1.27344546596e-07
-7.90842558165e-10
1.42694966777e-07
-1.72837905463e-07
-3.92790033973e-09
1.42849006238e-07
-1.80569409905e-07
-7.45743566288e-09
1.43003047051e-07
-1.75360785939e-07
-1.08931449682e-08
1.43157089167e-07
-1.70157549539e-07
-1.43288542154e-08
1.43311132889e-07
-1.64959700627e-07
-1.77645634171e-08
1.20970678104e-07
-1.46154567553e-07
-1.91189828323e-08
6.5984067063e-08
-9.91615955183e-08
-1.51782990937e-08
1.23733575982e-08
-4.05814618598e-08
-7.11861064293e-09
0
-6.3504630556e-09
-1.28547517615e-09
0
0
0
0
0
0
0
0
0
0
0
0
0
0
0
0
0
0
0
0
0
0
0
1.19115946308e-08
-8.69365103735e-09
-8.07358189034e-11
6.33786158108e-08
-5.46879764442e-08
-1.36328953883e-09
1.16123377214e-07
-1.27367358781e-07
-5.12002050886e-09
1.37782137674e-07
-1.72832086274e-07
-9.92237722047e-09
1.37938872225e-07
-1.80540534129e-07
-1.38685409495e-08
1.38095608131e-07
-1.7533691499e-07
-1.73042502504e-08
1.38252345434e-07
-1.70138683523e-07
-2.07399594867e-08
1.38409084327e-07
-1.6494583962e-07
-2.41756687406e-08
1.16794049051e-07
-1.46123848029e-07
-2.49449488515e-08
6.36464021295e-08
-9.91192155047e-08
-1.92141555042e-08
1.19234597405e-08
-4.05645178913e-08
-8.81495650965e-09
0
-6.3498440935e-09
-1.561763231e-09
0
0
0
0
0
0
0
0
0
0
0
0
0
0
0
0
0
0
0
0
0
0
0
1.1461568456e-08
-8.69411595582e-09
-3.61537210972e-10
6.10384833367e-08
-5.47003540022e-08
-3.18253310412e-09
1.11942354103e-07
-1.27390170436e-07
-9.45419966033e-09
1.32879319829e-07
-1.72826264822e-07
-1.59197273386e-08
1.33038749459e-07
-1.80511655581e-07
-2.02796461866e-08
1.3319818061e-07
-1.7531304134e-07
-2.37153554544e-08
1.333576131e-07
-1.70119814859e-07
-2.71510646922e-08
1.33517047067e-07
-1.64931975921e-07
-3.05867739496e-08
1.12624557556e-07
-1.46093126511e-07
-3.07680416112e-08
6.13108732409e-08
-9.90768356009e-08
-2.32450107816e-08
1.14736374059e-08
-4.05475743252e-08
-1.05092422323e-08
0
-6.34922510909e-09
-1.83797564897e-09
0
0
0
0
0
0
0
0
0
0
0
0
0
0
0
0
0
0
0
0
0
0
0
1.10116179482e-08
-8.69458063962e-09
-6.42414251964e-10
5.87004867879e-08
-5.47127314059e-08
-5.00383681443e-09
1.07768468653e-07
-1.27412981692e-07
-1.3793379827e-08
1.27986513261e-07
-1.72820441499e-07
-2.19199505659e-08
1.28148638044e-07
-1.80482774331e-07
-2.66907513902e-08
1.28310764279e-07
-1.75289165193e-07
-3.0126460668e-08
1.28472891972e-07
-1.70100943512e-07
-3.35621698898e-08
1.28635021081e-07
-1.64918109631e-07
-3.69978791785e-08
1.08462203699e-07
-1.46062403185e-07
-3.65882612409e-08
5.89774801966e-08
-9.9034455863e-08
-2.72708649455e-08
1.10238907256e-08
-4.05306311403e-08
-1.22014677515e-08
0
-6.34860618913e-09
-2.11411243958e-09
0
0
0
0
0
0
0
0
0
0
0
0
0
0
0
0
0
0
0
0
0
0
0
8.23480503176e-09
-4.8299249068e-09
-6.86423077257e-10
4.97935045859e-08
-4.06644118901e-08
-5.84500821382e-09
9.36287656055e-08
-1.0354307803e-07
-1.62393467205e-08
1.11831674391e-07
-1.44858250086e-07
-2.54209973153e-08
1.12037328084e-07
-1.52395294073e-07
-3.02795056583e-08
1.1224298277e-07
-1.48012454262e-07
-3.34510050027e-08
1.12448638629e-07
-1.43633456615e-07
-3.66240507109e-08
1.12654295438e-07
-1.39258301374e-07
-3.97986429326e-08
9.45204584569e-08
-1.22657580085e-07
-3.88017826715e-08
5.01684953646e-08
-8.09305987882e-08
-2.82729010486e-08
8.254433993e-09
-3.04231995911e-08
-1.205526024e-08
0
-3.54395196476e-09
-1.83364066769e-09
0
0
0
0
0
0
0
0
0
0
0
0
0
0
0
0
0
0
0
0
0
0
0
2.86042217157e-09
0
-2.94585431473e-10
2.86215767358e-08
-1.34075153e-08
-4.06278522245e-09
6.04712544866e-08
-4.80631112674e-08
-1.29054760474e-08
7.41449170537e-08
-7.68704746947e-08
-2.11546886406e-08
7.433215675e-08
-8.33942431506e-08
-2.51874019087e-08
7.45193966877e-08
-8.09953717698e-08
-2.7439545209e-08
7.47066369183e-08
-7.85976508289e-08
-2.96943813912e-08
7.48938775818e-08
-7.62010805929e-08
-3.1951910362e-08
6.1262591181e-08
-6.54845846278e-08
-3.05403182912e-08
2.89147632003e-08
-3.82802825533e-08
-2.08718642232e-08
2.86712122191e-09
-1.03361785303e-08
-7.63605111394e-09
0
0
-7.08002213976e-10
0
0
0
0
0
0
0
0
0
0
0
0
0
0
0
0
0
0
0
0
0
0
0
0
0
0
7.67461637643e-09
0
-1.18042081063e-09
2.24184642144e-08
-4.57729702705e-09
-5.17577206299e-09
2.98398437804e-08
-1.25594926879e-08
-9.75852749993e-09
2.99017616651e-08
-1.57023799399e-08
-1.19936684951e-08
2.99636795294e-08
-1.52503317697e-08
-1.29411751465e-08
3.00255977442e-08
-1.47983242261e-08
-1.38897917586e-08
3.00875159764e-08
-1.43463576302e-08
-1.48395183004e-08
2.2646182434e-08
-1.0838799022e-08
-1.35994681503e-08
7.71777054042e-09
-3.79428720978e-09
-8.03104524211e-09
0
0
-2.09527146221e-09
0
0
0
0
0
0
0
0
0
0
0
0
0
0
0
0
0
0
0
0
0
0
0
0
0
0
0
0
0
0
0
0
2.61004955087e-09
0
-5.33778371868e-10
4.66901431571e-09
0
-1.56602338919e-09
4.67118760038e-09
0
-2.13469997233e-09
4.67336078678e-09
0
-2.28443267638e-09
4.67553405895e-09
0
-2.43420624463e-09
4.67770732891e-09
0
-2.58402060388e-09
2.61409436195e-09
0
-2.10607667885e-09
0
0
-7.79506172667e-10
0
0
0
0
0
0
0
0
0
0
0
0
0
0
0
0
0
0
0
0
0
0
0
0
0
0
0
0
0
0
0
0
0
0
0
0
0
0
0
0
0
0
0
0
0
0
0
0
0
0
0
0
0
0
0
0
0
0
0
0
0
0
0
0
0
0
0
0
0
0
0
0
0
0
0
0
0
0
0
0
0
0
0
0
0
0
0
0
0
0
0
0
0
0
0
0
0
0
0
0
0
0
0
0
0
0
0
0
0
0
0
0
0
0
0
0
0
0
0
0
0
0
0
0
0
0
0
0
0
0
0
0
0
0
0
0
0
0
0
0
0
0
0
0
0
0
0
0
0
0
0
0
0
0
0
0
0
0
0
0
0
0
0
0
0
0
0
0
0
0
0
0
0
0
0
0
0
0
0
0
0
0
0
0
0
0
0
0
0
0
0
0
0
0
0
0
0
0
0
0
0
0
0
0
0
0
0
0
0
0
0
0
0
0
0
0
0
0
0
0
0
0
0
0
0
0
0
0
0
0
0
0
0
0
0
0
0
0
0
0
0
0
0
0
0
0
0
0
0
0
0
0
0
0
0
0
0
0
0
0
0
0
0
0
0
0
0
0
0
0
0
0
0
0
0
0
0
0
0
0
0
0
0
0
0
0
0
0
0
0
0
0
0
0
0
0
0
0
0
0
0
0
0
0
0
0
0
0
0
0
0
0
0
0
0
0
0
0
0
0
0
0
0
0
0
0
0
0
0
0
0
0
0
0
0
0
0
0
0
0
0
0
0
0
0
0
0
0
0
0
0
0
0
0
0
0
0
0
0
0
0
0
0
0
0
0
0
0
0
0
0
0
0
0
0
0
0
0
0
0
0
0
0
0
0
0
0
0
0
0
0
0
0
0
0
0
0
0
0
0
0
0
0
0
0
0
0
0
0
0
0
0
0
0
0
0
0
0
0
0
0
0
0
0
0
7.31400923533e-09
-8.32300331529e-09
6.55325376074e-10
2.33298348546e-08
-3.40588169134e-08
2.50373100909e-09
3.09075834387e-08
-5.82499778916e-08
3.95071978934e-09
3.08843918238e-08
-6.41561080049e-08
3.89609723304e-09
3.08611999918e-08
-6.22713946335e-08
3.27017450256e-09
3.08380079483e-08
-6.03873861754e-08
2.64495675132e-09
3.08148155159e-08
-5.85040826989e-08
2.02044385631e-09
2.32498166349e-08
-4.96519584484e-08
1.26018542002e-09
7.30328113684e-09
-2.7301473857e-08
4.6123495038e-10
0
-6.43931497819e-09
5.38896650399e-11
0
0
0
0
0
0
0
0
0
0
0
0
0
0
0
0
0
0
0
0
0
0
0
0
0
0
1.63986636863e-08
-1.97618603621e-08
1.3649680807e-09
6.69602340591e-08
-8.92066856147e-08
6.36493695084e-09
1.28921152256e-07
-1.85372309879e-07
1.30542535072e-08
1.56577968109e-07
-2.45977802757e-07
1.59716491353e-08
1.56281273709e-07
-2.5623425612e-07
1.43775009792e-08
1.55984572709e-07
-2.48682957776e-07
1.13800135257e-08
1.55687864961e-07
-2.41141509477e-07
8.39171475462e-09
1.55391150704e-07
-2.33609911393e-07
5.41260459076e-09
1.2759392938e-07
-2.06457523161e-07
2.31417099098e-09
6.6299170532e-08
-1.42272405239e-07
-1.98958773517e-10
1.63284155885e-08
-6.48141510803e-08
-9.24751281901e-10
0
-1.41735926268e-08
-3.60845839681e-10
0
0
0
0
0
0
0
0
0
0
0
0
0
0
0
0
0
0
0
0
6.86685312911e-09
-8.77981985865e-09
5.25813898494e-10
7.39725125524e-08
-8.05807619115e-08
5.720718793e-09
2.01781187679e-07
-2.43392909479e-07
1.6870477185e-08
3.28366218917e-07
-4.23654016571e-07
2.60900378766e-08
3.80479872362e-07
-5.20538539307e-07
2.69934330542e-08
3.79727422841e-07
-5.29235362367e-07
2.17731266717e-08
3.78974957139e-07
-5.1362388741e-07
1.50286810265e-08
3.78222475125e-07
-4.98045225616e-07
8.30832213605e-09
3.77469977167e-07
-4.82499377188e-07
1.61204989282e-09
3.24729872531e-07
-4.31263594133e-07
-4.43064209186e-09
1.99421644833e-07
-3.13228969856e-07
-7.70364418474e-09
7.32747756091e-08
-1.67815583124e-07
-6.75989202125e-09
6.85092425787e-09
-5.46173688142e-08
-2.99086638151e-09
0
-5.98935447613e-09
-3.72161191337e-10
0
0
0
0
0
0
0
0
0
0
0
0
0
0
0
0
0
2.80333170395e-08
-2.8027540972e-08
1.76259461071e-09
1.52991156425e-07
-1.55475702914e-07
1.01216831908e-08
3.49676348086e-07
-3.96809859818e-07
2.2231828813e-08
5.26917641586e-07
-6.3845019103e-07
2.80797293549e-08
5.96540954556e-07
-7.52517482307e-07
2.4392660349e-08
5.96075907127e-07
-7.55522768257e-07
1.53195606807e-08
5.95610854431e-07
-7.33241576544e-07
5.08206334845e-09
5.95145796614e-07
-7.11018738031e-07
-5.12718106592e-09
5.94680733292e-07
-6.8885425278e-07
-1.53081725916e-08
5.24552521462e-07
-6.18079853652e-07
-2.32127114894e-08
3.47833300359e-07
-4.60354534515e-07
-2.48198828642e-08
1.52201237746e-07
-2.63308938336e-07
-1.93542874357e-08
2.79135077147e-08
-1.0122149197e-07
-9.47156619967e-09
0
-1.86939184945e-08
-1.95302965335e-09
0
0
0
0
0
0
0
0
0
0
0
0
0
0
0
0
0
4.76070804815e-08
-3.71760809764e-08
2.27694355017e-09
2.01030262962e-07
-1.89350765193e-07
9.61117593982e-09
4.25520384558e-07
-4.60946639712e-07
1.67069791986e-08
6.16421735438e-07
-7.23330473289e-07
1.59701328118e-08
6.9084737691e-07
-8.4167083078e-07
7.59374617858e-09
6.91829390165e-07
-8.41601030452e-07
-3.93167309463e-09
6.92811422564e-07
-8.16821203613e-07
-1.61778435385e-08
6.93793474061e-07
-7.92110809261e-07
-2.84113787494e-08
6.94775544393e-07
-7.6746984726e-07
-4.06322784746e-08
6.21329289738e-07
-6.8904614586e-07
-4.85386178775e-08
4.29072547707e-07
-5.16470896619e-07
-4.6272141951e-08
2.02221573767e-07
-3.01367769333e-07
-3.44448618346e-08
4.76405608691e-08
-1.21356172311e-07
-1.74448837613e-08
0
-2.45234601993e-08
-4.19974798679e-09
0
0
0
0
0
0
0
0
0
0
0
0
0
0
0
0
0
5.20119939577e-08
-3.71836707875e-08
1.48039998011e-09
2.07506718142e-07
-1.89452189895e-07
4.73617462751e-09
4.2888829201e-07
-4.61226688529e-07
4.41362192941e-09
6.14407458989e-07
-7.23588131427e-07
-3.38550537314e-09
6.87010034079e-07
-8.41543919999e-07
-1.53963021896e-08
6.88980045698e-07
-8.41230821229e-07
-2.78520508912e-08
6.90950086088e-07
-8.16515752794e-07
-4.06232076183e-08
6.92920155402e-07
-7.91870116782e-07
-5.33943643984e-08
6.94890253274e-07
-7.67293913173e-07
-6.61655211572e-08
6.24346288444e-07
-6.88670829465e-07
-7.27136611674e-08
4.36352027015e-07
-5.15854523683e-07
-6.57080504117e-08
2.10316995331e-07
-3.00919318656e-07
-4.72854001522e-08
5.22538612506e-08
-1.21213908633e-07
-2.36958661541e-08
0
-2.45132039091e-08
-5.80370795941e-09
0
0
0
0
0
0
0
0
0
0
0
0
0
0
0
0
0
5.01677877743e-08
-3.71912604744e-08
2.85469017389e-10
2.00518420103e-07
-1.8955361363e-07
-1.24425212531e-09
4.15142425052e-07
-4.61506725039e-07
-9.25420719029e-09
5.95424552488e-07
-7.23845751224e-07
-2.38589522472e-08
6.66127259474e-07
-8.41416953126e-07
-3.89657837546e-08
6.68132014558e-07
-8.40860557503e-07
-5.18060016898e-08
6.70136798459e-07
-8.16210247417e-07
-6.45771583989e-08
6.72141611147e-07
-7.91629369775e-07
-7.73483151864e-08
6.74146452529e-07
-7.67117924463e-07
-9.0119471981e-08
6.0553857593e-07
-6.88295474931e-07
-9.48998418714e-08
4.22737505254e-07
-5.15238152859e-07
-8.30913846731e-08
2.0337797511e-07
-3.00470888243e-07
-5.83230014081e-08
5.0413885507e-08
-1.21071653423e-07
-2.86745898731e-08
0
-2.45029478633e-08
-6.92189618073e-09
0
0
0
0
0
0
0
0
0
0
0
0
0
0
0
0
0
4.8324889964e-08
-3.71988501981e-08
-9.10770254808e-10
1.93548435276e-07
-1.89655036071e-07
-7.24175796158e-09
4.0145766957e-07
-4.61786749583e-07
-2.29668875975e-08
5.76550466575e-07
-7.24103332445e-07
-4.43850990128e-08
6.45374030375e-07
-8.41289930074e-07
-6.25588583365e-08
6.47413528891e-07
-8.40490239129e-07
-7.57599523559e-08
6.49453056319e-07
-8.15904687474e-07
-8.85311091503e-08
6.51492612385e-07
-7.91388568165e-07
-1.01302265975e-07
6.5353219731e-07
-7.66941881336e-07
-1.1407342278e-07
5.86839684043e-07
-6.87920082572e-07
-1.17062429515e-07
4.09184095041e-07
-5.14621784252e-07
-1.00422019067e-07
1.96457268126e-07
-3.00022478203e-07
-6.93157513733e-08
4.85752180273e-08
-1.20929406767e-07
-3.36362345163e-08
0
-2.44926920464e-08
-8.03877603053e-09
0
0
0
0
0
0
0
0
0
0
0
0
0
0
0
0
0
4.64833005016e-08
-3.72064397828e-08
-2.10831786537e-09
1.86596763639e-07
-1.89756457571e-07
-1.32563428177e-08
3.87834025373e-07
-4.62066761429e-07
-3.67244193458e-08
5.57785201316e-07
-7.24360874889e-07
-6.49639456942e-08
6.24750346784e-07
-8.41162850655e-07
-8.61755261397e-08
6.26824588753e-07
-8.40119866445e-07
-9.97139031868e-08
6.28898859685e-07
-8.1559907305e-07
-1.12485060012e-07
6.30973159238e-07
-7.91147712097e-07
-1.25256216795e-07
6.33047487583e-07
-7.66765783509e-07
-1.38027373583e-07
5.68249612644e-07
-6.87544652494e-07
-1.39201424069e-07
3.95691796174e-07
-5.14005418206e-07
-1.17699953557e-07
1.89554874277e-07
-2.99574088604e-07
-8.02636500634e-08
4.67378590792e-08
-1.20787168707e-07
-3.85808000781e-08
0
-2.4482436684e-08
-9.15434755651e-09
0
0
0
0
0
0
0
0
0
0
0
0
0
0
0
0
0
3.89589900176e-08
-2.80537411791e-08
-2.82271501097e-09
1.62312913659e-07
-1.5592911277e-07
-1.74663625427e-08
3.40533878956e-07
-3.98162531957e-07
-4.70509121104e-08
4.91685720604e-07
-6.39751084676e-07
-8.07377773854e-08
5.51887335719e-07
-7.518946209e-07
-1.04237671395e-07
5.5462433993e-07
-7.53659417835e-07
-1.17667768852e-07
5.57361375101e-07
-7.31704617055e-07
-1.2989878313e-07
5.60098441257e-07
-7.09808169232e-07
-1.42142432639e-07
5.62835538287e-07
-6.87970074793e-07
-1.54398717488e-07
5.05466394584e-07
-6.16185207888e-07
-1.53834112223e-07
3.50817787277e-07
-4.57281803194e-07
-1.28430703589e-07
1.66148779654e-07
-2.61154952732e-07
-8.60347266644e-08
3.93122331757e-08
-1.00588410587e-07
-4.00890220482e-08
0
-1.86585189497e-08
-9.00334089958e-09
0
0
0
0
0
0
0
0
0
0
0
0
0
0
0
0
0
2.10985962282e-08
-8.78333657839e-09
-2.05959210049e-09
1.08894313158e-07
-8.08057491247e-08
-1.56563537351e-08
2.38563399077e-07
-2.44267462043e-07
-4.54514735647e-08
3.51834309311e-07
-4.24635162462e-07
-7.98131119718e-08
3.97935264307e-07
-5.20114913264e-07
-1.03258082459e-07
4.01031913036e-07
-5.27843137786e-07
-1.15406027742e-07
4.04128586764e-07
-5.1247605953e-07
-1.25611035578e-07
4.07225285334e-07
-4.9714179461e-07
-1.35844296258e-07
4.10322009004e-07
-4.81840342877e-07
-1.4610580977e-07
3.6720554254e-07
-4.29831887306e-07
-1.44226696363e-07
2.49478630013e-07
-3.11009442769e-07
-1.18269068703e-07
1.12525109325e-07
-1.66452788132e-07
-7.57701193252e-08
2.13560100226e-08
-5.43097331401e-08
-3.18002838607e-08
0
-5.98460427713e-09
-5.63954377878e-09
0
0
0
0
0
0
0
0
0
0
0
0
0
0
0
0
0
4.96171741188e-09
0
-5.95182949528e-10
4.87728737707e-08
-1.97856529313e-08
-8.18308582006e-09
1.24426374174e-07
-8.94595731006e-08
-2.95559796731e-08
1.94301199524e-07
-1.85754743717e-07
-5.75225687683e-08
2.23775881195e-07
-2.45859910394e-07
-7.73759291868e-08
2.25722849177e-07
-2.55710054495e-07
-8.6803974436e-08
2.27669829286e-07
-2.48250307515e-07
-9.35227223916e-08
2.29616821432e-07
-2.40800410804e-07
-1.00265557058e-07
2.31563825684e-07
-2.33360364208e-07
-1.07032478382e-07
2.03600140591e-07
-2.05898609394e-07
-1.04537065921e-07
1.30181348994e-07
-1.41496166188e-07
-8.26106631897e-08
5.01978029032e-08
-6.44500913261e-08
-4.75029046077e-08
4.98779666201e-09
-1.4141682255e-08
-1.57845300895e-08
0
0
-1.48109979365e-09
0
0
0
0
0
0
0
0
0
0
0
0
0
0
0
0
0
0
0
0
1.07299123976e-08
0
-1.87335157381e-09
4.03942059889e-08
-8.32858099102e-09
-1.033327804e-08
7.40370601131e-08
-3.41052304972e-08
-2.5282749501e-08
8.89086876487e-08
-5.82613408046e-08
-3.76837856094e-08
8.94696823389e-08
-6.41111312692e-08
-4.32263690013e-08
9.00306796681e-08
-6.22342675898e-08
-4.62148552288e-08
9.05916796933e-08
-6.03581087878e-08
-4.92125300974e-08
9.11526822322e-08
-5.8482654895e-08
-5.22193936012e-08
7.65093466987e-08
-4.95884033667e-08
-4.99347469186e-08
4.15494488631e-08
-2.72344034376e-08
-3.60731690417e-08
1.08446853105e-08
-6.43188719565e-09
-1.65630311002e-08
0
0
-3.51941401364e-09
0
0
0
0
0
0
0
0
0
0
0
0
0
0
0
0
0
0
0
0
0
0
0
0
0
0
4.51438811188e-09
0
-1.02570671912e-09
1.39505553963e-08
0
-4.52591885767e-09
1.82544436229e-08
0
-8.35571448244e-09
1.82922557017e-08
0
-1.00275247391e-08
1.83300679131e-08
0
-1.06527985419e-08
1.83678802384e-08
0
-1.1278777301e-08
1.84056927732e-08
0
-1.19054609264e-08
1.40810262416e-08
0
-1.09142185012e-08
4.53188298143e-09
0
-6.40556095696e-09
0
0
-1.60890552215e-09
0
0
0
0
0
0
0
0
0
0
0
0
0
0
0
0
0
0
0
0
0
0
0
0
0
0
0
0
0
0
0
0
0
0
0
0
0
0
0
0
0
0
0
0
0
0
0
0
0
0
0
0
0
0
0
0
0
0
0
0
0
0
0
0
0
0
0
0
0
0
0
0
0
0
0
0
0
0
0
0
0
0
0
0
0
0
0
0
0
0
0
0
0
0
0
0
0
0
0
0
0
0
0
0
0
0
0
0
0
0
0
0
0
0
0
0
0
0
0
0
0
0
0
0
0
0
0
0
0
0
0
0
0
0
0
0
0
0
0
0
0
0
0
0
0
0
0
0
0
0
0
0
0
0
0
0
0
0
0
0
0
0
0
0
0
0
0
0
0
0
0
0
0
0
0
0
0
0
0
0
0
0
0
0
0
0
0
0
0
0
0
0
0
0
0
0
0
0
0
0
0
0
0
0
0
0
0
0
0
0
0
0
0
0
0
0
0
0
0
0
0
0
0
0
0
0
0
0
0
0
0
0
0
0
0
0
0
0
0
0
0
0
0
0
0
0
0
0
0
0
0
0
0
0
0
0
0
0
0
0
0
0
0
0
0
0
0
0
0
0
0
0
0
0
0
0
0
0
0
0
0
0
0
0
0
0
0
0
0
0
0
0
0
0
0
0
0
0
0
0
0
0
0
0
7.61316564102e-09
-8.18264724472e-09
7.95290207217e-10
2.42612207399e-08
-3.34709781905e-08
3.08862474157e-09
3.21282078426e-08
-5.72257964707e-08
4.97647651405e-09
3.21047813677e-08
-6.30009597989e-08
5.05782377054e-09
3.20813545976e-08
-6.11155932035e-08
4.43124783109e-09
3.20579273668e-08
-5.92309315082e-08
3.80537681984e-09
3.20345000749e-08
-5.73469748048e-08
3.18021069124e-09
2.41803917585e-08
-4.86430992287e-08
2.27471308241e-09
7.60232885223e-09
-2.67341419386e-08
1.03431006486e-09
0
-6.301278212e-09
1.92558738199e-10
0
0
0
0
0
0
0
0
0
0
0
0
0
0
0
0
0
0
0
0
0
0
0
4.45810135823e-10
-5.21231863228e-10
4.86197881047e-11
3.12780747614e-08
-3.6104884213e-08
3.139722002e-09
1.05195459838e-07
-1.42389253819e-07
1.18389631287e-08
1.93078209636e-07
-2.79319045771e-07
2.19835493463e-08
2.3040106043e-07
-3.61606260055e-07
2.64977066024e-08
2.29721575665e-07
-3.72797009182e-07
2.46744712005e-08
2.29042069639e-07
-3.61607181531e-07
2.09130600091e-08
2.28362542312e-07
-3.5043353481e-07
1.71678297907e-08
2.27682993709e-07
-3.39276069055e-07
1.34387805596e-08
1.90009143147e-07
-3.00964279732e-07
9.02033314366e-09
1.03637974341e-07
-2.1018840698e-07
4.12307764185e-09
3.1044979505e-08
-1.00945075168e-07
8.05003477194e-10
4.45750713392e-10
-2.52637779289e-08
-8.0626145256e-11
0
-3.56392550911e-10
-5.82685016643e-12
0
0
0
0
0
0
0
0
0
0
0
0
0
0
0
0
0
3.08262125142e-08
-3.65636266707e-08
2.86802443835e-09
1.6913589319e-07
-1.98139753556e-07
1.6053183382e-08
3.95748947158e-07
-4.90587600754e-07
3.78540388165e-08
6.02737268163e-07
-7.6819974598e-07
5.43611066383e-08
6.83084020919e-07
-8.91194294415e-07
5.67451300681e-08
6.80236294739e-07
-8.90010037169e-07
4.92357806687e-08
6.7738847848e-07
-8.63211695499e-07
3.94908125253e-08
6.74540572207e-07
-8.36478298894e-07
2.98038079693e-08
6.71692575955e-07
-8.09809847318e-07
2.01747670992e-08
5.88588812095e-07
-7.27259488902e-07
1.02029885517e-08
3.85658866307e-07
-5.46476135725e-07
1.44542830197e-09
1.65715177057e-07
-3.19283841579e-07
-3.30050567082e-09
3.05489483752e-08
-1.26435040343e-07
-3.13566894671e-09
0
-2.39867804025e-08
-9.52453812791e-10
0
0
0
0
0
0
0
0
0
0
0
0
0
0
6.94237633831e-09
-8.86787505091e-09
6.01081097931e-10
1.21431503168e-07
-1.23407308539e-07
9.93852972499e-09
4.18613702922e-07
-4.64983177145e-07
3.44790228343e-08
8.03155877762e-07
-9.41971727091e-07
6.17102238432e-08
1.11380709486e-06
-1.32111553288e-06
7.52671176144e-08
1.22871687735e-06
-1.45162295651e-06
7.03856402538e-08
1.22418455587e-06
-1.42475171544e-06
5.55810262317e-08
1.2196521228e-06
-1.38176459323e-06
3.91208764362e-08
1.21511957769e-06
-1.33891394756e-06
2.27563764318e-08
1.21058692047e-06
-1.29619977837e-06
6.48752619903e-09
1.0903036512e-06
-1.1661251767e-06
-8.29599051335e-09
7.83686836619e-07
-8.97972140208e-07
-1.76133043766e-08
4.09227392707e-07
-5.71222164777e-07
-1.93626461952e-08
1.19671126107e-07
-2.72118217773e-07
-1.38481243071e-08
6.92369741217e-09
-7.54074451928e-08
-5.2841631008e-09
0
-5.62641613308e-09
-4.46534867403e-10
0
0
0
0
0
0
0
0
0
0
0
2.83484873522e-08
-2.83134176278e-08
2.07932633439e-09
2.37033579866e-07
-2.27662539852e-07
1.62869087866e-08
6.531116601e-07
-7.11575252184e-07
4.32103484408e-08
1.12556845906e-06
-1.30975855271e-06
6.48283257939e-08
1.48712662099e-06
-1.74445741977e-06
6.87104903125e-08
1.61943997336e-06
-1.86486503031e-06
5.52909065568e-08
1.61670731906e-06
-1.81321748335e-06
3.4557231846e-08
1.61397462155e-06
-1.75850949463e-06
1.26881980131e-08
1.6112418801e-06
-1.70400047455e-06
-9.09005345025e-09
1.60850909456e-06
-1.64969042317e-06
-3.07775226045e-08
1.47262752782e-06
-1.48316807976e-06
-4.76246411795e-08
1.11259969444e-06
-1.1508807195e-06
-5.2834041103e-08
6.45693621336e-07
-7.57521908658e-07
-4.68605757763e-08
2.3491984061e-07
-3.92626647487e-07
-3.21914235123e-08
2.82078589084e-08
-1.31607126876e-07
-1.39758422013e-08
0
-1.7566458329e-08
-2.25785552246e-09
0
0
0
0
0
0
0
0
0
0
0
4.81465951494e-08
-3.75577220523e-08
2.8393123955e-09
3.03439786186e-07
-2.7292146469e-07
1.60278502673e-08
7.49164722505e-07
-8.10839104003e-07
3.52718676916e-08
1.22565298408e-06
-1.45102100634e-06
4.41921320806e-08
1.5814695726e-06
-1.90225469621e-06
3.61397149647e-08
1.71387671467e-06
-2.01522424908e-06
1.61858400287e-08
1.71666446262e-06
-1.95297698083e-06
-7.37052288716e-09
1.71945225342e-06
-1.89417239469e-06
-3.20777303695e-08
1.72224008649e-06
-1.8355912079e-06
-5.67478553268e-08
1.72502796184e-06
-1.77723342072e-06
-8.13808977868e-08
1.59630804839e-06
-1.59666589608e-06
-9.71354670835e-08
1.23904795231e-06
-1.24012939839e-06
-9.46598204496e-08
7.5689681587e-07
-8.23399343019e-07
-7.79908273154e-08
3.05550622335e-07
-4.37070381877e-07
-5.22261384548e-08
4.81849566824e-08
-1.54238315983e-07
-2.37598923371e-08
0
-2.30475688733e-08
-4.73060949337e-09
0
0
0
0
0
0
0
0
0
0