/*--------------------------------*- C++ -*----------------------------------*\
| =========                 |                                                 |
| \\      /  F ield         | OpenFOAM: The Open Source CFD Toolbox           |
|  \\    /   O peration     | Version:  3.0.1                                 |
|   \\  /    A nd           | Web:      www.OpenFOAM.org                      |
|    \\/     M anipulation  |                                                 |
\*---------------------------------------------------------------------------*/
FoamFile
{
    version     2.0;
    format      ascii;
    class       surfaceVectorField;
    location    "9.4";
    object      Uf_0;
}
// * * * * * * * * * * * * * * * * * * * * * * * * * * * * * * * * * * * * * //

dimensions      [0 1 -1 0 0 0 0];

internalField   nonuniform List<vector> 
22672
(
(0.000182935103536 -0.000141265277285 1.54402554422e-06)
(-0.000101768139431 9.44890540741e-05 1.32896340884e-05)
(0.000149934993626 0.000122806753939 -0.000277424146008)
(0.000776887127635 -0.000284251390746 -7.6289404619e-05)
(0.000349836671093 -5.9931130317e-05 -0.000470963687156)
(0.000668821776389 9.9786960319e-05 -0.000534020886596)
(0.00147832253319 -0.000349064034075 -4.88574310555e-05)
(0.00121623257881 -0.000115261515547 -0.000599886646408)
(0.00140135355802 0.000111707627538 -0.000586173887321)
(0.00206759912849 -0.000353149173372 3.36633977993e-05)
(0.00192188036713 -0.000105268747265 -0.000539791949436)
(0.00198422592537 0.000135520693309 -0.000484007850125)
(0.00242322867566 -0.000295597755231 0.000125416467017)
(0.00242591379502 -1.84354087464e-05 -0.000428607207597)
(0.00238990134404 0.000183371451418 -0.000337194143783)
(0.00249654667907 -0.000211163221253 0.000201651465179)
(0.00263425063336 0.000112216665288 -0.000305576482007)
(0.002542588612 0.000253409073632 -0.000185534673462)
(0.00232240330168 -0.000125782233992 0.000255752498838)
(0.00255627248162 0.000238866331921 -0.000208266953863)
(0.00244873381332 0.000315633343718 -6.47229533821e-05)
(0.0019329988384 -4.8520064982e-05 0.000292480355191)
(0.00224278885276 0.000355742171289 -0.000127681394386)
(0.00214423892691 0.000373847141784 3.36623045654e-05)
(0.00139061314923 2.82077350597e-06 0.000310487019565)
(0.00173466717063 0.000443068517844 -7.51720811882e-05)
(0.00166643600203 0.000416980013437 9.93172001699e-05)
(0.000773064895603 2.14764161965e-05 0.000314987403118)
(0.00111344520622 0.000489790784658 -5.18433540589e-05)
(0.00108725182419 0.000440291037341 0.000127757517791)
(0.000154380445417 7.8919443131e-06 0.00030877316346)
(0.000458799414768 0.00049449854026 -5.51941792933e-05)
(0.000476731521191 0.000443956579895 0.000124185981345)
(-0.000397577401813 -3.45274804442e-05 0.000293298991954)
(-0.0001612542604 0.000458634768724 -8.17774696787e-05)
(-0.00010489495018 0.000427967516283 9.33231744072e-05)
(-0.000824795924054 -9.85497504363e-05 0.000266468728306)
(-0.000684490673972 0.00038735958337 -0.000126588611365)
(-0.000603293893399 0.000394208643186 3.98590610603e-05)
(-0.0010817452513 -0.000170045398909 0.000227405114338)
(-0.00105361806038 0.000289972929886 -0.000188443670774)
(-0.000968211378063 0.000345432193075 -3.30234517431e-05)
(-0.00114945196144 -0.000237013997631 0.000172146122258)
(-0.00123262392027 0.000185264961398 -0.000259939934318)
(-0.00116699682236 0.000291782448347 -0.000117558068241)
(-0.00101242023585 -0.000279541080076 0.000102252696086)
(-0.00120451513888 8.33024830958e-05 -0.000345387552531)
(-0.0011888137771 0.000234884443158 -0.000220333989463)
(-0.000706837622804 -0.000270090870498 3.20425710013e-05)
(-0.000954316521689 1.96874824907e-05 -0.000424353848254)
(-0.00102725089894 0.000192226428398 -0.000325269836856)
(-0.000319516211111 -0.000208385673401 5.41582675295e-07)
(-0.000560954102214 1.6019020305e-05 -0.000467235047225)
(-0.000743986171038 0.000169417915965 -0.000403340127866)
(-9.8271796153e-06 -9.11528261875e-05 5.20463606179e-05)
(-4.9701224857e-05 5.57758137543e-05 -0.000362296121244)
(-0.000348988246848 0.000144199588964 -0.000365464484528)
(0.000160033862718 0.000158616383409 3.35313898251e-05)
(-7.08911541603e-05 0.000120550105659 -0.000168443302131)
(5.48644775358e-05 0.000182984844958 -0.000459218078612)
(-0.000239303855785 0.000542766423243 -4.79907503538e-05)
(0.000163949962781 0.000521839121484 -0.000503141836003)
(0.000802976701235 0.000118490681269 -0.000994560928945)
(0.000309791979753 0.000525177112113 -0.000994308380209)
(0.000720933520729 0.000510859641119 -0.00133322045867)
(0.00164769407751 0.000140085641893 -0.00109082116479)
(0.00132879607476 0.000554752831882 -0.00122153527291)
(0.00148730653012 0.000541722085954 -0.0015147317199)
(0.00229108951883 0.000237814888645 -0.00100206255483)
(0.00209793511772 0.000654474412256 -0.00113710257384)
(0.00205506792957 0.00061470457226 -0.00140313860042)
(0.00264640992443 0.00039846740726 -0.000859600156621)
(0.00261014300693 0.000829715717827 -0.000972438400505)
(0.00242395813777 0.000732149217918 -0.00120347153277)
(0.00269649878563 0.000578471619777 -0.00071549490105)
(0.00280127997144 0.00104993386926 -0.000794607309112)
(0.00254851669882 0.000876705304539 -0.000987806062366)
(0.00247612954069 0.000742108505105 -0.000591700847088)
(0.00269260695797 0.00125908704859 -0.000643660013068)
(0.00243743192564 0.00101487911355 -0.000799851460092)
(0.00204072761991 0.000873128618276 -0.000495333830766)
(0.00234218238935 0.00144064751842 -0.000522173264054)
(0.00212924011271 0.0011356873816 -0.000649503400609)
(0.00145704456633 0.000958389912582 -0.000437502454812)
(0.00180269612924 0.00157526339834 -0.000440377790192)
(0.00166571736862 0.00122662926397 -0.000548511782851)
(0.000800189090267 0.000992182571179 -0.00042202493647)
(0.00115279429251 0.00165066757028 -0.000404069366842)
(0.00110890713226 0.00128052578851 -0.000504021244174)
(0.000143990142829 0.000974160463305 -0.000445744812432)
(0.000470283426096 0.00166412425285 -0.000411756974505)
(0.000521019176314 0.0012953113935 -0.000513426676574)
(-0.000444537626223 0.000907591518079 -0.000501665072997)
(-0.000177316294838 0.00161726844944 -0.000458282910889)
(-4.21216813917e-05 0.00127126886615 -0.00057010579854)
(-0.000908485250816 0.000799832202646 -0.000581501010445)
(-0.00072915010017 0.00151600698914 -0.000534563761667)
(-0.000530925010545 0.00121104874208 -0.000664699641924)
(-0.00120168948216 0.00066512695186 -0.00067578871943)
(-0.00112905589232 0.00137145066642 -0.000635222541875)
(-0.000900368670999 0.00112019671953 -0.000788273337177)
(-0.00129003034498 0.000520208673271 -0.000777473609108)
(-0.00133666575155 0.00120326603958 -0.000750108558898)
(-0.00111769161493 0.00101168981635 -0.000929660014627)
(-0.0011530896924 0.000391122256849 -0.000871994096871)
(-0.00132350746158 0.00102693031951 -0.0008755052204)
(-0.00116395349583 0.000895525152339 -0.00108056825083)
(-0.00080031447311 0.000310910654135 -0.000923631466481)
(-0.00106606114672 0.000879862878093 -0.00098626838633)
(-0.00102747388135 0.000793640391898 -0.00121295033578)
(-0.000297994724679 0.000286578412123 -0.000830072751145)
(-0.000621031830749 0.000788255133961 -0.00103297394383)
(-0.00074754884207 0.000718808494631 -0.00127455553831)
(0.000125322171662 0.000314963421549 -0.000380811092037)
(8.12611165347e-06 0.000737895775682 -0.000833975198748)
(-0.000319660038294 0.000654418040283 -0.00110543648944)
(0.000278560072114 0.000699357560384 -4.66759695678e-05)
(-4.37170589084e-05 0.000581352650546 -0.000415418750987)
(9.44988102027e-06 0.000874558470769 -0.00058308105195)
(-0.000306725997741 0.00108301791862 -1.60519696467e-05)
(0.000187956805949 0.00107890927498 -0.000549701361151)
(0.000850518275732 0.000951016567879 -0.00122128272418)
(0.00033775137479 0.00120187890222 -0.00109940864782)
(0.000776286437772 0.00110303035744 -0.00151777017124)
(0.00176469557969 0.00105940481443 -0.00126781668196)
(0.0014517984021 0.00129379725372 -0.00127914718721)
(0.00156390591553 0.00115243936151 -0.00165322171421)
(0.00243035852464 0.00123582827196 -0.00110747841951)
(0.00226184400832 0.00145323108659 -0.0011159610239)
(0.0021219070102 0.00126024108581 -0.00146441960895)
(0.00277526284401 0.00146826478402 -0.000907445552996)
(0.00277679505306 0.00168234424738 -0.000885808452367)
(0.00246791567382 0.00142292053864 -0.00119753283732)
(0.00280374253567 0.00171482361274 -0.00072277242113)
(0.00294839289419 0.00195342421021 -0.000661591852994)
(0.00257065521096 0.00161917954817 -0.00093197001561)
(0.00255941422452 0.001938696908 -0.000574132430034)
(0.00281274348878 0.00221160109003 -0.000478474649236)
(0.00244649121054 0.00181183477638 -0.000708185703294)
(0.00210138998797 0.00212053434641 -0.00046721722348)
(0.00243289783412 0.00243653284955 -0.000339549952105)
(0.00213399508219 0.00198378834631 -0.000537861053622)
(0.001497873609 0.00224291155883 -0.000406944702222)
(0.00186737348528 0.00260745080725 -0.000253399312897)
(0.00167563134693 0.00211729259991 -0.000428670972221)
(0.000823542859712 0.00229688464761 -0.000393801404877)
(0.00119359184309 0.00270727873286 -0.000216651339181)
(0.00112856579974 0.00220076831421 -0.000382280337349)
(0.000149613722177 0.00228178934436 -0.000424295072963)
(0.000487689928677 0.00273304124262 -0.000227471789936)
(0.00055046122931 0.00222989014467 -0.000394987757426)
(-0.000458795943623 0.00220177954584 -0.000491181599559)
(-0.000185171616767 0.00268588638753 -0.000279991378156)
(-6.45302546109e-06 0.00220498839227 -0.000460208158224)
(-0.000946167800328 0.00206622962449 -0.000588285293097)
(-0.000765073963304 0.0025729830838 -0.000366400377631)
(-0.000495674478555 0.00213075830775 -0.000569604103517)
(-0.00126468328543 0.00189080978584 -0.000709542381343)
(-0.00119614079408 0.0024077404158 -0.000488422390759)
(-0.00087420203181 0.00201544301249 -0.000717774106763)
(-0.00137405694397 0.00169346739937 -0.000848140170191)
(-0.00143406463116 0.00220867433271 -0.00063522873184)
(-0.00110870130852 0.0018745705557 -0.00089603444943)
(-0.00124566371626 0.00150077430521 -0.000989779509858)
(-0.00144186389491 0.00199324944241 -0.000803196257)
(-0.00117552636757 0.00172193083256 -0.0010947121321)
(-0.000876894360791 0.0013428817109 -0.00109561086368)
(-0.00118648337593 0.0017968534366 -0.000969795850194)
(-0.0010578268507 0.00158223108056 -0.00128575965739)
(-0.000321949744499 0.00122524438352 -0.00103687639144)
(-0.000712698190843 0.00164294147476 -0.001080564736)
(-0.000785659804037 0.00147106649783 -0.00140963065821)
(0.000171480066041 0.00110908371175 -0.000499840076279)
(-1.08859044783e-05 0.00152131874196 -0.000921213362956)
(-0.000341257187484 0.00137941112667 -0.0012768524377)
(0.000330655793501 0.00134334111338 -2.85646185137e-05)
(-5.20579219302e-05 0.00126305002035 -0.00047250325836)
(1.68953244502e-05 0.00142145922346 -0.000532379565518)
(-0.000313775512538 0.00152589850608 6.19182347085e-05)
(0.000214587151209 0.00150246906407 -0.0004597758895)
(0.000953489010835 0.00155797544269 -0.00115727311085)
(0.000432611740547 0.0016983411876 -0.00103327872572)
(0.000855592619036 0.00151703457135 -0.00143305594896)
(0.00193332129272 0.00170229900191 -0.00112729152915)
(0.00163018333058 0.00180915627655 -0.00114584227615)
(0.00168061804347 0.00155720147472 -0.00149519128136)
(0.00262394432519 0.00191517916493 -0.00089429105676)
(0.00248171375891 0.00198940387987 -0.000910196908211)
(0.00224809717114 0.0016730655128 -0.00122679580062)
(0.00296232233628 0.00218310568423 -0.000639954752365)
(0.00300176698272 0.00223724903998 -0.000620864631655)
(0.00258666278447 0.00185467551495 -0.000893282774306)
(0.00296581347968 0.00246517145223 -0.000417294081099)
(0.00315391561325 0.00252744602019 -0.000352427062599)
(0.00267324640634 0.00207767766121 -0.000577512916478)
(0.00268895096305 0.00272375732819 -0.000243892171307)
(0.00298671222258 0.00280618820818 -0.00013926618393)
(0.00253180656164 0.00230194658993 -0.000317724554018)
(0.00219879955937 0.00293682859605 -0.000125732041521)
(0.00256831452788 0.00305269323949 1.86657222309e-05)
(0.00220274227498 0.00250634349231 -0.000126008926247)
(0.00156260426417 0.00308424427788 -6.31059498552e-05)
(0.00196421988379 0.00324258875443 0.000113966817518)
(0.00173077184801 0.00266949157912 1.05742110848e-06)
(0.000858394265965 0.00315542586511 -5.03217242403e-05)
(0.00125335743789 0.00335981206718 0.000153638254413)
(0.00117181317577 0.00277553084803 5.16767495364e-05)
(0.000153428351371 0.00314903882408 -8.31680951303e-05)
(0.00051023076722 0.00339813765023 0.000142061102813)
(0.000580864172166 0.00281845260357 3.98696041833e-05)
(-0.000489123117416 0.00306934064934 -0.000155210156228)
(-0.000201723530544 0.0033594374132 8.53616846953e-05)
(8.09079340663e-06 0.00279828740054 -3.09994488543e-05)
(-0.00101285974868 0.00292697863619 -0.000266537475292)
(-0.00082340717555 0.00325127109103 -1.1154878942e-05)
(-0.000501550262683 0.0027209864737 -0.000154551256529)
(-0.00136846004677 0.00273845408947 -0.000414108741256)
(-0.00129782511325 0.00308718341853 -0.000151993055739)
(-0.000904996909782 0.00259854269846 -0.000323842570929)
(-0.00150794402873 0.00252199439005 -0.00059028481865)
(-0.00157461139399 0.00288585224923 -0.000327512072458)
(-0.0011657235941 0.00244744421622 -0.000537693781375)
(-0.00139339285359 0.00230332323565 -0.000783212597336)
(-0.00161006397531 0.00266477293076 -0.000537411380409)
(-0.00125591954815 0.00228391996766 -0.000786074484053)
(-0.00101120717208 0.00211088300005 -0.00095474972251)
(-0.0013614446939 0.00245631088863 -0.000759278276681)
(-0.00115217855998 0.00213417534339 -0.00104164292169)
(-0.00040853493362 0.00195192274355 -0.000964901707517)
(-0.000862325699693 0.00228076460974 -0.000936087767691)
(-0.000877259157524 0.00201671692958 -0.00124049512372)
(0.000159792901272 0.00176663652233 -0.000449937905191)
(-9.75031087204e-05 0.00213259513181 -0.000840931062162)
(-0.000405107936321 0.00193033768039 -0.00117960393947)
(0.000330210880145 0.00189017456864 4.16332794046e-05)
(-7.34518079839e-05 0.00181248057394 -0.000387040364684)
(9.24753491729e-05 0.00179469206113 -0.000438980925489)
(-0.000261783239417 0.00176959711073 0.00014261531225)
(0.000264320157048 0.00177704847156 -0.000336173923196)
(0.00112408294225 0.00193841499406 -0.00102184789102)
(0.000584497231739 0.00193883027609 -0.00091871984275)
(0.000972422284618 0.00175854550277 -0.00127209664801)
(0.00216274768899 0.00208346035505 -0.000928747655215)
(0.00185708620171 0.00204066850211 -0.000977913547399)
(0.00184333365818 0.00177825364034 -0.00127017693485)
(0.00287636251589 0.00229760849335 -0.000636770483106)
(0.0027482394984 0.00221146298359 -0.000688507206644)
(0.00243142100977 0.00188568405946 -0.000935673887467)
(0.00320786098 0.00256729461447 -0.000333336941889)
(0.0032741530079 0.00244863180676 -0.00035045846008)
(0.00277026666708 0.00206544918056 -0.000542881179699)
(0.00318486989572 0.00285410643142 -7.43991654301e-05)
(0.00340687659763 0.00272914559563 -4.31460019639e-05)
(0.00284461071777 0.00229315739995 -0.000178708429769)
(0.00287018020068 0.00312055982441 0.000123291709607)
(0.00320597036542 0.00300194186529 0.000197164185906)
(0.00268388370788 0.00252781752722 0.00011893611046)
(0.00233484252008 0.00334383859721 0.00025836458127)
(0.00274369187681 0.00324837247334 0.000373419628829)
(0.00232985073169 0.00274611866389 0.000339658529671)
(0.00165505343233 0.0035033032522 0.000330711021786)
(0.00209126397223 0.00344300314923 0.000481671852368)
(0.00182963322618 0.00292465823854 0.000479374784071)
(0.000905862357107 0.00358699634601 0.000346021081466)
(0.00133121011579 0.00356767113807 0.000526447664471)
(0.00124029312362 0.00304524826621 0.0005413321008)
(0.000155676771428 0.00359249380724 0.000310590882639)
(0.000538042946439 0.00361595940664 0.00051551484466)
(0.000616818607114 0.0030997601615 0.000532363928301)
(-0.000534116461 0.00352473064827 0.000229416961981)
(-0.000224713448089 0.00359002275302 0.00045504677945)
(9.28333137094e-06 0.00308839740732 0.000459207992379)
(-0.00110724503496 0.00339452998845 0.000103389540611)
(-0.000898280615151 0.00349790781323 0.000348762871613)
(-0.000536526430745 0.0030181262751 0.000326491952462)
(-0.00150829831406 0.00321760074304 -6.53963869402e-05)
(-0.00142341619629 0.00335355369207 0.000194212275154)
(-0.000976033561249 0.00290294305578 0.000134683110277)
(-0.0016841399152 0.00301153329907 -0.000274638634217)
(-0.00174448319489 0.00317444270075 -4.42123724377e-06)
(-0.00126974008512 0.00275941684285 -0.000112748735969)
(-0.00158979867392 0.00280092557169 -0.000513477059754)
(-0.00181260862604 0.00297607979845 -0.000248292373383)
(-0.00138597465086 0.00260551380414 -0.00040564797724)
(-0.00120092036722 0.00261051705566 -0.000740616321863)
(-0.00157531689785 0.00278651004177 -0.000515639877352)
(-0.00129553623857 0.0024673877028 -0.000719077303335)
(-0.000558982076072 0.00244759272349 -0.000812117122337)
(-0.0010564516704 0.00262255890589 -0.000743863360724)
(-0.00101257934958 0.00236296200842 -0.000983732399296)
(8.30152740087e-05 0.00224460637112 -0.000349359877567)
(-0.0002378090188 0.00248035167086 -0.000704397522189)
(-0.000506849494597 0.0022971785092 -0.000989753671266)
(0.000278677053996 0.00222640074415 0.000123495117954)
(-0.000114879411012 0.0022023131501 -0.000253210758783)
(0.00021315485006 0.00190868619864 -0.000337123605011)
(-0.000184896802791 0.001769484137 0.000207059480694)
(0.000331504052482 0.00183441450356 -0.000213041837212)
(0.00133391428297 0.00203486444795 -0.000874785499134)
(0.000753079785716 0.00191578690405 -0.00080077329419)
(0.00111160677842 0.00178852197045 -0.00109771601597)
(0.00242709396126 0.00215999306888 -0.000737673098828)
(0.00209518334007 0.00199634478207 -0.000823273741226)
(0.00203422802196 0.00178838874019 -0.00104885590561)
(0.00316346206472 0.00235180452241 -0.000402195183618)
(0.00302460300785 0.0021400543899 -0.000496724886581)
(0.00264979157551 0.00187833218037 -0.00066495944679)
(0.00348910832232 0.00259837196124 -6.02675201546e-05)
(0.00355950303953 0.00234734523491 -0.00012285529248)
(0.00299576355069 0.00204289650732 -0.00022435961028)
(0.00343916664541 0.00286374066561 0.000228417349372)
(0.00367440310428 0.00259646587393 0.000214838260265)
(0.00306125954623 0.00225804934027 0.00018262148736)
(0.00308491544205 0.00311524208623 0.000447292105127)
(0.003442608346 0.00284347602748 0.000476791338327)
(0.00288119582997 0.00248447470541 0.000512717141669)
(0.00250108657995 0.00333157746614 0.000596726899927)
(0.00293717058635 0.00307227483777 0.000669272360706)
(0.00249823714652 0.0027007369803 0.000759926606087)
(0.0017681728433 0.00349037056104 0.000677408495054)
(0.0022334098279 0.0032570350462 0.000787684352491)
(0.00196093678113 0.00288133412471 0.000918881950869)
(0.000963915718619 0.00357913571717 0.000695941427665)
(0.00141886071916 0.00337984730282 0.00083654809127)
(0.0013290439445 0.00300715477355 0.000992081068609)
(0.000158178460228 0.00359586136977 0.000659970741471)
(0.00057074388398 0.00343434062545 0.000825678065827)
(0.000659912249716 0.00306934635108 0.00098735614128)
(-0.000587142741807 0.00354588680778 0.000574392689082)
(-0.000246276805435 0.00342335921865 0.000762327534435)
(5.52520322757e-06 0.00306846375831 0.000911984828429)
(-0.00121416610504 0.00344020948058 0.000439585606156)
(-0.000972787180177 0.00335470867744 0.000650229951139)
(-0.000586117574594 0.00301221055049 0.00077022258136)
(-0.0016644762255 0.00329433782965 0.00025518742485)
(-0.00154765817456 0.00324169177574 0.000486600775752)
(-0.00106825541475 0.00291478957741 0.000562172112736)
(-0.00188124170805 0.00312381689563 2.19250235898e-05)
(-0.00191160213773 0.00310026876476 0.00027277038842)
(-0.00139846076007 0.00279337574955 0.000290939494078)
(-0.00181003283422 0.00294752652992 -0.00025045519098)
(-0.0020128274271 0.00294385096331 7.00873895074e-06)
(-0.00154161643533 0.00266480891981 -3.89799555693e-05)
(-0.00141902645681 0.00278595702665 -0.000518886916213)
(-0.00178905484688 0.00279247934599 -0.000291405465123)
(-0.00146269423759 0.0025518765298 -0.00039697558245)
(-0.000744904100012 0.00264514915108 -0.000636143760577)
(-0.0012555647718 0.00266044082548 -0.000555320647725)
(-0.00116943484582 0.00247205793418 -0.000712004153449)
(-3.52168321463e-05 0.00245244516027 -0.000231542526668)
(-0.000393269667355 0.00254160410133 -0.000558472249595)
(-0.000627669589342 0.00243060963339 -0.00077093955187)
(0.000203891683725 0.00229810066223 0.000193666081309)
(-0.000171992069778 0.00235658135816 -0.000106916655148)
(0.00033156761981 0.00177881824004 -0.000256590208484)
(-0.000105707028418 0.00155400759455 0.000252684232975)
(0.000391875147223 0.0016841242505 -0.000116091030057)
(0.00153332869545 0.00187483108337 -0.000749261536281)
(0.000907351626368 0.00165969052813 -0.000698134895534)
(0.00124385363596 0.00162121215763 -0.000945664643738)
(0.0026780760249 0.00197136397835 -0.000582325528979)
(0.00231074149975 0.00171596372576 -0.000698675463595)
(0.00222013232159 0.0016072974872 -0.000864366205325)
(0.00343834614249 0.00212878371315 -0.000217384995443)
(0.00327629054266 0.00182557612445 -0.000348268565006)
(0.00286740464336 0.00167758108426 -0.000445791769115)
(0.00376190752163 0.00233754726482 0.00015225048794)
(0.00382247020076 0.00199148839227 4.96527703531e-05)
(0.00322631290607 0.00181885171799 3.22955636952e-05)
(0.0036903373762 0.00256719696328 0.00046321224922)
(0.00392557871674 0.00219652156145 0.000409348303682)
(0.003287406281 0.00200921491259 0.000471514574563)
(0.00330055928207 0.00279052894613 0.000698771593905)
(0.00366998670717 0.00240321130611 0.000687692936128)
(0.00309217676228 0.00221468977682 0.000830042944473)
(0.0026703626991 0.00298718634531 0.00086022981327)
(0.00312623121745 0.00259967272237 0.000895179284056)
(0.00268100062444 0.00241567153434 0.00110279883271)
(0.0018849342215 0.0031355131745 0.000946823948708)
(0.00237431455022 0.00276184494027 0.00102259320768)
(0.00210473053838 0.00258694220061 0.00128061871523)
(0.00102614106292 0.00322381614522 0.000966284729433)
(0.00150773947107 0.00287427457421 0.00107388811947)
(0.00142700102522 0.00271000805172 0.0013643660087)
(0.00016668583389 0.00325063704318 0.000928034858792)
(0.00060796359066 0.00293138458217 0.00106167841968)
(0.000709015862036 0.00277608253575 0.0013624113778)
(-0.00063032110436 0.00322109432091 0.000838164796492)
(-0.000258406160385 0.00293692363559 0.000994671552845)
(6.05379863793e-06 0.0027860652384 0.00128344260747)
(-0.00130593366503 0.0031451917529 0.000697245120735)
(-0.00103176771498 0.0028972454436 0.000877462072723)
(-0.00063143285195 0.00274744921824 0.00113307586137)
(-0.00179992573041 0.00303700565284 0.000504183739321)
(-0.00164956046092 0.00282385637357 0.000707476993207)
(-0.00115443580434 0.00267399478436 0.000911827518579)
(-0.00205214830449 0.00291035053008 0.000257854103781)
(-0.00204902982745 0.00272958790427 0.000485635073938)
(-0.00151770956882 0.00258179084371 0.000622903475731)
(-0.00200369365831 0.00277987241984 -3.39415351922e-05)
(-0.00217794784779 0.00262450673658 0.000207929570037)
(-0.00168491367799 0.0024857669934 0.000270889619945)
(-0.00161394988768 0.00265927635571 -0.000327839196635)
(-0.00196838451365 0.00252271912851 -0.000109410829932)
(-0.00161588709926 0.00240407812808 -0.000119983506566)
(-0.000915909089243 0.00255016347837 -0.000477649136744)
(-0.00142561350676 0.00243044386601 -0.00039363654052)
(-0.00131183765633 0.00235103586937 -0.000468043776876)
(-0.000146288050058 0.00238353637405 -0.000133263641618)
(-0.000531610071227 0.00233991047292 -0.000426770626315)
(-0.000737591080065 0.00232872610779 -0.000567927331567)
(0.000126854492941 0.00213570397316 0.000243501853119)
(-0.000222569677619 0.00226914320256 1.61086904199e-05)
(0.000441626277386 0.0014405260247 -0.000188860454074)
(-3.42426538676e-05 0.00115174291272 0.000284685506281)
(0.000448075315381 0.0013496497068 -3.93615409492e-05)
(0.00170678772436 0.0015041242 -0.000647548822848)
(0.00103165294976 0.00121828851577 -0.000617405571608)
(0.00135962850663 0.0012865053795 -0.000823759368585)
(0.00289525340446 0.00157075171151 -0.000464618499622)
(0.00248404498223 0.00125282172899 -0.000608485523863)
(0.00238423482483 0.0012682396609 -0.000725323601636)
(0.00367831384882 0.00168724215135 -8.12307992101e-05)
(0.00348098323079 0.00132741812425 -0.000245048902448)
(0.00306294365928 0.0013197716819 -0.000284902342785)
(0.00400467183268 0.00184840708884 0.000306750586095)
(0.00403927119322 0.00144683134045 0.000167076378866)
(0.00343700676891 0.00143142409958 0.00021829919071)
(0.00391885879707 0.00203012233983 0.000633828990589)
(0.0041373971339 0.00159881828156 0.000541038617379)
(0.00349929947522 0.00158681053416 0.000683516457438)
(0.00350100623097 0.0022103660553 0.000884100626279)
(0.00386564277538 0.00175464251947 0.000831240800339)
(0.00329400671467 0.00175752921309 0.0010664215073)
(0.00283049655728 0.00237245208076 0.00105754267847)
(0.00329163031875 0.00190640203471 0.0010514816219)
(0.00285898280187 0.00192834691879 0.00136378051887)
(0.00199774745474 0.00249798316256 0.00114965737844)
(0.00250002608272 0.00203446964889 0.00118377150259)
(0.00224691338762 0.00207688979729 0.00156012454384)
(0.00108997969697 0.00257852203212 0.00116928180972)
(0.00158950471733 0.00212858701049 0.00122824219243)
(0.00152577693357 0.00218753402637 0.00165345545452)
(0.000183495271475 0.0026147038246 0.00112831511374)
(0.000645796588207 0.00218505287532 0.00121255341832)
(0.000761790316857 0.00225320343494 0.00165281624158)
(-0.000658270608329 0.00261099234784 0.00103396882908)
(-0.000259387606 0.00221001894857 0.0011447063719)
(1.42708852492e-05 0.00227571557386 0.00156867064875)
(-0.00137459513639 0.00257378399256 0.000887693945196)
(-0.00106475574581 0.00220446348877 0.00103126262632)
(-0.0006640051628 0.00226108281598 0.00140910653769)
(-0.00190383934953 0.00251333858713 0.000688928327824)
(-0.00171558428479 0.00217642796023 0.000858264360586)
(-0.00122192901897 0.00222025812603 0.00117667265772)
(-0.00218425862691 0.00244004352567 0.000435710540194)
(-0.00214193217832 0.0021346811418 0.000633569067471)
(-0.0016123352601 0.00216621797133 0.00087532605333)
(-0.00215426428028 0.00236352467891 0.000132460275297)
(-0.00229198058621 0.00208559983829 0.000352019900167)
(-0.00179854029309 0.00211008616549 0.000508912555173)
(-0.0017689591234 0.00229082147745 -0.000175208173817)
(-0.00209548920589 0.00203557631843 2.55956317867e-05)
(-0.0017374098218 0.00206417159091 0.000101837655761)
(-0.00105581828441 0.00221888129299 -0.000342758030091)
(-0.00155069270054 0.00198611240518 -0.000266569964234)
(-0.00142469833257 0.00203746190197 -0.000268809367969)
(-0.000246467640756 0.00209084503859 -5.00051315777e-05)
(-0.000637651214134 0.00192584123384 -0.000316680845441)
(-0.00082513295723 0.00202899805394 -0.000395281383207)
(5.67069286062e-05 0.00176759626439 0.000277801190485)
(-0.000267174550913 0.00198071993125 0.000121640082601)
(0.000523315943981 0.000936907370425 -0.000143859611252)
(1.37193343247e-05 0.000619444769015 0.000299600940399)
(0.000488869661346 0.000869868820978 8.98226024264e-06)
(0.00183410119062 0.000972815080482 -0.000578342272623)
(0.00111204754214 0.000650014016756 -0.000568416139801)
(0.00144513450878 0.000823580117126 -0.000742510673589)
(0.00305644601268 0.00101379470719 -0.000388915926689)
(0.00259837462036 0.000667552958886 -0.000557105029564)
(0.00250880798802 0.000810505524245 -0.000637075959342)
(0.00386055036912 0.00108984107844 3.25827562845e-06)
(0.00361900408651 0.000710684071254 -0.000189002263715)
(0.00321468170808 0.000846225699911 -0.000187370187884)
(0.00419187560298 0.00119888511298 0.00040136441015)
(0.00418890066952 0.000781778612035 0.000230030653885)
(0.00360390960721 0.000925344759468 0.000333727634383)
(0.00409851673944 0.0013247572266 0.000738450427129)
(0.0042867831544 0.000875625311958 0.000612204135274)
(0.00367033149714 0.00103762212149 0.000816551993808)
(0.00366156487336 0.00145246921318 0.000998621795958)
(0.00400678001888 0.000974292002367 0.000908852130055)
(0.0034600636993 0.00116306752249 0.00121730255628)
(0.00296042047722 0.00157124119098 0.00117771044602)
(0.00341358718161 0.00107369567441 0.00113645050251)
(0.00300793399209 0.00129170968331 0.00153385093028)
(0.00209067402903 0.00167021711185 0.00126235631658)
(0.00259779801954 0.00116207149539 0.00126303599938)
(0.00236864490843 0.00140778232013 0.001742144764)
(0.00114582064149 0.00174195735694 0.00127151380103)
(0.0016574102509 0.00123630666552 0.00130298382341)
(0.00161308732112 0.00150051074797 0.00183713387277)
(0.000204463656572 0.00178533108838 0.00122894467648)
(0.000686367544049 0.00129187936271 0.00128309254656)
(0.000812377418236 0.00156313100481 0.00183453060826)
(-0.00066357525816 0.00180527951954 0.00114200016914)
(-0.000241819689821 0.00133253468127 0.00121293467046)
(3.17614741846e-05 0.00159856968427 0.00174552325972)
(-0.00140562398832 0.00180806850023 0.00100183304171)
(-0.00106411840959 0.001362376795 0.00110563761974)
(-0.000672443056585 0.0016108750694 0.00158413546896)
(-0.0019587215448 0.00179903498693 0.000802905100233)
(-0.00173186890615 0.00138376356579 0.000937957245022)
(-0.00125549588074 0.00160861562437 0.00134576196681)
(-0.00225934449552 0.00178144609243 0.000549878427445)
(-0.0021754876999 0.00139586077538 0.000715588226185)
(-0.00166531559233 0.00159766011914 0.00103944330934)
(-0.0022445768912 0.00175935102328 0.000245155256657)
(-0.00234038532003 0.00140248814953 0.00043682462866)
(-0.00186559772881 0.00158463315171 0.000668344060201)
(-0.0018666048058 0.00173371318572 -6.57661586302e-05)
(-0.00215592647116 0.00140318722852 0.000110611975567)
(-0.00181158637868 0.0015749242511 0.000254416972478)
(-0.0011497388973 0.00169740603035 -0.000240492779584)
(-0.00161735514001 0.00139442326513 -0.000182957214479)
(-0.00149561186509 0.00157121427973 -0.000125176799722)
(-0.00031990425732 0.00160766120919 1.11254766213e-05)
(-0.000701353275705 0.00136302672634 -0.000240128925048)
(-0.000881337594956 0.00156951505389 -0.00026702015772)