/*--------------------------------*- C++ -*----------------------------------*\
| =========                 |                                                 |
| \\      /  F ield         | OpenFOAM: The Open Source CFD Toolbox           |
|  \\    /   O peration     | Version:  3.0.1                                 |
|   \\  /    A nd           | Web:      www.OpenFOAM.org                      |
|    \\/     M anipulation  |                                                 |
\*---------------------------------------------------------------------------*/
FoamFile
{
    version     2.0;
    format      ascii;
    class       volScalarField;
    location    "0.3";
    object      epsilon_0;
}
// * * * * * * * * * * * * * * * * * * * * * * * * * * * * * * * * * * * * * //

dimensions      [0 2 -3 0 0 0 0];

internalField   nonuniform List<scalar> 
7968
(
0.107525396515
0.108330538663
0.108610047715
0.108666191758
0.108677359158
0.108678185749
0.108673150809
0.108663484813
0.108651271697
0.108641028654
0.108640746874
0.108650706507
0.108662883396
0.10867259707
0.108677707406
0.108676974241
0.108665915758
0.108609859723
0.108330639551
0.107525479485
0.108330675853
0.117777047733
0.121121793915
0.121779668884
0.121864997078
0.121859891048
0.121839973385
0.121817547335
0.12179812775
0.121786601328
0.121786418941
0.121797706047
0.121816990405
0.121839393847
0.121859379414
0.121864611669
0.121779383681
0.12112145345
0.117777241271
0.108330965355
0.108610284413
0.121121528592
0.126423487648
0.127637431239
0.127826295087
0.127832385631
0.127809517007
0.127783695116
0.127762713939
0.127751021782
0.127750784406
0.127762138067
0.12778288576
0.127808624619
0.127831565113
0.127825668252
0.127637030781
0.126423160412
0.121121580086
0.108610558129
0.108666422509
0.121778826302
0.127636672116
0.129041954572
0.129264865521
0.129264531738
0.129227317175
0.129188991352
0.129159714986
0.129144104404
0.129143784729
0.129158904136
0.129187821811
0.129225971287
0.129263255669
0.129263855569
0.129041291299
0.127636211349
0.121778796561
0.108666750243
0.10867747434
0.121863339175
0.12782445236
0.129263687326
0.129477133319
0.129450560326
0.129384482634
0.129358823837
0.129345692197
0.129338354519
0.129338221572
0.129345356927
0.129358339323
0.129382916261
0.129448790203
0.12947566551
0.129262689991
0.127823808687
0.121863201278
0.108677806088
0.108678090175
0.121857342494
0.127829409225
0.129262099669
0.129449290866
0.129404249033
0.129381116737
0.12935346422
0.129330801272
0.129318237967
0.129318071931
0.129330372864
0.129352867015
0.129380444784
0.12940357111
0.129447408115
0.129260761675
0.127828547683
0.121857067913
0.10867839122
0.108672761618
0.121836568785
0.12780551781
0.129223786863
0.129382524447
0.12938074424
0.129341978908
0.129295946365
0.129257988681
0.129236717913
0.129236513038
0.129257457393
0.1292952065
0.129341168356
0.129379965924
0.129380656274
0.129222173705
0.127804467833
0.121836164168
0.108673009245
0.108662749143
0.121813430804
0.127778917655
0.129184697711
0.129357806211
0.129352799392
0.129295619466
0.129228749469
0.12917102739
0.12913720546
0.129136950877
0.129170378665
0.129227872683
0.129294670496
0.129351913716
0.129357068609
0.129182943938
0.127777733623
0.121812927725
0.108662923835
0.108650210845
0.12179357127
0.127757519545
0.129155031741
0.129344491971
0.129329939562
0.129257468036
0.12917084796
0.129090854842
0.129040592618
0.129040261294
0.129090064715
0.129169852044
0.129256422304
0.129328968769
0.129343701804
0.129153218779
0.127756265967
0.121793001851
0.108650295601
0.108639933957
0.121782029348
0.127745867158
0.129139529341
0.129337155813
0.129317405953
0.129236271193
0.129137167089
0.129040826531
0.128975418859
0.128974997474
0.129039928632
0.129136114239
0.129235198732
0.129316418048
0.129336346595
0.129137765279
0.127744611103
0.121781428069
0.108639892629
0.108640356035
0.121782354951
0.127746210653
0.129139903733
0.129337271679
0.129317538762
0.129236454216
0.129137432298
0.12904122062
0.128975994024
0.128975598733
0.129040376803
0.129136440199
0.129235443536
0.129316603101
0.129336496219
0.129138270705
0.127744990382
0.121781708011
0.108640214861
0.108651045776
0.121794483846
0.127758498766
0.129156094291
0.129344818477
0.129330305583
0.129257954843
0.129171520359
0.129091779682
0.129041781313
0.129041505013
0.129091126521
0.129170694409
0.129257084714
0.129329484303
0.129344124816
0.129154665553
0.12775737245
0.121793855544
0.108650891612
0.108663654613
0.12181475979
0.127780403074
0.129186298643
0.129358296955
0.129353295484
0.129296244768
0.12922957065
0.12917209011
0.129138480515
0.129138291608
0.129171621414
0.129228936285
0.129295547793
0.129352617701
0.12935769307
0.12918508851
0.127779376873
0.121814149321
0.108663523911
0.108673607764
0.121838149205
0.127807354313
0.129225773644
0.129384298916
0.129381303495
0.129342598038
0.129296718061
0.12925895042
0.129237847573
0.129237715788
0.129258623939
0.129296255625
0.129342065678
0.129380742202
0.129383277493
0.129224748622
0.127806405537
0.12183754429
0.108673499202
0.108678814324
0.121859043237
0.127831452112
0.129264278868
0.129451471585
0.129404858774
0.12938169403
0.129354095327
0.129331569298
0.129319140166
0.129319048424
0.129331347218
0.129353768763
0.129381286176
0.129404231419
0.129450686276
0.129263405202
0.127830542657
0.12185842388
0.108678720144
0.108678049232
0.121865048765
0.127826562314
0.129265889764
0.129479305619
0.129452693498
0.129386551554
0.129359342847
0.129346274303
0.129339039
0.129338975822
0.129346125517
0.129359106108
0.129386321102
0.129452276087
0.129478649285
0.129265090534
0.127825641405
0.12186439315
0.108677960388
0.108666836151
0.121780368528
0.127638651691
0.12904394915
0.129266699704
0.129266216686
0.129229000591
0.129190793222
0.129161827264
0.129146595327
0.129146620115
0.12916192383
0.129190841942
0.129228875456
0.129265853012
0.129266090341
0.12904314951
0.127637653751
0.121779673178
0.108666772284
0.108610514831
0.121122603427
0.126424963224
0.127638851929
0.127827463022
0.127833257168
0.127810201377
0.127784352626
0.127763510735
0.127752053358
0.127752050345
0.127763561963
0.127784346914
0.127810030908
0.127832852258
0.127826817861
0.127637995759
0.126423875857
0.121121804341
0.10861045663
0.108330941101
0.117777954196
0.121122786138
0.121780570257
0.121865661256
0.121860258338
0.121840102481
0.121817562228
0.121798158943
0.121786741522
0.121786652728
0.121798031552
0.121817350709
0.121839746994
0.121859715127
0.121864935219
0.121779682658
0.121121593767
0.117777125976
0.108330871123
0.107525468375
0.108330751569
0.108610216003
0.108666403482
0.108677562042
0.108678345039
0.108673249067
0.108663519233
0.108651252016
0.108640951855
0.108640627233
0.108650559176
0.108662715577
0.108672406831
0.108677497864
0.108676748705
0.108665702454
0.108609663887
0.108330477682
0.107525379226
0.108326086581
0.1176203164
0.12093345767
0.1215907183
0.121682629827
0.121686289283
0.121675471639
0.121660575435
0.121645627554
0.121635543397
0.121635398082
0.121645292935
0.121660172115
0.121675074784
0.121685940019
0.121682357623
0.121590521767
0.12093329614
0.117620316522
0.108326042243
0.117620199227
0.0933002647573
0.0901140720905
0.0894695609802
0.0893739547084
0.0893775907778
0.0893941987162
0.089409652434
0.0894208110032
0.0894265447232
0.0894266061988
0.0894209721587
0.0894098960899
0.0893944927459
0.0893778975123
0.0893742407082
0.0894698179385
0.090114305
0.0933003951193
0.117620187733
0.120933570971
0.0901137692422
0.0845765922117
0.0832248381285
0.0829635979655
0.0829343592058
0.0829427561817
0.0829543669303
0.082963233842
0.082967876557
0.0829679112542
0.0829633304971
0.082954507685
0.0829429131635
0.0829345029907
0.0829636877299
0.0832248419738
0.0845765386914
0.0901138075034
0.120933607288
0.121590933773
0.089469379018
0.0832248795634
0.0816037763808
0.0812682848527
0.0812236932793
0.0812299601427
0.0812426430361
0.081252841017
0.0812581275871
0.0812581726434
0.081252965142
0.0812428134163
0.0812301017593
0.0812238011259
0.0812683171505
0.0816036954867
0.0832247456751
0.0894694379404
0.121591013552
0.121682742266
0.0893739831994
0.0829637598562
0.0812683879228
0.0809133137496
0.0808701103568
0.0808865876598
0.0809205846988
0.0809485983384
0.0809630039877
0.080963186658
0.0809490788951
0.0809212347897
0.0808869522817
0.0808702846308
0.0809133615439
0.0812683048585
0.0829636235762
0.0893740604441
0.121682834123
0.121686172378
0.0893778248117
0.0829346332454
0.0812238813056
0.0808701939219
0.0808477665789
0.0809086001713
0.0809729379459
0.0810195854855
0.081042807695
0.0810430201838
0.0810201612276
0.0809737837584
0.0809095378503
0.0808484622069
0.080870315914
0.0812238207122
0.0829345169917
0.0893779354252
0.121686216681
0.121675041593
0.0893945903619
0.0829431087663
0.0812302073212
0.0808869833225
0.0809089735207
0.0810060294919
0.0811003108894
0.0811686554396
0.0812028634121
0.0812030761213
0.081169233154
0.0811011884309
0.0810070963788
0.0809100151377
0.0808873434061
0.0812301803816
0.0829430103601
0.0893947207369
0.121675023248
0.121659790508
0.0894101306694
0.0829547634196
0.0812429837087
0.0809217481767
0.0809736252804
0.0811006034427
0.0812234137898
0.081316422755
0.081364048809
0.0813642540216
0.081316982811
0.0812242666502
0.0811016726714
0.0809747746671
0.0809226410364
0.0812430325584
0.0829546780354
0.0894102654369
0.121659697989
0.121644534312
0.0894212938898
0.082963632901
0.0812532016005
0.080949954447
0.0810203616829
0.0811690023361
0.0813164260603
0.0814339865929
0.0814954603012
0.0814956576273
0.0814345291852
0.081317225942
0.081170021821
0.0810214877371
0.0809509075804
0.0812532581367
0.0829635449005
0.0894214158809
0.121644368459
0.121634394741
0.0894269538775
0.0829682343364
0.0812584534763
0.0809642799777
0.0810434410566
0.0812030115907
0.0813638238462
0.0814952218155
0.0815643466174
0.0815645189554
0.0814957069979
0.0813645471982
0.0812039391896
0.0810444741538
0.0809651637917
0.0812584904337
0.0829681334718
0.0894270502278
0.121634166112
0.121634658033
0.0894268691038
0.0829681868935
0.0812584096754
0.0809641163326
0.0810432340402
0.0812027491019
0.0813635135712
0.0814948812903
0.0815639758675
0.0815641363515
0.081495317062
0.0813641568152
0.0812035548723
0.0810441208274
0.0809648719244
0.0812584144544
0.0829680699112
0.0894269445293
0.121634395823
0.121645174891
0.089421040135
0.0829634931892
0.0812530738589
0.0809495037508
0.0810197975284
0.0811682922847
0.0813155918409
0.0814330592317
0.0814944365824
0.081494583341
0.0814334297479
0.0813161275815
0.0811689407712
0.0810204947485
0.0809500895157
0.0812530388468
0.0829633571987
0.0894210880144
0.121644934096
0.121660576167
0.0894097204667
0.0829545473875
0.0812427995392
0.0809211172127
0.0809728441271
0.0810996473388
0.0812222888194
0.0813151277353
0.081362605635
0.0813627247551
0.0813154142589
0.0812226954634
0.0811001163531
0.0809733342068
0.0809214925112
0.0812427207193
0.0829543950211
0.0894097484204
0.121660365403
0.12167582842
0.0893940442508
0.0829428309096
0.0812300145584
0.0808866402377
0.0809081044967
0.0810050068648
0.0810991053032
0.0811672371844
0.0812012491729
0.0812013244923
0.0811674083378
0.0810993475761
0.0810052824234
0.0809083692309
0.0808866606973
0.0812298728311
0.0829426647973
0.0893940606678
0.121675639294
0.121686883686
0.0893771619782
0.0829342904327
0.0812236418096
0.0808698943993
0.0808466814957
0.0809075399185
0.0809716803936
0.0810180932961
0.0810410803103
0.081041104463
0.0810181388473
0.0809717506127
0.0809076289811
0.0808469067963
0.0808698520932
0.0812234834295
0.0829341255902
0.089377182544
0.121686698592
0.121683338987
0.08937322411
0.0829633375061
0.0812680760714
0.0809130102348
0.0808697214988
0.0808860863352
0.0809194053008
0.0809471678377
0.0809613416512
0.0809613191131
0.0809471000239
0.0809193209985
0.0808860770927
0.0808697153159
0.0809129264568
0.0812679251338
0.0829631980151
0.0893732693187
0.121683142094
0.121591360401
0.0894685718207
0.083224364315
0.081603356394
0.0812678894013
0.0812232946813
0.0812295451616
0.0812421530491
0.0812522973997
0.0812575256122
0.0812575194217
0.0812522800536
0.0812421323358
0.0812295205324
0.0812232626905
0.0812678313263
0.0816032631529
0.0832243055447
0.0894686752738
0.121591139016
0.120933772443
0.0901129858244
0.0845760086201
0.0832243316918
0.0829631350826
0.0829339318292
0.0829423470411
0.0829539522468
0.0829627923111
0.0829673935892
0.0829673875222
0.0829627761481
0.0829539396536
0.0829423506888
0.0829339587745
0.0829631798222
0.0832243950834
0.0845761604464
0.0901132372922
0.120933456212
0.117620320007
0.0932995853383
0.0901135198974
0.0894690943954
0.0893735681301
0.0893773033389
0.0893939774976
0.0894094475632
0.0894205696975
0.0894262332956
0.0894262254907
0.0894205335051
0.089409424162
0.0893940079123
0.0893774156064
0.08937377455
0.0894693968608
0.0901139990734
0.0933001227242
0.117619818528
0.108325935445
0.117620442304
0.120933497918
0.121590731181
0.12168262953
0.121686225963
0.121675342281
0.121660390538
0.121645414793
0.121635331751
0.121635199918
0.121645113562
0.121659987081
0.121674867508
0.121685702776
0.121682090421
0.121590233965
0.120932987334
0.117619969511
0.108325804946
0.108615145972
0.120916940273
0.126153975157
0.12735390567
0.127544254605
0.127557040183
0.12754250863
0.127523657634
0.127506660495
0.127496329816
0.127496232428
0.127506424832
0.127523352566
0.127542196549
0.127556768233
0.127544060958
0.127353794172
0.126153887611
0.120916953052
0.108615267673
0.120916683202
0.0901634797618
0.0846584358584
0.0833266437436
0.083082760951
0.0830709071379
0.0830961375864
0.0831223361939
0.0831419143196
0.08315222618
0.0831523261821
0.0831421687912
0.0831227050092
0.0830965634893
0.0830713269866
0.0830831170791
0.0833269179727
0.0846586721259
0.0901636619642
0.120916648062
0.126153950078
0.0846582089254
0.0752671843106
0.0726498096622
0.0720578813017
0.0719672225873
0.0719724577248
0.0719899064851
0.0720041553999
0.0720117665795
0.0720118155235
0.072004285525
0.0719900896595
0.0719726537563
0.0719673813948
0.0720579345208
0.0726497100726
0.075267013463
0.0846582349549
0.126154000244
0.127354016369
0.083326747049
0.072649956434
0.0695057791892
0.0687436363841
0.068608289459
0.0686019018594
0.0686154741999
0.0686274164554
0.0686336276821
0.0686336676566
0.0686275222453
0.0686156129017
0.0686020183023
0.0686083430457
0.0687435595732
0.0695055231707
0.0726496484017
0.0833267748937
0.127354108267
0.127544248897
0.0830833199826
0.0720582437585
0.0687437807823
0.067923463786
0.0677780180872
0.0677726655805
0.0677901374638
0.0678083638839
0.0678197036056
0.067819793376
0.0678086027134
0.067790451412
0.0677729125083
0.0677780925373
0.0679233655739
0.0687434922307
0.0720579234485
0.0830833964584
0.12754434215
0.127556780788
0.0830719199734
0.071967772963
0.0686085205401
0.0677780823793
0.0676326363129
0.0676161321186
0.0676182598571
0.0676410371257
0.0676605082129
0.0676606160905
0.0676413380457
0.0676186778759
0.0676165546608
0.067632945206
0.0677780293659
0.0686082449291
0.0719674835143
0.0830720687038
0.127556819888
0.127541912745
0.0830975396724
0.0719731512179
0.0686021781932
0.0677728238452
0.0676161898466
0.0675544923034
0.0675349496748
0.0675684302159
0.0676002715664
0.0676003802914
0.067568727208
0.0675353711184
0.0675549672461
0.0676165981272
0.0677729343535
0.0686019331172
0.0719728951877
0.0830977474538
0.127541886047
0.127522705884
0.0831240064818
0.0719906916376
0.0686157831005
0.0677904395262
0.0676183368923
0.0675350464135
0.06752208876
0.0675805000899
0.0676283713179
0.0676284851741
0.0675808025502
0.067522501376
0.0675355155485
0.0676188017905
0.0677906826472
0.0686155831179
0.0719904620639
0.0831242504514
0.127522612516
0.127505429365
0.0831436911126
0.07200497025
0.0686277289307
0.0678086951302
0.0676410880264
0.0675684947239
0.0675804286157
0.0676680585855
0.0677308384067
0.0677309588723
0.0676683824002
0.0675808359011
0.0675689560712
0.0676415522625
0.0678089641146
0.0686275395937
0.07200474888
0.0831439425152
0.1275052886
0.127495044828
0.083153923782
0.0720125344346
0.0686339067394
0.067819973925
0.0676604897239
0.0676002326819
0.0676282170793
0.0677307570893
0.0678015976307
0.0678017073605
0.0677310592177
0.0676286028159
0.0676006633935
0.0676609096888
0.0678202132689
0.0686337073067
0.0720123058078
0.0831541571081
0.127494878938
0.127495224936
0.0831537469449
0.072012455339
0.068633867365
0.0678199020383
0.0676604137542
0.0676001726657
0.0676281756014
0.0677307196516
0.0678015437266
0.0678016497258
0.0677310008289
0.0676285346689
0.0676005541456
0.0676607662418
0.0678200839053
0.0686336468532
0.0720122117054
0.0831539526981
0.12749504343
0.127505911279
0.0831431696903
0.0720047362599
0.0686276128404
0.0678084886241
0.0676408813525
0.0675683601829
0.0675803638517
0.0676680035825
0.0677307359892
0.0677308341775
0.0676682476371
0.067580673744
0.0675686674216
0.0676411449476
0.0678085955257
0.0686273656751
0.0720044707657
0.0831433306847
0.127505740509
0.127523353189
0.0831231748763
0.0719903252108
0.068615612046
0.0677901567582
0.0676180798893
0.0675349347373
0.0675221093362
0.0675805112156
0.0676283252655
0.0676284098267
0.0675807143473
0.067522363683
0.0675351634624
0.0676182523853
0.0677901758165
0.0686153384986
0.0719900415209
0.0831232961449
0.127523195856
0.127542607208
0.083096441764
0.071972669346
0.0686019700612
0.0677725589131
0.0676158677707
0.0675543462681
0.0675349526303
0.0675684218546
0.0676001937836
0.0676002545151
0.0675685688636
0.0675351378805
0.0675545114168
0.0676159541245
0.0677724520989
0.0686016672603
0.0719723757085
0.0830965372192
0.127542459577
0.127557447635
0.0830705906465
0.0719671608975
0.068608227457
0.0677778372346
0.0676321695849
0.0676156910728
0.067617868324
0.0676406038286
0.0676599715446
0.0676600090807
0.0676406960435
0.0676179869692
0.0676157835478
0.067632204574
0.0677776960994
0.0686079276364
0.071966880681
0.0830706863366
0.127557290468
0.127544845103
0.0830817936122
0.0720574539498
0.0687433120675
0.0679230779205
0.0677775946955
0.067772085017
0.0677894191041
0.0678075560605
0.0678188062383
0.0678188196686
0.0678075885296
0.06778945925
0.0677720995168
0.0677775711431
0.0679229391039
0.0687430498201
0.0720572277414
0.0830819241308
0.127544661719
0.127354484915
0.0833250935115
0.0726489275464
0.0695050166034
0.0687429579878
0.0686076264254
0.0686012234494
0.0686147544944
0.0686266608523
0.0686328337171
0.0686328394641
0.0686266748353
0.0686147740693
0.0686012339321
0.0686076107622
0.0687428780362
0.0695048651595
0.0726488500813
0.0833253249147
0.127354237171
0.126154214568
0.0846565818274
0.0752659232404
0.0726487216293
0.0720568878411
0.0719662965169
0.0719715682323
0.0719890160986
0.0720032285926
0.0720107818613
0.072010776757
0.0720032081225
0.0719890001553
0.0719715775321
0.0719663389561
0.0720569502059
0.0726488131924
0.0752661698393
0.0846570482817
0.126153802931
0.12091681587
0.0901620714526
0.084657062461
0.0833253635562
0.0830816380083
0.0830699688293
0.0830953305645
0.083121563994
0.0831410749147
0.0831512563765
0.0831512169974
0.0831409520848
0.0831214287703
0.0830952692647
0.0830700462314
0.0830818748717
0.0833257709038
0.0846577501797
0.0901629097734
0.120916199021
0.108614986555
0.120917136894
0.126154140071
0.127354007266
0.127544322205
0.127557032914
0.127542427605
0.127523529243
0.127506531811
0.127496236888
0.127496169433
0.127506378925
0.127523293874
0.127542109311
0.127556642992
0.127543895512
0.1273535828
0.126153615715
0.12091660066
0.108615060095
0.108689242088
0.12158656864
0.127363245265
0.128749104741
0.128977602285
0.12899345243
0.128976122266
0.128954388005
0.128935617977
0.128924662197
0.128924587234
0.128935437825
0.128954152412
0.128975884039
0.1289932597
0.128977484922
0.128749058175
0.12736327959
0.121586725221
0.108689473256
0.121586250114
0.0895301282002
0.0833413636684
0.0817556504257
0.081449068373
0.0814321679765
0.0814647233442
0.0814993665986
0.0815255742366
0.08153946411
0.0815395817366
0.0815258771186
0.0814997983103
0.081465210029
0.0814326330668
0.0814494470027
0.0817559191058
0.0833415443477
0.0895302199383
0.12158630051
0.127363168564
0.0833411788921
0.0726968112715
0.069574214421
0.068827961889
0.0687060306252
0.0687113518663
0.0687340473606
0.0687526234558
0.0687624921103
0.0687625480151
0.0687527701761
0.0687342475653
0.0687115567892
0.0687061797839
0.0688279745551
0.0695740329362
0.072696522415
0.0833410783519
0.127363320812
0.128749146267
0.0817559763768
0.0695744503896
0.0657975440692
0.0648262171271
0.0646358659524
0.0646089612644
0.0646097373932
0.0646179064042
0.064624167749
0.0646241985525
0.0646179827112
0.0646098259265
0.0646090195845
0.0646358454233
0.0648260395372
0.0657971567767
0.0695740000005
0.0817558895715
0.128749362708
0.128977514258
0.0814500809574
0.0688285113815
0.0648264073299
0.0637623832699
0.0635230327009
0.0634582308756
0.063438543549
0.0634431613845
0.0634509720266
0.06345101407
0.0634432629077
0.0634386489686
0.0634582710732
0.0635229496517
0.063762132101
0.0648259572663
0.0688280562114
0.0814501059441
0.128977709857
0.128993085594
0.0814338986117
0.0687068662035
0.0646361643024
0.0635230933863
0.0632357040185
0.0631345654688
0.0631021143242
0.0631133833921
0.0631274509452
0.063127500443
0.0631134997618
0.0631022324119
0.063134617622
0.0632356358868
0.0635228211711
0.0646357054743
0.0687064576484
0.0814340636168
0.128993208841
0.128975381853
0.0814671191442
0.0687124279642
0.0646093094046
0.0634582799046
0.0631345713916
0.0630180048256
0.0630054362075
0.0630544370499
0.0630858699985
0.0630859397734
0.0630546159455
0.0630056328433
0.0630180964114
0.0631345187199
0.0634580478719
0.064608861516
0.0687120666688
0.0814673968588
0.128975440813
0.128953277419
0.0815022687041
0.06873529703
0.0646101063159
0.0634386010131
0.0631021506786
0.0630054738317
0.0630623733521
0.0631909515889
0.0632509394899
0.0632510343434
0.0631912082786
0.063062689337
0.0630056682093
0.063102138351
0.0634384078408
0.0646096812735
0.0687349727529
0.0815026238577
0.128953275818
0.128934230651
0.0815287466183
0.0687539626926
0.0646182927001
0.0634432323641
0.063113430452
0.0630544671234
0.063190905903
0.0633721634448
0.0634423497849
0.0634424497818
0.0633724500318
0.0631912970307
0.06305474546
0.0631134709742
0.06344306527
0.0646178781016
0.068753651915
0.0815291284612
0.128934193756
0.128923206729
0.0815426024657
0.0687638021432
0.0646245444765
0.0634510497837
0.0631274983919
0.0630859169043
0.0632508691336
0.0634422926779
0.0635108246392
0.0635109230275
0.0634425769528
0.0632512760212
0.063086221238
0.0631275614184
0.0634508808841
0.064624124368
0.0687634796623
0.0815429609924
0.128923159668
0.12892334033
0.0815423477131
0.0687636941096
0.0646245192788
0.0634510654592
0.063127568044
0.0630860217297
0.0632509476755
0.0634423170513
0.0635108363496
0.0635109367901
0.0634426021662
0.0632513435604
0.063086307087
0.0631276039962
0.0634508639898
0.0646240786168
0.0687633422923
0.0815426502944
0.128923289669
0.128934602142
0.081527997084
0.0687536434648
0.06461821498
0.0634432761447
0.0631136309614
0.0630547761104
0.0631911677511
0.0633722902375
0.0634424374888
0.0634425389292
0.0633725652157
0.0631915144107
0.0630549926779
0.0631136029082
0.0634430235418
0.0646177477569
0.0687532529596
0.0815282173309
0.128934567312
0.128953794421
0.0815010854603
0.0687347977985
0.0646099739091
0.0634386627302
0.0631024409306
0.0630059466928
0.0630628571538
0.0631912851099
0.0632512133808
0.0632512980679
0.0631914983426
0.0630630928876
0.063006049543
0.063102342351
0.0634383653922
0.0646094884329
0.0687343773263
0.0815012295302
0.128953772376
0.128975951327
0.0814655782283
0.06871177472
0.064609097437
0.0634582866278
0.0631348270083
0.0630184848044
0.0630060359893
0.0630550066594
0.0630864118612
0.0630864641392
0.0630551271721
0.0630061446939
0.0630184888482
0.0631346874675
0.0634579713478
0.0646086128876
0.0687113432345
0.0814656650908
0.128975934478
0.128993645984
0.0814320595427
0.0687060439588
0.0646358151561
0.0635229324727
0.0632356966831
0.0631347604022
0.0631024391023
0.0631137403734
0.0631278141251
0.0631278423643
0.0631137994722
0.0631024824764
0.063134737291
0.0632355648634
0.0635226423991
0.0646353586602
0.0687056300029
0.0814321235562
0.128993605966
0.128978016682
0.0814480119121
0.0688274625135
0.0648258144421
0.0637619226345
0.0635226247624
0.0634578590323
0.0634382252936
0.063442841542
0.0634506252292
0.0634506376049
0.0634428673975
0.0634382429363
0.0634578338672
0.0635225174345
0.0637616805543
0.064825421766
0.0688271084646
0.0814480753979
0.128977969465
0.128749534265
0.0817537773143
0.0695730845514
0.0657965365491
0.0648253089811
0.064634970351
0.0646080582497
0.0646088154189
0.0646169546174
0.0646231794074
0.0646231795819
0.0646169509207
0.0646088050634
0.0646080302408
0.0646349001918
0.0648251522868
0.0657962846193
0.0695728994042
0.0817539243065
0.128749415808
0.127363410337
0.0833390163992
0.0726950821091
0.0695726736893
0.0688265095973
0.0687046293664
0.0687099616055
0.0687326188228
0.0687511147773
0.0687608848702
0.0687608596779
0.0687510410681
0.0687325295483
0.0687098919383
0.0687045967863
0.0688265016407
0.0695726986147
0.0726952556484
0.083339397799
0.127363107964
0.121586393036
0.0895281778064
0.0833393127891
0.0817536154576
0.0814471818659
0.0814304648261
0.0814631248566
0.081497739541
0.0815237887295
0.0815374515415
0.0815373552855
0.0815235179594
0.0814974047188
0.0814628632599
0.0814303832432
0.0814473181051
0.0817539882686
0.0833399666644
0.089528970437
0.121585878492
0.108688944102
0.121586740592
0.12736344145
0.128749248225
0.128977702785
0.128993471818
0.128976074532
0.128954310235
0.128935562658
0.12892466304
0.128924629465
0.128935491854
0.128954183706
0.128975871937
0.128993193106
0.128977382913
0.128748899856
0.127363043137
0.1215863681
0.108689147756
0.108723508157
0.121710152238
0.127588599996
0.12901437618
0.129251382367
0.129266967248
0.12924687312
0.129222123369
0.129201355887
0.129189587404
0.129189533427
0.129201230923
0.129221965128
0.129246722925
0.129266866479
0.129251364618
0.129014437211
0.127588781008
0.121710518064
0.108723807219
0.121709806304
0.0894227818831
0.083081167739
0.0814306807499
0.0811099088122
0.0810972160635
0.0811398024672
0.0811850588675
0.0812193199704
0.0812373520669
0.0812374826637
0.0812196597163
0.0811855401555
0.0811403373273
0.0810977170425
0.081110296807
0.0814309214769
0.0830812755959
0.0894227094899
0.121709987342
0.127588518939
0.0830810056743
0.0721096178847
0.0688335734153
0.0680395356939
0.0679102100502
0.0679142021842
0.067936493344
0.0679585189949
0.0679715344851
0.0679715989822
0.0679586872949
0.0679367186612
0.0679144263456
0.067910362703
0.0680395275348
0.06883334005
0.0721092344265
0.083080732309
0.127588812483
0.12901442254
0.081431165159
0.0688338724786
0.0648514516179
0.0638005874104
0.0635810514406
0.0635465811836
0.0635503166386
0.0635624754179
0.063570725997
0.0635707607333
0.0635625584307
0.0635504027407
0.0635466179873
0.0635809872971
0.0638003479828
0.0648509869222
0.0688333276665
0.081430943255
0.129014798294
0.129251303383
0.0811112893559
0.0680402391529
0.0638008157077
0.0626400980735
0.0623762296211
0.0623216079569
0.0623200907695
0.0623370499824
0.0623484512453
0.062348493833
0.0623371492512
0.0623201737832
0.0623215917025
0.0623760686656
0.0626397500259
0.0638002697697
0.0680397077035
0.081111254992
0.129251642031
0.129266603092
0.0810995840274
0.0679113074975
0.0635813869581
0.0623762668838
0.0620920940068
0.0620434018745
0.0620804591065
0.0621516177951
0.0621873760124
0.0621874603281
0.0621518329692
0.0620806846258
0.0620434708857
0.0620919307598
0.0623758812465
0.0635808278083
0.0679108420579
0.0810997571194
0.129266876949
0.129246146177
0.0811431301023
0.0679156403088
0.0635469429849
0.0623216062323
0.0620433651474
0.0620592669698
0.0622611053
0.0625346605367
0.0626479644149
0.0626481178455
0.0625350724063
0.0622616233446
0.0620595864796
0.0620433100543
0.0623212406559
0.0635464053817
0.0679152463591
0.0811434744615
0.12924635617
0.129221039865
0.0811891682354
0.0679381934918
0.0635506907797
0.0623200354468
0.0620803449382
0.062260947572
0.0628524521457
0.0635377685407
0.0637679179438
0.0637681419863
0.0635383715966
0.0628532787497
0.0622615809817
0.0620804786235
0.0623197414526
0.06355018817
0.0679378543981
0.0811896254805
0.129221203512
0.129200006752
0.0812239003049
0.0679603923994
0.0635628786356
0.0623369601041
0.0621513776299
0.0625341581918
0.0635371691521
0.0643902649985
0.0645945973373
0.0645948495445
0.0643909750671
0.0635382123557
0.0625350012638
0.0621516582059
0.0623367280995
0.063562397293
0.0679600667798
0.0812243859859
0.129200154751
0.129188155308
0.0812419705719
0.0679734196019
0.0635711361311
0.0623483503515
0.0621870627578
0.0626472098786
0.0637667352653
0.0645938047506
0.0647520491993
0.0647523026408
0.0645945244831
0.0637678260698
0.0626481128539
0.0621873932167
0.0623481370625
0.0635706471347
0.0679730645213
0.0812424072872
0.129188308276
0.129188247286
0.0812416403905
0.0679732898072
0.0635711189271
0.0623483905264
0.0621871434786
0.0626472371005
0.0637664290713
0.06459316149
0.064751338603
0.0647516029386
0.0645939019988
0.0637675094331
0.0626481088828
0.0621874429122
0.0623481516916
0.0635705981095
0.0679728782341
0.0812419758909
0.129188406703
0.129200265855
0.081222934306
0.0679600103621
0.0635628172946
0.0623370572062
0.0621515937695
0.0625342851647
0.0635365518388
0.0643888243274
0.0645929870936
0.064593261934
0.0643895616289
0.0635375286691
0.0625350073007
0.0621517740827
0.0623367546988
0.0635622561345
0.0679595368528
0.0812231505882
0.129200439681
0.129221396372
0.0811876662372
0.0679375932208
0.0635505652327
0.0623201288388
0.06208060667
0.0622612036303
0.0628520443879
0.0635362745102
0.0637661190804
0.0637663342533
0.0635368126101
0.0628526879282
0.062261622414
0.0620805985012
0.0623197483972
0.0635499724722
0.0679370744883
0.0811877790568
0.129221573815
0.129246527401
0.0811412137486
0.0679148492729
0.0635467201024
0.0623216071245
0.0620435241754
0.0620595360385
0.0622611747079
0.0625342176856
0.0626473329678
0.0626474537814
0.062534507812
0.0622614791691
0.0620596558312
0.0620433598231
0.0623211870652