/*--------------------------------*- C++ -*----------------------------------*\
| =========                 |                                                 |
| \\      /  F ield         | OpenFOAM: The Open Source CFD Toolbox           |
|  \\    /   O peration     | Version:  3.0.1                                 |
|   \\  /    A nd           | Web:      www.OpenFOAM.org                      |
|    \\/     M anipulation  |                                                 |
\*---------------------------------------------------------------------------*/
FoamFile
{
    version     2.0;
    format      ascii;
    class       volScalarField;
    location    "0.3";
    object      epsilon;
}
// * * * * * * * * * * * * * * * * * * * * * * * * * * * * * * * * * * * * * //

dimensions      [0 2 -3 0 0 0 0];

internalField   nonuniform List<scalar> 
7968
(
0.0980952375246
0.0989304771766
0.0992297503578
0.099291883137
0.09930404378
0.0993047853549
0.0992994525656
0.0992894483741
0.0992769401455
0.0992665239311
0.0992662442994
0.0992763790621
0.0992888522193
0.0992989067339
0.0993043182128
0.0993036720491
0.0992916188597
0.0992295713927
0.0989305795165
0.0980953186533
0.0989306407314
0.108319600276
0.111750399778
0.112459529882
0.112556796224
0.112552004223
0.112530341163
0.112506177471
0.112485491223
0.112473304933
0.112473108348
0.112485029995
0.112505565086
0.112529702315
0.112551440293
0.112556371087
0.112459216505
0.111750046675
0.108319786542
0.0989309216813
0.099230029041
0.111750105864
0.117209433141
0.11852343525
0.118739923575
0.118748786415
0.118723625583
0.118695291362
0.1186725728
0.118660040246
0.118659782968
0.118671939002
0.118694399225
0.118722643204
0.118747887079
0.118739240947
0.118523002911
0.117209095866
0.111750151858
0.0992302932518
0.0992921540458
0.112458561069
0.118522559223
0.12005556576
0.120314192016
0.120316869787
0.120275797074
0.120233703818
0.120201967697
0.120185250275
0.120184905998
0.120201085509
0.120232430959
0.120274335271
0.120315488682
0.120313106956
0.12005486393
0.118522089694
0.112458522608
0.0992924660249
0.0993041801268
0.11255488108
0.11873779868
0.120312832726
0.120562585163
0.120536446931
0.120464340692
0.120437873959
0.120422722859
0.120414362968
0.120414215793
0.120422348146
0.1204373331
0.120462926705
0.120534552392
0.120561018763
0.12031178281
0.118737140531
0.112554728029
0.0993044906112
0.0993046779513
0.112549063533
0.118745359819
0.120314069264
0.120534990828
0.120492451853
0.120465464265
0.120433424859
0.120407594755
0.120393486896
0.120393305951
0.120407123892
0.120432765225
0.120464721135
0.120491729084
0.12053299131
0.120312662214
0.11874447687
0.112548768426
0.0993049521801
0.0992990090115
0.112526424185
0.1187190333
0.120271744913
0.120462520107
0.120465033054
0.12042027279
0.120367764447
0.120325215612
0.120301711729
0.12030149271
0.120324643644
0.120366962394
0.12041938696
0.120464178995
0.120460844795
0.120270048322
0.118717956154
0.11252599526
0.0992992248704
0.0992886105844
0.112501454587
0.118689815601
0.120228771366
0.120436676836
0.120432656596
0.120367389911
0.120292154843
0.120228350964
0.120191515537
0.120191249372
0.120227667874
0.120291223322
0.120366370905
0.120431695199
0.120435869829
0.120226932516
0.118688603985
0.112500925526
0.0992887497669
0.0992757313149
0.112480271887
0.118666619892
0.120196566373
0.120421314096
0.120406604264
0.120324622027
0.120228147679
0.120140710858
0.120086684622
0.12008634695
0.120139897835
0.120227110977
0.120323518645
0.120405566721
0.120420458428
0.120194677391
0.118665345832
0.112479679496
0.0992757797558
0.0992652586409
0.112468066096
0.118654123765
0.120179938182
0.120412958378
0.120392532046
0.120301201243
0.120191464093
0.120086929856
0.120017396671
0.120016980059
0.120086028095
0.120190389758
0.120300089228
0.120391493106
0.120412095999
0.12017812324
0.118652863678
0.112467451764
0.099265191315
0.0992657298047
0.112468437085
0.11865450897
0.12018034853
0.120413099911
0.120392693484
0.120301419195
0.12019177252
0.120087378195
0.120018040882
0.120017657206
0.120086546406
0.120190778204
0.120300390136
0.120391727637
0.120412289539
0.120178706705
0.118653311301
0.112467795372
0.0992655881528
0.0992766686918
0.11248130676
0.118667715617
0.120197731873
0.120421710416
0.12040704686
0.12032520145
0.120228932488
0.120141772439
0.120088038425
0.120087772028
0.120141137703
0.120228119388
0.120324333284
0.120406217309
0.120421002
0.120196345142
0.118666643149
0.112480703651
0.0992765293181
0.0992896326242
0.11250296309
0.118691479139
0.120230531884
0.12043727197
0.120433260631
0.120368141584
0.120293126029
0.120229592459
0.120192999232
0.120192819604
0.120229145579
0.120292515638
0.12036746413
0.120432594594
0.120436674194
0.120229413944
0.118690539172
0.112502397638
0.0992895215737
0.0992999702206
0.112528221241
0.118721092488
0.120273939079
0.120464171854
0.120465719744
0.120421030817
0.120368697367
0.120326367492
0.120303061707
0.120302940452
0.120326067524
0.120368268971
0.120420532487
0.120465186842
0.120463283403
0.120273051787
0.118720259912
0.112527678641
0.0992998821168
0.0993055082825
0.112550999631
0.118747651604
0.120316484951
0.120537372298
0.120493220811
0.120466189898
0.12043421875
0.120408553182
0.120394609931
0.120394531114
0.12040836301
0.120433934851
0.120465828278
0.120492647525
0.120536780645
0.12031578496
0.118746882837
0.112550455932
0.0993054332724
0.0993048469337
0.112556825041
0.118740160452
0.120315274236
0.120564962419
0.120538747988
0.120466291959
0.120438551493
0.120423485088
0.120415257312
0.120415209563
0.120423374503
0.120438368565
0.12046618275
0.120538576061
0.120564537587
0.120314673522
0.118739395816
0.112556253219
0.099304774531
0.0992926401211
0.112460314373
0.118524763964
0.120057768901
0.12031619443
0.120318680051
0.120277579877
0.120235600557
0.120204211509
0.120187942315
0.120188030237
0.120204474849
0.120235882543
0.120277717907
0.120318576762
0.120315822077
0.120057169622
0.1185239224
0.112459702397
0.0992925866559
0.0992303093725
0.111751349742
0.117211085929
0.118525012791
0.11874120272
0.11874971939
0.118724336232
0.118695967121
0.118673413967
0.118661172282
0.118661225761
0.118673612337
0.118696168303
0.118724397498
0.118749542265
0.118740762032
0.118524324955
0.117210125734
0.111750618581
0.0992302541096
0.0989309263694
0.108320608992
0.111751506327
0.112460530095
0.112557520377
0.112552387748
0.112530452941
0.112506161885
0.112485506051
0.112473469078
0.112473427408
0.112485496314
0.112506111531
0.112530272572
0.1125520103
0.112556934198
0.112459745684
0.111750385999
0.108319807659
0.0989308519252
0.0980953100335
0.0989306958876
0.0992299307993
0.0992921037261
0.0993042483278
0.0993049351252
0.099299529251
0.0992894517673
0.0992768873752
0.0992664318153
0.0992661515322
0.099276284128
0.0992887441244
0.0992987751093
0.0993041617478
0.0993034914398
0.0992914385114
0.0992293946513
0.0989304229705
0.0980952188766
0.0989245607098
0.108153820753
0.111550394045
0.112258847581
0.112363453131
0.112368354446
0.112356656608
0.112340692198
0.112324908969
0.112314379793
0.112314231296
0.112324565148
0.112340275673
0.112356245616
0.11236799254
0.112363170055
0.11225864092
0.111550225318
0.10815381772
0.0989245212092
0.108153671688
0.0878419680768
0.0853966117375
0.0848864423403
0.0848068276375
0.0848102598682
0.0848251430318
0.0848389040688
0.0848487282971
0.0848537201416
0.0848537732687
0.0848488701163
0.0848391197556
0.0848254037314
0.0848105316175
0.0848070808361
0.0848866676977
0.0853968098548
0.0878420792496
0.108153649843
0.111550516581
0.085396301877
0.0808164198387
0.0796459369903
0.0794060371019
0.0793770709673
0.0793845278366
0.0793953548508
0.0794036035655
0.0794078935552
0.0794079247352
0.0794036915068
0.0793954831666
0.0793846706727
0.0793772019823
0.0794061204729
0.0796459451345
0.0808163766434
0.0853963363266
0.11155054163
0.112259084959
0.0848862535424
0.079645972354
0.0782152503315
0.0779003615258
0.0778553564921
0.0778607248156
0.0778728599552
0.0778825582114
0.0778875405629
0.0778875819269
0.0778826730161
0.0778730169032
0.0778608544247
0.0778554513993
0.0779003889231
0.0782151795375
0.0796458563265
0.0848863033447
0.112259149227
0.112363565515
0.0848068404998
0.0794061852949
0.0779004557756
0.0775644112738
0.0775200885026
0.0775352431745
0.0775680214471
0.077594412525
0.077607828812
0.0776079983243
0.0775948633565
0.0775686346144
0.0775356416192
0.0775202498927
0.0775644488648
0.0779003786047
0.0794060642308
0.0848069040263
0.112363634996
0.11236819756
0.0848104649618
0.0793773229285
0.0778555263202
0.0775201676518
0.0774963834945
0.0775536879353
0.0776146410709
0.0776584639135
0.0776800642095
0.0776802598208
0.0776590007159
0.0776154312856
0.0775545652411
0.0774970596551
0.0775202806271
0.0778554670575
0.0793772167476
0.0848105517745
0.112368213288
0.112356138442
0.0848254921794
0.0793848506058
0.0778609515144
0.0775357285277
0.0775540586283
0.07764559264
0.0777344909732
0.0777985320196
0.0778303099897
0.07783050282
0.0777990634803
0.0777353027872
0.0776465827287
0.0775550285826
0.07753612573
0.0778609256948
0.079384757969
0.0848255901009
0.112356085696
0.112339769343
0.0848393289688
0.0793957164122
0.0778731744579
0.0775691805512
0.077615323708
0.0777347948407
0.0778502449833
0.077937173687
0.0779813194533
0.0779815047278
0.0779376834094
0.0778510235659
0.0777357777656
0.0776163869475
0.0775700104616
0.0778732172642
0.0793956333721
0.0848394244271
0.112339638555
0.11232363597
0.0848491533234
0.0794039668769
0.0778828946478
0.0775957671316
0.0776592394969
0.077798884514
0.0779371688726
0.0780467491391
0.0781035495164
0.0781037254191
0.0780472373972
0.0779378881631
0.077799810497
0.0776602727824
0.0775966434954
0.0778829427785
0.0794038784908
0.0848492317181
0.112323431408
0.112313037104
0.0848540768391
0.0794082197857
0.0778878491826
0.0776091213989
0.0776807154294
0.0778304782222
0.0779811020101
0.0781033304803
0.0781670520872
0.0781671998135
0.0781037561593
0.0779817386759
0.077831306156
0.0776816498562
0.0776099227797
0.077887875106
0.0794081159531
0.0848541271136
0.112312776074
0.112313333335
0.0848540021493
0.0794081772471
0.0778878105431
0.0776089696757
0.077680521078
0.0778302289884
0.0779808075641
0.0781030099
0.0781667041584
0.0781668373846
0.078103381247
0.0779813588286
0.0778309294982
0.0776813024888
0.0776096364407
0.0778878009371
0.0794080541414
0.0848540269049
0.112313052279
0.112324359276
0.0848489286071
0.0794038413378
0.0778827822922
0.0775953486535
0.0776587095745
0.0777982098181
0.0779363761926
0.0780458720023
0.0781025807911
0.0781026999977
0.0780461767476
0.077936819908
0.0777987521581
0.0776592984844
0.0775958414855
0.0778827303909
0.0794036969327
0.0848489240069
0.112324112014
0.112340664331
0.0848389617371
0.0793955214484
0.0778730136426
0.077568597116
0.0776145922886
0.077733888201
0.0778491770856
0.0779359455103
0.0779799483757
0.0779800408523
0.0779361692359
0.077849496495
0.0777342561965
0.0776149774861
0.0775688828746
0.0778729169903
0.0793953587943
0.0848389343917
0.112340454812
0.112357045329
0.0848249988686
0.079384598574
0.0778607876366
0.0775353692325
0.0775532532249
0.0776446377968
0.0777333617792
0.0777971991891
0.0778287869002
0.0778288363478
0.0777973111834
0.0777335233774
0.0776448215615
0.0775534241548
0.0775353476792
0.0778606319404
0.0793844207028
0.0848249562136
0.112356860829
0.11236902994
0.0848098625254
0.0793770092478
0.077855322073
0.0775199071493
0.0774954181198
0.0775527115231
0.077613475166
0.0776570729737
0.0776784428158
0.0776784444188
0.0776570639162
0.0776134702749
0.0775527175564
0.0774955267638
0.0775198380161
0.0778551502375
0.0793768301528
0.0848098180174
0.112368849591
0.112364276124
0.0848061482333
0.0794057969193
0.077900182895
0.0775641544521
0.0775197466721
0.0775347217753
0.0775669467814
0.0775930955835
0.077606280701
0.0776062402238
0.0775929796907
0.0775667962582
0.0775346260891
0.0775197123672
0.0775640485418
0.0779000168559
0.0794056385602
0.0848061203359
0.112364080749
0.112259610227
0.0848855137801
0.0796454982386
0.0782148751541
0.0779000165006
0.0778550118329
0.0778603630449
0.0778724241059
0.0778820705087
0.0778869957496
0.077886984228
0.077882039978
0.0778723840097
0.0778603163084
0.0778549547307
0.077899932715
0.0782147606721
0.0796454103896
0.0848855339685
0.112259382331
0.11155079515
0.0853955823411
0.0808158826001
0.0796454767777
0.0794056225453
0.0793766921507
0.0793841675324
0.0793949889588
0.0794032116922
0.0794074602946
0.0794074485005
0.0794031806551
0.0793949530622
0.0793841400473
0.0793766811022
0.0794056256784
0.0796454973606
0.0808159740761
0.0853957243226
0.111550459734
0.108153842564
0.0878413632662
0.0853961071808
0.0848860127469
0.0848064783882
0.0848100051366
0.084824951673
0.0848387281039
0.0848485168304
0.0848534391633
0.08485341759
0.0848484502633
0.0848386571354
0.0848249175604
0.0848100375481
0.0848065921357
0.0848862131349
0.0853964513944
0.0878417266581
0.108153314318
0.0989244196173
0.108153993545
0.111550479527
0.112258897284
0.112363477965
0.112368303185
0.112356526609
0.112340499478
0.112324691281
0.11231418075
0.112314074962
0.112324449468
0.112340164218
0.112356112211
0.112367823669
0.112362961958
0.112258400507
0.11154995538
0.108153509237
0.098924284913
0.0992328852701
0.111529614763
0.116917639707
0.118216142467
0.118434684805
0.118451457794
0.118435847165
0.118415352582
0.118397077512
0.118386076826
0.118385973856
0.118396826245
0.118415024976
0.118435509817
0.118451161613
0.118434469289
0.118216009938
0.116917535199
0.111529617454
0.0992330052635
0.111529294825
0.0854399884912
0.0808913132309
0.0797401806052
0.0795169361877
0.079504481819
0.0795278251135
0.0795523344697
0.079570581561
0.0795801452678
0.0795802387407
0.0795708220126
0.0795526830502
0.0795282267871
0.0795048768328
0.0795172714309
0.0797404395267
0.0808915322407
0.0854401509982
0.11152924129
0.116917596133
0.0808910797941
0.0727192096032
0.0703387913762
0.0697718291177
0.069679559067
0.0696835399935
0.069700599326
0.0697146365836
0.0697221172594
0.069722166002
0.069714767139
0.0697007833007
0.0696837372056
0.0696797212073
0.0697718941706
0.0703387200581
0.0727190760092
0.0808911123236
0.116917623696
0.118216251103
0.0797402910284
0.0703389474629
0.0674412117843
0.0667009077101
0.0665618206367
0.0665540684875
0.0665677743642
0.066579973983
0.0665863114092
0.0665863523165
0.0665800829192
0.066567917832
0.066554192835
0.0665618830837
0.0667008498103
0.0674409955862
0.0703386893867
0.0797403238278
0.118216317118
0.118434648917
0.0795175128448
0.0697722166196
0.0667010663515
0.0658989286085
0.0657483147006
0.0657417216151
0.0657593117759
0.0657775316961
0.0657887709184
0.0657888591785
0.0657777675615
0.0657596236924
0.0657419818266
0.0657484007209
0.0658988501287
0.0667008186435
0.0697719467385
0.0795175877753
0.118434708052
0.118451117749
0.0795055185435
0.0696801491197
0.0665620771103
0.0657483890664
0.0655979301611
0.0655804173596
0.0655836645511
0.0656063743489
0.0656254136694
0.0656255172857
0.0656066645553
0.0655840693695
0.0655808318343
0.0655982342271
0.065748359592
0.0665618431724
0.0696799081044
0.0795056556101
0.11845111416
0.118435113407
0.0795292531186
0.0696842835908
0.0665543778566
0.0657419120621
0.0655804787437
0.0655209656128
0.0655043400632
0.0655382477507
0.0655696036551
0.0655697076621
0.0655385359732
0.0655047527148
0.0655214311689
0.0655808808391
0.0657420513052
0.0665541778125
0.0696840745697
0.0795294404713
0.118435036335
0.118414208965
0.0795540318522
0.0697014416596
0.0665681182712
0.0657596286415
0.0655837519324
0.06550444044
0.0654952785378
0.0655540209747
0.0656011701826
0.0656012801416
0.0655543135702
0.0654956797803
0.0655048994904
0.0655842026389
0.0657598797966
0.0665679608723
0.0697012573057
0.0795542483302
0.118414059959
0.118395615959
0.0795723887419
0.0697155138331
0.0665803244875
0.0657778783641
0.0656064292619
0.0655382888234
0.0655539236973
0.0656408004443
0.0657017281482
0.0657018429412
0.06564110817
0.06555431637
0.0655387364807
0.0656068765589
0.0657781505235
0.0665801763978
0.0697153353083
0.0795726079323
0.118395417399
0.118384553654
0.0795818797355
0.0697229497357
0.0665866301805
0.0657890624071
0.0656253896127
0.0655695311215
0.0656009732996
0.0657016323552
0.0657700278966
0.0657701307756
0.0657019171067
0.0656013407886
0.0655699436677
0.0656257922989
0.0657893008599
0.0665864686821
0.0697227603298
0.0795820770952
0.118384332918
0.118384762481
0.079581706741
0.0697228675179
0.0665865881705
0.0657889907863
0.0656253134005
0.0655694650319
0.0656009207212
0.0657015816315
0.0657699606119
0.0657700583587
0.0657018437497
0.0656012589978
0.065569824741
0.065625643497
0.0657891648151
0.0665864003805
0.0697226577926
0.0795818703166
0.118384535309
0.118396176579
0.079571879388
0.0697152713215
0.0665802014893
0.0657776750954
0.0656062244281
0.06553813886
0.0655538296606
0.0656407081267
0.0657015878925
0.0657016778651
0.0656409334301
0.0655541183788
0.0655384230571
0.0656064612315
0.0657777668175
0.06657998159
0.0697150345724
0.0795719931764
0.118395971185
0.118414971047
0.0795532184908
0.06970106151
0.0665679368425
0.0657593506052
0.0655834936043
0.065504302092
0.0654952513106
0.0655539743631
0.065601062767
0.0656011400934
0.0655541611415
0.065495485972
0.0655045092024
0.0655836393962
0.0657593520153
0.0665676866831
0.0697008017496
0.0795532856215
0.118414788584
0.118435944867
0.0795281782184
0.0696837835856
0.0665541557633
0.0657416400477
0.0655801600199
0.0655207996894
0.0655043012671
0.0655381853181
0.0655694674181
0.065569520081
0.0655383156468
0.0655044671262
0.0655209438737
0.0655802225186
0.0657415303013
0.0665538763573
0.069683509625
0.0795282102102
0.118435777437
0.118451933107
0.0795042180269
0.069679517076
0.0665617703296
0.065748137465
0.0655974824203
0.0655799809509
0.065583261643
0.0656059214917
0.0656248605418
0.0656248899524
0.0656059943756
0.0655833555322
0.0655800497116
0.065597492445
0.0657479999215
0.066561491746
0.0696792507932
0.0795042369546
0.118451757592
0.118435394755
0.0795160239115
0.0697714116949
0.0667005884717
0.0658985439458
0.065747893243
0.0657411461724
0.0657586127077
0.065776741171
0.0657878852292
0.0657878905902
0.0657767544546
0.0657586284827
0.0657411405424
0.0657478613381
0.0658984063331
0.0667003421427
0.0697711905692
0.0795160620472
0.118435189988
0.118216858646
0.0797386853502
0.070337919203
0.0674404552856
0.0667002457882
0.066561178902
0.0665534097336
0.0665670725074
0.0665792319696
0.0665855256609
0.0665855264526
0.0665792335029
0.0665670750506
0.0665534018551
0.0665611455044
0.0667001549868
0.0674403049328
0.0703378274984
0.079738804992
0.118216581018
0.116917980822
0.0808895106942
0.072717970654
0.0703377274286
0.0697708681608
0.0696786711453
0.0696826911052
0.0696997487987
0.0697137462092
0.0697211625446
0.0697211475661
0.0697137004706
0.069699695742
0.0696826551369
0.0696786644625
0.0697708842353
0.0703377779452
0.0727181536899
0.0808898282462
0.116917526017
0.111529514941
0.0854386623963
0.080889985848
0.0797389362249
0.0795158540559
0.0795035883791
0.0795270664587
0.0795516131706
0.0795697933306
0.079579220919
0.0795791603978
0.0795696163474
0.0795513951603
0.0795268985561
0.0795035415766
0.0795159574155
0.0797392058519
0.0808905048099
0.085439276527
0.111528850488
0.0992327233551
0.111529897671
0.11691789496
0.118216325011
0.118434818312
0.118451499338
0.118435799968
0.118415251127
0.118396980365
0.118386032382
0.118385985427
0.118396876746
0.118415074982
0.11843553276
0.118451140604
0.118434397685
0.118215880834
0.116917341085
0.111529338757
0.0992327774459
0.0993134278741
0.112248957605
0.118223096811
0.119734326823
0.119999611797
0.120020880914
0.120002164383
0.11997826134
0.11995781646
0.1199459897
0.119945907755
0.119957616694
0.119977997503
0.120001894496
0.12002065763
0.119999468077
0.119734257633
0.118223111667
0.112249104599
0.0993136543786
0.112248561783
0.0849405426836
0.07975444497
0.0783582528383
0.0780713785162
0.0780528486006
0.0780830931812
0.0781157799961
0.0781404244584
0.0781534219813
0.0781535331432
0.0781407131229
0.0781161918881
0.0780835572278
0.0780532919998
0.0780717393635
0.078358509721
0.0797546206484
0.0849406338332
0.112248593645
0.118222985172
0.0797542609862
0.0703849669648
0.067508680364
0.06678409215
0.066657994652
0.0666613254571
0.0666835468038
0.0667019592146
0.0667117323187
0.0667117883316
0.0667021075014
0.0666837499707
0.0666615347431
0.066658151429
0.0667841226265
0.0675085371715
0.0703847317457
0.0797541890304
0.118223114206
0.119734347449
0.0783586022467
0.0675089362398
0.0639864699425
0.0630313665723
0.0628332002562
0.0628036574303
0.0628044908944
0.0628131772049
0.0628197531956
0.0628197855933
0.062813258749
0.0628045879894
0.0628037271249
0.0628331940483
0.0630312159824
0.0639861358556
0.067508555576
0.0783585460084
0.1197345348
0.119999461897
0.0780724399837
0.0667846904109
0.0630315812792
0.0619779380421
0.061727743954
0.0616595211029
0.0616401069957
0.0616457360142
0.0616541732816
0.061654216973
0.0616458435474
0.0616402244484
0.0616595843461
0.0617276796252
0.0619777165671
0.0630311878178
0.0667843068439
0.0780724871076
0.119999616842
0.120020384456
0.0780546514108
0.0666589071879
0.0628335411907
0.0617278156499
0.0614282848248
0.0613228485685
0.0612906988886
0.0613042081269
0.0613198273736
0.0613198784354
0.061304333093
0.0612908340981
0.0613229237549
0.0614282454826
0.0617275799189
0.0628331424845
0.0666585705443
0.0780548280066
0.12002045445
0.120001222212
0.0780855782374
0.066662500766
0.0628040567602
0.061659576289
0.0613228427147
0.0612013351254
0.0611908571639
0.0612439858715
0.0612783354705
0.0612784035617
0.0612441610487
0.0611910557839
0.0612014441347
0.0613228226937
0.0616593964592
0.0628036751014
0.0666622134266
0.0780858625352
0.120001215271
0.119976884044
0.0781187878102
0.0666849133144
0.062804915142
0.0616401641027
0.0612906982818
0.0611908889686
0.0612525396223
0.0613854525184
0.0614493174377
0.0614494082145
0.0613856971734
0.0612528412165
0.0611910865808
0.0612907179463
0.0616400162978
0.0628045589004
0.0666846645146
0.0781191467304
0.119976808007
0.119956119332
0.0781437203186
0.0667034302637
0.0628136245733
0.0616458040334
0.061304196804
0.0612439857747
0.0613853866617
0.0615704395345
0.0616455133445
0.0616456103289
0.0615707176538
0.0613857568864
0.0612442581859
0.0613042640883
0.0616456791373
0.0628132784877
0.0667031941813
0.0781441044518
0.119956004128
0.119944217289
0.0781566996337
0.0667131820557
0.0628201944992
0.0616542506607
0.0613198181459
0.0612783400518
0.0614492199523
0.0616454489068
0.0617192895065
0.061719384881
0.061645725184
0.0614496059639
0.0612786354413
0.0613199006241
0.0616541192766
0.0628198395357
0.0667129305348
0.0781570581732
0.119944093734
0.119944380689
0.0781564475452
0.0667130696145
0.0628201661579
0.0616542662269
0.0613198845755
0.0612784370838
0.061449289802
0.0616454671366
0.0617192942157
0.0617193920956
0.0616457445102
0.0614496664139
0.0612787139856
0.0613199360925
0.0616540964637
0.0628197852233
0.0667127821646
0.0781567439532
0.119944261367
0.119956574791
0.0781429794278
0.0667030985009
0.0628135381861
0.0616458483988
0.0613043906533
0.0612442759954
0.0613856246254
0.0615705501089
0.0616455830232
0.0616456815895
0.0615708159161
0.061385955413
0.0612444884249
0.061304376865
0.0616456224901
0.0628131247926
0.0667027650998
0.0781431864473
0.119956481151
0.119977527632
0.078117616136
0.0666843929318
0.0628047693105
0.0616402274898
0.0612909881036
0.0611913430323
0.0612529907824
0.061385753776
0.0614495576884
0.0614496397884
0.0613859601904
0.0612532213861
0.0611914520226
0.0612909059544
0.0616399544916
0.0628043326576
0.0666840223488
0.0781177363941
0.11997745613
0.12000194739
0.0780840493596
0.0666618179697
0.0628038263823
0.0616595811643
0.0613231055313
0.0612018169063
0.0611914413125
0.061244524986
0.0612788401546
0.061278891894
0.0612446457326
0.0611915568359
0.0612018369854
0.061322984009
0.0616592902828
0.0628033868258
0.0666614292971
0.0780840978195
0.120001887692
0.120021117765
0.0780528260277
0.0666580495417
0.0628331702767
0.0617276495166
0.061428286042
0.0613230531877
0.061291030715
0.0613045604083
0.0613201746784
0.0613202028695
0.0613046226345
0.0612910846258
0.0613230439983
0.0614281672198
0.061727380925
0.0628327534461
0.0666576691095
0.0780528301167
0.12002103938
0.120000142878
0.078070388892
0.0667836078384
0.0630309684335
0.0619774745075
0.0617273396642
0.0616591537656
0.0616397975083
0.0616454205843
0.0616538280952
0.0616538385736
0.0616454433377
0.0616398146421
0.0616591319883
0.0617272357189
0.0619772446721
0.0630306064324
0.0667832751619
0.0780703736878
0.12000005422
0.119734905535
0.078356430764
0.0675075518399
0.0639854562932
0.063030468142
0.0628323221214
0.0628027719319
0.0628035836108
0.0628122346964
0.0628187681596
0.0628187635885
0.0628122190388
0.0628035573684
0.0628027262779
0.0628322351734
0.0630303043218
0.06398521363
0.0675073627626
0.0783564737983
0.119734739295
0.118223376977
0.0797521453282
0.0703832452008
0.067507153132
0.0667826659664
0.0666566290932
0.0666599763701
0.0666821596284
0.0667004874599
0.0667101529162
0.0667101146447
0.0667003791903
0.0666820202557
0.0666598471943
0.0666565339357
0.0667826016652
0.0675071317857
0.070383356227
0.0797523821433
0.118223015469
0.11224881628
0.0849386850654
0.0797524428477
0.0783562578071
0.0780695396561
0.0780512036117
0.0780815649711
0.0781142325896
0.0781387225537
0.0781514864728
0.0781513619035
0.0781383776142
0.0781137858388
0.0780811624811
0.078050962061
0.078069509766
0.0783564639287
0.0797529174685
0.0849392558705
0.112248239433
0.0993131094978
0.112249240353
0.118223420016
0.11973459336
0.119999821929
0.120020993148
0.120002195486
0.119978259092
0.119957846174
0.119946095894
0.119946080854
0.119957821422
0.119978188346
0.120002039283
0.120020737538
0.119999495681
0.119734212364
0.118222979587
0.112248835588
0.0993132811307
0.0993495759089
0.112386366747
0.118477757435
0.120037600257
0.120313998978
0.120335117487
0.12031303694
0.120285444734
0.120262534436
0.120249677685
0.12024961589
0.120262387544
0.120285254861
0.120312851351
0.120334983408
0.120313953288
0.120037639766
0.118477922695
0.112386728237
0.0993498687567
0.112385937168
0.0848510283367
0.0795166377965
0.0780548820349
0.0777525055191
0.0777376086517
0.0777774877153
0.0778203296422
0.0778526233154
0.0778695317296
0.0778696558283
0.0778529488716
0.0778207919954
0.0777780020905
0.0777380909183
0.077752879945
0.0780551170929
0.079516751375
0.0848509860608
0.11238610504
0.118477635429
0.0795164810464
0.0698237139644
0.0667908213658
0.0660149541566
0.0658799557396
0.0658816524308
0.0659034952676
0.0659253696798
0.0659382762431
0.0659383410029
0.0659255401765
0.0659037250767
0.0658818832221
0.0658801187759
0.0660149670229
0.0667906311474
0.0698233947903
0.0795162654864
0.118477910948
0.120037617993
0.0780554058757
0.066791149747
0.0630577466671
0.0620174843616
0.0617871618442
0.0617489356085
0.0617525413189
0.0617654451813
0.0617742056317
0.0617742419065
0.0617655336041
0.0617526372339
0.0617489864822
0.0617871168854
0.0620172774882
0.0630573423862
0.066790688125
0.0780552459306
0.120037966404
0.120313841206
0.077753964154
0.0660157271524
0.0620177449632
0.0608595391812
0.0605802785067
0.0605202941016
0.0605190779594
0.0605379931315
0.0605507388986
0.0605507814214
0.0605380936946
0.0605191673386
0.060520292775
0.0605801402628
0.060859229022
0.0620172665567
0.0660152832088
0.077753983039
0.120314137918
0.120334595717
0.0777400939823
0.06588116298
0.0617875528834
0.0605803306371
0.060278471033
0.0602253675789
0.0602662833516
0.060342489524
0.0603816412038
0.060381719971
0.0603426900352
0.0602664957194
0.0602254406407
0.0602783304823
0.0605799885995
0.061787068607
0.0658807904339
0.0777403146529
0.12033480961
0.120312067838
0.0777809703382
0.0658832356633
0.0617493678267
0.0605203079733
0.0602253275325
0.0602424632872
0.0604547006907
0.0607332042638
0.0608521065645
0.0608522447686
0.0607335727131
0.0604551624999
0.0602427533732
0.0602252853838
0.0605199895974
0.061748911786
0.0658829415347
0.0777813624904
0.120312202784
0.120284045667
0.0778246311574
0.0659053714339
0.0617529966523
0.0605190321499
0.0602661552779
0.0604545350677
0.0610512790762
0.061718841232
0.0619523014129
0.0619525005812
0.0617193792667
0.0610520099611
0.0604550952735
0.0602662805712
0.0605187817873
0.0617525785824
0.0659051373409
0.077825139681
0.120284124071
0.120260822509
0.0778574340268
0.0659274470224
0.061765939718
0.0605379086328
0.0603422272418
0.0607327106797
0.0617183016766
0.0625445272211
0.062756988073
0.0627572123649
0.0625451622885
0.0617192236284
0.060733455653
0.0603424822676
0.0605377145037
0.0617655423461
0.0659272274494
0.0778579747907
0.120260881454
0.120247875089
0.0778744101772
0.0659403815952
0.0617747130184
0.0605506418297
0.0603812982126
0.0608513607857
0.0619512035659
0.062756238966
0.0629252510389
0.062925480321
0.0627568913369
0.0619521754942
0.060852163184
0.0603815988363
0.0605504629451
0.0617743043687
0.0659401283932
0.0778749018801
0.120247941422
0.120247997954
0.0778740835426
0.0659402476912
0.0617746931165
0.0605506794857
0.0603813709318
0.060851374427
0.0619509068254
0.0627556389192
0.0629245882187
0.0629248290101
0.0627563143178
0.061951874015
0.0608521542796
0.0603816451013
0.060550473584
0.0617742467688
0.0659399294577
0.0778744674693
0.120248078285
0.120261169173
0.077856478335
0.0659270529489
0.0617658711004
0.060538000217
0.060342421732
0.0607327939322
0.0617176852834
0.0625431638121
0.062755464191
0.0627557131764
0.0625438339458
0.0617185601327
0.0607334447009
0.0603425894569
0.060537731295
0.0617653783137
0.0659266627437
0.0778567324195
0.120261271882
0.120284534103
0.0778231405038
0.0659047492801
0.0617528607909
0.0605191232583
0.0602663955012
0.060454728538
0.0610508201924
0.061717391777
0.0619505647135
0.0619507602605
0.06171788395
0.0610514023678
0.0604551100231
0.0602663932185
0.0605187791606
0.0617523318261
0.0659043040375
0.0778232759461
0.120284647531
0.1203126109
0.0777790615619
0.0658824117204
0.0617491315694
0.0605203136709
0.060225484899
0.0602426894521
0.0604546865911
0.0607326859401
0.0608513992399
0.0608515126932
0.0607329581233