/*--------------------------------*- C++ -*----------------------------------*\
| =========                 |                                                 |
| \\      /  F ield         | OpenFOAM: The Open Source CFD Toolbox           |
|  \\    /   O peration     | Version:  3.0.1                                 |
|   \\  /    A nd           | Web:      www.OpenFOAM.org                      |
|    \\/     M anipulation  |                                                 |
\*---------------------------------------------------------------------------*/
FoamFile
{
    version     2.0;
    format      ascii;
    class       volScalarField;
    location    "0.9";
    object      nut;
}
// * * * * * * * * * * * * * * * * * * * * * * * * * * * * * * * * * * * * * //

dimensions      [0 2 -1 0 0 0 0];

internalField   nonuniform List<scalar> 
7968
(
0.000510450093689
0.000518561596747
0.000523185943734
0.00052497733288
0.000525553629417
0.000525704189913
0.000525716898296
0.000525687764202
0.000525650471836
0.000525624891113
0.000525629862857
0.000525662079606
0.000525702190599
0.000525732117181
0.000525719083991
0.000525567181391
0.000524988486072
0.000523194114274
0.00051856731506
0.000510451517641
0.000518562000797
0.000565387593215
0.000589598383811
0.000599550842323
0.000603107456537
0.000604132099352
0.000604302568465
0.000604256120285
0.000604202370905
0.000604180778263
0.00060418588848
0.000604217021809
0.000604278594968
0.000604330582201
0.000604163037291
0.000603138706634
0.000599578705534
0.000589620561073
0.000565403765595
0.00051856582681
0.000523189094604
0.000589602476801
0.000625589528708
0.000641470969477
0.000647670347827
0.000649666679223
0.000650084080426
0.000650061627968
0.000650003472569
0.00064998579193
0.000649991105633
0.000650018779517
0.000650085738803
0.000650114882936
0.000649701279423
0.000647704749012
0.00064150115901
0.000625613382034
0.000589618125818
0.000523192735254
0.000524981412738
0.000599558408159
0.000641472728531
0.000660755778429
0.000668581109365
0.000671118062967
0.000671585598837
0.000671484242263
0.000671372812818
0.00067134158524
0.000671347431178
0.00067138917529
0.000671510015051
0.000671618742199
0.000671155423683
0.000668617788981
0.000660788320085
0.000641497897207
0.000599574742258
0.000524984797981
0.000525558454631
0.000603111215098
0.000647673584128
0.000668580698519
0.000677089869165
0.000679710994906
0.00068030428698
0.000680391389377
0.000680337727774
0.00068030762824
0.000680311265348
0.000680347972394
0.00068040725713
0.000680324497242
0.000679752507905
0.000677131836347
0.000668617250567
0.000647701611364
0.000603128973932
0.00052556186011
0.000525709115744
0.000604137667849
0.000649667923194
0.000671116091737
0.0006797087766
0.000682832611269
0.000683677430376
0.000683695942418
0.00068358846951
0.000683537517902
0.000683541768218
0.000683600778677
0.000683715201295
0.000683700815369
0.000682857873342
0.000679756684723
0.000671158964703
0.000649700977803
0.000604159685317
0.000525713217394
0.000525721705172
0.000604304608653
0.000650081115786
0.000671578772935
0.000680302212981
0.000683675055813
0.000684408790269
0.000684298939169
0.000684112873652
0.000684030562665
0.00068403596401
0.000684128654542
0.000684323741349
0.000684438670637
0.000683704420165
0.000680328433892
0.000671629212985
0.000650120699448
0.000604331068613
0.000525727198216
0.000525691537656
0.000604253670222
0.000650052669426
0.000671469325539
0.000680385386712
0.000683688700662
0.00068429334245
0.000684065171853
0.000683800664389
0.000683682340774
0.000683689641281
0.00068382137645
0.000684096591411
0.000684330220029
0.000683724529409
0.000680415985982
0.000671528757494
0.000650099050407
0.000604285357919
0.000525698449015
0.000525652039725
0.000604194035823
0.000649987297189
0.000671350094814
0.000680326800829
0.000683575590599
0.00068410013293
0.000683792214268
0.000683465047847
0.000683308953528
0.000683318492226
0.000683491434711
0.000683830512446
0.000684142932259
0.000683616486757
0.000680361980222
0.000671416846713
0.00065003949924
0.000604229567151
0.000525660325025
0.00052562212096
0.000604166534506
0.000649963070755
0.000671311289317
0.00068029231007
0.00068351919584
0.00068401078355
0.000683664591053
0.000683297630908
0.00068310930014
0.000683121617021
0.000683328350605
0.000683707305216
0.000684057108818
0.000683562822866
0.000680329698504
0.000671381654999
0.000650018543817
0.000604204376386
0.000525631365192
0.000525621869684
0.00060416662395
0.000649963161455
0.000671311184901
0.0006802922652
0.000683519114391
0.000684010615135
0.000683664251359
0.000683296989855
0.000683108436571
0.000683120743597
0.000683327802574
0.000683707067205
0.000684056974764
0.000683562668381
0.000680329445255
0.000671381127993
0.000650017832257
0.000604203850668
0.000525630407202
0.000525651400569
0.000604194309912
0.000649987551809
0.000671349779921
0.000680326722261
0.000683575378394
0.000684099630188
0.000683791384666
0.000683463787333
0.000683307514591
0.000683316998167
0.000683490426357
0.000683829872596
0.000684142429728
0.000683615941868
0.00068036126023
0.000671414896599
0.000650037923349
0.000604228108154
0.000525658074193
0.000525690690919
0.000604254178794
0.000650053020716
0.00067146899119
0.00068038529325
0.000683688393537
0.000684292679509
0.000684064098999
0.000683799318711
0.000683681009685
0.000683688268338
0.000683820225012
0.000684095606081
0.000684329307194
0.000683723550806
0.000680414724145
0.000671525728591
0.000650096505561
0.000604282942872
0.000525695435531
0.000525721029763
0.000604305525977
0.000650082132965
0.000671578576749
0.000680302222963
0.000683674792239
0.000684408099364
0.000684297833151
0.000684111577093
0.000684029393173
0.000684034768473
0.000684127481941
0.000684322560719
0.000684437466371
0.000683703051141
0.000680326674866
0.000671625404799
0.000650117702775
0.000604328287491
0.000525723834533
0.000525708570817
0.00060413931025
0.000649669602922
0.000671116946102
0.000679708657521
0.000682832455271
0.000683676885581
0.000683695031772
0.000683587386464
0.000683536455822
0.000683540661947
0.00068359962115
0.000683713917785
0.000683699373585
0.000682856016879
0.000679751903792
0.000671154929152
0.0006496976698
0.000604156484801
0.000525709903304
0.000525558168136
0.000603113407137
0.000647676578569
0.000668582569117
0.000677090062864
0.0006797097816
0.000680303703113
0.000680390357867
0.000680336410547
0.000680306179355
0.00068030969288
0.000680346340248
0.000680405489089
0.000680322513887
0.000679747381308
0.000677127172854
0.000668613310616
0.000647698136971
0.000603125401115
0.000525558464727
0.000524981205994
0.00059956100425
0.00064147631162
0.000660758710588
0.000668582258859
0.000671117669864
0.000671583741646
0.000671481020531
0.000671368688109
0.000671336936868
0.000671342388308
0.000671384092305
0.000671504953087
0.000671613892276
0.000671150893655
0.000668613564912
0.000660784436834
0.000641493838984
0.000599570016874
0.000524981239195
0.000523189023133
0.000589605658874
0.000625593678186
0.000641474510856
0.000647672176674
0.000649667426824
0.000650083192498
0.000650059700283
0.000650000782011
0.000649982540986
0.000649987467342
0.00065001502378
0.000650081889821
0.000650111104212
0.000649697528347
0.000647701097127
0.000641497276794
0.000625609272936
0.000589613241007
0.000523189361713
0.000518563233868
0.000565392730846
0.00058960325963
0.000599554710437
0.000603109495633
0.000604132952558
0.000604302561149
0.000604255091197
0.000604200739267
0.000604178597955
0.000604183370992
0.000604214440677
0.000604276048836
0.000604327992643
0.000604160421569
0.000603135719558
0.000599575857167
0.000589617637223
0.000565399030252
0.000518563333729
0.000510450330608
0.000518562981359
0.00052318707639
0.000524977974195
0.000525553729555
0.000525703870908
0.000525716079167
0.000525686304314
0.000525648466291
0.000525622116756
0.000525626519812
0.000525658756683
0.000525698993016
0.000525729025313
0.000525716086465
0.000525564405494
0.000524985988957
0.000523191930543
0.000518564907568
0.000510449867352
0.000518385129857
0.000564367981412
0.000588322131901
0.000598206642697
0.000601767753694
0.000602835503391
0.000603046975227
0.000603021391188
0.000602964682483
0.000602933062925
0.000602936818916
0.000602975061548
0.000603036469956
0.000603064584186
0.000602853715191
0.000601784427824
0.000598219679061
0.000588330169537
0.000564372089132
0.000518386899643
0.000564366481106
0.00168624527448
0.00209296048147
0.00226302367878
0.00233067772411
0.00235305105034
0.00235772875792
0.00235702790497
0.00235561120173
0.0023548083382
0.0023548352599
0.00235568993877
0.00235715252428
0.0023578886148
0.00235322909957
0.00233085283299
0.002263169078
0.00209304902509
0.00168625214164
0.000564371494484
0.000588323986714
0.00209302984482
0.00270742890911
0.00298676518403
0.00310910477934
0.00315583459504
0.00316977866014
0.00317205028506
0.00317149854929
0.00317095035445
0.00317098582347
0.00317160161895
0.00317221204705
0.00316998134225
0.00315605001319
0.00310930113435
0.00298690883717
0.00270748953273
0.00209298140406
0.000588327889161
0.000598211279846
0.00226312939592
0.00298681253836
0.00333258782156
0.00349196022575
0.00355643006796
0.00357719221989
0.00358134737948
0.0035811983358
0.00358075690524
0.00358080163366
0.00358132589537
0.0035815469521
0.00357743732333
0.00355667339443
0.00349216882124
0.00333272653535
0.00298685399135
0.00226305459594
0.000598214226336
0.000601774063839
0.00233080144874
0.00310917339171
0.00349198416715
0.00367296159025
0.00374716527781
0.00377030927534
0.00377332942247
0.00377224371128
0.00377152956564
0.00377159946289
0.00377243436241
0.00377362916063
0.00377067370692
0.00374746907454
0.00367320474626
0.00349213904532
0.00310921791859
0.00233072223683
0.000601777003568
0.000602841959385
0.00235316856521
0.00315590154628
0.00355644974256
0.00374715688395
0.00382249784467
0.00384213141642
0.00384248520838
0.00383994590771
0.00383874434671
0.00383882697106
0.00384018617251
0.0038428743233
0.00384262415462
0.00382298780402
0.00374748403813
0.00355665096882
0.00315597331507
0.00235310395972
0.000602846199809
0.000603052325763
0.00235782867741
0.00316982086399
0.00357717548916
0.00377023503836
0.00384206296578
0.00385791101788
0.00385543995304
0.0038514434927
0.00384974481059
0.00384984152188
0.0038517318489
0.00385592445278
0.00385853895056
0.00384271917771
0.00377077636652
0.00357746003595
0.00316993737597
0.00235778978158
0.000603058883117
0.00060302442485
0.00235709934174
0.00317205166425
0.00358127427047
0.00377316943487
0.00384230170148
0.00385531168761
0.00385075654661
0.00384570399335
0.00384364586298
0.00384376770036
0.0038460641179
0.00385134443319
0.00385606635592
0.00384309690081
0.00377383785599
0.00358163414075
0.00317221631787
0.00235708866124
0.000603033583316
0.000602964261694
0.00235565091475
0.00317145299125
0.00358106098059
0.0037719820245
0.00383964792587
0.00385116941968
0.00384553176472
0.00384000488554
0.0038377647341
0.00383789995746
0.0038404424056
0.00384624051486
0.00385202737338
0.003840538982
0.0037727457648
0.00358147977107
0.00317165716725
0.00235566455805
0.000602975791278
0.000602928430114
0.0023548167847
0.00317086064952
0.00358056266249
0.00377118823731
0.00383833664896
0.00384933362697
0.00384329507414
0.00383755482396
0.00383528785196
0.00383546337692
0.00383803338631
0.00384406876522
0.00385025133414
0.00383927760091
0.00377199070839
0.00358101027975
0.00317108517374
0.00235484265764
0.000602941392626
0.00060292838339
0.00235481672022
0.00317086056558
0.00358056192079
0.00377118512564
0.00383833213446
0.00384932772331
0.00384328532756
0.00383753549403
0.00383526327162
0.00383543843395
0.00383801603012
0.0038440634204
0.00385024927231
0.00383927475103
0.00377198506161
0.00358100624479
0.00317108109563
0.00235483891124
0.000602940985669
0.000602964147239
0.00235565041974
0.00317145263921
0.00358105852691
0.00377197404626
0.00383963419673
0.00385114593781
0.00384550111255
0.00383996400421
0.00383772103931
0.0038378508516
0.00384040785332
0.00384622085018
0.00385201294556
0.00384052538558
0.00377273052348
0.00358146704236
0.00317164500431
0.00235565324058
0.000602974698704
0.000603024266643
0.00235709910488
0.00317205181571
0.00358127086803
0.00377315805009
0.00384228094226
0.0038552799433
0.00385071313317
0.00384565530303
0.0038435997377
0.00384371946535
0.00384602534733
0.00385131441586
0.00385604019115
0.0038430714844
0.00377381034938
0.0035816128119
0.00317219688344
0.00235707090219
0.000603031938561
0.000603052349136
0.00235783038477
0.00316982352907
0.00357717373435
0.00377022402134
0.00384204153021
0.0038578747974
0.00385539315014
0.00385139365615
0.00384970177233
0.00384979891936
0.00385169220971
0.00385588760518
0.0038585032464
0.0038426820879
0.00377074031342
0.00357743172693
0.00316991164855
0.00235776603625
0.000603056890122
0.000602842269885
0.00235317408101
0.00315590921974
0.00355645248855
0.00374715124927
0.00382247723234
0.00384209752718
0.00384244260306
0.00383990149123
0.00383870342087
0.00383878674765
0.00384014646642
0.00384283312779
0.00384258075245
0.00382294440242
0.00374744838623
0.00355661752276
0.00315594131722
0.00235307342423
0.000602844055828
0.0006017747523
0.0023308111463
0.00310918511134
0.00349199010501
0.00367295806191
0.00374715077896
0.00377027878495
0.00377328779391
0.0037721977652
0.00377148287248
0.00377155134666
0.00377238589832
0.00377357900346
0.00377062325987
0.00374742736481
0.00367316386451
0.00349209884012
0.0031091776085
0.00233068241046
0.00060177446984
0.000598212356197
0.00226314227383
0.00298682611721
0.00333259373984
0.00349195572799
0.00355641494151
0.00357716664831
0.00358131356199
0.00358115991596
0.0035807158924
0.00358075842515
0.00358128126471
0.00358150081601
0.00357739040253
0.00355662655318
0.00349212075645
0.00333267656039
0.00298680114053
0.00226299923704
0.000598211093713
0.000588325590627
0.00209304479993
0.00270744391689
0.00298677083345
0.00310909943377
0.00315581907399
0.0031697544185
0.00317201913057
0.00317146305919
0.00317091193714
0.00317094519175
0.00317155935857
0.00317216835677
0.00316993603103
0.00315600196018
0.00310924884398
0.00298685095483
0.00270742446332
0.0020929090409
0.000588324220601
0.000564369108946
0.00168627376999
0.00209298090727
0.00226303288112
0.00233067597696
0.00235304143978
0.00235771183934
0.00235700584264
0.00235558642659
0.00235478173228
0.00235480714987
0.00235566028159
0.00235712159444
0.00235785571222
0.00235319192868
0.00233080891812
0.00226311536524
0.00209298394269
0.0016861735816
0.000564367455118
0.000518384870211
0.000564369149395
0.000588322869108
0.000598207025368
0.000601767533895
0.000602834804869
0.000603045749768
0.000603019626799
0.000602962519378
0.000602930542289
0.000602934071102
0.000602972322826
0.000603033785258
0.000603061952957
0.000602851009887
0.000601781435446
0.000598216180844
0.000588325818993
0.000564366708359
0.00051838501412
0.000522890838071
0.000587952981601
0.000623465942961
0.000639182256118
0.000645381126837
0.000647469570086
0.000647998901449
0.000648042291907
0.000647990093857
0.000647955123161
0.000647958347761
0.000647999398888
0.000648056478478
0.000648016074789
0.000647487475132
0.000645397224946
0.000639193954058
0.000623471819596
0.000587954786423
0.000522893541409
0.000587950880155
0.00208693957949
0.00269699660127
0.00297274744363
0.00309195166112
0.00313603679872
0.00314785573292
0.00314850374944
0.00314681019256
0.00314565964437
0.00314569610094
0.00314691697753
0.00314867316685
0.00314807163232
0.00313627110551
0.0030921727366
0.00297291722614
0.00269707920822
0.00208690089327
0.000587955156258
0.000623466910524
0.00269710231097
0.00366793395883
0.00414510753571
0.0043698187419
0.00446355150443
0.00449572872782
0.00450352983841
0.00450400009329
0.00450341013499
0.00450346037076
0.00450414643433
0.00450376018001
0.00449601394939
0.00446384206696
0.00437006197704
0.00414525219814
0.00366794138733
0.00269695405436
0.000623468978394
0.000639186950163
0.00297291852867
0.00414519218939
0.00475095162654
0.00505061967052
0.00518281426441
0.00523171834894
0.00524546715188
0.00524767907264
0.00524751431901
0.00524757491962
0.00524785371422
0.0052457434676
0.00523205605421
0.00518313356865
0.00505086533676
0.00475106570926
0.00414514174636
0.00297270607196
0.000639186978306
0.000645388199251
0.00309215641489
0.00436995148664
0.00505067170543
0.00539697608519
0.00555340999957
0.00561189968155
0.00562769350264
0.00562974689233
0.00562928270544
0.00562936168591
0.0056299645628
0.00562802880592
0.00561231073837
0.00555375153233
0.00539724936281
0.0050507915888
0.0043698846534
0.00309191922623
0.000645387633386
0.000647477009424
0.00313624430562
0.00446369117364
0.00518287214516
0.00555341831579
0.00572025444656
0.00578023809686
0.00579448709991
0.00579467963982
0.00579319264257
0.00579327644132
0.00579492572125
0.00579484460861
0.00578066853914
0.0057207333673
0.00555373913182
0.00518304749382
0.00446365340873
0.003136016097
0.000647477756909
0.000648004925965
0.00314804054779
0.00449583491303
0.00523172718829
0.00561183246283
0.00578020670763
0.00583774120148
0.0058483185624
0.00584551939144
0.00584248340632
0.00584257352929
0.00584578443606
0.00584868945419
0.00583814578365
0.00578070825968
0.00561238125221
0.00523202080408
0.00449586295848
0.00314784350227
0.000648008263273
0.000648045570559
0.00314864652677
0.00450357344475
0.00524539227462
0.00562753971072
0.00579440698062
0.00584828238144
0.0058547398841
0.00584871502631
0.00584400354954
0.00584410898033
0.005849025631
0.00585515421952
0.00584871045999
0.00579492445827
0.00562819051604
0.00524579489604
0.00450367446718
0.00314848941153
0.000648052066635
0.000647989748162
0.00314690564398
0.00450397277313
0.00524751242589
0.00562948937239
0.00579450790575
0.00584538194292
0.00584859570982
0.00584003768484
0.00583394716839
0.00583405411959
0.00584041055748
0.00584910594839
0.00584588085202
0.00579509002646
0.0056302248873
0.00524799608181
0.00450413242958
0.00314678452703
0.000647998983274
0.000647950830895
0.00314571156746
0.00450331855264
0.00524726897796
0.00562893102061
0.00579290375942
0.00584220772854
0.00584370953587
0.00583374246307
0.00582694054942
0.00582709203915
0.00583414576012
0.005844277609
0.00584276441624
0.00579353776532
0.00562970936476
0.00524779088028
0.00450350738564
0.00314560773102
0.000647961651729
0.00064795081887
0.00314571008838
0.00450331725629
0.00524726765624
0.00562892774196
0.00579289734451
0.00584219750812
0.00584369337429
0.00583371478994
0.00582690640379
0.00582705905231
0.00583412214634
0.00584426873809
0.00584276052075
0.00579353492148
0.00562970478828
0.00524778535717
0.00450350061611
0.00314560053477
0.000647961325423
0.000647989720037
0.00314690033482
0.00450396841777
0.00524750808165
0.00562947999438
0.00579448792214
0.00584534657165
0.0058485466386
0.00583997347767
0.00583387755599
0.0058339803309
0.00584035522957
0.00584907262905
0.00584586014684
0.00579507480907
0.00563020773502
0.00524797801537
0.00450411176402
0.00314676283217
0.000647998064509
0.0006480455773
0.00314863854831
0.00450356721362
0.0052453854624
0.00562752557165
0.00579437781289
0.00584823208977
0.00585467177505
0.00584863646475
0.00584392375714
0.00584402819327
0.0058489568603
0.00585510210642
0.00584867157931
0.00579489363084
0.0056281587333
0.00524576392525
0.00450364071772
0.00314845481185
0.00064805064938
0.000648005063052
0.00314803317681
0.0044958301501
0.00523172082425
0.00561181858358
0.00578017499214
0.00583768874502
0.00584824922272
0.00584544237034
0.00584240929564
0.00584249853948
0.00584571231493
0.0058486251515
0.00583809146764
0.00578066155652
0.00561233728744
0.00523197780728
0.00449581709072
0.00314779732585
0.000648006499928
0.000647477437291
0.00313624087933
0.00446369023074
0.00518286760654
0.00555341030407
0.00572022584568
0.00578018939124
0.00579442536534
0.00579461341326
0.005793126989
0.00579320974194
0.00579485805709
0.00579477754829
0.00578060530851
0.00572067660341
0.00555369316414
0.00518299190526
0.00446359445254
0.00313595715795
0.000647475673686
0.00064538905867
0.00309215754284
0.00436995122785
0.00505066245297
0.0053969555494
0.00555338093569
0.00561184778853
0.00562762791153
0.00562967606975
0.00562921038141
0.00562928714407
0.00562988872756
0.0056279514959
0.00561223457782
0.00555368861089
0.00539717687489
0.0050507165573
0.00436980849052
0.00309184659006
0.000645385048258
0.000639188142674
0.0029729211286
0.00414518744583
0.00475093090393
0.00505058137789
0.00518275987942
0.00523164868707
0.00524538558449
0.00524759072706
0.00524742219496
0.00524748001024
0.00524775737352
0.00524564541017
0.00523195699912
0.00518303471558
0.00505076498423
0.00475096519677
0.00414504159393
0.00297261129775
0.000639183394713
0.00062346846765
0.00269710439862
0.00366792341115
0.00414507560023
0.00436976542474
0.00446347911287
0.00449564044078
0.00450342900361
0.0045038911412
0.00450329632142
0.00450334366596
0.00450402850468
0.00450364177497
0.00449589513755
0.00446372221438
0.00436994059594
0.00414512910049
0.00366781708746
0.00269683441096
0.000623464083587
0.00058795291492
0.00208694798094
0.00269698510847
0.0029727126541
0.00309189637292
0.00313596478174
0.00314776966003
0.00314840602076
0.00314670566415
0.00314555115675
0.00314558539138
0.00314680504668
0.00314856106403
0.00314795995486
0.00313615724847
0.00309205447443
0.00297279252208
0.00269694911515
0.00208676862622
0.000587949102995
0.000522890702618
0.00058795308252
0.000623465306697
0.000639181087316
0.000645379290572
0.000647467200331
0.00064799587951
0.000648038780985
0.000647986244744
0.000647951043342
0.000647954110036
0.000647995115186
0.000648052191807
0.000648011862084
0.000647483190911
0.000645392472086
0.000639188375545
0.00062346500068
0.000587946940182
0.000522892268706
0.000524655036732
0.000597692764157
0.000639004543242
0.000658123571657
0.000666089997716
0.000668968403475
0.000669796304759
0.000669935163798
0.00066990969181
0.000669881743147
0.000669884914869
0.00066991896267
0.000669949500702
0.000669813906474
0.000668986624825
0.000666106043129
0.00065813464996
0.000639009369845
0.000597693114723
0.000524658486185
0.000597690490415
0.00225624233693
0.00297223908839
0.00331200953013
0.00346680823723
0.00352813324135
0.0035469050232
0.00354976923046
0.00354856871577
0.0035474665281
0.00354751111752
0.00354869879715
0.00354997830377
0.00354717225276
0.00352841816218
0.00346706856687
0.00331220162878
0.00297232426257
0.00225618379685
0.000597693982846
0.000639005001873
0.002972365792
0.00413969024968
0.0047416427328
0.00503894566906
0.00517013975626
0.005218945979
0.00523285988401
0.00523501590066
0.00523469141258
0.00523474897377
0.00523518596028
0.00523313579084
0.00521929494492
0.00517049074133
0.00503922424214
0.00474178851339
0.00413966569452
0.00297216432732
0.000639006302991
0.000658128126946
0.00331221976344
0.00474175064243
0.00551633265868
0.00591756828032
0.00610431593876
0.00617850879754
0.00620189525428
0.00620670326838
0.00620683314332
0.00620689414674
0.0062068821126
0.00620215578229
0.00617881202022
0.00610465142408
0.00591783966374
0.00551642782085
0.00474163986457
0.00331192832853
0.000658126896136
0.000666097288833
0.0034670631453
0.00503911526623
0.00591763297468
0.00638586509572
0.00660937937064
0.00669876360267
0.00672595162577
0.00673030755995
0.00672951629257
0.00672957597038
0.00673046990905
0.00672613874221
0.00669889796222
0.00660950985134
0.0063860663223
0.00591773778519
0.0050389821481
0.00346673492463
0.000666095269519
0.000668975986505
0.00352839290449
0.00517031109934
0.00610438982805
0.00660946684019
0.00685020922665
0.00694411128722
0.00696905612774
0.00696944012684
0.00696605519481
0.00696611082094
0.00696957796016
0.00696913858098
0.00694397146432
0.00684993803749
0.0066093945721
0.00610452070557
0.00517023100845
0.00352807795235
0.000668975707411
0.000669801901054
0.00354712788701
0.00521905817468
0.00617858847649
0.00669903927693
0.00694436569651
0.00703498290294
0.00705277085192
0.00704609890299
0.00703863651101
0.00703870490678
0.00704625156123
0.00705281385977
0.00703462333933
0.00694367313935
0.00669856563099
0.00617866296806
0.00521908920874
0.00354686498907
0.000669805291543
0.000669937250527
0.00354992387197
0.00523287121994
0.0062019835797
0.00672636939457
0.00696949512213
0.00705295454362
0.00706122324662
0.00704603021036
0.00703385418452
0.00703394479366
0.00704624032772
0.00706131343357
0.00705252580663
0.00696857482001
0.00672562105298
0.00620197979462
0.00523301882136
0.00354972820883
0.000669945014295
0.000669907654472
0.00354865184219
0.00523492488051
0.00620672610357
0.00673070333269
0.00696987128023
0.00704624955948
0.00704596742723
0.00702336019481
0.00700713615551
0.00700723031546
0.00702361540756
0.00704614893461
0.00704587281258
0.00696894063258
0.00672992752589
0.00620674751303
0.00523515785459
0.00354851536109
0.000669919030504
0.000669875311137
0.00354748982512
0.00523451731176
0.00620676584799
0.00672982276906
0.0069663913974
0.0070386698121
0.00703363758438
0.00700696397551
0.0069885343065
0.00698865026796
0.00700724097027
0.00703387846658
0.00703835706035
0.00696551194947
0.00672909008879
0.00620683133935
0.00523479047694
0.00354738132803
0.000669888743866
0.000669875284168
0.00354748542955
0.00523451266749
0.00620676108325
0.00672981480003
0.00696638371777
0.00703866278277
0.00703362780347
0.0070069424812
0.00698850491466
0.00698862549552
0.00700722761951
0.00703388012725
0.00703836170579
0.00696551399196
0.00672908730752
0.00620682506681
0.00523478027187
0.00354736976566
0.000669888377666
0.000669907486853
0.00354863636391
0.00523491041135
0.00620671083886
0.00673067735192
0.00696984281685
0.00704622043592
0.00704593293063
0.00702331129071
0.00700707798789
0.00700717434869
0.00702358309998
0.00704614203675
0.00704587228536
0.00696893551225
0.00672991311291
0.00620672641676
0.00523512681405
0.00354848050816
0.000669917989857
0.000669936987435
0.00354989866898
0.005232849151
0.00620196014353
0.00672632697881
0.00696944594779
0.00705290560754
0.00706117151888
0.0070459698649
0.00703379124775
0.00703388085866
0.00704619096999
0.00706128351263
0.00705250113183
0.00696854685974
0.00672558678534
0.00620194147705
0.00523296881889
0.00354967372104
0.000669943393652
0.000669801645575
0.00354710002596
0.00521903433237
0.00617856328556
0.0066989899382
0.00694429914918
0.00703491151158
0.00705269582484
0.00704601871169
0.00703855573331
0.00703861898337
0.00704616736967
0.00705273726905
0.00703455185431
0.00694360743264
0.00669850606618
0.00617860504622
0.00521902273723
0.00354679409439
0.000669803364627
0.000668975945325
0.00352836851569
0.00517028879986
0.00610436321687
0.006609419531
0.00685013438285
0.00694401725005
0.00696895144778
0.00696932845018
0.00696593851184
0.00696598645592
0.00696944925075
0.00696901042621
0.00694385195078
0.00684983785016
0.0066093137199
0.00610444308979
0.00517014765478
0.00352799148961
0.000668973328958
0.000666097673143
0.00346704272953
0.00503908985357
0.00591759550335
0.00638581042641
0.00660929642519
0.00669865401007
0.00672582285003
0.00673016729455
0.00672936756905
0.00672941889141
0.00673030774278
0.00672597691476
0.00669874957202
0.00660938641768
0.00638596017507
0.00591763348749
0.0050388773906
0.00346663470653
0.000666092391145
0.000658128686207
0.00331220057264
0.00474171554095
0.00551627308462
0.00591748326751
0.00610420599665
0.00617837781549
0.00620174719201
0.00620654382839
0.00620666591453
0.00620672208633
0.00620670916752
0.00620198597349
0.00617865004535
0.00610449687148
0.0059176916914
0.00551628671423
0.00474150623995
0.00331180720401
0.000658122977194
0.000639005644587
0.00297234498946
0.0041396444969
0.00474156327716
0.00503883294149
0.00516999561783
0.00521877542451
0.00523266748815
0.00523480892768
0.00523447672676
0.00523453173045
0.00523497113027
0.00523292690782
0.00521909317753
0.00517029685112
0.00503904018588
0.00474161498441
0.00413950329593
0.00297201880123
0.000639000942872
0.000597691205738
0.0022562252093
0.00297219084723
0.00331192614425
0.00346669308217
0.00352798807227
0.00354673426351
0.00354957555435
0.00354836048854
0.00354725030027
0.00354729218107
0.00354848239609
0.00354976863675
0.00354697233962
0.00352822682761
0.00346688519511
0.00331202474435
0.00297215560669
0.00225602709873
0.000597687703661
0.000524654854261
0.000597691203006
0.000639002290733
0.000658120669201
0.000666086330484
0.000668963979496
0.000669791018421
0.000669929215584
0.000669903390548
0.000669875123499
0.00066987819115
0.000669912323733
0.000669942927121
0.000669807674016
0.000668980485041
0.000666099635705
0.000658127648449
0.000639001394716
0.000597684650255
0.000524658109874
0.00052527314467
0.000601408156752
0.00064538942667
0.000666289761458
0.000675292256367
0.000678695757043
0.000679760600194
0.000679999213008
0.000680014135019
0.000680001266006
0.00068000479901
0.000680024550891
0.000680015536695
0.000679780960772
0.000678716573488
0.000675310211714
0.000666302090055
0.000645395337916
0.000601409864902
0.000525277632064
0.000601405901117
0.00232874872563
0.0030982245939
0.00347470207431
0.00365217703325
0.00372577306268
0.00375032219549
0.00375555299204
0.00375519709798
0.00375434886939
0.00375440537849
0.00375536296913
0.00375582750175
0.0037506781319
0.00372614498808
0.00365250844355
0.00347494647807
0.00309834364645
0.0023287055443
0.000601410873899
0.000645389485778
0.00309836455859
0.00436845365495
0.00504326752041
0.00538696210223
0.00554408899757
0.00560529911556
0.00562395198172
0.00562729426448
0.00562702905303
0.00562709452141
0.00562749195144
0.00562425161159
0.0056056641292
0.00554451035597
0.00538733054563
0.00504346942562
0.00436845527713
0.00309816388774
0.000645392463621
0.000666293893031
0.00347493485009
0.00504338510362
0.00591856674222
0.00638534598589
0.00660933530967
0.00670100228842
0.00673019929684
0.00673544609087
0.00673477530827
0.00673483015002
0.00673560209445
0.00673037387025
0.00670112338847
0.00660942899593
0.00638551826333
0.00591872539575
0.00504330234638
0.003474636526
0.000666294564308
0.0006752990787
0.00365245505203
0.0053871327404
0.00638544215648
0.00693261343719