/*--------------------------------*- C++ -*----------------------------------*\
| =========                 |                                                 |
| \\      /  F ield         | OpenFOAM: The Open Source CFD Toolbox           |
|  \\    /   O peration     | Version:  3.0.1                                 |
|   \\  /    A nd           | Web:      www.OpenFOAM.org                      |
|    \\/     M anipulation  |                                                 |
\*---------------------------------------------------------------------------*/
FoamFile
{
    version     2.0;
    format      ascii;
    class       volScalarField;
    location    "1.9";
    object      epsilon;
}
// * * * * * * * * * * * * * * * * * * * * * * * * * * * * * * * * * * * * * //

dimensions      [0 2 -3 0 0 0 0];

internalField   nonuniform List<scalar> 
7968
(
0.00262820688001
0.00288538904108
0.00306970633739
0.00316746481474
0.003212806608
0.00323051774714
0.00323488201871
0.00323364134842
0.00323079694054
0.00322855967532
0.00322883518702
0.00323144250342
0.00323448242417
0.0032358266277
0.00323149855603
0.00321375539875
0.00316829637238
0.00307033167202
0.00288578038216
0.00262832577632
0.00288542491352
0.00424934320914
0.00519168152883
0.00572166175634
0.00598779030452
0.00609976051756
0.00613271250961
0.00613327152495
0.0061266167677
0.00612237512472
0.0061227310838
0.00612764709823
0.00613490947534
0.00613485351756
0.00610224565739
0.00599040698608
0.00572402818701
0.00519355374684
0.00425048853097
0.00288571287142
0.00306993186026
0.00519204145011
0.00673170630865
0.00764096662406
0.00812150628052
0.0083365474155
0.00840714693724
0.00841590309612
0.00840911287665
0.00840423385825
0.0084045929635
0.00841015910215
0.00841767634691
0.00840960986711
0.00833955202013
0.00812460870037
0.00764381111916
0.00673394400144
0.00519333037276
0.00307026149663
0.0031677611432
0.00572233576058
0.00764118793989
0.00880355083632
0.00942595171528
0.00970053631598
0.00978480277196
0.00978915487383
0.00977649186004
0.00976903897166
0.00976933206923
0.00977730905653
0.00979066636262
0.00978716274734
0.00970354553727
0.00942914770338
0.00880653218306
0.00764354182646
0.00572365446311
0.00316807685017
0.00321315316973
0.00598828004604
0.00812174090333
0.00942578383564
0.0101139983908
0.0104034440913
0.0105226502403
0.010563151007
0.0105652036656
0.0105611840487
0.0105614895807
0.0105660370458
0.0105645520582
0.010524646364
0.0104066641847
0.0101175593527
0.00942903193931
0.00812426067814
0.00598965538754
0.00321345020288
0.00323085855835
0.00610020672814
0.00833647382463
0.00969992322336
0.0104028529995
0.0107764388177
0.0109372971812
0.0109771984558
0.0109744943364
0.0109676074312
0.0109679392204
0.0109754318555
0.0109788128342
0.0109395577573
0.0107791401028
0.0104070427105
0.00970381717154
0.00833941135187
0.00610191978836
0.00323118572272
0.00323517754525
0.00613279754725
0.008406427375
0.00978330264334
0.0105220445493
0.0109368308302
0.0110937653638
0.0111203414919
0.011106734909
0.0110943698733
0.0110947393871
0.0111078477519
0.0111223573958
0.011096614593
0.0109399946125
0.0105251225722
0.00978813060937
0.00841001642122
0.00613480899649
0.00323557419617
0.00323383706926
0.00613285043757
0.00841437454108
0.00978655933649
0.0105619005252
0.010975989688
0.0111195325178
0.0111297862682
0.0111031599801
0.0110838326002
0.0110842774985
0.0111045843996
0.011132273791
0.0111230096512
0.0109798512639
0.010565563604
0.00979243104614
0.00841868860338
0.00613526892469
0.00323432260326
0.00323082779551
0.00612562789979
0.00840678396635
0.00977300071572
0.0105632924089
0.0109726177451
0.0111051189183
0.0111021419276
0.0110638293333
0.0110373310479
0.0110378299083
0.0110656697232
0.0111051101144
0.0111089879007
0.0109769343785
0.010567506401
0.0097796340591
0.00841167157243
0.00612838118569
0.00323139952533
0.0032283213931
0.00612084555527
0.00840125529509
0.00976498597562
0.0105588063021
0.0109652113774
0.0110920505253
0.0110817189046
0.0110358331189
0.0110037146112
0.0110044653365
0.011037890353
0.0110848802998
0.0110960015488
0.010969613034
0.010563153171
0.00977178468774
0.00840639523711
0.00612376937062
0.00322894396369
0.00322827340032
0.00612077294797
0.00840113060071
0.00976478184584
0.0105586509802
0.0109650239436
0.0110918165269
0.0110814028643
0.0110354076599
0.0110031900887
0.0110039319171
0.011037454792
0.0110845569249
0.0110957617638
0.0109694233794
0.010562977419
0.0097715117906
0.00840617964114
0.00612362638316
0.00322885755692
0.0032307232458
0.00612541944497
0.00840641766794
0.00977240720376
0.010562856063
0.0109721100834
0.0111044741978
0.0111012967444
0.0110627781831
0.0110361341193
0.011036581884
0.0110645596238
0.0111042287233
0.0111083085006
0.0109763790097
0.0105669851471
0.0097788074089
0.00841105634129
0.00612797720845
0.00323120642182
0.00323371503236
0.00613254633663
0.00841381420029
0.00978562636997
0.010561230421
0.0109752222314
0.0111185834992
0.0111285862854
0.0111017504562
0.0110823108939
0.0110827247351
0.0111031464619
0.0111310550621
0.011122007012
0.0109789927107
0.0105647449094
0.00979113265607
0.0084177501716
0.00613466369594
0.00323408755959
0.00323507386248
0.00613247700024
0.00840580456692
0.00978217420883
0.0105212048888
0.0109359223095
0.0110926445626
0.011118987603
0.0111052002839
0.0110927577186
0.0110931160785
0.011106308782
0.0111209846144
0.01109540894
0.0109389083781
0.0105240379471
0.00978651714977
0.00840891112264
0.00613412398619
0.00323534257333
0.00323079166116
0.00610002324482
0.0083359465646
0.00969886832469
0.0104011710663
0.0107753687301
0.0109361299221
0.0109758292497
0.0109729698197
0.0109660049593
0.0109663284165
0.0109738865089
0.0109773862311
0.0109382507487
0.0107778105635
0.0104048445201
0.00970214952911
0.00833832372191
0.00610126713858
0.00323098836058
0.00321313264534
0.00598817408807
0.00812146356763
0.00942502172139
0.0101126033973
0.0104015718317
0.0105214671891
0.0105617940434
0.0105636851631
0.0105595773825
0.0105598592506
0.0105644485661
0.0105630581918
0.0105232154361
0.0104041467747
0.0101155171321
0.00942761069523
0.00812338122856
0.0059891551297
0.00321330193792
0.00316779420692
0.00572241466805
0.00764121113597
0.00880324453935
0.00942508552029
0.00969913565545
0.00978293768344
0.00978682912193
0.00977386384725
0.00976626180388
0.00976649406861
0.00977448667738
0.00978799654043
0.00978478567253
0.00970155422771
0.00942766613553
0.00880556521259
0.00764296763938
0.00572330731732
0.00316797639846
0.00306998327357
0.00519228613335
0.00673199064151
0.00764107003345
0.00812124500993
0.00833589155303
0.00840607350444
0.00841448462241
0.00840742551767
0.00840238989005
0.0084026778618
0.00840828392698
0.00841593202133
0.00840810330075
0.00833835521199
0.00812378013598
0.0076433165009
0.00673369824586
0.00519317256629
0.00307019571039
0.00288551591659
0.00424966163028
0.00519206488282
0.00572195180141
0.0059878716347
0.0060995955226
0.00613231095981
0.00613264285504
0.00612581312135
0.00612145533826
0.00612176763594
0.00612671586869
0.00613406872887
0.00613415785169
0.00610173299026
0.00599006202967
0.00572391283388
0.00519354018299
0.00425044414473
0.00288569380758
0.00262823205866
0.002885486397
0.00306982868743
0.00316757624283
0.00321287267253
0.00323052875524
0.00323483153426
0.00323352524907
0.0032306195788
0.00322832271333
0.00322856880001
0.0032311952481
0.00323427158625
0.00323566112975
0.00323138717644
0.00321369457212
0.00316828066092
0.00307033640833
0.00288576356952
0.00262829471455
0.00287093281333
0.00416312623169
0.00507209388847
0.00559087732853
0.00585809273518
0.00597806529269
0.00602019247174
0.00602759365859
0.00602414050642
0.00602068825706
0.00602098794032
0.00602497433889
0.00602884070828
0.00602169736351
0.00597965129669
0.00585955257042
0.00559201100524
0.00507277188072
0.00416340467965
0.00287111305054
0.00416306111836
0.00481857677725
0.00561141214426
0.00610593025656
0.00637339747022
0.00649938692539
0.00654794001221
0.00656061457409
0.00656084078709
0.00655926333342
0.00655942594423
0.00656130705031
0.00656134141446
0.00654884986008
0.00650036181032
0.00637429696727
0.00610662294427
0.00561185138006
0.00481884933031
0.00416333825546
0.00507229772603
0.00561148328676
0.00648697586278
0.0070674194655
0.0073965938837
0.0075585417963
0.00762415074405
0.00764301263103
0.00764466884225
0.00764314613654
0.00764327757182
0.00764505000982
0.00764362658974
0.00762494436936
0.00755940501568
0.00739737582199
0.00706800573603
0.00648734734038
0.00561175008612
0.00507255200967
0.00559134485242
0.00610612159527
0.00706752962362
0.00772729211302
0.00811294476765
0.00830845911421
0.00839138778019
0.00841754009556
0.00842155115681
0.00842059115679
0.00842070971038
0.008421890907
0.00841809800434
0.00839212994276
0.00830928033919
0.00811368172498
0.00772783111744
0.00706786893781
0.00610638885135
0.00559154256948
0.00585873274067
0.00637364574143
0.00739676189959
0.00811299426052
0.00853911305811
0.00876131419591
0.00886659744543
0.00890744875329
0.00891808761643
0.00891918046541
0.00891931356879
0.00891846869501
0.00890804011479
0.00886732670856
0.00876216848205
0.00853991008366
0.00811358295968
0.00739714173568
0.00637395788592
0.00585891326676
0.00597871143561
0.00649960726938
0.00755866221945
0.00830844905183
0.00876126495823
0.00901617931193
0.00914068627291
0.00918916164876
0.00920213408923
0.00920360540325
0.00920376237345
0.00920259482138
0.00918986748457
0.00914151187632
0.00901701017151
0.00876218307073
0.00830920810179
0.00755918986463
0.0065000521527
0.00597898760009
0.00602068119407
0.00654802109053
0.00762410067317
0.00839119557898
0.008866532121
0.00914062976531
0.00927342880105
0.00932357165513
0.00933558862483
0.00933600443319
0.00933619562504
0.00933615903712
0.00932443440577
0.009274414639
0.00914156457787
0.00886736533634
0.00839219607151
0.00762486183245
0.00654866321922
0.0060211657582
0.0060278017742
0.00656047421284
0.00764271085498
0.0084170791545
0.00890721726191
0.00918895116497
0.00932341216911
0.00937168150676
0.00938072979028
0.0093791311572
0.00937936468177
0.00938139589254
0.00937269531724
0.00932456996534
0.00919005229599
0.00890821195725
0.00841835992279
0.00764372977938
0.00656133800385
0.00602854296923
0.00602396553389
0.00656044303644
0.0076440992802
0.00842082807417
0.00891764351529
0.00920170492411
0.00933518295059
0.00938045340368
0.00938605891737
0.00938222250319
0.00938252423754
0.00938681461791
0.00938158322371
0.00933647047542
0.00920294182908
0.00891879128936
0.00842231780405
0.00764532232379
0.00656149238704
0.00602494340866
0.00602009249749
0.0065586193605
0.00764234602037
0.00841966279988
0.00891853827922
0.00920295256544
0.00933533043573
0.00937854615266
0.00938190173835
0.0093764878048
0.00937678841929
0.00938271890132
0.00937973414027
0.00933667896682
0.00920425325248
0.00891975097704
0.00842121936675
0.00764365846587
0.00655975980637
0.00602119841158
0.00602003156232
0.00655858623386
0.00764229520696
0.00841959980049
0.00891849234692
0.00920291266705
0.00933528932669
0.00937850884369
0.00938186674009
0.0093764553588
0.00937674375654
0.00938267526308
0.00937970117255
0.00933664653504
0.00920421284365
0.00891969673037
0.00842113589251
0.00764357972901
0.0065596959243
0.00602109505298
0.00602379607439
0.00656034609648
0.00764395108568
0.0084206449442
0.00891751388563
0.00920159837229
0.00933508364152
0.00938035379416
0.00938595231705
0.00938211281757
0.00938241287509
0.00938671678296
0.00938149519223
0.00933637616785
0.00920282427632
0.00891863254377
0.00842207014236
0.00764509439825
0.00656131029083
0.00602465964934
0.00602755896704
0.00656032831342
0.0076424825309
0.00841679198921
0.00890701759551
0.00918879108647
0.00932326587314
0.00937153761389
0.00938057438418
0.00937896465469
0.00937920415026
0.00938125326996
0.00937255850606
0.00932441509677
0.00918986286097
0.00890795746267
0.00841796650184
0.00764337607565
0.00656106396534
0.00602813768875
0.0060204323979
0.00654786041344
0.00762383115151
0.00839084101909
0.00886626466534
0.00914041954671
0.00927324212904
0.00932338470428
0.00933539285906
0.0093357948792
0.00933599367622
0.00933596974833
0.00932423947387
0.00927420305012
0.00914130293915
0.00886700810642
0.00839169020655
0.00762442343584
0.00654833765743
0.00602071561305
0.00597851137762
0.00649947378818
0.00755840024423
0.00830807200006
0.00876083357491
0.00901588605488
0.00914043971956
0.00918891421132
0.0092018746823
0.00920333704908
0.0092034952476
0.00920233047495
0.00918959813004
0.00914121714254
0.00901662562491
0.00876159425481
0.00830863054577
0.00755871674589
0.00649971884181
0.00597856314133
0.00585862468064
0.00637355947416
0.007396547494
0.00811265382525
0.00853866446851
0.00876082311761
0.00886623452182
0.00890707650692
0.00891769118783
0.0089187712722
0.00891889843084
0.00891805123274
0.00890762278738
0.00886687994852
0.00876151413291
0.00853925350812
0.00811300340957
0.00739668170196
0.00637364786467
0.00585855851241
0.00559134884673
0.00610610050742
0.00706738833886
0.00772703321931
0.00811256243941
0.0083079667825
0.0083908087801
0.00841687297624
0.00842082307964
0.00841983551612
0.00841993795064
0.00842111302827
0.00841733849163
0.00839140888992
0.00830859744343
0.00811306886558
0.00772730860162
0.00706745395502
0.00610611013831
0.00559127084461
0.005072382455
0.00561151839096
0.00648691111878
0.00706725969065
0.00739632599059
0.00755816166142
0.00762366118214
0.00764242693481
0.00764400864352
0.00764244177258
0.00764255350659
0.00764433096591
0.00764293784096
0.007624306182
0.0075588311003
0.00739687518014
0.00706757821765
0.00648699539329
0.00561150024232
0.00507235319816
0.00416319970921
0.00481864293282
0.00561140467627
0.00610585861667
0.00637324442564
0.00649914000469
0.00654759784459
0.00656018454318
0.00656033990199
0.0065587150701
0.00655885840729
0.0065607489014
0.00656081399612
0.00654837106543
0.00649994241964
0.00637393382175
0.00610630595951
0.00561156456624
0.00481861337534
0.00416321015132
0.00287096446321
0.00416315717414
0.00507211937302
0.00559087261971
0.00585800362543
0.00597785825542
0.00601985477701
0.00602712568916
0.00602356184192
0.00602003050345
0.00602030173165
0.00602431553854
0.00602824407691
0.00602118849667
0.00597924290383
0.0058592325907
0.00559174765737
0.0050725217763
0.00416317345382
0.00287109059214
0.0030421293919
0.00502964914974
0.00649940811217
0.00738305675349
0.00786649991839
0.00810142250838
0.00819633475638
0.0082235477034
0.00822567274265
0.00822322269054
0.00822351428548
0.00822651022392
0.00822484838804
0.00819792963226
0.00810306535953
0.00786790709577
0.00738398483422
0.00649975579495
0.00502962321036
0.00304236671036
0.00502953451398
0.00558078733767
0.00646235385039
0.00705061477155
0.00739051767971
0.0075650061621
0.00764254012774
0.0076706473959
0.00767800657837
0.00767902570571
0.00767917104522
0.0076784233957
0.00767128922141
0.0076433131432
0.00756577171374
0.00739112882001
0.00705096918583
0.00646245893706
0.00558079841025
0.0050295724391
0.00649959593582
0.00646232996971
0.00722736762438
0.00778793148113
0.00812892641501
0.00831121184127
0.00839546818423
0.0084274957271
0.00843651255772
0.00843797977524
0.00843806921151
0.0084367730943
0.00842790754779
0.00839597416493
0.00831170671897
0.00812929596563
0.00778811233828
0.00722740444604
0.00646238692903
0.00649942004528
0.00738364078102
0.00705067290498
0.007787982522
0.00836088522369
0.00872219628363
0.00892187147174
0.00901765700751
0.00905588042149
0.00906764467358
0.00907013671839
0.00907020847206
0.00906785354458
0.00905620901586
0.0090180728999
0.00892227669727
0.00872248199294
0.00836100074869
0.00778799860695
0.00705077099539
0.00738327812085
0.00786735962343
0.00739065001686
0.00812902059671
0.00872223310537
0.00910524646229
0.00932293504506
0.00943156038998
0.00947693837188
0.00949156958133
0.00949468983753
0.00949475890722
0.00949176938037
0.00947723327597
0.00943194477283
0.00932335630957
0.00910556488667
0.00872238393342
0.0081290811786
0.00739082008122
0.00786690815664
0.00810231226579
0.00756512612809
0.00831127573203
0.00892187296841
0.00932292111392
0.00955584613582
0.00967357434891
0.00972286193851
0.00973840480322
0.00974142501245
0.00974149757638
0.00973860872096
0.00972307705542
0.00967378253049
0.00955621319176
0.00932332510658
0.00892215884986
0.00831146836932
0.0075654400481
0.00810196493226
0.00819699960569
0.00764253688607
0.00839540781326
0.00901752865642
0.00943144463679
0.00967360265994
0.00979555860047
0.00984517662377
0.00985944516572
0.00986135595691
0.00986143396732
0.00985965008941
0.00984528545886
0.00979546869557
0.00967372962616
0.0094319652828
0.00901802349217
0.00839580504257
0.00764306752478
0.00819695081251
0.00822380277387
0.00767043516057
0.00842724730327
0.00905558106372
0.00947673910973
0.00972299656632
0.00984536755337
0.00989288316498
0.00990439060919
0.00990445256184
0.00990454585885
0.00990461538382
0.00989292847846
0.00984509105824
0.00972289398792
0.00947728460728
0.00905625863502
0.00842785378763
0.00767120496979
0.00822414830271
0.00822541457992
0.00767754687282
0.00843606627596
0.00906723883415
0.00949127580366
0.00973854195417
0.00985969114009
0.00990444533174
0.00991299256381
0.00991110760988
0.0099112077747
0.00991325520709
0.00990449652201
0.00985935093282
0.00973837842641
0.00949185026413
0.00906795263906
0.00843682530535
0.00767851397912
0.00822611644156
0.00822245723667
0.0076783325598
0.00843736357985
0.00906961634109
0.00949428508725
0.00974147145825
0.00986150904354
0.00990437726216
0.00991093657912
0.00990774960825
0.00990787443026
0.00991119893042
0.00990441230984
0.00986114076538
0.0097412893405
0.00949487144954
0.009070337808
0.00843818482916
0.00767939508259
0.00822334726535
0.00822236432148
0.0076783019305
0.0084373216759
0.0090695750037
0.00949424693796
0.00974143791481
0.00986148541596
0.00990436620932
0.00991093558698
0.00990775897962
0.00990787018556
0.0099111870084
0.00990440231951
0.00986112387743
0.00974126014888
0.00949482716599
0.00907028311496
0.00843812149771
0.00767933526267
0.00822320249768
0.00822513940112
0.00767745370746
0.00843594129679
0.00906711524033
0.00949116731807
0.00973845926956
0.00985963748675
0.00990441412295
0.009912977471
0.00991110861276
0.0099111971813
0.00991323448093
0.00990446529218
0.00985929898006
0.00973829023035
0.00949171785197
0.00906778600433
0.00843663946004
0.00767834159263
0.00822570247224
0.00822338220663
0.00767029046488
0.00842704758446
0.00905536438546
0.00947656573375
0.0097228718055
0.00984528584345
0.00989283710023
0.00990436477777
0.00990443244265
0.00990452415165
0.00990458755556
0.00989288030131
0.0098450012477
0.00972274623185
0.00947706452863
0.00905596843962
0.0084275592156
0.00767094413107
0.00822352744408
0.00819651940755
0.0076423689456
0.00839515674884
0.00901724046493
0.00943120682075
0.00967342548879
0.00979543620455
0.00984509227981
0.0098593818084
0.0098612936725
0.00986137274214
0.0098595799637
0.00984518548373
0.00979532210628
0.00967350532759
0.00943165267132
0.00901762774059
0.00839542462705
0.0076427517288
0.00819621939637
0.00810186729946
0.00756496756949
0.00831100475227
0.00892154119831
0.00932262830479
0.00955558041618
0.00967334912711
0.0097226660501
0.00973821811817
0.00974123468722
0.0097413058675
0.00973840737854
0.00972285107359
0.009673510035
0.00955587449167
0.00932292961395
0.00892168335667
0.00831103223964
0.00756510280251
0.00810122393447
0.00786701983212
0.00739052031315
0.00812875334824
0.00872187423229
0.00910485199858
0.00932257828906
0.00943118115917
0.00947655408832
0.00949118056531
0.00949429809171
0.00949436211205
0.00949136099043
0.0094768083524
0.00943149709366
0.00932289906809
0.00910502457807
0.00872184547779
0.00812861481843
0.00739048070345
0.00786623071289
0.00738344244846
0.00705057821126
0.00778773943411
0.0083605336961
0.00872176797333
0.00892138944809
0.00901712194732
0.00905531222146
0.00906710244217
0.00906960140501
0.00906966480409
0.00906728322162
0.00905557833885
0.00901743815931
0.00892165739252
0.00872187779593
0.0083604398823
0.00778752399366
0.00705043088267
0.00738269691677
0.00649952817531
0.00646226117706
0.00722716013511
0.00778762192357
0.00812852998483
0.0083107340566
0.00839491367741
0.00842687645004
0.00843584472802
0.00843728371903
0.00843735875834
0.0084360603674
0.00842720769506
0.00839530152707
0.00831107369576
0.00812870760462
0.00778757541166
0.00722693932297
0.00646203513742
0.00649894252242
0.00502957666564
0.00558072153327
0.0064621775327
0.00705036538909
0.00739019556121
0.0075646005008
0.0076420461329
0.00767007100634
0.00767736148768
0.00767833549758
0.00767846294945
0.00767772463723
0.007670619621
0.00764269005818
0.00756520407363
0.00739061039375
0.00705048466309
0.00646200530959
0.00558041628923
0.00502923352232
0.00304216928879
0.00502952527641
0.00649917074035
0.00738271810882
0.00786600831572
0.00810073589555
0.00819544017749
0.00822246239967
0.00822443401671
0.00822188302523
0.00822214082807
0.00822517430871
0.00822359873644
0.00819681367319
0.00810211005153
0.00786710051981
0.00738328491976
0.00649912265597
0.00502912686605
0.00304236834156
0.00313353199255
0.00552724865251
0.00735931278666
0.00850075101944
0.00915120002933
0.00948418649033
0.00963038352724
0.00968099108694
0.00969222617362
0.00969259223738
0.0096928595864
0.00969300671124
0.00968223989863
0.00963192949174
0.00948572606561
0.00915241178238
0.00850139776519
0.00735934580268
0.00552697491323
0.003133841152
0.00552712217388
0.00605907726223
0.0070329669711
0.00770698030126
0.00811214979468
0.00833069874069
0.00843486910353
0.00847721400917
0.0084911076186
0.00849446500992
0.00849461455871
0.00849153932302
0.00847788168564
0.00843565637041
0.00833142369198
0.00811263485189
0.00770712899911
0.00703283423276
0.00605888161801
0.0055269343837
0.00735950685792
0.00703288982328
0.00778111255643
0.00836161226505
0.00873007435746
0.00893708759022
0.00903965611554
0.00908326641139
0.00909838476346
0.00910220831707
0.00910228595222
0.00909861699233
0.00908364047879
0.00904010264628
0.00893747909989
0.00873028336082
0.00836158895004
0.00778094485249
0.00703278537226
0.00735892539579
0.00850140991939
0.00770695936615
0.00836162551577
0.00891502266682
0.00928104848235
0.00949380036102
0.00960258917954
0.00965055683117
0.0096680168319
0.00967244373513
0.00967249078843
0.00966816224855
0.00965073117615
0.00960273426894
0.00949402363245
0.00928120455484
0.00891497174937
0.00836148402664
0.00770695357749
0.00850048995232
0.00915218404476
0.00811219551411
0.00873010850921
0.0092810565517
0.00965538891307
0.00987816065628
0.00999329702657
0.0100437727337
0.0100613233881
0.0100655102785
0.0100655320425
0.0100613601072
0.0100436236901
0.00999289528699
0.00987784819984
0.00965540356105
0.00928111355834
0.00873007638337
0.00811233703507
0.00915108943398
0.00948517680164
0.00833071760832
0.00893706982068
0.00949375872574
0.00987827715076
0.0101077355992
0.010226183332
0.010276770611
0.0102929941891
0.0102960398832
0.0102960381033
0.0102928877498
0.0102761538771
0.0102248439172
0.0101063000461
0.00987767460207
0.00949390736336
0.00893724564504
0.00833109236721
0.00948421092145
0.0096310246639
0.00843472758935
0.00903948813707
0.00960254854079
0.00999387773288
0.0102269004469
0.0103451453059
0.0103931259805
0.0104062351618
0.010407203292
0.010407210518
0.0104060463967
0.0103921049163
0.0103428457194
0.010224154022
0.00999223996362
0.00960254705221
0.00903993953626
0.00843541517264
0.00963049711323
0.00968103690064
0.00847681329419
0.00908288661663
0.0096506429189
0.0100448590718
0.0102782939147
0.0103940437402
0.0104376237291
0.0104466482014
0.0104449727745
0.0104450348583
0.0104465794783
0.0104365074369
0.0103912424095
0.0102746891967
0.0100424424111
0.00965035928675
0.00908358929276
0.00847782306789
0.00968109289045
0.00969158100472
0.00849041109497
0.00909777640474
0.00966799553693
0.0100625630086
0.0102948643329
0.0104075717019
0.0104470668732
0.0104522335293
0.0104479140966
0.0104480095993
0.010452340332
0.0104460849108
0.0104047079673
0.0102910351343
0.0100599512826
0.00966776416921
0.0090986683187
0.00849167614257
0.00969215571188
0.00969131016763
0.00849349950838
0.00910140990098
0.00967227234881
0.0100666903608
0.0102979310621
0.0104085650187
0.0104453152248
0.0104477291717
0.0104416263115
0.010441784065
0.0104478977725
0.010444402695
0.0104057186581
0.0102940832456
0.0100640909228
0.00967211774289
0.00910239313632
0.00849489018449
0.00969215944922
0.00969116089301
0.00849346541883
0.00910136737678
0.00967223151775
0.0100666579574
0.0102979114442
0.0104085669173
0.0104453173297
0.0104477278117
0.0104416222358
0.0104417804971
0.0104478943824
0.0104443989469
0.0104057152258
0.0102940714667
0.0100640600087
0.00967206845819
0.00910233117132
0.00849482616055
0.00969194360078
0.00969112611217
0.00849030385326
0.00909764859332
0.00966787852622
0.0100624759486
0.0102948256141
0.0104075783016
0.0104470935869
0.0104522698874
0.0104479552912
0.0104480356559
0.0104523525474
0.0104460953175
0.0104047118364
0.0102910056048
0.0100598637744
0.0096676231628
0.00909848762398
0.00849148979514
0.00969152762569
0.00968032229585
0.00847664286089
0.00908267975597
0.0096504684767
0.0100447316183
0.0102782551958
0.0103940816252
0.0104377079232
0.0104467622484
0.0104451014641
0.0104451480859
0.0104466692434
0.0104365777415
0.0103912817583
0.010274650662
0.0100422989623
0.0096501380579
0.00908330003423
0.00847753962044
0.00968013397238
0.0096301709125
0.0084345188471
0.0090392105308
0.00960227557857
0.00999369488787
0.0102268518723
0.010345214033
0.0103932668288
0.0104064121199
0.0104073970647
0.0104073887899
0.0104061951073
0.0103922222733
0.0103428876973
0.0102240719092
0.0099920056126
0.00960218578413
0.00903954752384
0.00843506436596
0.00962934011535
0.00948433284317
0.00833049759315
0.00893674260552
0.00949339895736
0.00987799290172
0.0101075845024
0.0102261697471
0.0102768415443
0.0102930895517
0.010296129282
0.0102961161297
0.0102929416931
0.0102761635585
0.0102247614015
0.0101060765544
0.00987729673671
0.00949342119652
0.00893676788068
0.00833069958677
0.00948300486419
0.00915146239175
0.00811197544944
0.00872974599128
0.00928061845538
0.0096549539615
0.00987780313455
0.00999303069867
0.0100435715399
0.0100611236013
0.0100652939715
0.0100653044103
0.0100611198131
0.0100433550348
0.00999254326062
0.00987738911105
0.00965483803541
0.00928051276153
0.00872952723591
0.00811191192589
0.00914995642387
0.00850087216457
0.00770674008687
0.0083612466754
0.00891453981684
0.00928051030222
0.00949323666936
0.00960202497496
0.00965005437917
0.00966745262793
0.00967184173831
0.00967187876766
0.00966756410011
0.00965017260401
0.00960207963335
0.00949333520597
0.00928050365893
0.00891429131275
0.00836088226106
0.0077064921491
0.00849950097835
0.00735916361032
0.00703267005647
0.00778074002485
0.00836113400844
0.00872951928745
0.00893646431119
0.00903896772697
0.0090825242332
0.00909758456716
0.00910136685096
0.00910143199391
0.00909777641006
0.0090828242852
0.00903930236416
0.00893670654178
0.0087295423967
0.00836088902618
0.00778031977334
0.00703228471021
0.00735811690948
0.00552698008909
0.0060588486244
0.00703260831426
0.00770654314169
0.00811164503502
0.0083301124659
0.00843418782439
0.00847643931868
0.00849025221762
0.00849355656555
0.00849368895381
0.00849063252365
0.00847701323567
0.00843484461067
0.00833067378506
0.00811193291059
0.00770645653912
0.00703219907714
0.00605833965552
0.00552639749344
0.00313357971842
0.00552691236063
0.00735872419118
0.00849993739876
0.00915010061687
0.00948274659183
0.00962859078142
0.00967889015266
0.00968988709327
0.00969009782649
0.00969031979768
0.00969053753484
0.00967991569568
0.00962984170553
0.00948393457922
0.00915091621815
0.00850015123811
0.00735830669576
0.00552624956751
0.00313387997576
0.00318038146813
0.00581364389931
0.00787380811701
0.00918839526599
0.00995873381871
0.0103674057655
0.0105565478938
0.0106285204068
0.0106487682084
0.0106521007993
0.0106523543024
0.0106495379732
0.0106298639471
0.0105582808588
0.010369079266
0.0099599714223
0.0091889986675
0.00787380918369
0.00581342139485
0.00318078569067
0.00581353649674
0.00633740195678
0.00737949246837
0.00811628352824
0.00856971971886
0.00882148959054
0.00894607980016
0.00899930285282
0.00901796605812
0.00902289072905
0.0090230712995
0.00901850227422
0.00900016793597
0.00894713017809
0.00882245493246
0.00857033609059
0.00811642985051
0.00737927960962
0.00633714030433
0.00581337348626
0.00787403229005
0.00737938989764
0.0081364007963
0.0087421930151
0.00913585874883
0.009363301467
0.00948022493357
0.00953227832552
0.0095512756816
0.00955643472634
0.0095565279663
0.00955155838954
0.00953267287912
0.00948064851938
0.00936377139435
0.00913617059327
0.00874217254878
0.00813617412868
0.00737924865047
0.00787331674865
0.00918911715078
0.00811621759729
0.00874218664627
0.00929803907358
0.00967558158135
0.00990102957535
0.0100198051552
0.01007391817
0.0100934145112
0.010098449376
0.0100984875308
0.0100935011414
0.0100738084895
0.0100193559179
0.00990056962917
0.00967544757719
0.00929807299956
0.00874207189574
0.00811627374923
0.00918791412456
0.00995975951527
0.00856968435995
0.00913584758265
0.00967561747006
0.0100527173924
0.0102814748552
0.0104012987732
0.0104540447012
0.0104718773023
0.0104756238706
0.010475611124
0.0104716904581
0.0104531246429
0.010399274272
0.010279028178
0.010051162636
0.00967533629587
0.00913598686689
0.00857007887865
0.00995837554974
0.0103682966946
0.00882135615145
0.00936321578485
0.00990146510796
0.0102824053651
0.0105119040134
0.0106299632045
0.0106790070532
0.0106931404205
0.0106943988146
0.010694408093
0.0106928090718
0.0106772561052
0.0106259033775
0.0105064501469
0.0102781284024
0.00990003604934
0.00936358397589
0.00882221173653
0.0103672163458
0.0105567682488
0.00894566640094
0.00948007872222
0.0100211020688
0.0104040464785
0.0106321946167
0.010745646446
0.0107892244562
0.0107984802547
0.0107963168345
0.0107964949509
0.0107984458585
0.0107872093259
0.0107400821276
0.0106238701215
0.0103966792796
0.0100179697144
0.00948043596813
0.00894705796357
0.0105564968107
0.0106277203936
0.00899848880236
0.00953209556374
0.0100759802471