/*--------------------------------*- C++ -*----------------------------------*\
| =========                 |                                                 |
| \\      /  F ield         | OpenFOAM: The Open Source CFD Toolbox           |
|  \\    /   O peration     | Version:  3.0.1                                 |
|   \\  /    A nd           | Web:      www.OpenFOAM.org                      |
|    \\/     M anipulation  |                                                 |
\*---------------------------------------------------------------------------*/
FoamFile
{
    version     2.0;
    format      ascii;
    class       volScalarField;
    location    "1.9";
    object      epsilon_0;
}
// * * * * * * * * * * * * * * * * * * * * * * * * * * * * * * * * * * * * * //

dimensions      [0 2 -3 0 0 0 0];

internalField   nonuniform List<scalar> 
7968
(
0.00269704491372
0.00295825954377
0.00314497628637
0.00324362617045
0.00328917398362
0.00330687989095
0.00331121135364
0.0033099555782
0.00330711051647
0.00330487869935
0.00330515514267
0.00330775892795
0.00331080007463
0.00331215887331
0.00330786255806
0.00329012314547
0.00324445668226
0.00314559969801
0.00295864945358
0.00269716291963
0.0029582953182
0.00434702018879
0.00530463712201
0.00584164634528
0.0061103730083
0.00622301013595
0.00625601129857
0.00625653642277
0.00624988978607
0.00624567288704
0.00624603195938
0.00625092906798
0.00625818723752
0.00625816604221
0.00622550768134
0.00611299834452
0.00584401583498
0.00530650785998
0.0043481625631
0.0029585812556
0.0031452024466
0.0053049986063
0.00686998937915
0.00779215812297
0.00827818848024
0.00849502976401
0.00856597397684
0.00857471837525
0.00856792573851
0.0085630735725
0.00856343906568
0.00856898917733
0.00857651614273
0.00856846349037
0.00849805865395
0.00828130742346
0.00779500994331
0.00687222649594
0.00530628275476
0.00314552878605
0.00324392322402
0.00584232348315
0.00779238050424
0.00897164824995
0.00960176086462
0.00987908814416
0.00996394936268
0.00996829012044
0.00995559543505
0.00994815982279
0.00994846386351
0.00995644154621
0.00996984103731
0.00996635080399
0.00988213355667
0.00960498361186
0.00897464463313
0.0077947380966
0.00584363901835
0.00324423552775
0.0032895213202
0.00611086428362
0.0082784267174
0.00960159499932
0.0102987986848
0.0105914930295
0.010711354677
0.0107518591205
0.0107538137168
0.0107497619565
0.010750076767
0.0107546716399
0.0107532938659
0.0107133866825
0.0105947596285
0.0103023958676
0.00960486627975
0.00828095675719
0.00611224021806
0.00328981575774
0.00330722164731
0.00622346070091
0.00849496225985
0.00987848197119
0.0105909079683
0.0109680695191
0.0111297876274
0.01116959536
0.0111667245571
0.0111597813847
0.0111601240447
0.0111676928828
0.0111712520238
0.011132091355
0.0109708086392
0.0105951371624
0.00988240452568
0.00849791581414
0.00622517909284
0.00330754722936
0.00331150827606
0.00625610122737
0.0085652624427
0.0099624607169
0.0107107548212
0.0111293230127
0.011286990162
0.0113133563787
0.0112995245111
0.011287086489
0.0112874698683
0.0113006761767
0.0113154256238
0.0112898930234
0.0111325306674
0.0107138643391
0.00996731980165
0.00856887144808
0.00625812081408
0.00331190441344
0.00331015294448
0.00625612046876
0.00857319811455
0.00996570522277
0.0107506142311
0.0111683861721
0.0113125445579
0.0113225102836
0.011295622697
0.0112762168125
0.0112766790652
0.011297094832
0.0113250625055
0.011316086232
0.0111722999884
0.0107543126429
0.00997161277191
0.00857753541334
0.00625855006042
0.00331063868971
0.00330714276777
0.00624890481732
0.00856560194094
0.00995210880141
0.0107519031806
0.0111648416156
0.0112978972946
0.0112945945426
0.0112560196054
0.0112294485536
0.0112299683768
0.0112579174073
0.0112976395477
0.0113018409538
0.011169217899
0.010756158811
0.0099587869478
0.0085705162024
0.00625167075956
0.00330771525638
0.00330464096772
0.00624414545787
0.00856009607097
0.00994410441252
0.0107473796074
0.011157370083
0.0112847444432
0.0112740793226
0.0112279357837
0.0111957510779
0.0111965266555
0.0112300560487
0.011277325114
0.0112887771528
0.0111618367906
0.0107517710674
0.00995095048124
0.00856526523589
0.00624708305619
0.00330526473317
0.00330459349002
0.00624407439834
0.00855997380214
0.00994390332695
0.0107472274956
0.011157186197
0.0112845145255
0.0112737682988
0.0112275163174
0.0111952333273
0.0111960000449
0.0112296269927
0.0112770078155
0.0112885425943
0.0111616513471
0.0107515988683
0.00995068084613
0.00856505209873
0.00624694168956
0.00330517870542
0.00330703925191
0.00624870076118
0.00856524260431
0.00995152416502
0.0107514761858
0.0111643443413
0.0112972641344
0.0112937628194
0.0112549841644
0.0112282691827
0.0112287381313
0.0112568247007
0.0112967740588
0.011301175281
0.0111686738899
0.0107556474933
0.00995796926325
0.00856990809178
0.00625127131565
0.00330752281829
0.00331003206526
0.00625582312594
0.00857264879205
0.00996478694791
0.0107499586139
0.0111676344502
0.0113116132546
0.011321329999
0.0112942353429
0.0112747191713
0.0112751511467
0.0112956813423
0.0113238660132
0.0113151032202
0.0111714582568
0.0107535090906
0.00997032929884
0.00857660814877
0.00625795138857
0.00331040427756
0.00331140579938
0.00625578835275
0.00856465357716
0.00996135059098
0.0107099341884
0.0111284343958
0.0112858911029
0.0113120267807
0.0112980163584
0.0112855023003
0.0112858753707
0.0112991656319
0.0113140789643
0.0112887106078
0.0111314650738
0.0107127992699
0.00996572523629
0.00856777984724
0.00625744344315
0.00331167315955
0.00330715559048
0.00622328516576
0.00849444892143
0.00987744768738
0.0105892524108
0.0109670232644
0.0111286443381
0.0111682524369
0.0111652284346
0.0111582085964
0.0111585435473
0.0111661771461
0.0111698529641
0.0111308093712
0.0109695037636
0.0105929656009
0.00988075683592
0.00849684156984
0.00622453314004
0.0033073496855
0.00328950103356
0.00611076436618
0.00827816140026
0.00960085094153
0.0102974287899
0.0105896513934
0.0107101970022
0.010750529239
0.0107523243545
0.010748185507
0.0107484768582
0.0107531129987
0.0107518281103
0.0107119822128
0.0105922727823
0.0103003782279
0.00960346177391
0.00828008687243
0.00611174366463
0.00328966634054
0.003243955731
0.0058424057867
0.00779241125483
0.00897135466542
0.00960091292818
0.00987771177069
0.00996211349914
0.00996599573212
0.00995299982606
0.00994541636073
0.00994565940397
0.00995365259916
0.00996720395627
0.00996400350479
0.00988016706094
0.0096035196321
0.00897368785833
0.0077941677717
0.00584329155627
0.00324413291025
0.00314525290619
0.00530524432466
0.00687027683915
0.00779226783659
0.00827793725611
0.00849438868356
0.008564918643
0.00857332088675
0.00856626101063
0.00856125319899
0.00856154814203
0.00856713779237
0.0085747943581
0.00856697625833
0.00849687625062
0.00828048783621
0.0077945181898
0.00687197924302
0.00530612129953
0.0031454602695
0.00295838589829
0.00434733925934
0.00530502106108
0.00584193773432
0.0061104573197
0.00622285054293
0.00625561769677
0.00625591729621
0.00624909695315
0.00624476474587
0.00624508048199
0.00625000939543
0.00625735686301
0.00625747861311
0.00622500027217
0.0061126548871
0.00584389880288
0.00530649038713
0.00434811318194
0.00295855974962
0.00269706974527
0.00295835649164
0.00314509769232
0.0032437364144
0.00328923901712
0.00330689039936
0.003311160874
0.00330983987371
0.00330693383847
0.00330464253305
0.00330488946049
0.00330751210814
0.00331058926405
0.00331199275588
0.00330774975801
0.00329006018049
0.00324443831118
0.00314560177483
0.00295863017253
0.00269713056784
0.00294377486372
0.00426057764076
0.00518476809772
0.00571053964511
0.0059802961621
0.0061008651298
0.00614296269181
0.00615025350258
0.00614674711777
0.00614328546427
0.00614358701754
0.00614758636604
0.00615150840212
0.00614447629617
0.00610245945024
0.0059817623948
0.00571167683872
0.00518544677349
0.00426085525871
0.00294395315757
0.00426051209444
0.004926336848
0.00573215860436
0.00623324268983
0.00650324984756
0.00662988784519
0.00667843279919
0.00669099100159
0.00669114973234
0.00668955267592
0.00668971680129
0.00669162037183
0.0066917243717
0.00667935033395
0.00663087053716
0.00650415604051
0.00623393986308
0.00573259968315
0.00492660909796
0.00426078827658
0.00518497324019
0.00573223071024
0.00662190921665
0.00721015297872
0.007542666086
0.00770564899536
0.00777137963353
0.00779014295494
0.00779172217826
0.0077901727706
0.00779030661191
0.00779211011938
0.00779076695695
0.00777218504209
0.00770652420271
0.00754345855444
0.00721074683138
0.00662228437263
0.00573249716109
0.00518522479616
0.0057110097117
0.00623343622798
0.00721026439206
0.00787892471221
0.00826862426209
0.00846551914635
0.00854868316764
0.00857474950455
0.00857867121759
0.00857767519201
0.00857779694485
0.00857901978541
0.00857532038458
0.00854944028404
0.00846635553456
0.00826937463986
0.00787947359103
0.00721060866022
0.00623370312377
0.00571120397045
0.00598093948554
0.00650350120173
0.00754283662597
0.00826867511747
0.00869929057619
0.0089230691196
0.00902861302884
0.00906935046431
0.00907986273558
0.00908089923222
0.00908103490666
0.0090802512133
0.00906995291741
0.0090293558304
0.00892393954696
0.00870010236874
0.00826927494218
0.00754322230376
0.00650381335459
0.00598111747554
0.00610151509207
0.00663011222493
0.00770577309501
0.00846551188291
0.0089230213336
0.00917957617597
0.00930433635972
0.00935263957836
0.00936543977774
0.00936683415803
0.00936699362379
0.00936590755331
0.00935335611976
0.00930517545838
0.00918042159597
0.00892395392044
0.00846628232175
0.00770630701341
0.00663055761835
0.00610179035192
0.00614345565298
0.00667851858798
0.00777133405416
0.00854849464543
0.00902854886396
0.00930427950745
0.00943726151694
0.00948716393581
0.00949896538108
0.00949928673422
0.00949948057398
0.00949954313626
0.00948803748148
0.00943826196849
0.00930522963649
0.00902939558798
0.00854950642682
0.00777210156783
0.00667916147243
0.00614394084138
0.00615046624672
0.00669085574573
0.00778984582001
0.00857429190383
0.00906911926798
0.00935242733213
0.00948700248042
0.00953497738243
0.00954378193356
0.00954207987174
0.00954231689143
0.00954445731135
0.00953600481947
0.00948817687732
0.00935354552884
0.00907012841998
0.00857558481046
0.00779087136508
0.00669172045769
0.00615120906202
0.00614657655282
0.00669075704811
0.00779115642878
0.00857794911096
0.00907941735231
0.00936500696453
0.00949855544919
0.00954350321886
0.00954885586469
0.00954491645027
0.00954522298592
0.00954962345756
0.00954464980398
0.00949986279971
0.00936626304589
0.0090805811069
0.00857945390112
0.00779238686447
0.00669180746136
0.00614755678168
0.00614269347362
0.00668891330995
0.00778937534244
0.00857674665391
0.00908025411775
0.00936617595246
0.00949860667297
0.00954149057423
0.0095445934948
0.00953907996501
0.0095393861429
0.00954542449837
0.00954269738558
0.00949997692805
0.00936749728821
0.00908148403157
0.00857831844157
0.0077906957859
0.00669005509838
0.00614380231138
0.00614263378223
0.00668888116151
0.00778932576783
0.0085766850861
0.00908020957893
0.00936613741864
0.00949856680773
0.00954145465893
0.00954456005279
0.00953904909068
0.00953934305303
0.00954538243257
0.00954266583699
0.00949994584853
0.00936745822183
0.00908143117252
0.0085782364351
0.00779061836673
0.0066899923059
0.00614370031287
0.00614641056761
0.00669066291157
0.00779101179996
0.00857777002219
0.00907929167309
0.00936490413427
0.00949845960491
0.0095434072285
0.0095487532091
0.00954481095397
0.00954511590508
0.00954952969421
0.00954456562809
0.00949977227813
0.00936614926322
0.00908042634567
0.00857921036067
0.00779216272385
0.00669162844575
0.0061472767326
0.00615022844411
0.00669071412564
0.00778962309513
0.00857401134618
0.00906892577304
0.00935227290814
0.00948686162835
0.00953483880903
0.00954363209366
0.00954191937931
0.009542162526
0.00954432055108
0.00953587383277
0.00948802797507
0.00935336187522
0.00906988013565
0.00857519820224
0.00779052352275
0.00669145100588
0.00615080902137
0.00614321272744
0.00667836306647
0.0077710715485
0.0085481485341
0.0090282894583
0.0093040765553
0.00943708164858
0.009486983661
0.00949877637906
0.00949908429991
0.00949928590704
0.00949936097272
0.00948784993128
0.00943805744255
0.00930497537196
0.00902904653226
0.00854900924565
0.00777167038394
0.00667884127481
0.00614349647863
0.00610132070117
0.00662998407556
0.00770551867047
0.00846514436921
0.00892260035665
0.00917929202294
0.00930409803758
0.00935240028095
0.00936518881044
0.00936657448839
0.009366735204
0.00936565177218
0.00935309519102
0.00930488916506
0.00918004633565
0.00892337569118
0.00846571438279
0.00770584139567
0.00663022946263
0.00610137102121
0.00598083597355
0.00650341964488
0.00754262929548
0.00826834395338
0.00869885281375
0.00892258936864
0.00902826004065
0.00906898814247
0.00907947647463
0.00908050044678
0.00908063021822
0.00907984407484
0.00906954582697
0.0090289193665
0.00892329685326
0.00869945676112
0.00826870449442
0.0075427687939
0.00650350725375
0.00598076596115
0.00571101662991
0.00623341872969
0.00721012877543
0.00787867353796
0.00826825136772
0.00846503758603
0.00854811578754
0.00857409461511
0.00857795506863
0.00857693238808
0.00857703810755
0.00857825416442
0.00857457365939
0.0085487314309
0.00846568382967
0.00826877125298
0.00787895823452
0.00721019813844
0.00623342633198
0.00571093299611
0.00518505961747
0.00573226828052
0.00662184832631
0.0072099985543
0.00754240500599
0.00770527709623
0.00777089950317
0.00778956769429
0.00779107305269
0.0077894799399
0.00778959424413
0.00779140260365
0.00779008932325
0.00777155695265
0.007705958883
0.00754296455599
0.00721032362144
0.00662193429091
0.00573224701952
0.00518502446531
0.00426065178078
0.0049264046223
0.0057321531148
0.00623317374493
0.0065031005032
0.00662964586986
0.00667809679834
0.00669056819915
0.00669065695572
0.00668901303757
0.00668915806259
0.00669107080489
0.00669120486249
0.00667887832909
0.00663045638786
0.00650379622774
0.00623362418126
0.00573231218985
0.00492637080416
0.00426065734177
0.0029438057065
0.00426060914957
0.00518479404356
0.00571053572575
0.00598020874175
0.00610066123491
0.00614262964551
0.00614979146948
0.00614617552219
0.00614263548292
0.00614290875
0.0061469351061
0.00615091836057
0.00614397251501
0.00610205413544
0.00598144329351
0.00571141240308
0.00518519416379
0.00426062073548
0.00294392896547
0.0031173741124
0.00514225383341
0.00663711920727
0.0075334759407
0.00802223796472
0.00825881413875
0.00835393847699
0.00838100654921
0.00838300842769
0.00838051137327
0.00838080628092
0.00838385552311
0.00838232163792
0.00835555032411
0.00826047418193
0.00802365989503
0.00753441433978
0.00663747233662
0.00514222917771
0.00311760897508
0.00514213887759
0.00570143242402
0.00659712316604
0.00719310376246
0.00753627156939
0.00771173823572
0.00778935169737
0.00781732641627
0.00782458132512
0.00782555766562
0.00782570419834
0.00782500161435
0.00781797356306
0.00779013127428
0.00771251075633
0.00753688900891
0.00719346273763
0.00659723051603
0.00570144375751
0.00514217826334
0.00663730870798
0.00659710027758
0.00737399144467
0.00794172577481
0.00828599159422
0.00846937359976
0.00855379256271
0.00858571659671
0.00859462822217
0.00859604557653
0.00859613660303
0.00859489325305
0.00858613543981
0.00855430725597
0.00846987782314
0.00828636998226
0.00794191359857
0.00737403208994
0.0065971572455
0.00663713322615
0.00753406384199
0.00719316441872
0.00794177818005
0.00852195904291
0.0088867692026
0.00908771026697
0.00918373942237
0.0092218765185
0.00923351233216
0.00923593750672
0.00923601094179
0.00923372554681
0.0092222131298
0.00918416533337
0.00908812614115
0.00888706504955
0.00852208267414
0.00794179858852
0.00719326172563
0.00753370066171
0.00802310326964
0.00753640787088
0.00828608849771
0.00888680736989
0.00927352098463
0.00949257531767
0.00960146636649
0.00964673951141
0.00966123480329
0.00966428411739
0.00966435516155
0.00966143948974
0.00964704198264
0.00960186000152
0.00949300618291
0.00927384909466
0.00888696596146
0.00828615295543
0.00753657638261
0.0080226521844
0.00825971066266
0.00771186340975
0.00846944142041
0.00908771432895
0.00949256236446
0.00972688394016
0.00984484231725
0.00989397506226
0.00990934478993
0.00991227686989
0.00991235146227
0.00990955417536
0.00989419890782
0.00984506135549
0.00972726088326
0.00949297463721
0.009088006843
0.00846963693498
0.00771217515618
0.00825936568269
0.00835461099382
0.0077893547336
0.00855373708772
0.00918361443488
0.00960135199548
0.0098448698039
0.00996698942297
0.0100163912274
0.0100304461009
0.0100322494187
0.0100323298524
0.0100306579824
0.0100165122627
0.00996691503252
0.00984500950879
0.00960188068877
0.00918411495941
0.00855413617693
0.00778988254747
0.00835456623437
0.0083812700205
0.00781712131819
0.00858547340733
0.00922157987995
0.0096465406819
0.00989410559629
0.0100165776255
0.0100638238363
0.0100750850297
0.0100750248343
0.0100751210605
0.0100753187676
0.0100638849062
0.0100163212976
0.00989401987922
0.0096470954637
0.00922226381459
0.00858608121944
0.00781788769381
0.00838162061536
0.00838275871743
0.00782412925778
0.00859418639807
0.00923310425876
0.00966093937398
0.00990947511046
0.0100306833051
0.0100751347497
0.0100834160129
0.0100814001514
0.010081503331
0.0100836896121
0.0100752044637
0.0100303663636
0.00990933109585
0.00966152577644
0.00923383174833
0.00859494772656
0.00782509259659
0.00838346614161
0.00837975357427
0.0078248723222
0.00859543402319
0.00923541759397
0.00966387736994
0.00991231493403
0.0100323911334
0.0100749408958
0.0100812245203
0.0100779033033
0.010078032432
0.0100814985734
0.010074995724
0.0100320473478
0.00991215319447
0.00966447548649
0.00923614784981
0.00859625701629
0.007825931053
0.00838064968311
0.00837966282374
0.00782484271881
0.00859539314324
0.00923537717383
0.00966384005988
0.0099122819628
0.0100323678459
0.0100749301085
0.0100812237451
0.0100779127058
0.0100780283038
0.0100814869477
0.0100749860285
0.0100320308494
0.00991212462355
0.00966443207678
0.00923609400571
0.00859619481151
0.00782587245517
0.00838050734665
0.00838248981705
0.00782403908462
0.00859406436334
0.00923298313585
0.00966083328751
0.00990939411693
0.0100306305155
0.010075104075
0.0100834013284
0.0100814014931
0.0100814930067
0.0100836691637
0.0100751737784
0.0100303154365
0.0099092447206
0.00966139582115
0.0092336668514
0.00859476509459
0.0078249237156
0.00838305909515
0.00838085908785
0.00781698126939
0.00858527852664
0.00922136810979
0.00964637130089
0.00989398344648
0.0100164970353
0.0100637779568
0.0100750589256
0.0100750043825
0.0100750990559
0.0100752906971
0.0100638368812
0.0100162326525
0.00989387495118
0.00964687956162
0.00922197877453
0.00858579196028
0.00781763217466
0.00838101011925
0.00835414249671
0.00778919252479
0.00855349228729
0.0091833329582
0.00960111979134
0.00984469644226
0.00996686873912
0.0100163072341
0.0100303823049
0.0100321865675
0.0100322681443
0.0100305875144
0.0100164124865
0.0099667703329
0.00984478917538
0.00960157393344
0.00918372633076
0.00855376255986
0.00778957318118
0.00835384708738
0.00825927769638
0.00771171090933
0.00846917746919
0.0090873903914
0.00949227667479
0.00972662404563
0.00984462114125
0.00989378186323
0.0099091602247
0.00991208851908
0.0099121617418
0.00990935498426
0.00989397575433
0.00984479310878
0.00972692829935
0.00949258662116
0.0090875396771
0.00846920832749
0.00771184450147
0.0082586368097
0.00802277402711
0.00753628376112
0.00828582823526
0.00888645672364
0.00927313507868
0.00949222619829
0.00960109422219
0.00964636168717
0.00966085147053
0.00966389845171
0.00966396443364
0.00966103685134
0.00964662378236
0.00960141981754
0.0094925570552
0.00927331792532
0.00888643624149
0.00828569389024
0.00753624270725
0.00802198451599
0.00753387340394
0.00719307427842
0.00794154118317
0.00852161506895
0.00888634933324
0.00908723707123
0.00918321339941
0.00922131675758
0.00923297471369
0.00923540988926
0.00923547502975
0.00923316018939
0.00922159142886
0.00918354036305
0.00908751643694
0.0088864699837
0.00852152975831
0.00794132996379
0.00719292549441
0.00753312529696
0.00663724606921
0.0065970348515
0.00737378855696
0.0079414221642
0.00828560223007
0.00846890375146
0.00855324671856
0.00858510644817
0.00859396939871
0.00859535933897
0.00859543612629
0.00859418999166
0.00858544549555
0.00855364422063
0.00846925365023
0.00828578931112
0.00794138266904
0.00737357072652
0.00659680692078
0.0066366571567
0.00514218359815
0.00570136882659
0.00659694964733
0.00719285813093
0.00753595437348
0.00771133881603
0.00778886522432
0.00781675867554
0.00782394583673
0.00782487769025
0.00782500655485
0.00782431309358
0.00781731362944
0.0077895168566
0.00771195034602
0.00753637598629
0.00719298152276
0.00659677788348
0.00570106044526
0.0051418372055
0.0031174131209
0.0051421317799
0.00663688460068
0.0075331413039
0.00802175238561
0.00825813622644
0.00835305520544
0.00837993481273
0.00838178515059
0.00837918832917
0.0083794498137
0.00838253612939
0.0083810871392
0.00835444725711
0.00825952861781
0.00802285935646
0.00753371683919
0.00663683855328
0.00514173003437
0.00311760893088
0.00320968923057
0.0056467543507
0.00750955450104
0.00866747974488
0.00932536047194
0.00966095185204
0.00980765742758
0.00985813933478
0.00986920227212
0.00986948752857
0.00986976016352
0.00986999811379
0.00985941124182
0.0098092313009
0.00966252045654
0.00932659826804
0.00866814636796
0.00750960014864
0.00564648533741
0.00320999521535
0.005646627694
0.00618616548353
0.00717531448208
0.00785802410103
0.00826707157826
0.00848688751146
0.00859121965703
0.00863342023775
0.00864717644389
0.00865046985979
0.00865062050241
0.0086476112905
0.00863409277053
0.0085920132444
0.00848761982545
0.0082675642846
0.00785817973806
0.00717518702815
0.00618597290435
0.00564644479732
0.0075097503674
0.00717523857013
0.00793469881698
0.0085223755979
0.00889424846732
0.00910246783927
0.00920524018384
0.00924873694619
0.00926372602455
0.00926748451611
0.00926756339283
0.00926396178709
0.00924911644418
0.00920569418917
0.00910286821897
0.00889446703763
0.00852236125084
0.00793453768781
0.0071751367586
0.00750917561464
0.00866814315268
0.00785800622629
0.00852239035235
0.00908254821531
0.00945195874513
0.00966599416087
0.00977505182176
0.00982291795599
0.00984025845124
0.00984462011992
0.00984466880742
0.00984040842198
0.00982309871892
0.00977520599884
0.00966622687514
0.00945212455582
0.00908250649604
0.00852225512295
0.00785800133703
0.0086672307527
0.00932635139059
0.00826712216185
0.00889428550896
0.0094519680794
0.009829766093
0.0100538884051
0.0101693194884
0.0102197043273
0.0102371121224
0.0102412178577
0.0102412421026
0.0102371555848
0.0102195668752
0.0101689324351
0.0100535883652
0.00982978990244
0.0094520326593
0.00889425792973
0.00826726246152
0.00932526693791
0.00966195071155
0.00848691280411
0.00910245413975
0.0096659550398
0.0100540052585
0.0102848333697
0.0104035552394
0.0104540172785
0.0104700635008
0.0104730064888
0.0104730087629
0.0104699691565
0.0104534224668
0.0104022438705
0.01028342086
0.0100534145452
0.00966610938586
0.00910263234989
0.0084872846144
0.00966099876811
0.00980830857549
0.00859108598676
0.00920507739966
0.00977501425931
0.0101698973056
0.0104042658536
0.0105227331347
0.0105705318609
0.0105834205741
0.0105842591544
0.0105842724266
0.0105832509631
0.0105695473314
0.0105204788147
0.0104015575985
0.0101682787966
0.00977501808664
0.00920552931059
0.00859176928949
0.00980779784541
0.00985819633869
0.00863302870773
0.00924836314133
0.00982300607842
0.0102207821481
0.0104555229253
0.0105714364063
0.0106147814496
0.0106235386989
0.0106217037677
0.0106217728951
0.010623492811
0.0106137078235
0.0105686924199
0.0104519684538
0.0102183912766
0.00982272781663
0.00924906469166
0.00863403309851
0.00985827066753
0.00986856881242
0.00864649030117
0.00926312488467
0.00984024149551
0.0102383397834
0.0104719080509
0.0105847327144
0.0106239446973
0.0106288049733
0.010624299504
0.0106244021604
0.0106289357716
0.0106230076514
0.0105819291233
0.0104681334504
0.0102357558322
0.00984001092691
0.00926401393472
0.00864774913083
0.00986916212472
0.00986821621859
0.00864951545738
0.00926669305476
0.00984445025112
0.0102423835445
0.0104748674453
0.0105855891885
0.0106220248815
0.0106241057128
0.0106178000794
0.0106179651636
0.0106242983223
0.0106211578652
0.01058280388
0.0104710753188
0.0102398130416
0.0098443003888
0.00926767380127
0.00865089959314
0.00986908430998
0.00986807030421
0.00864948254048
0.00926665152818
0.00984441029391
0.010242351686
0.0104748481493
0.0105855915039
0.0106220275158
0.0106241050743
0.0106177968697
0.0106179625692
0.0106242957814
0.0106211547625
0.010582800852
0.0104710639166
0.0102397827684
0.0098442521483
0.00926761298736
0.0086508370112
0.00986887229248
0.00986812381717
0.00864638654264
0.00926300007052
0.00984012714381
0.0102382542818
0.0104718700084
0.0105847397798
0.0106239721374
0.0106288423401
0.0106243418857
0.0106244294828
0.0106289491607
0.0106230188237
0.0105819333302
0.0104681048277
0.0102356702017
0.0098398735095
0.0092638366766
0.00864756696039
0.00986854513299
0.00985749721963
0.00863286371828
0.00924816099416
0.00982283529091
0.0102206566772
0.0104554842425
0.0105714726071
0.0106148639897
0.0106236510959
0.0106218306035
0.010621884345
0.0106235809202
0.0106137758925
0.0105687290159
0.0104519302697
0.0102182502621
0.00982251070243
0.00924878076629
0.0086337561293
0.00985732885397
0.00980747400644
0.00859088410506
0.00920480618581
0.00977474699325
0.01016971726
0.01040421664
0.0105227983214
0.010570667692
0.0105835920366
0.0105844471735
0.010584444952
0.0105833938577
0.0105696581597
0.0105205170949
0.0104014752248
0.0101680477967
0.00977466312025
0.00920514451575
0.00859142665857
0.00980666200931
0.00966112691095
0.00848670029674
0.00910213451578
0.00966560271031
0.0100537258626
0.0102846831934
0.01040353871
0.0104540827638
0.0104701526221
0.0104730893976
0.0104730803173
0.0104700168683
0.0104534265715
0.0104021585968
0.0102831987326
0.0100530422507
0.00966563152926
0.00910216315732
0.00848690077239
0.00965981478642
0.00932564797981
0.00826690943391
0.00889393104097
0.00945153860359
0.00982933907137
0.0100535359341
0.010169055095
0.0102195028183
0.0102369119641
0.0102410007686
0.0102410136831
0.0102369149916
0.0102192981288
0.0101685827897
0.0100531350792
0.00982923331985
0.00945144161934
0.008893717898
0.0082668459209
0.00932415336578
0.00866761957148
0.00785779341945
0.00852201913276
0.00908207398887
0.00945142955159
0.00966543921422
0.00977449563518
0.00982242201159
0.0098397035113
0.00984402565233
0.00984406440753
0.00983981984679
0.00982254722116
0.00977456032939
0.00966554840261
0.0094514340147
0.00908183598279
0.00852166192571
0.00785754699131
0.00866625582073
0.00750941661804
0.00717502402943
0.00793433269397
0.00852190497387
0.00889370184164
0.00910185348879
0.00920456120515
0.00924800454612
0.00926293683687
0.00926665421909
0.009266720822
0.00926313286773
0.00924831109291
0.009204904679
0.00910210616668
0.00889373600666
0.00852167011668
0.00793391939499
0.00717464067582
0.00750837445299
0.00564649042849
0.00618594060649
0.00717496046369
0.00785759275152
0.00826657392677
0.0084863098027
0.00859054841624
0.0086326569496
0.0086463338452
0.00864957517061
0.00864970897349
0.00864671825252
0.00863323730373
0.00859121347159
0.00848688050162
0.00826687114024
0.00785751396132
0.00717455595131
0.00618543238328
0.00564590890718
0.00320973587985
0.00564642173522
0.00750897222766
0.00866667549836
0.00932427465487
0.0096595305341
0.00980588785071
0.0098560653091
0.00986689327446
0.00986702526152
0.00986725324768
0.00986756111826
0.00985711721005
0.00980717045104
0.00966075101142
0.00932511870898
0.00866690971237
0.00750856547333
0.0056457598884
0.00321003260351
0.00325674509759
0.00593554052519
0.00802907662668
0.00936219493469
0.0101412382195
0.0105531468852
0.0107430241496
0.0108149021203
0.010834948226
0.0108381753235
0.010838436213
0.0108357392651
0.0108162776005
0.0107447962533
0.0105548623118
0.0101425147651
0.00936282979583
0.00802909887649
0.00593532716077
0.0032571450935
0.00593543326698
0.00646686407881
0.00752489915187
0.00827096579681
0.00872865229397
0.00898186851651
0.00910667098703
0.00915973861167
0.00917823792834
0.00918308069698
0.0091832618863
0.00917877576958
0.00916060589133
0.00910772428465
0.00898283850499
0.00872927559825
0.00827112112518
0.00752469540927
0.0064666092793
0.00593527867745
0.00802930244487
0.00752479815836
0.00829298772055
0.00890608221893
0.0093032883151
0.00953201548269
0.00964916637921
0.0097010962578
0.00971993950876
0.00972501443649
0.0097251085099
0.00972022444682
0.00970149456505
0.0096495954681
0.00953249215831
0.00930360895211
0.00890607234105
0.00829277085227
0.00752466276402
0.00802860234559
0.00936292073902
0.00827090338149
0.00890607720059
0.00946856799536
0.00984950226508
0.010076269226
0.0101953327107
0.0102493517399
0.0102686986825
0.0102736456981
0.0102736859776
0.0102687914787
0.0102492533529
0.010194898412
0.0100758232268
0.00984937932477
0.00946861159257
0.00890597058633
0.00827096189202
0.00936173932457
0.0101422701261
0.00872862235965
0.00930327919299
0.00984953876752
0.0102300568604
0.0104601864293
0.0105803295944
0.0106329842613
0.0106506485149
0.0106542896153
0.0106542817729
0.0106504767481
0.0106320922103
0.0105783421684
0.0104577724021
0.0102285214127
0.0098492677359
0.00930342349918
0.00872901422567
0.0101409142406
0.0105540451067
0.00898174202133
0.00953193239997
0.010076704959
0.010461113652
0.0106920055573
0.0108103659761
0.0108592813631
0.0108731992218
0.0108743174427
0.0108743351673
0.0108728952206
0.0108575809938
0.0108063745689
0.0106866147255
0.0104568736298
0.0100752900047
0.00953230330578
0.00898259167714
0.0105530014638
0.0107432526369
0.00910626590817
0.00964902309992
0.010196627273
0.0105830625529
0.0108125801852
0.0109262822718
0.0109696579454
0.0109786256126
0.0109762684222
0.0109764582666
0.0109786294854
0.0109677137479
0.0109208148263
0.010804349927
0.0105757533709
0.0101935142145
0.00964938243185
0.00910765007395
0.0107430249366
0.0108141113404
0.00915893461879
0.00970091620988
0.0102514065427
0.0106372568236
0.0108634300284
0.0109716294713
0.0110092396097
0.0110133490304
0.0110069957514
0.0110074845441