/*--------------------------------*- C++ -*----------------------------------*\
| =========                 |                                                 |
| \\      /  F ield         | OpenFOAM: The Open Source CFD Toolbox           |
|  \\    /   O peration     | Version:  3.0.1                                 |
|   \\  /    A nd           | Web:      www.OpenFOAM.org                      |
|    \\/     M anipulation  |                                                 |
\*---------------------------------------------------------------------------*/
FoamFile
{
    version     2.0;
    format      ascii;
    class       volScalarField;
    location    "1.9";
    object      p;
}
// * * * * * * * * * * * * * * * * * * * * * * * * * * * * * * * * * * * * * //

dimensions      [1 -1 -2 0 0 0 0];

internalField   nonuniform List<scalar> 
7968
(
4647.54095388
4647.52552744
4647.46512953
4647.37026664
4647.24967908
4647.11770581
4646.99107418
4646.88419454
4646.80782704
4646.76897347
4646.77102047
4646.81399532
4646.89464758
4647.00598032
4647.13709204
4647.2733673
4647.39770911
4647.49549039
4647.55779143
4647.57410498
4647.52540073
4647.53402391
4647.48565489
4647.39678975
4647.27667302
4647.14215668
4647.01144198
4646.90090454
4646.82202794
4646.78189174
4646.78388284
4646.82805715
4646.91118762
4647.02621652
4647.16150307
4647.3003649
4647.42423978
4647.51598048
4647.56610691
4647.55803621
4647.46439001
4647.4849177
4647.43511421
4647.33535559
4647.19613366
4647.03869685
4646.88560625
4646.75627158
4646.66420434
4646.61726443
4646.61909949
4646.66981003
4646.76598954
4646.89981052
4647.05755501
4647.2193899
4647.36239343
4647.4649691
4647.51641137
4647.4962255
4647.36820411
4647.39474034
4647.33399257
4647.21018637
4647.03764459
4646.84373847
4646.65698145
4646.50046712
4646.38968077
4646.33311651
4646.33469436
4646.39458924
4646.50923286
4646.67020702
4646.86171464
4647.0601424
4647.23652243
4647.36311133
4647.42539448
4647.39899607
4647.24587471
4647.27271899
4647.19289289
4647.03570338
4646.82167281
4646.58576253
4646.36194996
4646.17662982
4646.04623335
4645.9795665
4645.98082549
4646.05028259
4646.18421277
4646.37396316
4646.60266722
4646.84328047
4647.06123702
4647.2211968
4647.30248839
4647.27561885
4647.11176021
4647.13606197
4647.03320861
4646.83950276
4646.5834257
4646.30665712
4646.0486385
4645.83711257
4645.68900329
4645.61316752
4645.61410142
4645.69213229
4645.84339104
4646.0593311
4646.32245638
4646.60411663
4646.86428899
4647.06081345
4647.16513696
4647.14064499
4646.98277618
4647.00292454
4646.87763717
4646.65022822
4646.35706089
4646.04613164
4645.75983565
4645.52777286
4645.36600694
4645.28311965
4645.2837272
4645.36829404
4645.5328263
4645.76926321
4646.06087977
4646.37700279
4646.6743923
4646.90469255
4647.03141858
4647.01100206
4646.873446
4646.88990428
4646.74580353
4646.49124104
4646.16930542
4645.8322474
4645.52546485
4645.28000998
4645.11154337
4645.02533944
4645.02575049
4645.11328663
4645.2842201
4645.53391
4645.84610708
4646.1885601
4646.51487341
4646.77243593
4646.91797602
4646.90117302
4646.79463264
4646.80858568
4646.65133196
4646.37815797
4646.03672251
4645.68210688
4645.36181166
4645.1097381
4644.93752985
4644.84902752
4644.8493006
4644.93903454
4645.11351968
4645.36970106
4645.69540279
4646.05546236
4646.40134808
4646.67761567
4646.83631067
4646.8219484
4646.75335258
4646.76605056
4646.60206593
4646.31940652
4645.96798941
4645.60435809
4645.27712152
4645.02177718
4644.84727242
4644.75739781
4644.75772355
4644.84877117
4645.02552889
4645.28485801
4645.61742747
4645.98646244
4646.34227023
4646.62804661
4646.7934603
4646.7803026
4646.75296036
4646.76563347
4646.60155292
4646.31874056
4645.96713136
4645.60328873
4645.27585439
4645.02038984
4644.84585771
4644.75603347
4644.75646463
4644.84764115
4645.02450462
4645.28390044
4645.6165213
4645.98559789
4646.34145948
4646.62729466
4646.79274552
4646.7795697
4646.79349278
4646.80737685
4646.64985209
4646.37624415
4646.03426101
4645.6790516
4645.35820939
4645.10578778
4644.93347023
4644.84509488
4644.84564044
4644.93570992
4645.11049113
4645.36686961
4645.69271447
4646.05290531
4646.39895094
4646.67540154
4646.8342094
4646.81979898
4646.87166576
4646.88802495
4646.74351197
4646.48829263
4646.16553023
4645.82758652
4645.51999597
4645.27396052
4645.10525441
4645.01916434
4645.01994278
4645.10795439
4645.27933576
4645.52933903
4645.84174947
4646.18442041
4646.51101393
4646.76888576
4646.91462307
4646.89775776
4646.98051565
4647.00055424
4646.87476039
4646.64654146
4646.35235988
4646.04036622
4645.75303379
4645.52018732
4645.35803103
4645.27518492
4645.27612571
4645.36117512
4645.52622371
4645.76303517
4646.0549663
4646.37144628
4646.66926317
4646.90001808
4647.02703524
4647.00655974
4647.10922434
4647.13343014
4647.03000365
4646.83539852
4646.57819465
4646.30023861
4646.04108751
4645.82867235
4645.68006294
4645.60412813
4645.60526287
4645.68368941
4645.8354007
4646.05175327
4646.31529529
4646.59744968
4646.85819694
4647.05530779
4647.16001262
4647.13548778
4647.24325383
4647.26997987
4647.18958617
4647.03146241
4646.816278
4646.57917925
4646.35418187
4646.16792691
4646.0369408
4645.970045
4645.97135897
4646.04106135
4646.17534766
4646.36550255
4646.59469724
4646.83590017
4647.05455863
4647.21521503
4647.29696762
4647.27006158
4647.36566957
4647.39207055
4647.33074909
4647.2060105
4647.03231582
4646.83722396
4646.64934835
4646.49193067
4646.38052534
4646.32364621
4646.32514832
4646.38514214
4646.50003354
4646.66137803
4646.85339841
4647.05248405
4647.22962969
4647.35695396
4647.419727
4647.39332337
4647.46199331
4647.48239258
4647.43200425
4647.33133108
4647.19100645
4647.03244128
4646.87830546
4646.74811277
4646.65541953
4646.60809787
4646.60976341
4646.6604936
4646.75685192
4646.89101762
4647.0492761
4647.21177349
4647.35554182
4647.45885004
4647.51080498
4647.49063661
4647.52320645
4647.5316356
4647.48268616
4647.39292525
4647.27175539
4647.13617255
4647.00448835
4646.89314771
4646.81366371
4646.77311714
4646.77489037
4646.81902092
4646.90228266
4647.01762078
4647.15340032
4647.29289633
4647.41753669
4647.5099987
4647.56067353
4647.55275898
4647.5390322
4647.52337083
4647.46236165
4647.3665937
4647.24495408
4647.11191579
4646.98431516
4646.87661698
4646.79961277
4646.76030858
4646.76209411
4646.80499639
4646.88576514
4646.99741005
4647.12903375
4647.26598583
4647.39110805
4647.48964957
4647.55260588
4647.56916085
4157.94860912
4157.92040677
4157.84756789
4157.7404633
4157.60991504
4157.47012418
4157.33711848
4157.22529273
4157.14549737
4157.10484129
4157.10686947
4157.15163478
4157.23573534
4157.35210468
4157.48978123
4157.63410887
4157.76872951
4157.87910928
4157.95410185
4157.98329574
4157.92039457
4157.91539027
4157.85250876
4157.75200666
4157.62856104
4157.49629972
4157.36963063
4157.26267677
4157.18598863
4157.14671446
4157.14864796
4157.19185992
4157.27273136
4157.38416442
4157.51547408
4157.65222261
4157.77977296
4157.88356716
4157.94856289
4157.95425892
4157.8468159
4157.85169386
4157.78239476
4157.66849617
4157.52976974
4157.38193039
4157.24114474
4157.12226042
4157.03680142
4156.99270539
4156.99441811
4157.04206912
4157.13145473
4157.25472962
4157.40014495
4157.55256109
4157.69539843
4157.81260209
4157.8839819
4157.87951267
4157.73854384
4157.74981933
4157.66712399
4157.52951456
4157.36437036
4157.19097527
4157.02769362
4156.89014342
4156.79093005
4156.73922861
4156.7406226
4156.7953167
4156.89808273
4157.03990191
4157.2079003
4157.38595069
4157.55522269
4157.69614344
4157.78088227
4157.7698205
4157.60628762
4157.62470166
4157.52655781
4157.362583
4157.17011015
4156.97167862
4156.78867741
4156.63515261
4156.52424386
4156.46591706
4156.46694689
4156.52759938
4156.64163123
4156.79932306
4156.98715252
4157.19033078
4157.38700221
4157.55433792
4157.65450869
4157.6361584
4157.46438133
4157.4902284
4157.37651449
4157.18693385
4156.96942572
4156.75186668
4156.5527057
4156.38633239
4156.26544655
4156.20119094
4156.20186649
4156.26776302
4156.39122585
4156.56171263
4156.76583055
4156.98843192
4157.21015634
4157.4031587
4157.518851
4157.49303931
4157.32898397
4157.36117205
4157.23335903
4157.02128009
4156.78414346
4156.5504367
4156.33848675
4156.16211636
4156.0333706
4155.96407531
4155.96439718
4156.03482578
4156.16573489
4156.34603279
4156.56292974
4156.80177928
4157.04344102
4157.25907952
4157.38896431
4157.35670879
4157.21468096
4157.25180167
4157.11212181
4156.88145017
4156.62844781
4156.38193879
4156.15999002
4155.97668524
4155.83947155
4155.76527981
4155.76542913
4155.84047648
4155.97958368
4156.16653852
4156.393324
4156.64498109
4156.90272257
4157.13707676
4157.27891312
4157.24170097
4157.13241779
4157.17274367
4157.02440906
4156.78012381
4156.51567834
4156.25942015
4156.02988986
4155.83801737
4155.69588264
4155.61885573
4155.61855911
4155.69679706
4155.84058486
4156.03563989
4156.27008748
4156.53138605
4156.80076028
4157.04877035
4157.19931452
4157.15887656
4157.08932054
4157.1311359
4156.97811958
4156.72637036
4156.45555294
4156.19368978
4155.95923113
4155.76238911
4155.61710281
4155.53834947
4155.53854415
4155.61785858
4155.76475168
4155.96464103
4156.20389695
4156.47088266
4156.74663484
4157.0020403
4157.15725901
4157.11530623
4157.08890435
4157.13071477
4156.97759503
4156.725675
4156.45467321
4156.19259765
4155.95793966
4155.76106528
4155.61583438
4155.53723222
4155.53747825
4155.61687069
4155.76388032
4155.96379149
4156.20305726
4156.47004085
4156.74580752
4157.00125943
4157.15649074
4157.11448758
4157.13121289
4157.17152429
4157.02290075
4156.77813854
4156.51315523
4156.25633025
4156.02634344
4155.83419658
4155.69211025
4155.61542101
4155.61537856
4155.69387367
4155.83788357
4156.03309592
4156.26756837
4156.52889267
4156.79832545
4157.04647093
4157.1970606
4157.15647991
4157.21282184
4157.24992147
4157.10980937
4156.8784197
4156.62459949
4156.37722914
4156.15464258
4155.97076666
4155.83346922
4155.75954312
4155.76016243
4155.83565649
4155.97517969
4156.16237985
4156.38924168
4156.6409508
4156.8988261
4157.1334014
4157.27533596
4157.23790632
4157.32667212
4157.35882675
4157.23048811
4157.01753169
4156.77933188
4156.54448813
4156.33170165
4156.15466415
4156.02566346
4155.95653964
4155.95729686
4156.02821744
4156.15958149
4156.34019685
4156.5572808
4156.79629597
4157.03824679
4157.25423334
4157.38429645
4157.35179649
4157.4618611
4157.48763233
4157.37335808
4157.18278428
4156.96404773
4156.74527348
4156.54507689
4156.37788908
4156.25661229
4156.19236756
4156.19331935
4156.2596081
4156.38353025
4156.55435933
4156.75877726
4156.98169703
4157.20393291
4157.39745915
4157.51343856
4157.48739126
4157.60381696
4157.62216793
4157.52337417
4157.35836099
4157.16462194
4156.96477225
4156.78073916
4156.62634254
4156.51489136
4156.4563996
4156.45751481
4156.51842909
4156.63283094
4156.79088391
4156.97905603
4157.18281243
4157.38013335
4157.54813559
4157.64870446
4157.6301823
4157.73631497
4157.74748304
4157.66410186
4157.52542595
4157.35905474
4157.18433209
4157.01987611
4156.88136772
4156.78147747
4156.72940938
4156.73072227
4156.78558525
4156.88865286
4157.03086059
4157.19934981
4157.37804944
4157.54808814
4157.68979318
4157.77503843
4157.76388677
4157.84493529
4157.84962773
4157.77963839
4157.66468015
4157.52473921
4157.37564087
4157.23371279
4157.11387725
4157.0277075
4156.9831617
4156.98468023
4157.03234432
4157.1219292
4157.2455573
4157.39151583
4157.54465951
4157.68833634
4157.80636641
4157.87833507
4157.87390085
4157.91880597
4157.91358942
4157.85003727
4157.74851124
4157.62388254
4157.49041138
4157.36262404
4157.2547313
4157.17730423
4157.13751987
4157.13916194
4157.18230063
4157.26330185
4157.37507933
4157.50696399
4157.64450252
4157.77290301
4157.87757122
4157.94325281
4157.94909367
4157.94740276
4157.91894879
4157.84541309
4157.73726089
4157.60548921
4157.46443878
4157.33026617
4157.21744212
4157.13684645
4157.09561523
4157.09729918
4157.14195457
4157.22618488
4157.34293442
4157.48124198
4157.62641267
4157.76198941
4157.87332519
4157.94912393
4157.97862519
3668.44574233
3668.41233245
3668.33375806
3668.22018949
3668.08357453
3667.93810479
3667.7996678
3667.68296993
3667.59960327
3667.55709998
3667.55919124
3667.60593445
3667.69380136
3667.8153703
3667.95895169
3668.10958199
3668.25097447
3668.36846851
3668.44972415
3668.48428981
3668.41240931
3668.409419
3668.34569488
3668.2427945
3668.11999532
3667.98966739
3667.86481027
3667.75872695
3667.6823516
3667.64315988
3667.64512595
3667.68832609
3667.7690177
3667.87984244
3668.00977245
3668.14521439
3668.27282863
3668.3797662
3668.4461137
3668.44981338
3668.33314148
3668.34483431
3668.27426846
3668.15321787
3668.01094236
3667.86217029
3667.72157541
3667.60370493
3667.51995663
3667.47710847
3667.47869022
3667.52486832
3667.61247379
3667.73491086
3667.88058272
3668.03456572
3668.18179603
3668.30708021
3668.38028935
3668.36887284
3668.21835334
3668.24048744
3668.15167348
3667.99521283
3667.81430866
3667.62871589
3667.45623046
3667.31464551
3667.21702596
3667.16795085
3667.16897428
3667.22041305
3667.32123063
3667.46724912
3667.64488082
3667.83577122
3668.02175626
3668.18266408
3668.27418006
3668.25206505
3668.07994787
3668.11580955
3668.00741971
3667.81230701
3667.5888072
3667.36151425
3667.14460435
3666.98089705
3666.8784151
3666.82391629
3666.82463437
3666.88070402
3667.001406
3667.17332673
3667.37592422
3667.6083391
3667.83682871
3668.03649867
3668.14767004
3668.11167103
3667.93223287
3667.98321485
3667.85631889
3667.62424107
3667.35889536
3667.06290971
3666.79138418
3666.62916106
3666.53697788
3666.47965355
3666.48082228
3666.54066724
3666.69156657
3666.9109996
3667.13207802
3667.37734696
3667.64718488
3667.8837063
3668.01341096
3667.96222185
3667.79126257
3667.85586081
3667.71319459
3667.44894742
3667.13868188
3666.74993803
3666.44815764
3666.30472353
3666.22450897
3666.16684534
3666.16967838
3666.23182811
3666.41389365
3666.69114598
3666.9469105
3667.176492
3667.47092735
3667.73930828
3667.88477286
3667.819922
3667.6719015
3667.74726076
3667.59288749
3667.30484555
3666.95151402
3666.50480141
3666.19690984
3666.0448284
3665.97119093
3665.91525339
3665.91954562
3665.98419003
3666.18280718
3666.50928153
3666.80012808
3667.02429684
3667.32599133
3667.61799495
3667.77522694
3667.69961863
3667.58594096
3667.66846393
3667.50693002
3667.20535734
3666.83057624
3666.36726432
3666.05203804
3665.90008902
3665.82942353
3665.77449188
3665.77836614
3665.84434548
3666.04592768
3666.38298413
3666.68796428
3666.91850739
3667.22558636
3667.53122115
3667.69568706
3667.61292694
3667.54089945
3667.62690077
3667.46196582
3667.15450908
3666.77476424
3666.30798818
3665.99080749
3665.83801558
3665.76672634
3665.71376057
3665.71846212
3665.7819343
3665.98451215
3666.3212351
3666.62761423
3666.86183771
3667.17416896
3667.48567833
3667.65352653
3667.56728167
3667.54047141
3667.6264839
3667.46140033
3667.15369951
3666.77379059
3666.3069847
3665.98972721
3665.83586826
3665.76389203
3665.71021046
3665.71590674
3665.78005109
3665.9823544
3666.31925425
3666.62605744
3666.86077632
3667.17325277
3667.48480959
3667.6526688
3667.56634999
3667.58470751
3667.66725553
3667.50530576
3667.20306969
3666.82776542
3666.364261
3666.04781614
3665.8941895
3665.82286141
3665.76757238
3665.77189862
3665.83815104
3666.0399599
3666.37737269
3666.68336606
3666.91532988
3667.2228321
3667.52865733
3667.69317212
3667.6102008
3667.67004365
3667.74543788
3667.59041767
3667.30129669
3666.94601121
3666.49645755
3666.18446722
3666.0282642
3665.95371422
3665.89888172
3665.90371544
3665.96862522
3666.16791685
3666.496721
3666.79046947
3667.01857761
3667.32157166
3667.61391028
3667.77125483
3667.69532001
3667.78905487
3667.85368463
3667.71021087
3667.44459867
3667.13161144
3666.73633742
3666.42544986
3666.27572444
3666.19399423
3666.13824983
3666.14201679
3666.20505556
3666.38940391
3666.66993163
3666.93316084
3667.16912291
3667.46503551
3667.73395585
3667.87964903
3667.81441225
3667.93002447
3667.98100674
3667.85321325
3667.61962655
3667.35261671
3667.05155669
3666.77073024
3666.60090454
3666.50675261
3666.4504356
3666.45268838
3666.51374946
3666.66682672
3666.89174252
3667.12058763
3667.3697494
3667.64021899
3667.87749168
3668.00756462
3667.95600783
3668.07805962
3668.11390189
3668.00456317
3667.8078727
3667.58260223
3667.35357012
3667.13401586
3666.96691106
3666.86281669
3666.80839879
3666.80943982
3666.86604379
3666.98793007
3667.16220541
3667.36678311
3667.59987126
3667.82927618
3668.02990931
3668.14159759
3668.10531832
3668.21702914
3668.23908983
3668.14935096
3667.99135438
3667.80870857
3667.62138395
3667.4473656
3667.30457834
3667.20630731
3667.15686509
3667.15782373
3667.20943074
3667.31044682
3667.45697697
3667.63531598
3667.82709309
3668.01415903
3668.17617528
3668.26834397
3668.24606351
3668.33250429
3668.34405073
3668.27261684
3668.15015374
3668.00625647
3667.85585023
3667.71378293
3667.59471795
3667.51009149
3667.46668464
3667.46800195
3667.51416845
3667.60197261
3667.72485187
3667.87124351
3668.02621114
3668.17459279
3668.30102505
3668.3749792
3668.36354577
3668.41235286
3668.4091598
3668.34461893
3668.24041704
3668.11610709
3667.98423078
3667.85793717
3667.75063531
3667.67327833
3667.63339479
3667.63494988
3667.67801316
3667.75883756
3667.87010384
3668.00078846
3668.13726134
3668.26605654
3668.3741802
3668.4414023
3668.44524832
3668.44612924
3668.41247708
3668.33302438
3668.21813314
3668.07995823
3667.93286813
3667.79291098
3667.67489409
3667.59045384
3667.54716287
3667.54876559
3667.5953298
3667.68333879
3667.80540698
3667.94982918
3668.1015927
3668.24428691
3668.36308024
3668.44538414
3668.48037802
3179.02477327
3178.98965019
3178.91073107
3178.79693168
3178.659258
3178.51117667
3178.3684994
3178.2467875
3178.1592888
3178.1146112
3178.11686313
3178.1660898
3178.25843987
3178.38557625
3178.53418752
3178.68845209
3178.83201743
3178.95073745
3179.03302685
3179.06968875
3178.98979806
3178.98779559
3178.92813911
3178.82902131
3178.70958715
3178.58027438
3178.45376444
3178.34424645
3178.26484217
3178.22413511
3178.22623782
3178.27120133
3178.3552257
3178.46998207
3178.60229056
3178.73773046
3178.86311841
3178.96734274
3179.03031989
3179.03310392
3178.91021239
3178.92722315
3178.86222473
3178.73989351
3178.59107402
3178.43175666
3178.27858363
3178.15120097
3178.06305983
3178.01892059
3178.02038068
3178.06767143
3178.15976519
3178.29209663
3178.4510216
3178.61656058
3178.77167118
3178.89961831
3178.96805957
3178.95126593
3178.79509398
3178.82650959
3178.73815015
3178.56441817
3178.35293106
3178.11007392
3177.87885152
3177.73441949
3177.64852845
3177.59939423
3177.60074228
3177.65288819
3177.77777371
3177.96623798
3178.16160161
3178.37501931
3178.59290214
3178.77280784
3178.86490744
3178.83337696
3178.6554667
3178.70497732
3178.58710539
3178.35059308
3178.01877539
3177.62778989
3177.33421726
3177.19266803
3177.12006495
3177.07106202
3177.07515965
3177.13256049
3177.30688223
3177.6002747
3177.88617732
3178.12026979
3178.37625569
3178.61892767
3178.74081059
3178.69101096
3178.504947
3178.57316895
3178.42510433
3178.10459997
3177.57559883
3177.07146725
3176.752563
3176.59223244
3176.52376394
3176.48149788
3176.49280474
3176.55630186
3176.76824386
3177.16711731
3177.60578201
3177.9319662
3178.16462286
3178.45471301
3178.60675957
3178.53810597
3178.35942759
3178.44389199
3178.26903098
3177.8320544
3177.13975294
3176.61391769
3176.23945298
3176.06992908
3176.02067759
3175.99161012
3176.01141823
3176.07995647
3176.29500496
3176.73117712
3177.29073016
3177.77293112
3178.0050888
3178.29737691
3178.47587297
3178.39087654
3178.23465146
3178.33158198
3178.13884561
3177.60373221
3176.84829929
3176.2982852
3175.904591
3175.7728106
3175.74647253
3175.72931183
3175.7547502
3175.82251599
3176.03052414
3176.43847451
3177.03015948
3177.61259054
3177.89020408
3178.16631972
3178.36251018
3178.26507931
3178.14434706
3178.24964033
3178.0483217
3177.47744189
3176.70639442
3176.14551833
3175.75957252
3175.64252793
3175.62902876
3175.62021636
3175.64851092
3175.71001639
3175.90921383
3176.30480537
3176.8895955
3177.49731413
3177.79930251
3178.07499913
3178.279738
3178.17397755
3178.09696266
3178.20646464
3178.00206666
3177.42619665
3176.65226566
3176.08987306
3175.7070149
3175.59554989
3175.58980947
3175.58492494
3175.61196803
3175.67164751
3175.86297952
3176.25204684
3176.83343932
3177.44106941
3177.74676026
3178.02813103
3178.23588333
3178.12591047
3178.09654708
3178.20609701
3178.00147336
3177.42550755
3176.65145304
3176.08842211
3175.70342019
3175.59069899
3175.58455165
3175.57967162
3175.60696429
3175.66672937
3175.858101
3176.24759946
3176.829911
3177.43832941
3177.74516683
3178.02714688
3178.23496577
3178.12489035
3178.14315009
3178.24854766
3178.04657607
3177.47542384
3176.70376099
3176.13956882
3175.748772
3175.628336
3175.6135822
3175.60462788
3175.63355825
3175.69543905
3175.89483079
3176.29152263
3176.87926861
3177.48909542
3177.79456044
3178.07213915
3178.27705106
3178.17099421
3178.23291211
3178.32997772
3178.13618796
3177.59793556
3176.8375384
3176.27996371
3175.87941678
3175.74204473
3175.71369495
3175.69676819
3175.72304473
3175.79169933
3176.00045226
3176.41061796
3177.00769287
3177.59529178
3177.88131135
3178.16176205
3178.3582833
3178.2603928
3178.35752405
3178.44212372
3178.26589472
3177.82196233
3177.11760963
3176.57856707
3176.1952866
3176.01971649
3175.96791936
3175.93968801
3175.96087209
3176.03103027
3176.24730098
3176.68684951
3177.25305054
3177.74648009
3177.99329096
3178.29144219
3178.47047507
3178.38493636
3178.50334006
3178.5716578
3178.42209888
3178.09673098
3177.55291565
3177.02834133
3176.69640122
3176.5292161
3176.45949194
3176.41931503
3176.43226453
3176.49793426
3176.71145076
3177.1137949
3177.5624255
3177.90700348
3178.15451245
3178.4479851
3178.60077516
3178.53160024
3178.65462106
3178.70415203
3178.58477271
3178.34572915
3178.00620514
3177.59680027
3177.2829198
3177.13053605
3177.05592901
3177.00867414
3177.01475153
3177.0744584
3177.25143129
3177.55235427
3177.85476333
3178.10520361
3178.36776741
3178.61212387
3178.73492032
3178.68471495
3178.79532039
3178.82669176
3178.73698037
3178.56094138
3178.34685138
3178.09948547
3177.85922419
3177.70582591
3177.61673817
3177.56791093
3177.56990491
3177.6229779
3177.7504366
3177.94506607
3178.1480518
3178.36530582
3178.58493168
3178.7666074
3178.85970369
3178.82794096
3178.91161506
3178.9285213
3178.86239279
3178.73813951
3178.58711449
3178.4256237
3178.27060062
3178.14181908
3178.05257494
3178.0077258
3178.00883886
3178.05604725
3178.1483523
3178.28116573
3178.44105075
3178.60804794
3178.76483572
3178.89442814
3178.96387667
3178.94703896
3178.99219912
3178.98999067
3178.92932915
3178.82857548
3178.7072345
3178.57599351
3178.44773005
3178.33673041
3178.25610178
3178.21451655
3178.21605577
3178.26076719
3178.3448616
3178.46015856
3178.5934185
3178.73020294
3178.85718078
3178.96298793
3179.02709109
3179.03009149
3179.02791149
3178.99235675
3178.91234163
3178.79689154
3178.65723969
3178.50710927
3178.36252694
3178.23916252
3178.15028426
3178.10459635
3178.10618836
3178.15512102
3178.24759038
3178.3753624
3178.52506165
3178.68080677
3178.82610164
3178.94658157
3179.03027534
3179.06756592
2689.6915167
2689.65681618
2689.58470127
2689.48007554
2689.35068456
2689.20692021
2689.06377443
2688.93824786
2688.84659908
2688.7996806
2688.80231162
2688.85445323
2688.95147756
2689.08326047
2689.23355064
2689.38496422
2689.52177629
2689.63260361
2689.70888968
2689.74533883
2689.65696762
2689.64543242
2689.58872663
2689.49697323
2689.38217264
2689.25189882
2689.11963602
2689.00111386
2688.91464885
2688.87086279
2688.87336939
2688.92196861
2689.01356847
2689.1380376
2689.27705437
2689.41483736
2689.53716778
2689.63551295
2689.69649972
2689.70904672
2689.58413489
2689.58768768
2689.52200228
2689.40010954
2689.24454711
2689.04930441
2688.85424618
2688.7301801
2688.65243261
2688.60682037
2688.60903404
2688.65918349
2688.77705886
2688.94601519
2689.10560725
2689.2727924
2689.43655139
2689.56615775
2689.63662427
2689.63348228
2689.47802644
2689.49411811
2689.39814303
2689.2069639
2688.88928237
2688.55225396
2688.29809662
2688.16379673
2688.09704397
2688.05449106
2688.06107749
2688.11680458
2688.28181212
2688.55512889
2688.8369058
2689.0577107
2689.24014116
2689.4382487
2689.53993639
2689.5238748
2689.34645747
2689.37695324
2689.24010429
2688.88440771
2688.34483498
2687.88990706
2687.56703855
2687.4029642
2687.34396656
2687.31703938
2687.33628009
2687.40130445
2687.60452287
2687.98635899
2688.45450619
2688.85152758
2689.06146934
2689.27607857
2689.41938561
2689.38894298
2689.1999474
2689.24392315
2689.04208946
2688.42726156
2687.77577989
2687.22600811
2686.81125695
2686.64910964
2686.62348456
2686.62398781
2686.66102758
2686.73514934
2686.94527536
2687.36044612
2687.94973562
2688.55778389
2688.94832157
2689.11080592
2689.28352334
2689.23957546
2689.05347083
2689.10849706
2688.80577619
2688.00714854
2687.30598211
2686.65423222
2686.25574042
2686.1236005
2686.13880306
2686.16887411
2686.22177765
2686.29887501
2686.49999502
2686.91425243
2687.50151817
2688.22198042
2688.81619505
2688.98694835
2689.14637918
2689.09123842
2688.92392226
2688.98663677
2688.59708159
2687.74028087
2686.98961938
2686.31968304
2685.94244773
2685.85932659
2685.90869997
2685.96018635
2686.02207425
2686.09278821
2686.27456256
2686.65484286
2687.23462139
2687.975731
2688.66111134
2688.89238595
2689.0238167
2688.96121932
2688.82927224
2688.89751472
2688.47852969
2687.60843202
2686.84262902
2686.18311509
2685.83102699
2685.77338753
2685.8532804
2685.92344841
2685.98968409
2686.04451365
2686.20021427
2686.55509212
2687.11453726
2687.84571574
2688.55103103
2688.80950638
2688.93411461
2688.86592643
2688.77939631
2688.85109734
2688.43025571
2687.55811647
2686.79248031
2686.13968546
2685.7993294
2685.75429692
2685.85212456
2685.92920165
2685.99390949
2686.0432439
2686.18059611
2686.52208393
2687.06991095
2687.79349389
2688.49784194
2688.75981574
2688.88703439
2688.81543493
2688.77906255
2688.85092645
2688.42989976
2687.55721227
2686.78942389
2686.13386407
2685.7906586
2685.74471718
2685.84241939
2685.92001235
2685.98408132
2686.03299745
2686.17086007
2686.51310186
2687.06270826
2687.78875977
2688.49448524
2688.75824407
2688.88615408
2688.81441913
2688.82830656
2688.89679954
2688.47740775
2687.60561524
2686.83345824
2686.165826
2685.80676292
2685.74465201
2685.82268873
2685.89264055
2685.95947653
2686.01473874
2686.170807
2686.52787376
2687.09263498
2687.83048031
2688.5407849
2688.80481479
2688.93144313
2688.86296986
2688.92261663
2688.98559271
2688.5926952
2687.72959504
2686.96711359
2686.28382261
2685.89560336
2685.80564621
2685.85194542
2685.90226085
2685.96520276
2686.03731323
2686.22035154
2686.60376425
2687.19337355
2687.94554741
2688.64110858
2688.88391817
2689.01971375
2688.95655705
2689.0523357
2689.10757398
2688.79779962
2687.98616845
2687.26689886
2686.59687742
2686.18515722
2686.04494756
2686.05742241
2686.08667798
2686.14105793
2686.22004008
2686.42205466
2686.84269183
2687.4422984
2688.17718257
2688.7874834
2688.97591449
2689.14116691
2689.08539036
2689.19952732
2689.24360615
2689.03691241
2688.40467004
2687.72899655
2687.1592261
2686.72837786
2686.55733529
2686.52935895
2686.53066131
2686.56942084
2686.64613145
2686.85854032
2687.28058536
2687.88201419
2688.50662398
2688.92013477
2689.10184122
2689.27799646
2689.23347879
2689.34734443
2689.37782795
2689.23854247
2688.86980499
2688.30488209
2687.82568543
2687.48706468
2687.31436197
2687.25346353
2687.2277976
2687.24906225
2687.31711371
2687.52230588
2687.9096259
2688.39001859
2688.80829215
2689.04326359
2689.26946262
2689.41449678
2689.38363983
2689.48065228
2689.4966699
2689.398674
2689.2038998
2688.87386434
2688.51079949
2688.23373889
2688.08941339
2688.0206905
2687.97959028
2687.98803062
2688.0461388
2688.21372323
2688.49417325
2688.79457593
2689.03730774
2689.23185509
2689.43311725
2689.53645161
2689.52019641
2689.5885616
2689.59201345
2689.52486034
2689.40042279
2689.2419648
2689.04217652
2688.83796899
2688.70425714
2688.62296208
2688.57729326
2688.57971349
2688.63034512
2688.75025558
2688.92563307
2689.09328885
2689.26484653
2689.43104996
2689.56302427
2689.63488806
2689.63173292
2689.66287763
2689.65113795
2689.59326917
2689.49959555
2689.38256256
2689.25010245
2689.11595293
2688.99588839
2688.90795248
2688.86314011
2688.86488049
2688.91303337
2689.00441594
2689.12958409
2689.26968466
2689.40909869
2689.53350176
2689.63382472
2689.6962095
2689.70906748
2689.69844732
2689.66321418
2689.58987516
2689.48337803
2689.35169077
2689.20557577
2689.0602845
2688.93290085
2688.83958883
2688.79149857
2688.79328583
2688.84491494
2688.94191101
2689.0744708
2689.22601199
2689.37912914
2689.51797169
2689.63111746
2689.70923047
2689.74657306
2200.4432002
2200.41096571
2200.35447131
2200.27163784
2200.16268329
2200.03230424
2199.89315587
2199.76460648
2199.66756817
2199.61774599
2199.62114461
2199.67755567
2199.78038317
2199.91656444
2200.06484048
2200.20503934
2200.32358595
2200.41406624
2200.47558714
2200.50985423
2200.41104981
2200.37846997
2200.32372619
2200.24389497
2200.13973142
2200.01161369
2199.86069364
2199.72968141
2199.63996466
2199.59115577
2199.59435947
2199.64928489
2199.76026445
2199.90275353
2200.04163029
2200.17919325
2200.29296626
2200.38156161
2200.44192573
2200.47594097
2200.35362239
2200.32248829
2200.2525215
2200.13963266
2199.9441449
2199.69993523
2199.50664114
2199.37182833
2199.29408972
2199.24884609
2199.25475114
2199.3120076
2199.45507402
2199.67142377
2199.89834849
2200.05791524
2200.18245384
2200.30651873
2200.38346455
2200.41565514
2200.26895851
2200.24054161
2200.13744553
2199.87114428
2199.48345939
2199.10096176
2198.82338748
2198.67267767
2198.61442562
2198.59038796
2198.61081339
2198.67579758
2198.85389819
2199.17495146
2199.5584063
2199.86722648
2200.05126389
2200.18533363
2200.29790677
2200.32685536
2200.15750144
2200.13366474
2199.93946311
2199.4120726
2198.87495785
2198.38060744
2198.00781856
2197.84332916
2197.81842896
2197.83315929
2197.87786507
2197.95282646
2198.14880998
2198.52940086
2199.03072251
2199.55486447
2199.93159043
2200.06269022
2200.18665455