/*--------------------------------*- C++ -*----------------------------------*\
| =========                 |                                                 |
| \\      /  F ield         | OpenFOAM: The Open Source CFD Toolbox           |
|  \\    /   O peration     | Version:  3.0.1                                 |
|   \\  /    A nd           | Web:      www.OpenFOAM.org                      |
|    \\/     M anipulation  |                                                 |
\*---------------------------------------------------------------------------*/
FoamFile
{
    version     2.0;
    format      ascii;
    class       surfaceScalarField;
    location    "1.9";
    object      phi;
}
// * * * * * * * * * * * * * * * * * * * * * * * * * * * * * * * * * * * * * //

dimensions      [0 3 -1 0 0 0 0];

internalField   nonuniform List<scalar> 
22672
(
1.99695130786e-06
2.02166461345e-06
-4.01863880127e-06
4.63380179957e-06
1.64139244942e-06
-4.27826663576e-06
7.2119374248e-06
1.74897424576e-06
-4.32712700693e-06
9.13969356459e-06
2.32813234965e-06
-4.25589527236e-06
1.00336744961e-05
3.28619057715e-06
-4.18016622713e-06
9.7305232519e-06
4.43326507924e-06
-4.13009597438e-06
8.30094300752e-06
5.53718959317e-06
-4.10757937287e-06
5.96290967846e-06
6.45712424144e-06
-4.11905024802e-06
3.03235971821e-06
7.08602720215e-06
-4.15542828896e-06
-1.79183542377e-07
7.39909692904e-06
-4.18749971751e-06
-3.38870140839e-06
7.40051345511e-06
-4.19094068094e-06
-6.31235872946e-06
7.08962117811e-06
-4.16591256158e-06
-8.63635754565e-06
6.46112975477e-06
-4.13708801969e-06
-1.00418834057e-05
5.53946741173e-06
-4.13391147144e-06
-1.03096384183e-05
4.43311731116e-06
-4.16534860356e-06
-9.36703951713e-06
3.28302423488e-06
-4.22562791322e-06
-7.38060753229e-06
2.32484169378e-06
-4.31129718184e-06
-4.739703231e-06
1.74730119748e-06
-4.38824708019e-06
-2.04164499365e-06
1.64477993867e-06
-4.34289748446e-06
2.03670507989e-06
-4.07839728811e-06
1.61099105669e-06
4.69392953808e-06
-4.28327994959e-06
4.60630938485e-06
4.67763407143e-06
-6.03158156765e-06
7.67864467548e-06
5.44359815185e-06
-6.76697169912e-06
9.96927127198e-06
7.05911666454e-06
-7.02161033581e-06
1.1042737957e-05
9.32389052962e-06
-7.11115094732e-06
1.07302567957e-05
1.18635573218e-05
-7.11777961269e-06
9.12448941229e-06
1.42650858327e-05
-7.1220822189e-06
6.52620545205e-06
1.62203618394e-05
-7.16489370392e-06
3.309010126e-06
1.75496852145e-05
-7.24639251246e-06
-1.87712326362e-07
1.82103838793e-05
-7.31448814494e-06
-3.68274145766e-06
1.82139275683e-05
-7.31830728676e-06
-6.89414606087e-06
1.75594095992e-05
-7.25831015655e-06
-9.47973839859e-06
1.6232474895e-05
-7.18568879627e-06
-1.10622495751e-05
1.42752777744e-05
-7.15325024716e-06
-1.13376302687e-05
1.18693249276e-05
-7.16079760366e-06
-1.02122142196e-05
9.32559256878e-06
-7.16797764761e-06
-7.85811058421e-06
7.05896299723e-06
-7.08824153181e-06
-4.71460804466e-06
5.445432351e-06
-6.84167257637e-06
-1.65195721118e-06
4.68728684682e-06
-6.10521595631e-06
4.71900763817e-06
-4.33430503345e-06
1.71936431197e-06
7.31990159335e-06
-4.34535449989e-06
5.36919610261e-06
7.79667904421e-06
-6.76889006386e-06
9.17072834947e-06
9.29473640275e-06
-7.652672119e-06
1.19879665196e-05
1.19380809688e-05
-7.69618773284e-06
1.32717474343e-05
1.54098457355e-05
-7.36970230428e-06
1.28388056151e-05
1.91925838334e-05
-6.89603084733e-06
1.08429189378e-05
2.27159286786e-05
-6.45488309638e-06
7.69962648513e-06
2.55475475379e-05
-6.1838034124e-06
3.89430937932e-06
2.74556763627e-05
-6.10057128474e-06
-1.85930716574e-07
2.83987271382e-05
-6.10799227286e-06
-4.26555161732e-06
2.84035105451e-05
-6.10984845935e-06
-8.06882206585e-06
2.74693620141e-05
-6.10657151413e-06
-1.12038769376e-05
2.556462598e-05
-6.19699528185e-06
-1.3179455861e-05
2.27297523273e-05
-6.47881083045e-06
-1.35753687297e-05
1.92004590277e-05
-6.93515878487e-06
-1.2239710989e-05
1.5412289392e-05
-7.42231923765e-06
-9.35680859514e-06
1.19385232016e-05
-7.76245650551e-06
-5.48014465055e-06
9.29773662569e-06
-7.72899054785e-06
-1.75964267251e-06
7.8081621234e-06
-6.84142317583e-06
7.34767715381e-06
-4.38834928261e-06
2.29795974681e-06
9.28867538599e-06
-4.26674220765e-06
6.98433770905e-06
1.01334322317e-05
-7.02313231067e-06
1.18116678195e-05
1.21576623926e-05
-7.69024230305e-06
1.53333139081e-05
1.55085757997e-05
-7.09210640779e-06
1.6854423586e-05
1.97788547984e-05
-5.89006007197e-06
1.61659263247e-05
2.43462643621e-05
-4.46509948002e-06
1.35239046329e-05
2.85495468371e-05
-3.19148910999e-06
9.51853812259e-06
3.18911695458e-05
-2.33812826135e-06
4.79928633719e-06
3.4122764414e-05
-1.94769420593e-06
-1.80236925635e-07
3.5217771288e-05
-1.83936954622e-06
-5.16101737545e-06
3.52223807014e-05
-1.83793461386e-06
-9.88372783656e-06
3.41356786206e-05
-1.94345298532e-06
-1.3887703784e-05
3.19062441872e-05
-2.33749747831e-06
-1.65131442196e-05
2.85588287722e-05
-3.20350717803e-06
-1.71658231122e-05
2.4346736163e-05
-4.49349354708e-06
-1.55917092522e-05
1.97732891709e-05
-5.93504033703e-06
-1.20017236235e-05
1.55026386568e-05
-7.15406338511e-06
-7.09558369975e-06
1.21560036843e-05
-7.76440468087e-06
-2.33595000259e-06
1.01407985471e-05
-7.09229635388e-06
9.31241893213e-06
-4.30071612516e-06
3.25896188867e-06
1.02183125826e-05
-4.18859643401e-06
9.25014738593e-06
1.1241020999e-05
-7.09876104594e-06
1.52850256147e-05
1.34794768117e-05
-7.35666051191e-06
1.9602194181e-05
1.70694819739e-05
-5.87801682472e-06
2.13407455942e-05
2.15609397249e-05
-3.5205488319e-06
2.02875970334e-05
2.63045402942e-05
-9.05010081535e-07
1.68178482763e-05
3.06045558968e-05
1.41488344859e-06
1.17433068226e-05
3.3996093439e-05
2.96978193705e-06
5.90320166148e-06
3.62362167691e-05
3.72683110395e-06
-1.74161986744e-07
3.73255446785e-05
3.96977652988e-06
-6.25456170682e-06
3.73292937421e-05
3.97367638973e-06
-1.21045597377e-05
3.62451947533e-05
3.74067111621e-06
-1.71858268959e-05
3.40042566274e-05
2.98343835606e-06
-2.06429433833e-05
3.06042094537e-05
1.41190619821e-06
-2.16592586761e-05
2.6293031508e-05
-9.29832957403e-07
-1.98643402123e-05
2.15434839087e-05
-3.56499967616e-06
-1.54760092785e-05
1.70530651511e-05
-5.93868455681e-06
-9.35997287358e-06
1.34690609281e-05
-7.42906240713e-06
-3.29425845006e-06
1.1239544193e-05
-7.16446174995e-06
1.02335892322e-05
-4.21543720316e-06
4.40860016718e-06
9.94151254634e-06
-4.13178527145e-06
1.17953110803e-05
1.09569141148e-05
-7.10257534446e-06
1.90729092278e-05
1.30750115918e-05
-6.87308109965e-06
2.41734231088e-05
1.64104930093e-05
-4.44144229781e-06
2.60849181714e-05
2.05391506802e-05
-8.89589223397e-07
2.45812947638e-05
2.48342947034e-05
2.9740181887e-06
2.02158567853e-05
2.8686882261e-05
6.28328684105e-06
1.40106810505e-05
3.17090095935e-05
8.49245193246e-06
7.01585801313e-06
3.3688313704e-05
9.54292708608e-06
-1.69611550194e-07
3.46435671042e-05
9.86765129988e-06
-7.35997722777e-06
3.46473805432e-05
9.87248447309e-06
-1.43704660022e-05
3.36928272743e-05
9.56306331528e-06
-2.05902234886e-05
3.17095170084e-05
8.51470387277e-06
-2.49463373923e-05
2.86780459241e-05
6.28247738843e-06
-2.64090911379e-05
2.48142637432e-05
2.94170309155e-06
-2.44372393402e-05
2.05114186741e-05
-9.39637025158e-07
-1.92624035083e-05
1.63858290662e-05
-4.50749300351e-06
-1.19028696187e-05
1.30575896641e-05
-6.94800160597e-06
-4.44031326914e-06
1.09502197946e-05
-7.17320684642e-06
9.94963800719e-06
-4.1563532223e-06
5.51573585761e-06
8.52941795391e-06
-4.10361418064e-06
1.420284105e-05
9.36816980721e-06
-7.09831685024e-06
2.26032616442e-05
1.10946991323e-05
-6.42003699147e-06
2.83830783144e-05
1.37826638188e-05
-3.15188140103e-06
3.03872972963e-05
1.70820078713e-05
1.45306674631e-06
2.84340991274e-05
2.0482229654e-05
6.30543794501e-06
2.3219640126e-05
2.34875756063e-05
1.04139616221e-05
1.59865450782e-05
2.58466985862e-05
1.30956106723e-05
7.97572778014e-06
2.73763343228e-05
1.43230000296e-05
-1.65210975756e-07
2.81061650337e-05
1.46785392917e-05
-8.31607159885e-06
2.8110822083e-05
1.46876157797e-05
-1.63493300493e-05
2.73751229998e-05
1.43511638596e-05
-2.36025537343e-05
2.58422791977e-05
1.31206704201e-05
-2.88094730971e-05
2.34775345538e-05
1.04076431655e-05
-3.07186386913e-05
2.04629291215e-05
6.26070341309e-06
-2.86462832009e-05
1.70554332739e-05
1.38380659775e-06
-2.27891848596e-05
1.3758040788e-05
-3.2291748338e-06
-1.43062218538e-05
1.10763104406e-05
-6.50159560077e-06
-5.54493859522e-06
9.35935358237e-06
-7.17036602593e-06
8.53446978048e-06
-4.12974498216e-06
6.43878693137e-06
6.19932264447e-06
-4.10865328499e-06
1.61631577313e-05
6.77622284765e-06
-7.132365906e-06
2.5440798219e-05
7.95507619278e-06
-6.13792924152e-06
3.17304780708e-05
9.77733547425e-06
-2.28422550303e-06
3.37836808171e-05
1.20050948739e-05
3.02387342091e-06
3.14585742297e-05
1.42725187763e-05
8.53500855925e-06
2.55778989069e-05
1.62523112335e-05
1.31161433215e-05
1.75367427871e-05
1.78095800619e-05
1.60784746275e-05
8.73657553885e-06
1.8823683896e-05
1.73530034949e-05
-1.63533777756e-07
1.93064793368e-05
1.76999662982e-05
-9.07619267651e-06
1.93111784176e-05
1.77124689047e-05
-1.79004565024e-05
1.88212639802e-05
1.73782979341e-05
-2.5966677729e-05
1.78052113361e-05
1.61034821823e-05
-3.18418599124e-05
1.62499434926e-05
1.31029826226e-05
-3.41197994636e-05
1.42634887365e-05
8.47759178884e-06
-3.19938270571e-05
1.19883937708e-05
2.94126059577e-06
-2.5624252973e-05
9.76168870255e-06
-2.37306601553e-06
-1.62633224863e-05
7.94312690172e-06
-6.22763697427e-06
-6.4659559985e-06
6.77168209834e-06
-7.20962193256e-06
6.20632284433e-06
-4.13776982264e-06
7.06964090119e-06
3.268272282e-06
-4.13854302646e-06
1.74954171808e-05
3.556354459e-06
-7.2058388528e-06
2.73521743189e-05
4.14469766422e-06
-6.04627683615e-06
3.39653889866e-05
5.05077775169e-06
-1.88651608918e-06
3.60262686311e-05
6.15619188602e-06
3.78819985042e-06
3.34427780204e-05
7.27061737729e-06
9.58559054672e-06
2.71135705047e-05
8.23685379683e-06
1.43448656369e-05
1.85498034353e-05
9.01084090841e-06
1.73626900928e-05
9.2301851331e-06
9.5138730662e-06
1.86295860332e-05
-1.60171423522e-07
9.75057747772e-06
1.89463922265e-05
-9.57285139947e-06
9.7466406033e-06
1.89773449213e-05
-1.89145471973e-05
9.51706256343e-06
1.86460384957e-05
-2.75010756706e-05
9.01269747661e-06
1.73792121379e-05
-3.38306623321e-05
8.24330264791e-06
1.43364258849e-05
-3.63677861084e-05
7.27423656814e-06
9.52658792968e-06
-3.42294507981e-05
6.15476207464e-06
3.69549806075e-06
-2.75344934145e-05
5.04902902848e-06
-1.98212898193e-06
-1.75937597038e-05
4.14477169778e-06
-6.14225363996e-06
-7.09566784138e-06
3.56134825967e-06
-7.28766901773e-06
3.28158281979e-06
-4.17087893529e-06
7.38354872438e-06
4.91445893562e-08
-4.1643674721e-06
1.8157141295e-05
5.01003204808e-08
-7.26726224623e-06
2.82959886926e-05
5.41418488769e-08
-6.04818112079e-06
3.50624017502e-05
6.13833591726e-08
-1.77686859899e-06
3.71205343027e-05
7.06834755673e-08
4.02755952136e-06
3.44091505008e-05
8.0581340944e-08
9.90161996043e-06
2.78613414629e-05
8.99978913606e-08
1.46948584406e-05
1.90491315817e-05
9.94134593912e-08
1.77238038165e-05
9.4683722892e-06
1.06941656394e-07
1.89878213651e-05
-1.61247872869e-07
1.11529799005e-07
1.92687705731e-05
-9.80468380591e-06
1.13076123109e-07
1.92770969315e-05
-1.94089003862e-05
1.10527600548e-07
1.90108674167e-05
-2.82458480005e-05
1.04711650045e-07
1.77450857918e-05
-3.47977782217e-05
9.68206650669e-08
1.46986014635e-05
-3.74656304317e-05
8.81302255913e-08
9.85416841741e-06
-3.5329398568e-05
7.97100175186e-08
3.93902467454e-06
-2.84800450223e-05
7.22511451961e-08
-1.87240114189e-06
-1.82556365945e-05
6.73118177053e-08
-6.14681608847e-06
-7.40939590356e-06
6.67717441561e-08
-7.35156656488e-06
7.10512385615e-08
-4.19881079264e-06
7.38597983548e-06
-3.17279745104e-06
-4.16398216284e-06
1.81624930187e-05
-3.45912799226e-06
-7.26720632382e-06
2.83039313601e-05
-4.03980546528e-06
-6.04737726004e-06
3.50720209423e-05
-4.93199251562e-06
-1.77455996131e-06
3.71307152042e-05
-6.01956879851e-06
4.03174425656e-06
3.44192002782e-05
-7.11546529524e-06
9.90776140404e-06
2.78712290989e-05
-8.0634990694e-06
1.47016573e-05
1.90577314279e-05
-8.82075694553e-06
1.77338262902e-05
9.47376085347e-06
-9.31111458287e-06
1.90021469043e-05
-1.605436874e-07
-9.54051763269e-06
1.92864443063e-05
-9.80824856016e-06
-9.53296981617e-06
1.92938392724e-05
-1.94153091113e-05
-9.30668272108e-06
1.90243819636e-05
-2.8254073352e-05
-8.81237339111e-06
1.77559996666e-05
-3.48070161404e-05
-8.05714953484e-06
1.47071018667e-05
-3.74747403441e-05
-7.10396083863e-06
9.86002517166e-06
-3.53378302111e-05
-6.00041161187e-06
3.94341589711e-06
-2.84871079354e-05
-4.90905272746e-06
-1.86924394585e-06
-1.82606434157e-05
-4.0144576848e-06
-6.14456210647e-06
-7.41180940976e-06
-3.43176573954e-06
-7.35019797403e-06
-3.14303219386e-06
-4.19767295042e-06
7.07658241189e-06
-6.11217573518e-06
-4.13715090234e-06
1.75109796261e-05
-6.68798589726e-06
-7.20546363736e-06
2.73752418291e-05
-7.86024318657e-06
-6.04371309757e-06
3.39931666326e-05
-9.67012753897e-06
-1.8796377514e-06
3.60556201198e-05
-1.18821160885e-05
3.80027906953e-06
3.34719491347e-05
-1.41335534951e-05
9.60195919784e-06
2.71401820055e-05
-1.60977339254e-05
1.43661934216e-05
1.8570789074e-05
-1.76419885355e-05
1.73907884804e-05
9.24315464286e-06
-1.8646586491e-05
1.86632368615e-05
-1.55572951984e-07
-1.91244146852e-05
1.89827321163e-05
-9.57885814337e-06
-1.91274142241e-05
1.90178362187e-05
-1.89311667131e-05
-1.8639777366e-05
1.86855323718e-05
-2.75242362939e-05
-1.76308327534e-05
1.74116938661e-05
-3.38569368592e-05
-1.60852072085e-05
1.43609557942e-05
-3.63942364256e-05
-1.41110393964e-05
9.54459029223e-06
-3.42544160907e-05
-1.18494016683e-05
3.70937123569e-06
-2.75556655961e-05
-9.63553396747e-06
-1.97210056391e-06
-1.76086219164e-05
-7.8254976677e-06
-6.1358772971e-06
-7.10283956459e-06
-6.65378004617e-06
-7.28367600919e-06
-6.07838044314e-06
-4.16744367271e-06
6.44966916757e-06
-8.45548319884e-06
-4.10631542735e-06
1.6187866769e-05
-9.29424678212e-06
-7.13186920587e-06
2.54774981093e-05
-1.1016042614e-05
-6.13372878458e-06
3.17744609054e-05
-1.36941984854e-05
-2.27274730519e-06
3.38295675405e-05
-1.69812394454e-05
3.04419682098e-06
3.15034819565e-05
-2.03688995868e-05
8.56163120607e-06
2.56184816427e-05
-2.33613434369e-05
1.31488081661e-05
1.75674156915e-05
-2.5711390615e-05
1.61206483778e-05
8.75462099419e-06
-2.72337464357e-05
1.74001113788e-05
-1.57926593748e-07
-2.79598965081e-05
1.77481704625e-05
-9.08504951587e-06
-2.79639584748e-05
1.77638097471e-05
-1.7924083506e-05
-2.72296813034e-05
1.74290992513e-05
-2.60004270895e-05
-2.57013593417e-05
1.61470582442e-05
-3.18808840086e-05
-2.33423504488e-05
1.31378092469e-05
-3.41604796058e-05
-2.03367591543e-05
8.50552785566e-06
-3.20334175167e-05
-1.69405408381e-05
2.96427065416e-06
-2.56583019309e-05
-1.36537002393e-05
-2.35679290488e-06
-1.62872077121e-05
-1.09786543343e-05
-6.21782454742e-06
-6.47746265941e-06
-9.25986115335e-06
-7.20358530173e-06
-8.42321179394e-06
-4.13259337854e-06
5.52975331005e-06
-9.88350120818e-06
-4.10170006297e-06
1.42349220618e-05
-1.09005998873e-05
-7.09876119278e-06
2.26510029321e-05
-1.30162476324e-05
-6.41578686862e-06
2.84398043047e-05
-1.6345659753e-05
-3.13720961714e-06
3.0446018792e-05
-2.04656071601e-05
1.47832182441e-06
2.84913514063e-05
-2.47509698456e-05
6.33693186139e-06
2.32692624081e-05
-2.85951936746e-05
1.04561422258e-05
1.60232089193e-05
-3.16111570449e-05
1.31460172411e-05
7.99687137605e-06
-3.35856277358e-05
1.43784043297e-05
-1.58820892127e-07
-3.45371098638e-05
1.47330831903e-05
-8.32612629319e-06
-3.4540349144e-05
1.47438761548e-05
-1.63761796596e-05
-3.35869633672e-05
1.44075278797e-05
-2.3641748525e-05
-3.16055415838e-05
1.31699583713e-05
-2.88571254833e-05
-2.85779704453e-05
1.04512111393e-05
-3.07711706375e-05
-2.47213331817e-05
6.29882422567e-06
-2.86985122123e-05
-2.04271363339e-05
1.41411469233e-06
-2.28345584328e-05
-1.63092289696e-05
-3.20828833674e-06
-1.43379225086e-05
-1.29846772662e-05
-6.49051993906e-06
-5.56005933735e-06
-1.08731859823e-05
-7.16447900716e-06
-9.85874989583e-06
-4.1244965152e-06
4.42431392321e-06
-1.01764428975e-05
-4.13135115419e-06
1.18326894126e-05
-1.12011877343e-05
-7.10775024425e-06
1.91284695562e-05
-1.34409069201e-05
-6.87105147082e-06
2.42401461698e-05
-1.70288140491e-05
-4.4284130054e-06
2.61540617123e-05
-2.15164737279e-05
-8.62900492147e-07
2.46467834283e-05
-2.62553551297e-05
3.0118427762e-06
2.02718130107e-05
-3.0549939168e-05
6.32991310167e-06
1.40521238873e-05
-3.39374490555e-05
8.54618427814e-06
7.04047665978e-06
-3.61743767796e-05
9.60059842827e-06
-1.62253235311e-07
-3.72608908838e-05
9.92671165544e-06
-7.37099908194e-06
-3.7263843274e-05
9.9324429834e-06
-1.43991426629e-05
-3.6179803995e-05
9.6211924419e-06
-2.06336247832e-05
-3.39393092185e-05
8.56846100398e-06
-2.50013115025e-05
-3.0541961732e-05
6.33188329815e-06
-2.64711405711e-05
-2.62357417443e-05
2.98442326228e-06
-2.44995445044e-05
-2.14915903773e-05
-9.0698989336e-07
-1.93164914697e-05
-1.70054089635e-05
-4.48676325115e-06
-1.19406287811e-05
-1.34220523375e-05
-6.93841995997e-06
-4.45788629868e-06
-1.11863585804e-05
-7.1695342341e-06
-1.0163654736e-05
-4.15297229436e-06
3.27624733333e-06
-9.26142815307e-06
-4.19125692841e-06
9.28935069966e-06
-1.01089103725e-05
-7.10536296115e-06
1.53442058551e-05
-1.21358696482e-05
-7.35984684885e-06
1.96735685563e-05
-1.54882062059e-05
-5.86988885422e-06
2.1415183023e-05
-1.97583772599e-05
-3.4995917021e-06
2.03592561332e-05
-2.43245209722e-05
-8.74755222755e-07
1.68790100339e-05
-2.85268061981e-05
1.45728915618e-06
1.17892347965e-05
-3.18670421034e-05
3.0195586781e-06
5.93127685867e-06
-3.40970838566e-05
3.78086242557e-06
-1.65332876127e-07
-3.51906153963e-05
4.02653479834e-06
-6.26563602918e-06
-3.51943183605e-05
4.03098028029e-06
-1.21344705926e-05
-3.41068883655e-05
3.79612024484e-06
-1.72324510276e-05
-3.18773004015e-05
3.0361669095e-06
-2.0703136158e-05
-2.85310587773e-05
1.45996245802e-06
-2.17274522781e-05
-2.43210750447e-05
-8.90196312513e-07
-1.99330107189e-05
-1.9749734773e-05
-3.53617865996e-06
-1.55356776828e-05
-1.54799220669e-05
-5.92274222348e-06
-9.40172223129e-06
-1.21310716719e-05
-7.42489707307e-06
-3.31356037103e-06
-1.01078960059e-05
-7.16661465635e-06
-9.26193977292e-06
-4.21528259875e-06
2.31581125408e-06
-7.3028787813e-06
-4.27437159434e-06
7.02397589703e-06
-7.78194632661e-06
-7.0351312226e-06
1.18714053402e-05
-9.28339156654e-06
-7.69988769017e-06
1.54060698784e-05
-1.19300212074e-05
-7.09279934582e-06
1.6930746832e-05
-1.5404600271e-05
-5.87837050784e-06
1.62387040423e-05
-1.91888923807e-05
-4.44347088996e-06
1.35867585742e-05
-2.27130457375e-05
-3.16167403292e-06
9.56632789828e-06
-2.55451155653e-05
-2.30133608125e-06
4.82914155415e-06
-2.74528717818e-05
-1.90685418299e-06
-1.69757017164e-07
-2.83952216306e-05
-1.79631771978e-06
-5.17035839848e-06
-2.83993048864e-05
-1.79423364939e-06
-9.91262024908e-06
-2.74647247232e-05
-1.89972770147e-06
-1.39344183173e-05
-2.55595828988e-05
-2.29575648049e-06
-1.65742729493e-05
-2.27246659292e-05
-3.16639467349e-06
-1.72356312345e-05
-1.9195389038e-05
-4.46421207388e-06
-1.56622482139e-05
-1.54067765907e-05
-5.91625998761e-06
-1.20632165895e-05
-1.19317674594e-05
-7.1471418794e-06
-7.13890978539e-06
-9.28782508779e-06
-7.76754296106e-06
-2.35629886087e-06
-7.79089773872e-06
-7.09962471592e-06
-7.3138290493e-06
-4.30443238935e-06
1.73695262883e-06
-4.68582386607e-06
-4.35403390437e-06
5.40852691105e-06
-4.66743799081e-06
-6.78610443924e-06
9.22977483726e-06
-5.43625877965e-06
-7.66838581644e-06
1.20600107286e-05
-7.05492221173e-06
-7.70531595057e-06
1.33481206303e-05
-9.32284418766e-06
-7.36981923289e-06
1.2912132151e-05
-1.18647924736e-05
-6.88803642325e-06
1.09065997588e-05
-1.42681111597e-05
-6.43930164533e-06
7.74902209798e-06
-1.62246653351e-05
-6.16275155297e-06
3.92617163295e-06
-1.7554513265e-05
-6.07537280778e-06
-1.73325139798e-07
-1.82151620052e-05
-6.08041992407e-06
-4.27307896128e-06
-1.82185233846e-05
-6.0808836324e-06
-8.09573122989e-06
-1.7563660524e-05
-6.07827356659e-06
-1.12485565185e-05
-1.62361194969e-05
-6.1705126756e-06
-1.32383779481e-05
-1.42780589105e-05
-6.45668046469e-06
-1.36430408777e-05
-1.18712815397e-05
-6.91936634698e-06
-1.23085246243e-05
-9.32609276372e-06
-7.4151531982e-06
-9.41750576575e-06
-7.05813303528e-06
-7.76463872184e-06
-5.52350854726e-06
-5.44192303495e-06
-7.73991409158e-06
-1.78037927114e-06
-4.67871567905e-06
-6.85534914048e-06
-4.70024002105e-06
-4.39400531344e-06
1.62912797247e-06
-2.01621737605e-06
-4.29877530047e-06
4.64641542706e-06
-1.63349698281e-06
-6.05126650649e-06
7.73832061158e-06
-1.74282146679e-06
-6.78536772398e-06
1.00418759316e-05
-2.32383154453e-06
-7.03465157287e-06
1.11199876779e-05
-3.28369523457e-06
-7.11724221681e-06
1.08045214413e-05
-4.4321633662e-06
-7.1171184486e-06
9.1896865056e-06
-5.53721480551e-06
-7.11599206301e-06
6.57765949336e-06
-6.45830125607e-06
-7.15424646312e-06
3.34349588875e-06
-7.08769069717e-06
-7.23255279448e-06
-1.72142122694e-07
-7.40090274173e-06
-7.29850635167e-06
-3.68674950297e-06
-7.40230264353e-06
-7.30149707411e-06
-6.91699327928e-06
-7.09127333374e-06
-7.24203323359e-06
-9.51962888717e-06
-6.462276194e-06
-7.17111098483e-06
-1.1115755791e-05
-5.53987870106e-06
-7.1419768608e-06
-1.13993962781e-05
-4.43299814714e-06
-7.15459222262e-06
-1.02762455514e-05
-3.28224248032e-06
-7.16697941712e-06
-7.91492856897e-06
-2.32280765121e-06
-7.09665014935e-06
-4.75611897841e-06
-1.7441099534e-06
-6.85665704822e-06
-1.67311287253e-06
-1.6398776399e-06
-6.12190100907e-06
-2.02693962556e-06
-4.34645911038e-06
2.01684873274e-06
-4.03309924522e-06
4.67797079041e-06
-4.29464934145e-06
7.27563460398e-06
-4.34050700496e-06
9.21573305565e-06
-4.26393886768e-06
1.01137595941e-05
-4.18171492085e-06
9.80768036353e-06
-4.12606038938e-06
8.36943005005e-06
-4.09892462291e-06
6.01787698904e-06
-4.10669479633e-06
3.070919066e-06
-4.14066982514e-06
-1.58762410281e-07
-4.17115353421e-06
-3.38682896133e-06
-4.17416865116e-06
-6.32818918128e-06
-4.1498510092e-06
-8.66790860643e-06
-4.12250476456e-06
-1.00856891628e-05
-4.12206039165e-06
-1.03605524867e-05
-4.15811442587e-06
-9.41901614883e-06
-4.22377736161e-06
-7.42615430862e-06
-4.31568653753e-06
-4.77200866871e-06
-4.39828976046e-06
-2.05666849944e-06
-4.35526289993e-06
-4.08363392799e-06
2.68675824987e-06
2.71223644622e-06
-9.41766357211e-06
5.58928380986e-06
3.11315306484e-06
-1.0293976342e-05
8.26184808227e-06
3.80898427758e-06
-1.0808699276e-05
1.01999335682e-05
4.94707561994e-06
-1.11410688979e-05
1.10399761512e-05
6.37698793852e-06
-1.13971965138e-05
1.0617457878e-05
7.90182364731e-06
-1.16093880015e-05
9.00327732762e-06
9.30864162804e-06
-1.18020146328e-05
6.44007308872e-06
1.04494836549e-05
-1.20052930356e-05
3.26688309143e-06
1.12258997085e-05
-1.22080932403e-05
-1.89797730076e-07
1.1613765756e-05
-1.23445353517e-05
-3.64457631039e-06
1.16169970078e-05
-1.23531095809e-05
-6.81122456224e-06
1.12347443524e-05
-1.22339636847e-05
-9.36098309297e-06
1.04614674287e-05
-1.20487613763e-05
-1.09520554772e-05
9.32072452344e-06
-1.18635420028e-05
-1.13387706865e-05
7.91240454339e-06
-1.1691033772e-05
-1.04492213348e-05
6.38439647688e-06
-1.14995889829e-05
-8.44952542333e-06
4.95212961763e-06
-1.12631573856e-05
-5.70623444965e-06
3.81406790128e-06
-1.09456588568e-05
-2.73577035048e-06
3.12300757227e-06
-1.04364383787e-05
2.73617804407e-06
-9.55039887595e-06
3.07144659846e-06
5.65658725789e-06
-1.02991088421e-05
6.15043079884e-06
6.2348159853e-06
-1.22322579968e-05
8.84680193044e-06
7.47342355676e-06
-1.31278015969e-05
1.07776692867e-05
9.47557712702e-06
-1.34809849761e-05
1.15850131066e-05
1.19796256482e-05
-1.35211227311e-05
1.11057789923e-05
1.46426928151e-05
-1.33793889485e-05
9.39298769119e-06
1.71038510651e-05
-1.32044595059e-05
6.70893682652e-06
1.90885560567e-05
-1.31198613924e-05
3.40290809066e-06
2.04399017477e-05
-1.31543022677e-05
-1.91464219774e-07
2.11161271809e-05
-1.32224082355e-05
-3.78432624641e-06
2.11220594224e-05
-1.32304380542e-05
-7.08562934719e-06
2.04562014389e-05
-1.31783992346e-05
-9.75902923342e-06
1.91106560336e-05
-1.31614228177e-05
-1.14513680269e-05
1.71259240623e-05
-1.32660717916e-05
-1.18972321253e-05
1.4661225917e-05
-1.34637356259e-05
-1.10440383326e-05
1.19930743706e-05
-1.36298529043e-05
-9.05396406619e-06
9.48585459599e-06
-1.36120678061e-05
-6.28944337995e-06
7.48347049911e-06
-1.32756449074e-05
-3.13908991007e-06
6.25076109385e-06
-1.23833902143e-05
5.68939790662e-06
-1.04266659836e-05
3.76105381829e-06
8.37270891085e-06
-1.08225549096e-05
7.38109360631e-06
8.97464691844e-06
-1.31287811411e-05
1.04483720879e-05
1.058385488e-05
-1.38303897511e-05
1.25774237276e-05
1.31927611282e-05
-1.35424141119e-05
1.3395167603e-05
1.64368006847e-05
-1.26445925633e-05
1.27332578262e-05
1.98602265058e-05
-1.14516062532e-05
1.06897567658e-05
2.30066132675e-05
-1.0314077221e-05
7.59062595682e-06
2.55279718602e-05
-9.524005872e-06
3.8461773509e-06
2.72371860343e-05
-9.15331310898e-06
-1.85023497567e-07
2.80902529681e-05
-9.05081688818e-06
-4.2164391572e-06
2.80973141529e-05
-9.05358588593e-06
-7.96063505858e-06
2.72568890136e-05
-9.16296562561e-06
-1.10552050837e-05
2.55541143525e-05
-9.54579590204e-06
-1.30832974773e-05
2.30312170226e-05
-1.03559397584e-05
-1.37161847066e-05
1.98785701926e-05
-1.151956614e-05
-1.28545083867e-05
1.64497129452e-05
-1.27406109805e-05
-1.06681968473e-05
1.320293823e-05
-1.36658570672e-05
-7.53281436316e-06
1.05943483974e-05
-1.39752837152e-05
-3.83761385373e-06
8.99084195198e-06
-1.32767594495e-05
8.40380645078e-06
-1.09404149451e-05
4.89900009011e-06
1.03562571145e-05
-1.1149305163e-05
9.38036618221e-06
1.0945979348e-05
-1.34758384294e-05
1.30533635141e-05
1.27547936486e-05
-1.35341700937e-05
1.5505690592e-05
1.56876794788e-05
-1.20393221175e-05
1.63231275118e-05
1.9305895698e-05
-9.57653822795e-06
1.53496696964e-05
2.30942515556e-05
-6.72558893352e-06
1.27608314151e-05
2.65390784314e-05
-4.13501684854e-06
8.99153349587e-06
2.92771032523e-05
-2.31784584055e-06
4.5472679413e-06
3.11173291079e-05
-1.3834445766e-06
-1.7540714308e-07
3.20312454921e-05
-1.05755389026e-06
-4.90046847798e-06
3.2037856882e-05
-1.05328162158e-06
-9.35083957465e-06
3.11361619576e-05
-1.37222358872e-06
-1.31238080178e-05
2.93007217153e-05
-2.31101346253e-06
-1.57040245964e-05
2.65578850729e-05
-4.14985057667e-06
-1.66513202489e-05
2.31039621244e-05
-6.77150415733e-06
-1.57913754407e-05
1.93096123529e-05
-9.65482821316e-06
-1.32825315146e-05
1.56898691904e-05
-1.21498153407e-05
-9.54027349245e-06
1.27586657344e-05
-1.36709900711e-05
-4.97994376494e-06
1.09555763561e-05
-1.36173966874e-05
1.03790533568e-05
-1.12559381469e-05
6.32880433276e-06
1.1235877506e-05
-1.13970237899e-05
1.18861921978e-05
1.17923994892e-05
-1.35025618451e-05
1.62968062145e-05
1.36092017862e-05
-1.26216556964e-05
1.91222563112e-05
1.65434649297e-05
-9.55919935713e-06
1.99114769361e-05
2.01355166959e-05
-5.1393090165e-06
1.85207696807e-05
2.38520916986e-05
-2.72034721983e-07
1.52509893794e-05
2.72224231985e-05
4.00144892458e-06
1.06640207863e-05
2.98811411966e-05
6.95285709179e-06
5.38115491328e-06
3.16574002872e-05
8.46977785687e-06
-1.65587148149e-07
3.25340521729e-05
9.01386647022e-06
-5.71678000424e-06
3.25393669384e-05
9.02351360704e-06
-1.10133014864e-05
3.16720459806e-05
8.50146128707e-06
-1.5613536035e-05
2.98983972484e-05
6.98614553563e-06
-1.88809327498e-05
2.72312311469e-05
4.00609449551e-06
-2.02462775414e-05
2.38488573731e-05
-3.0926527561e-07
-1.94138461265e-05
2.01243825271e-05
-5.21211240853e-06
-1.65316815805e-05
1.6532699544e-05
-9.66362682447e-06
-1.20508070823e-05
1.36021765289e-05
-1.27534322083e-05
-6.41196934806e-06
1.17922770265e-05
-1.36400139127e-05
1.12468439059e-05
-1.14952141535e-05
7.85748408666e-06
1.08433836519e-05
-1.15967653393e-05
1.45529050314e-05
1.13404151652e-05
-1.33459890844e-05
1.97244911764e-05
1.29738925293e-05
-1.14093115251e-05
2.29133226477e-05
1.55964391394e-05
-6.6831714394e-06
2.36285711216e-05
1.87718581887e-05
-2.41071524487e-07
2.18023125556e-05
2.20552390273e-05
6.59726368739e-06
1.78132456697e-05
2.50072067836e-05
1.2487722121e-05
1.23780514734e-05
2.73265649799e-05
1.64823816441e-05
6.23173835882e-06
2.88617050744e-05
1.84850937405e-05
-1.57453830279e-07
2.96161328108e-05
1.91749167506e-05
-6.5534036989e-06
2.96203295706e-05
1.9187622718e-05
-1.27201220068e-05
2.88698892726e-05
1.85320901519e-05
-1.81792221427e-05
2.73338578103e-05
1.65384975559e-05
-2.21709008135e-05
2.50055030638e-05
1.25000363406e-05
-2.39710356296e-05
2.20417246289e-05
6.54911073768e-06
-2.32076489858e-05
1.87516577593e-05
-3.30183923667e-07
-1.9961077517e-05
1.55754605819e-05
-6.79674620069e-06
-1.47185263112e-05
1.29570260187e-05
-1.15453617832e-05
-7.94162719628e-06
1.13294295867e-05
-1.34872487241e-05
1.08434516109e-05
-1.16945902596e-05
9.26702655053e-06
9.24681581426e-06
-1.17740500825e-05
1.70190910824e-05
9.64388509577e-06
-1.31538131294e-05
2.28776190727e-05
1.09445335148e-05
-1.02491409832e-05
2.63640591177e-05
1.30193810933e-05
-4.06116573908e-06
2.70033323138e-05
1.55128542553e-05
4.07292633131e-06
2.4756085903e-05
1.80772062967e-05
1.25308683634e-05
2.01054281661e-05
2.03695837378e-05
1.97024024625e-05
1.39039071443e-05
2.21670352146e-05
2.44568164057e-05
6.98788051412e-06
2.33513313009e-05
2.67495415289e-05
-1.50770002747e-07
2.39293728697e-05
2.75040768771e-05
-7.29998897277e-06
2.39323197854e-05
2.75249656312e-05
-1.42436819506e-05
2.3351192922e-05
2.68136793099e-05
-2.04768539369e-05
2.21646142479e-05
2.45232244086e-05
-2.51330583403e-05
2.03614778393e-05
1.97080219067e-05
-2.73517307799e-05
1.80595927219e-05
1.24616563098e-05
-2.66610187869e-05
1.54900580802e-05
3.95482580496e-06
-2.31137447353e-05
1.29963403393e-05
-4.19722880034e-06
-1.71844710469e-05
1.09248749663e-05
-1.03986560868e-05
-9.35038571235e-06
9.6296665051e-06
-1.33046566302e-05
9.24176742177e-06
-1.1878434984e-05
1.04100753793e-05
6.69123258764e-06
-1.19631111939e-05
1.90080304634e-05
6.96529413616e-06
-1.30516782826e-05
2.54047524876e-05
7.84804616032e-06