/*--------------------------------*- C++ -*----------------------------------*\
| =========                 |                                                 |
| \\      /  F ield         | OpenFOAM: The Open Source CFD Toolbox           |
|  \\    /   O peration     | Version:  3.0.1                                 |
|   \\  /    A nd           | Web:      www.OpenFOAM.org                      |
|    \\/     M anipulation  |                                                 |
\*---------------------------------------------------------------------------*/
FoamFile
{
    version     2.0;
    format      ascii;
    class       surfaceVectorField;
    location    "6.3";
    object      Uf;
}
// * * * * * * * * * * * * * * * * * * * * * * * * * * * * * * * * * * * * * //

dimensions      [0 1 -1 0 0 0 0];

internalField   nonuniform List<vector> 
22672
(
(0.000263275300465 -5.38991194915e-05 -0.000139766650955)
(-3.44975592904e-05 0.000218836062552 -0.000134529317315)
(0.000189812929449 0.000175776476011 -0.000482108876966)
(0.000867922285046 -0.000200021605637 -0.000169418071924)
(0.000418340265446 4.84478437529e-05 -0.000523087062828)
(0.000727457317183 0.000140503599091 -0.000653092034227)
(0.00154857854616 -0.000268311709272 -0.000117404900015)
(0.00127891863017 -1.48861170559e-05 -0.000632801528133)
(0.00147342556775 0.000145356475666 -0.000665767304628)
(0.00209928197057 -0.000271711698978 -2.17445455167e-05)
(0.0019842468284 -1.48519461791e-06 -0.000576604941677)
(0.0020718694475 0.000176240755713 -0.000549215457793)
(0.00240559434068 -0.000218329230957 7.98827117362e-05)
(0.00247100160655 8.03524305955e-05 -0.000466037541835)
(0.00246713048873 0.000234330284695 -0.000386662147346)
(0.00241619686406 -0.000141575001018 0.000166093404362)
(0.00263534153643 0.000207774797583 -0.000338817070953)
(0.00257526539547 0.000305186062536 -0.000218374803552)
(0.00216158503503 -6.3969615916e-05 0.000230819398401)
(0.00249237711512 0.000330541945714 -0.00022922250459)
(0.0024083831654 0.000365765717864 -7.59277247269e-05)
(0.00167929342563 3.22566503978e-06 0.000274343057267)
(0.00207717001116 0.000438718243121 -0.000135116836242)
(0.00199399038568 0.000416510655262 4.35756665443e-05)
(0.00104309600313 4.61446186285e-05 0.000294871979287)
(0.00145496359605 0.00051261993799 -7.33254109481e-05)
(0.00139439644076 0.000449777119596 0.000123579744932)
(0.000339002762255 5.94563574394e-05 0.000298254688357)
(0.00071720692836 0.000547233965909 -4.58820673158e-05)
(0.000691928380019 0.000464452446963 0.000156861559617)
(-0.000351590494398 4.32895311988e-05 0.000287513430432)
(-4.72155971165e-05 0.000542075112351 -5.09504052038e-05)
(-3.41193674562e-05 0.000461372625945 0.000148520517944)
(-0.000954002613094 1.05838014983e-06 0.000263002394998)
(-0.000753335362095 0.000499262556101 -8.48789255077e-05)
(-0.000707805509652 0.000441427639256 0.000103152074535)
(-0.00140019414883 -6.03391135811e-05 0.000221150296166)
(-0.00132496510596 0.000423479817593 -0.000144031991045)
(-0.00126127143688 0.000405358961398 2.2714385188e-05)
(-0.00164449609317 -0.00012785700012 0.000163747468964)
(-0.00169886589045 0.000322805986969 -0.000224862442607)
(-0.00163680316556 0.000355564232024 -7.85012469981e-05)
(-0.00166449994346 -0.000189702146099 9.04209719727e-05)
(-0.00184141366637 0.000215007956754 -0.000314393310846)
(-0.00180162040394 0.000299635300035 -0.00019500124953)
(-0.00144778212713 -0.000226499449959 4.9044576925e-06)
(-0.00172769175178 0.000111896234765 -0.000414206457655)
(-0.00173856270286 0.000239524519877 -0.000328611223014)
(-0.0010428740923 -0.000213264434644 -7.68295768699e-05)
(-0.0013660781983 5.08099488411e-05 -0.0004995760015)
(-0.00145650547916 0.000193734515834 -0.000455715266105)
(-0.000548357117132 -0.000147155613207 -0.00012271882617)
(-0.000843079054794 5.32796064761e-05 -0.000541151059423)
(-0.00102609697716 0.000170722067115 -0.00054779397262)
(-0.000127455763677 -1.87876204878e-05 -9.85412559173e-05)
(-0.000203867406651 0.000112745485589 -0.000443332769817)
(-0.000487213890614 0.000163395754175 -0.000533644192125)
(8.57668368095e-05 0.000257535128166 -0.000102908644775)
(-0.000118852676851 0.000181007683029 -0.000384989101988)
(0.000103297892845 0.000335055295199 -0.000517849729188)
(-0.000176317462234 0.000755152979208 -0.000158392551407)
(0.000171316091727 0.000651946736276 -0.000639611994245)
(0.000848508245371 0.000242690481435 -0.000986470519037)
(0.000339404722721 0.000713632904405 -0.000989803610742)
(0.000748742300709 0.000644922228864 -0.00141039233586)
(0.00170563975033 0.000256855069267 -0.00109200156979)
(0.0013842841457 0.000751718339736 -0.00124459353464)
(0.00158195280666 0.000695362503116 -0.00162373287583)
(0.00236893910606 0.000360671938677 -0.00102089793799)
(0.00219943671301 0.000877222077155 -0.00119546909142)
(0.00221974631491 0.00080120614651 -0.00154200364705)
(0.00271602351554 0.00052933937762 -0.000884737324523)
(0.00273488565815 0.00107953082905 -0.00104335362047)
(0.00261976569358 0.000951023594144 -0.0013462599851)
(0.00271968892979 0.000711800403498 -0.000734132979904)
(0.00290298128736 0.00131575563206 -0.000857682690054)
(0.00271897099942 0.00111556383373 -0.00111164359812)
(0.00241294560758 0.000871379266027 -0.000595158739232)
(0.00272450945747 0.00152641442936 -0.000685747467926)
(0.00252826889035 0.00125853122653 -0.00088912666669)
(0.00185556427817 0.000990653123934 -0.000482785304457)
(0.00225190801876 0.00169636522591 -0.000538701904701)
(0.00208549202259 0.00137065899852 -0.000700263271449)
(0.00113142359616 0.0010588145719 -0.000414079457551)
(0.00156014291295 0.00180636222823 -0.000436734984988)
(0.00145410086193 0.00144151934239 -0.000569599274352)
(0.000334677512163 0.00107562065063 -0.000395087160877)
(0.000748367057135 0.00185342442829 -0.000389778079513)
(0.000717210266101 0.00147247051354 -0.000509442014475)
(-0.000443273763438 0.00104268684312 -0.000423342761144)
(-8.83680985951e-05 0.00184006447568 -0.000398179215078)
(-4.31044071807e-05 0.00146550005269 -0.000520035617918)
(-0.00111945234367 0.000963468691297 -0.000491913311551)
(-0.000859865496331 0.00176962799308 -0.00045593698876)
(-0.000748054759707 0.00142207064827 -0.000594184228409)
(-0.00162261507958 0.000843949293861 -0.000590044729818)
(-0.00148604746792 0.00164685115803 -0.000553531516008)
(-0.00132831239356 0.00134387262952 -0.00072020580737)
(-0.00189884546387 0.000697149204092 -0.000703003222417)
(-0.00190007626996 0.00148096023379 -0.000679425863414)
(-0.00172631544175 0.00123355792999 -0.000881920936427)
(-0.00191376408927 0.000540731920457 -0.000819020740474)
(-0.00206106038873 0.0012895775066 -0.000817499840999)
(-0.00190662234357 0.00110174598554 -0.00105964794952)
(-0.00165496544395 0.000405694324637 -0.000918686916847)
(-0.00193592169891 0.00108955572092 -0.000957718973822)
(-0.00184795595861 0.00095911102661 -0.00123645520153)
(-0.00115532078285 0.000329984594974 -0.000963897484053)
(-0.00152770554179 0.000926535482006 -0.00106651838286)
(-0.0015577871871 0.000834136699605 -0.00137536738201)
(-0.000513257675334 0.000327455311037 -0.000861765003071)
(-0.000912744816176 0.000830859153761 -0.00109075163997)
(-0.00109291368938 0.000746559571114 -0.00141963995427)
(1.80689235994e-05 0.000406144215434 -0.000447700158674)
(-0.00012276173357 0.000801845387218 -0.000861609739867)
(-0.0004808755677 0.0006977633042 -0.00122042381116)
(0.000211662363215 0.000822282022746 -0.000132578063045)
(-9.26607232906e-05 0.000681143348395 -0.000546676205392)
(4.5915477271e-05 0.00111607135137 -0.000630346432961)
(-0.000244524070273 0.00136631858951 -0.000108380714841)
(0.000184358575312 0.00131898690821 -0.000657078165558)
(0.000898097960334 0.00120181337649 -0.00124792662634)
(0.000358846076448 0.00149682852346 -0.00110820765301)
(0.000812349604498 0.0014003347708 -0.00163537494448)
(0.00186321243478 0.00134943949334 -0.00134806105626)
(0.00154074245434 0.00164032487741 -0.00135894192531)
(0.00170925084041 0.00151473006186 -0.00185371788143)
(0.0025813270315 0.00157149384822 -0.00121792477389)
(0.00243026427186 0.00186217345463 -0.00123934287839)
(0.00236528453052 0.00169101107931 -0.0017030629928)
(0.00293789408875 0.00183924052884 -0.001016298986)
(0.00298691868273 0.00214720465957 -0.00100787374245)
(0.00275729270658 0.00191179894139 -0.00142423811298)
(0.00291904826348 0.00210101318707 -0.000809297178076)
(0.00313731414478 0.00245046032892 -0.000755477599412)
(0.00283619664592 0.00214388474874 -0.00111585631938)
(0.00256890649584 0.0023190944541 -0.000629290633394)
(0.00291467743442 0.00271252011494 -0.000534149895869)
(0.0026178455393 0.00234630559441 -0.000835961569735)
(0.00195931926404 0.0024770246611 -0.000492651585232)
(0.00238613541135 0.00291711240648 -0.000358515506742)
(0.00214802223417 0.00250499017628 -0.000611157755103)
(0.00117973088985 0.00256422495793 -0.00041243360695)
(0.00163604471012 0.00304806599884 -0.000244480537768)
(0.00149244610663 0.00260763563516 -0.00046211328163)
(0.000328706862055 0.00258073565255 -0.000392870133714)
(0.000768102735266 0.00310125771937 -0.000195233248332)
(0.000733673760287 0.00265242412648 -0.000396807136035)
(-0.000499926612707 0.00253083110812 -0.000430773442694)
(-0.000120890577693 0.00308184693537 -0.000209699805943)
(-4.70646493149e-05 0.00264207528433 -0.000413146758256)
(-0.00122202355236 0.00241894410328 -0.000517555193217)
(-0.000941824369115 0.00299513868622 -0.000280820634944)
(-0.000772320713898 0.00257950095862 -0.000503411370135)
(-0.00176364723813 0.00225271246015 -0.000642912649604)
(-0.00161349295683 0.0028445789147 -0.000397555003312)
(-0.00137384568654 0.00246797880081 -0.000656101522427)
(-0.0020680042955 0.00204523530542 -0.000793922481997)
(-0.00206722622464 0.00264267826152 -0.000556831447253)
(-0.00179465527724 0.00231305692328 -0.000857358299885)
(-0.00209331706346 0.00181289231034 -0.000956198074348)
(-0.00225593207595 0.00240293475485 -0.000740287235217)
(-0.00199635008428 0.00212689996807 -0.00108804176555)
(-0.0018198949005 0.00158702433106 -0.00110555043983)
(-0.00213770322394 0.00214245107221 -0.000935622871812)
(-0.00195277440642 0.00192354499526 -0.00132631483636)
(-0.00126994486627 0.00140541712354 -0.00119337253877)
(-0.00170579720385 0.00190624675855 -0.00110630610935)
(-0.00166585165968 0.0017344418025 -0.001529658722)
(-0.00053862532416 0.00128387150791 -0.00109059637676)
(-0.00102772360982 0.0017238892112 -0.00118456239789)
(-0.00118334496803 0.00158265766308 -0.00162434707886)
(7.97844901533e-05 0.00120041864938 -0.000546487644238)
(-0.000128534147763 0.00159835663691 -0.000956710520009)
(-0.000520046755269 0.00147465595795 -0.00141491852754)
(0.00027166828212 0.00146277548431 -8.64474600193e-05)
(-9.88626846178e-05 0.00137506951487 -0.000560707321761)
(5.55930027573e-05 0.00175834530577 -0.000586241934894)
(-0.000251764741585 0.00186766379012 -2.01521035709e-05)
(0.000217870678312 0.00185664624767 -0.000556935256357)
(0.00102572904489 0.00195173381653 -0.00121922295199)
(0.000461472594976 0.00210798561101 -0.0010582882326)
(0.000922457600173 0.0019794495213 -0.00158128997218)
(0.00209018232208 0.00217271078151 -0.00125022374744)
(0.00176510245315 0.00230823765141 -0.00125303968822)
(0.0018902091377 0.00211354491173 -0.00173236296172)
(0.00285361332089 0.002458158206 -0.00102929184695)
(0.0027195865097 0.00257474149941 -0.00104261623235)
(0.00257348163099 0.00231638373294 -0.00147599615717)
(0.00320502288861 0.00277714890693 -0.000747052355868)
(0.00328607840454 0.00289090267684 -0.000723183968257)
(0.00295916450214 0.00256768837096 -0.00109510496672)
(0.00314676062571 0.00307861404024 -0.000480330317204)
(0.0034043097134 0.00321331175048 -0.000401887996485)
(0.0030095715722 0.00283072364036 -0.000704586827672)
(0.00273886232595 0.00332555859588 -0.000263374769216)
(0.00312512489142 0.00348838960355 -0.000136849552911)
(0.00275203306313 0.00306256104267 -0.000367969125272)
(0.00206748876684 0.00350110234286 -0.000110344459277)
(0.00252904438041 0.00370005542764 6.31026206585e-05)
(0.00224079952668 0.00324617457295 -0.000111567609948)
(0.00122738996789 0.00359608527756 -2.72801791493e-05)
(0.00171374741133 0.00383210969908 0.000184960802486)
(0.00154751338047 0.00336676975885 5.60568265442e-05)
(0.000321764465492 0.00361243194217 -1.20629205604e-05)
(0.000787285822824 0.00388515755847 0.000231945159902)
(0.0007558371801 0.00342095400572 0.000121727371874)
(-0.000557998942076 0.00355574414183 -5.97469981932e-05)
(-0.000154780392856 0.0038642369309 0.000209868991412)
(-5.50506352711e-05 0.00341122356862 9.73751989604e-05)
(-0.00133109719234 0.00343132774136 -0.000160820445039)
(-0.00102659015758 0.00377533220173 0.000126518787613)
(-0.000810866443306 0.00334151601364 -7.09333816444e-06)
(-0.00191845465921 0.00324656719825 -0.00031147380096)
(-0.00174915697213 0.00362469368529 -9.88530396708e-06)
(-0.00144564091601 0.00321621063391 -0.000192755227274)
(-0.00226308771321 0.00301349839546 -0.000503196200473)
(-0.00225156468546 0.00341873864314 -0.000199787959494)
(-0.00190140532856 0.00304352094916 -0.000431425141006)
(-0.0023127270425 0.0027472327388 -0.00071971203268)
(-0.00247843174593 0.00317132381603 -0.000426273166172)
(-0.00213473460732 0.00283612960041 -0.000718747499525)
(-0.0020367329814 0.00247739036517 -0.000936378541332)
(-0.00237904144148 0.00289668923404 -0.000680634932325)
(-0.0021132696797 0.00260935327196 -0.00103023000274)
(-0.00144606794428 0.00223976624366 -0.00109749596847)
(-0.00193434066438 0.00263524523287 -0.000922634980875)
(-0.00182987753167 0.00239568808795 -0.00131966132802)
(-0.000634228748643 0.00205046805274 -0.00105067654114)
(-0.00120286850168 0.00241272797073 -0.00107356804465)
(-0.00132409042201 0.00221957532603 -0.00150067577198)
(7.68401541956e-05 0.00186767595588 -0.000496670335791)
(-0.000206347180592 0.00223281331676 -0.000892248910935)
(-0.000603072704032 0.00209035674525 -0.00134552333378)
(0.000279895954365 0.0019965707622 -1.21508085655e-07)
(-0.000122900240218 0.00194885884361 -0.000456953665673)
(0.000135736373598 0.00220745311729 -0.000492198401276)
(-0.000204312526995 0.00214925387779 7.18397307102e-05)
(0.000275776727062 0.00221558142597 -0.000417323523132)
(0.00122669608562 0.00245188111996 -0.00109210496883)
(0.000626148956762 0.00243549274352 -0.000944875217486)
(0.00107287956146 0.00234655467647 -0.00141846372418)
(0.00237632665849 0.00269548058885 -0.00104543217313)
(0.00203316868606 0.00264723640129 -0.00107711242428)
(0.00211292980876 0.00247419519453 -0.00148862631732)
(0.00317188754491 0.00299071299951 -0.000736508353662)
(0.00304074938111 0.00290920090791 -0.000785622631751)
(0.00282741335827 0.00267009233158 -0.00113001755437)
(0.00350618654091 0.00330978598964 -0.000378019608873)
(0.00360799765273 0.00320848154817 -0.000389341737344)
(0.00320705690833 0.00291423662993 -0.000651875466249)
(0.00339892109318 0.00360557053794 -5.84072321913e-05)
(0.00368443615969 0.0035080343012 -1.23636136633e-05)
(0.00322545464533 0.00317186858561 -0.000187455064846)
(0.00292356046575 0.00384447266656 0.000189627836963)
(0.00334297619609 0.00375883122362 0.000286779050371)
(0.00292295556414 0.00340157963165 0.000204920702999)
(0.00218106153774 0.00401248080284 0.000358407882422)
(0.00267521038387 0.00395146689369 0.000503855145528)
(0.00236146926736 0.00358548726142 0.000491088877335)
(0.00127738990169 0.00410252301999 0.000444186141538)
(0.00179249494669 0.00407128124151 0.000629167373028)
(0.00161999727566 0.00370815016341 0.000664501327669)
(0.000314086118552 0.00411778840454 0.000453877071874)
(0.000807376311715 0.00411873767509 0.000670989543988)
(0.000784707483432 0.00376518522691 0.000729724837995)
(-0.000619165358676 0.00406439723295 0.000396134777218)
(-0.000187028296554 0.00410034665912 0.00064129458836)
(-6.65156055747e-05 0.00375870520476 0.000697142966491)
(-0.00144334557491 0.00394845869338 0.000277453928685)
(-0.00110871377473 0.00402273352006 0.000548758697393)
(-0.000862156716547 0.00369325275249 0.000576780229505)
(-0.00208490065739 0.00377594110131 0.000101800537499)
(-0.00188293551244 0.00389095270722 0.000396226709834)
(-0.00153803633121 0.00357429747615 0.000375297520982)
(-0.00247656469574 0.00355581165903 -0.000122864925193)
(-0.00243692881299 0.00371105350137 0.000185626923017)
(-0.00203502629005 0.00341051288978 9.93507412236e-05)
(-0.00255931294889 0.00330034818636 -0.000387196065816)
(-0.00270745130699 0.00349358320112 -7.33787996e-05)
(-0.00230516253791 0.00321379703639 -0.000239509515342)
(-0.00229145990081 0.00303508352548 -0.000666891371868)
(-0.00263541927731 0.00324707028749 -0.000375397230673)
(-0.00230962309103 0.00299916833446 -0.000618232458914)
(-0.00167279991936 0.00279067560661 -0.000898707057049)
(-0.00218783222398 0.00300551854808 -0.000678014622424)
(-0.00203127079511 0.00279655926049 -0.000988931625669)
(-0.00079458661311 0.0025804320483 -0.000915140414444)
(-0.00141480614401 0.00278868139402 -0.000893131363363)
(-0.0015006961885 0.00262796362707 -0.00125416498109)
(4.66298829906e-06 0.0023472669359 -0.00039570008323)
(-0.000338886698602 0.00259945282018 -0.000765001616722)
(-0.000720296959071 0.0025031132178 -0.00116588723631)
(0.000239050422823 0.0023102323643 9.46167621124e-05)
(-0.000166309796133 0.00234662775959 -0.000308997401565)
(0.000258589302545 0.00236611925334 -0.0003808370855)
(-0.000132558082463 0.00216063466603 0.00014988244801)
(0.000345910235257 0.00231620733407 -0.000269967180854)
(0.00146082763935 0.00261861808432 -0.000929882672935)
(0.000805229275826 0.00244815765949 -0.000813564630944)
(0.0012372225283 0.00244146613456 -0.00121490019188)
(0.00268072443728 0.00284600777745 -0.000817302882897)
(0.00229625401844 0.00264019641777 -0.00089135383694)
(0.00234648505249 0.00254874314204 -0.00121285391859)
(0.00349730914746 0.003109833478 -0.000438456015433)
(0.00334601574276 0.00286399812111 -0.000538903672136)
(0.00309302764255 0.00271509705358 -0.000771379357984)
(0.00380898846338 0.00338759502292 -2.3685742134e-05)
(0.00390856631354 0.00311516125876 -8.82922823295e-05)
(0.00346853339384 0.00292609756482 -0.000218356876308)
(0.00364616876318 0.0036405079353 0.000332822668899)
(0.00394162321304 0.0033595879282 0.000325954475699)
(0.0034550704597 0.0031506669001 0.000311267779142)
(0.00310425871437 0.00384400208028 0.000601006358936)
(0.00354243640867 0.00356536335569 0.00064671262928)
(0.00310762277081 0.00335383297836 0.00073537919803)
(0.00229284169138 0.00398694026793 0.000774614636134)
(0.00280913347738 0.00372298995796 0.000870771416965)
(0.00249383241439 0.00351913019266 0.00103989488248)
(0.00132709092895 0.00406305399614 0.000855970775479)
(0.00186504634533 0.0038200049526 0.000991938265698)
(0.00170090559011 0.00363092609963 0.00121702772715)
(0.000309599381932 0.00407639093358 0.000858407060474)
(0.000827709518643 0.00385828984144 0.00102540398119)
(0.00081854155303 0.00368484178955 0.0012779399412)
(-0.000673304434508 0.00403371561014 0.000793918508534)
(-0.000211744164431 0.00384505423827 0.000988628988523)
(-7.59581210019e-05 0.00368302190602 0.0012381968045)
(-0.00154676950625 0.00394075104426 0.000667531478542)
(-0.00117614321054 0.00378696179449 0.000891577267821)
(-0.000913714108934 0.00363037845249 0.00110923745098)
(-0.00223899389831 0.00380241944725 0.000480053095351)
(-0.00199501298902 0.00368866528471 0.000733591206396)
(-0.00163236270434 0.00353275110908 0.000894512581947)
(-0.00267844256584 0.00362575686283 0.000235113048609)
(-0.00259490664163 0.00355366635063 0.000513608372739)
(-0.00217170993132 0.00339780751321 0.000596836687275)
(-0.00279952711128 0.00341796658049 -6.15799644574e-05)
(-0.00290642141962 0.00338895390145 0.00023697906372)
(-0.0024791870154 0.0032365015669 0.000225714792467)
(-0.00254747444514 0.0031965107648 -0.000386520481229)
(-0.00286487626347 0.00319889039063 -9.51099310079e-05)
(-0.00251010451807 0.00306029606286 -0.000203871749283)
(-0.00191248184525 0.00298459490391 -0.000672438928738)
(-0.00242152686428 0.00300718849181 -0.00043802803823)
(-0.00223732997056 0.00289437910516 -0.000636661424902)
(-0.000981777600267 0.00279029020806 -0.000742992565641)
(-0.0016193964697 0.00282685020175 -0.000699891910289)
(-0.00168295320725 0.00275554962196 -0.000968871781919)
(-9.42433812587e-05 0.00254651977126 -0.00027468477138)
(-0.000485670653881 0.00265472673431 -0.000619499317257)
(-0.000850011798623 0.00264976860992 -0.00094280669224)
(0.000174728132998 0.00236198109693 0.000179053876774)
(-0.0002222869823 0.00249244618675 -0.000145991173318)
(0.000378402424362 0.00223831355578 -0.000282845097435)
(-5.78438388951e-05 0.00192554520353 0.000209857808225)
(0.000406264422927 0.00216209526908 -0.000143310096352)
(0.0016716551112 0.00246204700491 -0.000775035794949)
(0.000963690776489 0.00217136776428 -0.000688192651723)
(0.00138085551699 0.00226730029629 -0.00101645980885)
(0.00294645564994 0.00264770600155 -0.000612954626179)
(0.00251767123873 0.00232309262177 -0.000725695847635)
(0.00255159544015 0.00234694633029 -0.00095769397485)
(0.0037779875686 0.00285631901798 -0.000188739939033)
(0.00359903401345 0.00249031396955 -0.000333420512021)
(0.00332878946587 0.00247325223398 -0.000457845393041)
(0.00406549081168 0.00307272670747 0.000261347935503)
(0.00415444311036 0.00267520308305 0.000149674290414)
(0.00370304091268 0.0026380348995 0.000152456818597)
(0.00385660974408 0.00326887098701 0.000639844436079)
(0.00415141947743 0.00285402931682 0.0005851739573)
(0.00366366101959 0.00281648115526 0.000714441041618)
(0.00325773358353 0.00342717624476 0.000916477687309)
(0.00370555819057 0.00300404770967 0.000915098151073)
(0.00327834316414 0.00298113853219 0.00116019266285)
(0.00238821206528 0.00353745138089 0.00108809504653)
(0.00291810041326 0.00311873114081 0.00113880222111)
(0.00261837159157 0.00311749942983 0.00147378075462)
(0.00137076397219 0.00359541914875 0.0011613714714)
(0.00192436374558 0.00318792290195 0.00124754512561)
(0.00177882694619 0.00321066061682 0.00164953024411)
(0.00030970854961 0.00360681044487 0.00115562590923)
(0.000845769548351 0.00321536991231 0.00126737488566)
(0.000853616985187 0.00325754313351 0.00170397528031)
(-0.000711765744096 0.00357877821201 0.00108628774781)
(-0.000227279759747 0.00320914340441 0.00122495113784)
(-7.96538297622e-05 0.00326081130542 0.00165738502357)
(-0.0016233457241 0.00351604778626 0.000957636995675)
(-0.00122091535135 0.0031751181762 0.00113197382998)
(-0.00095392389634 0.00322549584345 0.00152342355936)
(-0.0023555290419 0.00342147481736 0.000767146483784)
(-0.0020723220694 0.00311724435402 0.000976013045418)
(-0.00170899706904 0.00315691232158 0.00130360431987)
(-0.0028344028818 0.00329910061705 0.000515474387849)
(-0.00270770143519 0.00303593628536 0.000755907171093)
(-0.00228441673198 0.00306097985038 0.00099660409347)
(-0.00298858846415 0.00315293227991 0.000203449097169)
(-0.00305148032504 0.00293430750334 0.00047568300382)
(-0.00262303946931 0.00294617273455 0.000608832279846)
(-0.00275490115924 0.00299357401748 -0.000146617488009)
(-0.0030372475192 0.00281297588224 0.000130074659909)
(-0.00267694733602 0.00282069347757 0.000152227628049)
(-0.00211323312431 0.00283504579712 -0.000465481019781)
(-0.00260274494184 0.00268607787717 -0.000234011154989)
(-0.0024091452229 0.00270300612033 -0.000320556830788)
(-0.00114740159672 0.00267892898712 -0.000576398661905)
(-0.00178423966818 0.00255899823771 -0.000524232160179)
(-0.00183566098545 0.00260420989136 -0.000697978756818)
(-0.000194680642094 0.00246054004568 -0.000165760669103)
(-0.000613332212545 0.00242372653586 -0.00048054467392)
(-0.000960469169621 0.00252413914603 -0.000721719738939)
(0.000109274364483 0.00217162906985 0.000243449566615)
(-0.000269733268668 0.00238253154766 -4.32793973356e-06)
(0.000485542618905 0.00185816092222 -0.000195489746063)
(8.57884807299e-06 0.00147806744648 0.000251857299569)
(0.000457133429107 0.00177817067557 -3.80620592036e-05)
(0.00184376549238 0.00203036723508 -0.000638852704409)
(0.00108478354028 0.00165617593701 -0.000582601979893)
(0.00149457415277 0.0018576401455 -0.000843028160003)
(0.00315619970155 0.00216207030604 -0.000446161733477)
(0.00268133590765 0.00175848515209 -0.000595771913975)
(0.00271379053457 0.00190976940906 -0.000747824112674)
(0.0039971175722 0.00230409178248 4.9937174258e-06)
(0.00378320756913 0.00186543573012 -0.000184518336736)
(0.00351688249518 0.00199349490753 -0.000216037452036)
(0.00426559024986 0.00244968715946 0.000473500312212)
(0.00433152305656 0.00197869054819 0.000317556247649)
(0.00389182806381 0.00210692102858 0.000428041487717)
(0.00402044426898 0.00258146897206 0.000860427672294)
(0.00430273437415 0.00208922320734 0.000760416613045)
(0.00383430400793 0.00223228900546 0.00100995313129)
(0.00337685020526 0.00268721584646 0.00113742268487)
(0.00382246940824 0.00218194305344 0.00109056824517)
(0.00342015922258 0.00235011860043 0.00146569918355)
(0.00246122444186 0.00276074426185 0.00129825230019)
(0.0029960283701 0.00225243283492 0.001304587498)
(0.00272321608631 0.00244942964357 0.00178192402354)
(0.00140456279871 0.00280025922478 0.00135354853986)
(0.00196623759575 0.00229527686759 0.00139476259269)
(0.00184593673416 0.00251892194013 0.00194930724666)
(0.000312371964988 0.00280982745004 0.00133670011426)
(0.000859940615482 0.00231413013791 0.00140172141791)
(0.000885919273651 0.00255598768281 0.0019934299531)
(-0.000733177403835 0.00279591230536 0.00127063722001)
(-0.000232292658339 0.00231473470147 0.00135288146627)
(-7.75704626693e-05 0.0025637802264 0.00193995735061)
(-0.00166971629712 0.00276595490642 0.00115034987973)
(-0.00124148807478 0.00230478153492 0.0012637658931)
(-0.000977767881372 0.00254765584779 0.00180687486593)
(-0.00242951481569 0.00272140736898 0.000964773732727)
(-0.00210894717836 0.00228838697106 0.00112207604703)
(-0.00175924677129 0.00251365945919 0.00158865535015)
(-0.00293723242923 0.00266065006503 0.000716115787064)
(-0.00276751657566 0.00226138164224 0.000910004321276)
(-0.00236141257292 0.00246368444822 0.00128227184593)
(-0.0031176290999 0.00258396889505 0.00040230856656)
(-0.00313403438434 0.00222301004513 0.000636021726921)
(-0.00272324751487 0.00240239377482 0.000891693867382)
(-0.00290126064614 0.00249583278234 4.26809929287e-05)
(-0.00314134948262 0.00217212937224 0.00029045952454)
(-0.0027949840722 0.002334214736 0.000424477970795)
(-0.00226036600708 0.00240123891687 -0.000292762295386)
(-0.00271858703585 0.00211347004389 -8.17116733276e-05)
(-0.00253219862553 0.00226949557147 -6.82866678407e-05)
(-0.00127628371769 0.00229594395724 -0.000428378172194)
(-0.00189578033195 0.00204395382065 -0.000382969387078)
(-0.00194602356838 0.00221370545675 -0.000469037465171)
(-0.000281466393936 0.00212601694505 -7.13344382023e-05)
(-0.000706925367144 0.00195495746819 -0.000362884691282)
(-0.00104217872546 0.00216144898781 -0.000526047608038)
(5.2129625945e-05 0.00176417792312 0.000288424171128)
(-0.000307882001727 0.00204537931723 0.000125985201454)
(0.000561651868158 0.0012782999704 -0.000135254934261)
(5.29889821774e-05 0.00087983344895 0.00027253335543)
(0.000491092676115 0.00121545423041 3.65848493132e-05)
(0.00195922576586 0.00138555739076 -0.000539521189459)
(0.00115729837416 0.000975108984256 -0.000512854912364)
(0.0015680452709 0.00126555318184 -0.000716504170883)
(0.0032957092393 0.00146079959354 -0.000334128517234)
(0.00277684655296 0.00102390360944 -0.000513559091737)
(0.00282073034335 0.00129348691128 -0.00060189944896)
(0.00413936085706 0.00153765933644 0.000128044193487)
(0.00388853065717 0.00107080325843 -9.77996121408e-05)
(0.00364299441 0.00133850286117 -4.90171475501e-05)
(0.00439532371484 0.00161527976907 0.000604472548482)
(0.0044314539867 0.00111891945325 0.000411863100479)
(0.00402007529288 0.00140227620175 0.000603809648827)
(0.00412596045935 0.0016858621143 0.000990557185918)
(0.00438777486011 0.00116627571489 0.000853813654604)
(0.00395160242607 0.00147491047274 0.00119231152735)
(0.00345242059222 0.00174306134346 0.00125773305829)
(0.00388750101802 0.00120641801059 0.00117877632524)
(0.00351868420933 0.00154495895183 0.00164906506262)
(0.00250766891996 0.00178296850018 0.00140109779049)
(0.00304035835776 0.00123805015801 0.00137691308809)
(0.00279770638272 0.00160635744307 0.00195913393815)
(0.00142751291705 0.00180448805359 0.00144293547073)
(0.00199010884134 0.00125883403525 0.00145486527591)
(0.00189395599862 0.00165000567592 0.00211659798659)
(0.000319307529014 0.00181355627472 0.00141790276991)
(0.000872376896625 0.00127197958498 0.00145283432011)
(0.000912461870778 0.00167655159192 0.00215035482578)
(-0.000736785262072 0.00181760424439 0.00134601013936)
(-0.000223836705688 0.00128327911884 0.00139669854661)
(-6.68050397964e-05 0.00169055439844 0.00208754716634)
(-0.00168062026298 0.00182022259148 0.00123549206041)
(-0.00123529706636 0.00129789130797 0.0013056351192)
(-0.000980847032976 0.00169669599288 0.00195072406519)
(-0.00245301541045 0.00182114731061 0.00106730663558)
(-0.00210436110966 0.0013175029918 0.00117913150529)
(-0.00177411508773 0.00169700933007 0.00174327809144)
(-0.00297739846241 0.00181725802177 0.000829910261133)
(-0.00277145233342 0.00133949517144 0.000980818069152)
(-0.0023916859892 0.00169257766995 0.00144626865185)
(-0.00317593204554 0.0018053125158 0.000524172684902)
(-0.00315022840655 0.00135767927082 0.0007179097275)
(-0.00276809564846 0.00168313188406 0.0010638636716)
(-0.0029747437949 0.00178431698943 0.000166066858284)
(-0.00317228391703 0.00137075049629 0.000380432184564)
(-0.00285264178788 0.00167010354212 0.000600190160191)
(-0.00234240703903 0.00175153399258 -0.000171918765019)
(-0.00276238437002 0.00137347926178 1.03755884103e-05)
(-0.00259572249274 0.00165540265282 0.000107653832487)
(-0.00135456385126 0.00169958140354 -0.000317475906166)
(-0.00194615814771 0.00135994189851 -0.00029000443903)
(-0.00200528870605 0.00163887873901 -0.000303831150112)
(-0.000341708652269 0.00159004417964 -3.12608195213e-06)
(-0.000757951510105 0.00132109921313 -0.000282980068486)
(-0.00108816955216 0.0016125545683 -0.000378996564306)