/*--------------------------------*- C++ -*----------------------------------*\
| =========                 |                                                 |
| \\      /  F ield         | OpenFOAM: The Open Source CFD Toolbox           |
|  \\    /   O peration     | Version:  3.0.1                                 |
|   \\  /    A nd           | Web:      www.OpenFOAM.org                      |
|    \\/     M anipulation  |                                                 |
\*---------------------------------------------------------------------------*/
FoamFile
{
    version     2.0;
    format      ascii;
    class       surfaceVectorField;
    location    "7.6";
    object      ddt0(Uf);
}
// * * * * * * * * * * * * * * * * * * * * * * * * * * * * * * * * * * * * * //

dimensions      [0 1 -2 0 0 0 0];

internalField   nonuniform List<vector> 
22672
(
(3.58899738544e-05 -2.79157703699e-05 1.03963630392e-05)
(1.19937520841e-05 -4.15621866025e-05 1.25562692236e-05)
(2.10542858095e-05 -1.64121918663e-05 6.89073568231e-06)
(9.40616899344e-05 -2.84683841385e-05 -6.55710090718e-06)
(7.16784569586e-05 -3.33384668197e-05 -2.26240713072e-05)
(7.63787198376e-05 -1.10648108727e-05 -2.34107824265e-05)
(0.000165400495354 -2.84595177845e-05 -1.47273476466e-05)
(0.000134356559198 -3.33863233112e-05 -3.05800975415e-05)
(0.000133250021093 -9.36413452899e-06 -3.64332193759e-05)
(0.000242653507132 -2.85128864023e-05 -1.79911452703e-05)
(0.000201293944832 -3.48166917501e-05 -2.92908199654e-05)
(0.000194492722533 -1.14410200287e-05 -4.08462540914e-05)
(0.00032434161112 -2.6399040934e-05 -1.88217045148e-05)
(0.000272185302624 -3.57936874805e-05 -2.75285714592e-05)
(0.000263628698532 -1.40863027613e-05 -4.42406606059e-05)
(0.000408171543014 -2.331272227e-05 -1.8603862376e-05)
(0.00035150406782 -3.63452723298e-05 -2.60213389696e-05)
(0.000343909071861 -1.38955092616e-05 -4.57816508613e-05)
(0.000492665355396 -1.97711569126e-05 -1.62732754211e-05)
(0.000433853675079 -3.59422908985e-05 -2.60378864871e-05)
(0.000430552443717 -1.31818260396e-05 -4.68323031301e-05)
(0.000581233026775 -1.54761954885e-05 -1.24146003079e-05)
(0.00052540191835 -3.27764187933e-05 -2.40574237872e-05)
(0.000525275541766 -1.04151684077e-05 -5.41134197622e-05)
(0.000656539832005 -1.23394392441e-05 -8.09041543672e-06)
(0.000613393262766 -2.85237471487e-05 -2.16501136924e-05)
(0.000615592617158 -6.74267346522e-06 -4.52271928037e-05)
(0.000715649368365 -9.40865271176e-06 -2.09206377184e-06)
(0.000690292595782 -2.41166028015e-05 -1.64742195616e-05)
(0.00069399918902 -3.27073660203e-06 -3.36507264855e-05)
(0.000754058837617 -1.16785319558e-05 7.65970163613e-06)
(0.000763814199313 -1.70680393744e-05 -8.88201206185e-06)
(0.000776252853062 2.05750953567e-06 -2.02968218663e-05)
(0.000778563179935 -1.4901228694e-05 1.9668203726e-05)
(0.00080353697456 -3.03985660599e-05 2.61772450366e-06)
(0.000818765848062 -7.25750972935e-06 6.58621829502e-06)
(0.000771474422296 -1.44481829579e-05 3.28091154137e-05)
(0.00080211610242 -2.47981173018e-05 1.56861223309e-05)
(0.000814516758521 -3.59914508528e-06 3.22159554022e-05)
(0.000733431689869 -1.55326655595e-05 4.79926363717e-05)
(0.000778210958775 -2.14227504965e-05 3.162755149e-05)
(0.000794652628318 -2.80263719899e-06 5.94688240974e-05)
(0.000662808149603 -1.7599523318e-05 6.25867033692e-05)
(0.000721404190578 -1.94956958592e-05 4.67588047032e-05)
(0.000738341922486 -2.34022123261e-06 8.98681955778e-05)
(0.000562382771638 -1.98262646616e-05 7.56020582258e-05)
(0.000628571402963 -1.8644472758e-05 5.99251343714e-05)
(0.000644868433568 -1.80482399708e-06 0.000118645904176)
(0.000439135710089 -2.10800550061e-05 8.60636778864e-05)
(0.00050987850559 -1.92898721752e-05 6.93710543536e-05)
(0.000521763424891 -1.19246347681e-06 0.000142008130354)
(0.000300523059884 -2.19138830123e-05 9.62376947244e-05)
(0.000371251144356 -2.1297685976e-05 7.50053606386e-05)
(0.000375572709143 -1.54667379128e-06 0.000159308309469)
(0.000150207393272 -2.64622272052e-05 0.000108561692233)
(0.000221556807468 -2.69805211001e-05 8.24703670207e-05)
(0.000219857417369 -7.38906406639e-06 0.000176596128734)
(8.21157175896e-05 -4.54360094576e-05 0.000104105247673)
(7.53624690904e-05 -2.42814354569e-05 0.000195102941203)
(4.29495497063e-05 -4.77872666e-05 -2.04641651228e-05)
(1.27251902689e-05 -6.50667249072e-05 -1.75563834127e-06)
(3.28941561541e-05 -4.08585460832e-05 -1.80444715835e-05)
(0.000108263274331 -4.03381614966e-05 -4.66470679416e-05)
(8.24178913873e-05 -5.5520852421e-05 -4.70535437551e-05)
(8.68963139472e-05 -4.01869041181e-05 -4.15432702165e-05)
(0.000169726353692 -4.00374585343e-05 -4.51435698603e-05)
(0.00013469696199 -6.14184960479e-05 -4.11747389635e-05)
(0.000125037040187 -4.93955598979e-05 -3.17414681735e-05)
(0.000230318946583 -4.30881733219e-05 -3.88282461542e-05)
(0.000187819274439 -7.22458332615e-05 -2.96295484827e-05)
(0.000170015042369 -6.13523409873e-05 -2.1389230628e-05)
(0.000298442933222 -4.64058279522e-05 -3.4728205914e-05)
(0.00024574762315 -8.3654444399e-05 -2.38030871287e-05)
(0.000225911736842 -7.32221971163e-05 -1.84075362545e-05)
(0.000377299151514 -4.75830832557e-05 -3.34553630807e-05)
(0.000318594404382 -9.13406712209e-05 -2.33697178167e-05)
(0.000299986733101 -8.06075496186e-05 -2.19389195783e-05)
(0.000465917725693 -4.59954865325e-05 -3.38220348532e-05)
(0.000403659252381 -9.37305458524e-05 -2.62129851994e-05)
(0.000389427210133 -8.29485734492e-05 -2.88822503302e-05)
(0.00056061423111 -4.21190309789e-05 -3.32929371717e-05)
(0.000502125371888 -9.09018695217e-05 -2.95554621295e-05)
(0.000492703904764 -8.04056025901e-05 -3.46674417999e-05)
(0.000651781975596 -3.72400329962e-05 -3.00339178174e-05)
(0.00060204862189 -8.32579710057e-05 -3.04709181063e-05)
(0.000599260411838 -7.46238916019e-05 -3.46718515624e-05)
(0.000731711067226 -3.13131328322e-05 -2.32641678517e-05)
(0.000694837088828 -7.58763033094e-05 -2.61841401429e-05)
(0.000700048336601 -6.69552129302e-05 -2.66588105176e-05)
(0.00079259383623 -3.16647480786e-05 -1.39239891943e-05)
(0.000777424480432 -6.7991181057e-05 -1.71065630747e-05)
(0.000789730901061 -5.69259008527e-05 -8.79746838088e-06)
(0.000822553082848 -3.25294862395e-05 -1.3643568915e-06)
(0.000829618022654 -6.76171899672e-05 -5.96210969291e-06)
(0.000848544509855 -6.45614174531e-05 8.01256663984e-06)
(0.000819045129985 -2.73827109171e-05 1.45045584071e-05)
(0.000842747499782 -6.08105432518e-05 1.07524372222e-05)
(0.000867502977455 -5.57027427364e-05 3.98580341858e-05)
(0.000777663498366 -2.31595950177e-05 3.03937198215e-05)
(0.000820779738608 -5.39323982095e-05 2.90370179669e-05)
(0.000849969010399 -4.89291570642e-05 7.38614142017e-05)
(0.000697877954063 -1.9532484569e-05 4.40972357054e-05)
(0.000759752640652 -4.62483017867e-05 4.60515066054e-05)
(0.000791255668565 -4.15045926459e-05 0.000106224944541)
(0.000583622149486 -1.77017282614e-05 5.36941304992e-05)
(0.000657956774708 -3.82313256193e-05 5.94970074148e-05)
(0.000690647818368 -3.30686907942e-05 0.000133337381654)
(0.000445086922358 -1.92436983916e-05 5.83127371058e-05)
(0.000526143039498 -3.2718607126e-05 6.61386287072e-05)
(0.00055615957772 -2.56399681895e-05 0.000151339587942)
(0.000296587798021 -2.5878938845e-05 6.12380329349e-05)
(0.000374700909444 -3.12601063392e-05 6.48780848577e-05)
(0.00039783518061 -2.1821419278e-05 0.0001577528748)
(0.000151103506856 -4.35896295968e-05 7.80139224612e-05)
(0.000212849318014 -3.80919753545e-05 6.04941700926e-05)
(0.000227008735097 -2.65933499741e-05 0.000155790774525)
(7.82980125163e-05 -6.0369025757e-05 8.537937198e-05)
(7.41333540137e-05 -4.93067338286e-05 0.000165434911049)
(4.49293537264e-05 -6.92335813012e-05 -2.83450169735e-05)
(1.26746004809e-05 -7.66741094167e-05 -1.02670352591e-05)
(3.66899759621e-05 -7.00312287768e-05 -3.18908550761e-05)
(0.000104993998379 -7.3097907995e-05 -4.1581214777e-05)
(8.38898570698e-05 -8.00647481154e-05 -4.74239118592e-05)
(8.22381229949e-05 -8.82667818728e-05 -3.39106895945e-05)
(0.000153564138651 -8.86290801018e-05 -2.56607175858e-05)
(0.000120923611972 -9.96122722766e-05 -2.74804646321e-05)
(0.000105034515496 -0.000112865328572 -8.65578106355e-06)
(0.000202781347197 -0.000106833887406 -1.4604389457e-05)
(0.000162527938756 -0.000123323962682 -1.26519218041e-05)
(0.000141100902529 -0.000138123013791 3.6882695326e-06)
(0.000264960438731 -0.000121794169885 -1.24445990313e-05)
(0.000214209918587 -0.000145025430147 -1.07000841303e-05)
(0.000191851204613 -0.000160405866266 1.1316215182e-06)
(0.000344797890317 -0.000129630537502 -1.61273399354e-05)
(0.000286923868087 -0.000158614694594 -1.66217905108e-05)
(0.000265807441711 -0.000175109250358 -1.05227379831e-05)
(0.0004406496542 -0.000129918488413 -2.19464124758e-05)
(0.000378672672482 -0.000162522767211 -2.50405145575e-05)
(0.000360752525567 -0.00018078770807 -2.49613712418e-05)
(0.000546215847552 -0.000122280550541 -2.67334430641e-05)
(0.000488011998165 -0.000157630506083 -3.18673263347e-05)
(0.000472078420512 -0.000178066071048 -3.67639401656e-05)
(0.000648088598941 -0.000112467413373 -2.66211404319e-05)
(0.000597346005031 -0.000140788757813 -3.97415057682e-05)
(0.000589130711757 -0.000170223333447 -4.24080795874e-05)
(0.000741257164258 -0.000103674364484 -2.00265353659e-05)
(0.000699104738554 -0.000133043168884 -3.30042601854e-05)
(0.00070131027953 -0.000159533514577 -3.4336915752e-05)
(0.000811350762928 -9.64995243471e-05 -9.14468357328e-06)
(0.000790502738599 -0.000121702194913 -2.21635542166e-05)
(0.000798490121084 -0.000148298456457 -1.51017441756e-05)
(0.000852752343496 -8.97733481303e-05 6.15468442079e-06)
(0.000851275388333 -0.000114370130717 -7.43167822962e-06)
(0.000866598665198 -0.000141072711956 6.17784263187e-06)
(0.000854506418227 -8.04998289856e-05 2.5284896782e-05)
(0.000873036436005 -0.000104387180953 1.21001096251e-05)
(0.000896109588193 -0.000130123440131 4.21885223235e-05)
(0.000813339653009 -7.03262773012e-05 4.46948047508e-05)
(0.000854199596458 -9.39186048784e-05 3.41537040106e-05)
(0.000883155811989 -0.000117868013926 8.11154159801e-05)
(0.000729643309668 -5.89242086951e-05 6.14512783148e-05)
(0.000792211997665 -8.16750883527e-05 5.54994544608e-05)
(0.000825528729265 -0.000103400483644 0.000118778117312)
(0.000607501930431 -4.80465907952e-05 7.19415056228e-05)
(0.000685692659223 -6.74924244398e-05 7.30540499399e-05)
(0.000722786084918 -8.69743584632e-05 0.00015085045902)
(0.000457654380795 -4.03468966977e-05 7.27039764592e-05)
(0.000545201373465 -5.49785412942e-05 8.14267925843e-05)
(0.000582975281122 -7.09530609509e-05 0.000171425756435)
(0.000297280499721 -3.91637905154e-05 6.41342220155e-05)
(0.000382216328713 -4.59692903164e-05 7.64986243187e-05)
(0.000416273216012 -5.78686297893e-05 0.000174307333959)
(0.000145671566266 -5.07549199839e-05 6.78596196115e-05)
(0.000208009515954 -4.49190518728e-05 5.95381590538e-05)
(0.000233768348406 -5.26133725744e-05 0.000157557246832)
(7.55073852733e-05 -6.1030905255e-05 7.32141943455e-05)
(7.36081634441e-05 -6.02956635598e-05 0.000145684746943)
(4.35137141065e-05 -8.49083905285e-05 -2.93459301447e-05)
(1.1957820584e-05 -7.78513738231e-05 -1.6348058514e-05)
(3.46315245162e-05 -9.19262605384e-05 -4.09430723472e-05)
(9.43243600525e-05 -0.000104582921509 -3.33231617144e-05)
(7.97311710973e-05 -0.000100251000755 -4.47712037041e-05)
(7.09886387862e-05 -0.00012757990071 -2.90573018219e-05)
(0.000131217499417 -0.000132804825411 -1.44716688504e-05)
(0.000102832872406 -0.000132066426368 -2.08892434542e-05)
(8.12030213406e-05 -0.00016140678853 -2.74336202458e-06)
(0.000173414129148 -0.000160475325211 -8.74761647725e-06)
(0.000135967323075 -0.000164269210454 -1.15262903601e-05)
(0.000110978745152 -0.000193483009465 5.85764802885e-07)
(0.000235125651263 -0.000181042766052 -1.48772756098e-05)
(0.000185973218182 -0.000190837687657 -1.87422354457e-05)
(0.00016113301893 -0.000220045804382 -1.39040152786e-05)
(0.000320342310081 -0.000190827456592 -2.5534965133e-05)
(0.000263150172404 -0.000205259651009 -3.26292282084e-05)
(0.000239301603926 -0.00023678857455 -3.64263863237e-05)
(0.000425732725132 -0.00019020669258 -3.49614284165e-05)
(0.000363652936017 -0.000207373657967 -4.56369347636e-05)
(0.000342401672678 -0.000242592784154 -5.82939158669e-05)
(0.000546607857616 -0.000180861977292 -4.48753890388e-05)
(0.000482766847572 -0.000200466200791 -5.41165151158e-05)
(0.000462021153163 -0.00023897660189 -7.57913710844e-05)
(0.000646706100896 -0.00016651099667 -4.61246255218e-05)
(0.00060109445036 -0.000190788764706 -6.15515181907e-05)
(0.000586534197717 -0.000227924686631 -4.79850089558e-05)
(0.000752118758292 -0.000151546549021 -3.5141279036e-05)
(0.000710060937286 -0.000168150950666 -5.30525824479e-05)
(0.000705962471298 -0.000213887748589 -6.84789585065e-05)
(0.000829872770077 -0.000139042266022 -2.04505488729e-05)
(0.000805897900225 -0.000151316929895 -4.00319453323e-05)
(0.000808588567085 -0.000199808770617 -4.67335877251e-05)
(0.000877637029503 -0.000128227566161 -1.48625302526e-06)
(0.000870815796238 -0.000139035467963 -2.22042605684e-05)
(0.000882063406985 -0.000187534714888 -2.21919823942e-05)
(0.000883041557737 -0.000116855015198 2.09689168538e-05)
(0.000896898679775 -0.000128440317945 5.15143469717e-07)
(0.000917072539934 -0.000174589031558 1.90537617616e-05)
(0.00084314308052 -0.000104183846932 4.49583537206e-05)
(0.000880366322048 -0.000117920498191 2.63631566666e-05)
(0.000908158198035 -0.000160386706816 6.38714847569e-05)
(0.000757702360422 -8.90959464407e-05 6.71022260858e-05)
(0.000818595884124 -0.00010514894663 5.23969949811e-05)
(0.000852763875754 -0.000143358304298 0.000108558776845)
(0.000630286522433 -7.3112002652e-05 8.25393369014e-05)
(0.000709421981706 -8.90733104104e-05 7.53654655053e-05)
(0.000749727472421 -0.000123723530752 0.000148420664424)
(0.00047136736164 -5.88611709332e-05 8.52214404439e-05)
(0.000562557593544 -7.28652970787e-05 8.87803525177e-05)
(0.000606168653508 -0.000103491265245 0.000176088522008)
(0.000299843640851 -4.94384056155e-05 7.19025613571e-05)
(0.000390212756381 -5.84548667317e-05 8.54229729238e-05)
(0.000432550491608 -8.49805179548e-05 0.000183186370033)
(0.000142280835421 -5.15411057479e-05 6.48927337878e-05)
(0.00020459412049 -4.87765534e-05 6.21483835388e-05)
(0.000239607207161 -7.16474026905e-05 0.000160485600628)
(7.25426495933e-05 -5.19132424806e-05 6.47969122813e-05)
(7.39901576e-05 -6.63599619791e-05 0.000132480834621)
(4.15115671901e-05 -8.91543756927e-05 -3.17733320734e-05)
(1.26362225749e-05 -6.61568931675e-05 -2.21092138995e-05)
(3.159013849e-05 -9.85690486373e-05 -5.18953651674e-05)
(8.14642813453e-05 -0.000123611640477 -3.23372854439e-05)
(7.37057059465e-05 -0.000104060881429 -4.58956800053e-05)
(5.80263424862e-05 -0.000148464571603 -3.46609884559e-05)
(0.00010909682454 -0.000159532633462 -1.79438649638e-05)
(8.60619634559e-05 -0.000143315559933 -2.47986884598e-05)
(5.84207740188e-05 -0.000187472999209 -1.47461578436e-05)
(0.000147820955678 -0.000190469507433 -2.15209093286e-05)
(0.000114087415938 -0.000177518066032 -2.41746577689e-05)
(8.41482036499e-05 -0.000220613776116 -2.36505229501e-05)
(0.000212799613209 -0.000210873626065 -3.64941880444e-05)
(0.000165695339826 -0.000202496092667 -4.04982906688e-05)
(0.000136067728675 -0.000246038824698 -5.12814389978e-05)
(0.000306020476287 -0.000217852615909 -5.27311978391e-05)
(0.000250229203478 -0.000212612560665 -5.98642560716e-05)
(0.000220594518162 -0.000260202111754 -8.3623720003e-05)
(0.000420240057121 -0.000213287635526 -6.47920214628e-05)
(0.000359807227837 -0.000210636751399 -7.50205787707e-05)
(0.000331704626773 -0.000263054590703 -0.000108568692541)
(0.000544600160573 -0.000201289685788 -7.07926442677e-05)
(0.000486545818599 -0.000198064016243 -8.31063084496e-05)
(0.000460079550153 -0.000256708310982 -0.000124349388678)
(0.000662578496738 -0.000182816574014 -6.84794751169e-05)
(0.000612933409603 -0.000179115359779 -8.28564219515e-05)
(0.000592173265343 -0.000242303988134 -0.000127374822431)
(0.000768233493948 -0.000162681993056 -5.79432487442e-05)
(0.00072717440411 -0.000157760504911 -7.38146769284e-05)
(0.000715964413756 -0.000225259677193 -0.000114077612102)
(0.000848441933352 -0.000147384257381 -4.17856570278e-05)
(0.000822200831517 -0.000140314460144 -5.8930420745e-05)
(0.000820780119081 -0.000209448044786 -8.9697121067e-05)
(0.000897261504564 -0.000135852903272 -2.02028640734e-05)
(0.000886638974374 -0.000128424231944 -3.98750322024e-05)
(0.000896284059474 -0.000196106390834 -5.84507411439e-05)
(0.000904463194238 -0.000125779069864 5.90938328255e-06)
(0.000913159549722 -0.000119994726261 -1.50316268048e-05)
(0.00093373794938 -0.000184092503688 -1.51963157328e-05)
(0.000865884499429 -0.00011489644207 3.38017979271e-05)
(0.000897448887197 -0.000112382093536 1.29289652489e-05)
(0.000927238180364 -0.000171518085933 3.30405317464e-05)
(0.000779841271987 -0.000101122106545 6.06602344006e-05)
(0.000836115591862 -0.000103283750445 4.17608222401e-05)
(0.000873667285787 -0.000156733246177 8.38402712119e-05)
(0.000648845042413 -8.48481545652e-05 8.16064811217e-05)
(0.000725800851728 -8.99090142341e-05 6.89643582079e-05)
(0.000770894112958 -0.000138692702117 0.000131262660058)
(0.000482958551194 -6.84468622981e-05 8.89818849976e-05)
(0.00057452787748 -7.45345067334e-05 8.73836257776e-05)
(0.000624922838038 -0.000118679995098 0.000166830213994)
(0.000302292999791 -5.44451320965e-05 7.56687951055e-05)
(0.000394816436961 -5.88316113748e-05 8.79313895455e-05)
(0.00044576528904 -9.85633363507e-05 0.00018019542029)
(0.000141458012209 -4.46755523639e-05 6.20525620323e-05)
(0.000202701369266 -4.64426420051e-05 6.36422696909e-05)
(0.000244679004974 -8.06761204542e-05 0.000157532280081)
(7.07404175762e-05 -3.06030763395e-05 5.65675156982e-05)
(7.45491735968e-05 -6.0930882914e-05 0.000119449317089)
(3.93868478356e-05 -7.59793127267e-05 -3.62315618315e-05)
(1.39294580858e-05 -4.02391901646e-05 -2.76465673421e-05)
(3.03649832201e-05 -8.47464776782e-05 -6.41130217491e-05)
(7.08251992847e-05 -0.000118693629498 -3.83570830212e-05)
(6.8640650834e-05 -8.50577517495e-05 -5.08714269351e-05)
(4.78684435874e-05 -0.000141466594528 -4.90780527472e-05)
(9.24186208596e-05 -0.000156243914705 -3.10294812648e-05)
(7.44261846197e-05 -0.000125115229048 -3.56516575374e-05)
(4.1059228569e-05 -0.00018083127358 -3.82418447412e-05)
(0.000131214039836 -0.000184389837885 -4.3152039109e-05)
(0.000100646996988 -0.000155820999091 -4.29370727801e-05)
(6.47669223738e-05 -0.000210479425315 -5.87016466051e-05)
(0.000202010666454 -0.000199210410605 -6.3868358696e-05)
(0.000156452188233 -0.000174492933637 -6.56098228296e-05)
(0.00011999627121 -0.000230591024718 -9.67375189534e-05)
(0.000303485935006 -0.000200246128858 -8.21536370033e-05)
(0.000248668535978 -0.000178567787785 -8.67586529562e-05)
(0.000211634410801 -0.000238797985214 -0.000133202229567)
(0.000426749354449 -0.000190046692902 -9.33348657575e-05)
(0.00036675194693 -0.000170904401981 -0.00010154942623)
(0.000330955416477 -0.000236673332656 -0.000160502027304)
(0.00055716937839 -0.000171623467329 -9.51700861335e-05)
(0.000500684063557 -0.000153420272354 -0.000106291009655)
(0.000467219676932 -0.000225509549503 -0.000172534795619)
(0.00067980005762 -0.000149921807704 -8.8191623763e-05)
(0.000630545708349 -0.00013064635344 -0.000100514730947)
(0.000604187419884 -0.000208312733542 -0.000168716455602)
(0.0007847509416 -0.000130251649556 -7.48018489291e-05)
(0.000744449203399 -0.000109043102946 -8.78085059172e-05)
(0.000729374102453 -0.000190200532117 -0.00015161518713)
(0.000863138752338 -0.000116061668882 -5.70197959195e-05)
(0.000836063309791 -9.2735268614e-05 -7.10045983297e-05)
(0.000833415421498 -0.000174635536056 -0.000124389427865)
(0.000909773521604 -0.000107209459922 -3.47037949337e-05)
(0.00089680094573 -8.32319515796e-05 -5.16479200902e-05)
(0.00090750539762 -0.000162912764239 -9.07967030986e-05)
(0.000916285480388 -0.000101242846411 -8.01204483841e-06)
(0.000921138715809 -7.91491305822e-05 -2.72559640509e-05)
(0.00094441924621 -0.000154411323865 -4.68588960469e-05)
(0.000877852045561 -9.52656584727e-05 2.08879895619e-05)
(0.000904838645191 -7.69149806756e-05 5.61934269876e-07)
(0.000938514583025 -0.000146389269629 3.01769220642e-06)
(0.000791672155664 -8.62721787316e-05 5.00649460474e-05)
(0.000843586650584 -7.35077147905e-05 2.9807767717e-05)
(0.000886014569246 -0.00013690280528 5.61182104486e-05)
(0.000659206009341 -7.38468867161e-05 7.47415028639e-05)
(0.000733161215562 -6.54208863114e-05 5.97846420349e-05)
(0.000784183549518 -0.000123619331355 0.000107452391565)
(0.000488687124962 -5.92115341625e-05 8.63331303254e-05)
(0.000579348224796 -5.48324041452e-05 8.12524448339e-05)
(0.000636644971645 -0.000107834246527 0.000150118206613)
(0.000300663231507 -4.32652322777e-05 7.59048641308e-05)
(0.00039519951816 -4.06159094047e-05 8.51974496592e-05)
(0.000452704027636 -8.99655679809e-05 0.000168968954048)
(0.000126125656005 -2.65735737498e-05 5.81572233568e-05)
(0.000200518621275 -2.33885640771e-05 6.22520745392e-05)
(0.00024809998702 -7.02232433118e-05 0.00015051186582)
(6.90203219857e-05 -8.70058617218e-06 4.68913451099e-05)
(7.57126947306e-05 -4.39515695311e-05 0.000103531732378)
(3.75202145627e-05 -4.46510690328e-05 -4.22864324458e-05)
(1.5810466755e-05 -4.77214637437e-07 -3.14348975975e-05)
(3.00274179024e-05 -5.00527351241e-05 -7.62344458682e-05)
(6.43046901185e-05 -8.6884019044e-05 -4.81660014514e-05)
(6.59529336385e-05 -4.29691174282e-05 -5.75429629462e-05)
(4.2262363507e-05 -0.000105034281101 -6.76497671047e-05)
(8.37836013923e-05 -0.000119961090247 -4.75592490527e-05)
(6.88865094201e-05 -7.73015176094e-05 -4.88104544342e-05)
(3.10107810933e-05 -0.00013969616387 -6.58460153561e-05)
(0.000125506436785 -0.000141349823694 -6.53948565006e-05)
(9.58599468842e-05 -0.000100714943329 -6.15117229013e-05)
(5.44163395898e-05 -0.000162761983783 -9.50941513623e-05)
(0.000201682041555 -0.000149017923766 -8.85001170898e-05)
(0.000157082441081 -0.00011231933401 -8.73961018843e-05)
(0.000113736567905 -0.000176018756699 -0.000136294291596)
(0.000311163549175 -0.000143927732792 -0.000106154442183)
(0.000256350358491 -0.000109245008593 -0.000107817555413)
(0.00021186754614 -0.000177959073583 -0.000176459043021)
(0.000441233371738 -0.000128846891618 -0.000114505570128)
(0.00038171259232 -9.73008270825e-05 -0.000120265270771)
(0.000338369835261 -0.000170938235308 -0.00020113854148)
(0.000575240394492 -0.000106872069648 -0.000111635654469)
(0.000520588074702 -7.72874184849e-05 -0.00011985612561)
(0.000480313051207 -0.00015632644058 -0.000207576074654)
(0.000697651575844 -8.36953560849e-05 -0.000100131613101)
(0.000650815101942 -5.37008179774e-05 -0.000107321539938)
(0.000619586382609 -0.000137383717804 -0.000196955478982)
(0.000799355095662 -6.50420801919e-05 -8.40112553178e-05)
(0.000761246213749 -3.37592531592e-05 -8.70451245861e-05)
(0.000743820653514 -0.000119165859219 -0.000174930637237)
(0.000873337397224 -5.35884677866e-05 -6.56327225005e-05)
(0.000847445407877 -2.01116745156e-05 -6.98009737428e-05)
(0.000844779990159 -0.000105290333463 -0.000145026745307)
(0.000915623721942 -4.90224372959e-05 -4.42000892073e-05)
(0.000901492427826 -1.33706887794e-05 -5.47939427548e-05)
(0.000915213192867 -9.66980763893e-05 -0.000111101724845)
(0.000919952247098 -4.8739110211e-05 -1.86819849426e-05)
(0.000921697668247 -1.41545240858e-05 -3.29379748486e-05)
(0.000949636428668 -9.29392014251e-05 -6.87845598334e-05)
(0.000880865390861 -4.91521546505e-05 9.48171242498e-06)
(0.00090379812735 -1.73963193129e-05 -7.31551362858e-06)
(0.000943027224692 -9.07677766423e-05 -2.03157109077e-05)
(0.000794824817763 -4.68453055573e-05 3.95274637045e-05)
(0.000842269890717 -2.00416388683e-05 2.02696060794e-05)
(0.000890899462892 -8.76902111737e-05 3.2366531346e-05)
(0.000661314204025 -4.0955233602e-05 6.62955840049e-05)
(0.000732171847771 -1.87716849303e-05 5.09334519648e-05)
(0.000789588175104 -8.1172973951e-05 8.64113097767e-05)
(0.000489196745292 -3.08981631655e-05 8.01167641677e-05)
(0.000577755109433 -1.51256335816e-05 7.33003096921e-05)
(0.000640858133876 -7.20829117934e-05 0.000131773273088)
(0.000298435179077 -1.63021310391e-05 7.15446600676e-05)
(0.000392958185396 -4.33635703632e-06 7.94838781996e-05)
(0.00045490880607 -5.8498938292e-05 0.00015368628462)
(0.000126874830151 -1.27098564174e-06 5.09861962923e-05)
(0.000196206738737 9.75163660324e-06 5.79015499468e-05)
(0.000247274970417 -4.04449389799e-05 0.000137484630948)
(6.4595370984e-05 2.05950495027e-05 3.8907965145e-05)
(7.41344488497e-05 -1.73301961843e-05 9.6922329907e-05)
(3.84291634832e-05 3.87847447513e-06 -4.6691428098e-05)
(2.03690964329e-05 4.46335415398e-05 -2.70961821872e-05)
(3.17785386757e-05 4.67768955207e-06 -8.26462856608e-05)
(6.20614200378e-05 -2.93987557451e-05 -5.8187415929e-05)
(6.81466442581e-05 1.93950386895e-05 -6.30296249841e-05)
(4.08064035319e-05 -4.12229983185e-05 -8.49220843527e-05)
(8.20111197345e-05 -5.43851201621e-05 -6.27629282828e-05)
(6.84706849966e-05 -5.07164928248e-06 -5.99037110447e-05)
(2.77098634414e-05 -6.78430061356e-05 -9.08507432209e-05)
(0.000127157392959 -6.76519522577e-05 -8.35129682851e-05)
(9.78001930279e-05 -2.03363467739e-05 -7.35036452941e-05)
(5.19262475494e-05 -8.24189859312e-05 -0.000123868406057)
(0.000210008472284 -6.80259686506e-05 -0.000106713540208)
(0.000164613525098 -2.3525018053e-05 -0.00010238062434)
(0.000115144269274 -8.97353086985e-05 -0.000169636452397)
(0.000326009310539 -5.80105829709e-05 -0.000121928384001)
(0.000269801913741 -1.61527063389e-05 -0.000120770582167)
(0.000219054145479 -8.65450194067e-05 -0.000206780142165)
(0.000461124991022 -4.06679455083e-05 -0.000125615826252)
(0.000400620932527 -2.98655233837e-06 -0.000129676386402)
(0.000351258139307 -7.65827304197e-05 -0.000226934917511)
(0.000596752652042 -1.89390915812e-05 -0.000115542011079)
(0.000541967789534 1.58399081959e-05 -0.000122185913626)
(0.00049715604934 -6.08670207843e-05 -0.000226252152446)
(0.000716958454648 6.08912613914e-07 -9.42350514233e-05)
(0.000670931481356 3.57396921977e-05 -0.000101523196699)
(0.000636794587916 -4.27481792668e-05 -0.000207325725437)
(0.000812486821483 1.5430547977e-05 -7.2834843011e-05)
(0.000775749763358 5.06809625878e-05 -7.97875965288e-05)
(0.000758189249696 -2.70723903614e-05 -0.000177996774934)
(0.000878758059836 2.55709432819e-05 -5.89621939971e-05)
(0.000854067706028 6.13693791033e-05 -6.18934471729e-05)
(0.000854689796159 -1.56746947384e-05 -0.000146239514406)
(0.000915353008171 2.78367984709e-05 -4.35318283961e-05)
(0.000900788432971 6.66231071588e-05 -4.90389852107e-05)
(0.000919102569525 -9.57226463333e-06 -0.000115571435196)
(0.000916137798285 2.35499625135e-05 -2.15715035346e-05)
(0.000916399899791 6.2703617041e-05 -3.04842188019e-05)
(0.000949292491015 -1.02667323724e-05 -7.70854912816e-05)
(0.000875820303444 1.77970919548e-05 3.47238002592e-06)
(0.00089616877572 5.58113742181e-05 -8.67879056922e-06)
(0.000940934293322 -1.32970645116e-05 -3.27135458762e-05)
(0.000789901242054 1.40319405798e-05 3.16755943398e-05)
(0.000834177335044 4.90566788334e-05 1.56754115857e-05)
(0.000888412580687 -1.6037215519e-05 1.66993711081e-05)
(0.000655600786923 1.38939392663e-05 5.7938177652e-05)
(0.000725166164256 4.52446855972e-05 4.49805490238e-05)
(0.000787478104929 -1.61909738084e-05 6.99283612854e-05)
(0.000486397993435 1.81117045333e-05 7.2667423724e-05)
(0.000571355675571 4.55173467566e-05 6.67987435654e-05)
(0.00063916405648 -1.34567642925e-05 0.000108011095509)
(0.000294030068859 2.73175759738e-05 6.58407680788e-05)
(0.00038713514898 4.82940841016e-05 7.46067946809e-05)
(0.000453296168124 -5.43317928539e-06 0.00013902062883)
(0.000122757484141 3.81466684402e-05 4.58233187995e-05)
(0.000190476296277 5.61689292867e-05 5.42899574297e-05)
(0.000244022026238 7.47622991942e-06 0.00012399775231)
(5.89749691275e-05 6.26093528122e-05 3.45224807535e-05)
(7.11087394742e-05 2.56860365405e-05 8.01490551526e-05)
(4.57079264972e-05 7.0862814449e-05 -4.34343790734e-05)
(2.2249332161e-05 0.000124036609728 -2.4395282291e-05)
(3.40705884678e-05 7.27263640989e-05 -0.000124369762776)
(6.44240048873e-05 4.75866596222e-05 -6.47459200999e-05)
(6.96588441663e-05 9.78904639593e-05 -6.66937428439e-05)
(4.33137099447e-05 4.21349354108e-05 -9.6285617789e-05)
(8.46036922821e-05 3.2251573922e-05 -7.0644428056e-05)
(7.03948239572e-05 8.37463998075e-05 -6.68681073861e-05)
(3.03212744899e-05 2.54660068478e-05 -0.000107794527931)
(0.000135212469742 2.69699535797e-05 -9.23713013488e-05)
(0.000103477343485 7.70303933928e-05 -7.92537407366e-05)
(5.50810488734e-05 1.7885049696e-05 -0.00014642024123)
(0.000222579108895 3.16245343964e-05 -0.0001164376663)
(0.000175195276598 7.96925398519e-05 -0.000109819428717)
(0.000120739964786 1.65477773543e-05 -0.000188664222998)
(0.0003431653991 4.26786191292e-05 -0.000128518584569)
(0.000283800950432 8.82302164016e-05 -0.000125585101109)
(0.000229344279413 2.23259074047e-05 -0.000222752901365)
(0.000481339701561 5.78978806865e-05 -0.000126246473776)
(0.000417795578118 9.91331832454e-05 -0.000131108887211)
(0.000365626673523 3.21681092046e-05 -0.000237920973394)
(0.000616115962816 7.55558993365e-05 -0.000108167099246)
(0.000558283231383 0.000113039423804 -0.000114517442327)
(0.000513449658949 4.5442707859e-05 -0.000229625039024)
(0.000731676617768 9.21810518883e-05 -8.70757418046e-05)
(0.000686456506447 0.00012611218052 -9.34595960187e-05)
(0.000652956228817 6.05634729061e-05 -0.000203782695612)
(0.000819866343796 0.000103941932054 -6.88462006906e-05)
(0.000785181205504 0.000136506719026 -7.2969277249e-05)
(0.000769867356307 7.33623212295e-05 -0.000172207020078)
(0.000878183892338 0.000108907216264 -5.19702383864e-05)
(0.000856135225167 0.00014230877379 -5.37386284043e-05)
(0.000859631728145 8.07131443188e-05 -0.000137873674379)
(0.000909597787573 0.000107112020554 -3.59913756166e-05)
(0.000896923885876 0.000143102214932 -4.00302655508e-05)
(0.000918438656773 8.25126041438e-05 -0.000106950053528)
(0.000907088995435 0.000100572909366 -1.75915058365e-05)