/*--------------------------------*- C++ -*----------------------------------*\
| =========                 |                                                 |
| \\      /  F ield         | OpenFOAM: The Open Source CFD Toolbox           |
|  \\    /   O peration     | Version:  3.0.1                                 |
|   \\  /    A nd           | Web:      www.OpenFOAM.org                      |
|    \\/     M anipulation  |                                                 |
\*---------------------------------------------------------------------------*/
FoamFile
{
    version     2.0;
    format      ascii;
    class       volScalarField;
    location    "4.9";
    object      epsilon_0;
}
// * * * * * * * * * * * * * * * * * * * * * * * * * * * * * * * * * * * * * //

dimensions      [0 2 -3 0 0 0 0];

internalField   nonuniform List<scalar> 
15984
(
0.000271730466599
0.000340905675093
0.000375990397766
0.000384539913205
0.000383390250372
0.00038505325236
0.000391962499402
0.000398797774545
0.000400472439743
0.000395623865717
0.000390813023577
0.000383801782561
0.000376869533973
0.000371401291787
0.000367517519147
0.000364929706512
0.000363250566992
0.000362191774997
0.000361523153712
0.000361119779864
0.000360910365096
0.000360790717151
0.000360718258266
0.00036066954203
0.000360639487585
0.000360629425017
0.000360628362845
0.00036062886202
0.000360649810771
0.000360699409125
0.000360759746155
0.000360774413065
0.000360695734314
0.000360515499951
0.000359981816177
0.000358345077621
0.000353617475932
0.00034118624104
0.000311833447043
0.000255016542107
0.000440866139812
0.000726224111258
0.000852777909806
0.000876944004451
0.000874488160622
0.000882908029829
0.000918854858266
0.000976418679057
0.00102634988788
0.00104347005637
0.00102659204107
0.00100226294285
0.00097928300201
0.000961792315068
0.000950139170863
0.000942814225296
0.000938265988566
0.000935454638541
0.0009336899257
0.000932582844569
0.000931978054131
0.000931648345445
0.00093144140466
0.000931315901096
0.000931257038356
0.000931277425296
0.000931332816841
0.000931379731536
0.000931485618921
0.00093172240783
0.000931969956239
0.000931931888581
0.000931290010574
0.000929681104146
0.00092519460987
0.000912709254195
0.000881081444848
0.000808855626956
0.000659208288192
0.000387950254939
0.000529746025653
0.00100913595731
0.00121515286661
0.00125708176219
0.0012577412941
0.001276404603
0.00134154540315
0.00144946689483
0.0015507306214
0.00159622213239
0.00158385760322
0.00154383556603
0.00150613354899
0.00147767767401
0.00145889855493
0.00144737440527
0.00144044236613
0.00143627003747
0.00143369993634
0.00143211227403
0.00143117275441
0.00143065232539
0.00143030897412
0.00143009571093
0.00143001349903
0.00143005971938
0.00143016956085
0.00143028853224
0.00143053862023
0.00143094480291
0.00143132646316
0.00143114095983
0.00142976157708
0.00142604285485
0.00141622631502
0.00139054697382
0.00132923392978
0.00119662121347
0.000933108768127
0.000454458254006
0.000579486235607
0.00117587609808
0.00142319939236
0.00146830833646
0.00146891343004
0.00149856900413
0.00159384170744
0.001757776154
0.00192250583733
0.00201094311821
0.00201180328531
0.00196866902354
0.00191890514183
0.0018808549288
0.00185568291344
0.00184030769566
0.00183126242397
0.00182596240503
0.0018227923721
0.00182086529223
0.00181970112051
0.0018190094909
0.00181855834654
0.00181825005435
0.00181815091864
0.00181822117473
0.00181844842477
0.0018186623438
0.00181900568365
0.00181955654187
0.00181999705611
0.00181959497812
0.00181737973424
0.00181135848768
0.00179577420938
0.00175690076871
0.00166791476654
0.00148265187101
0.00112611590966
0.000490794950829
0.000608152608887
0.00125529906673
0.00150856034362
0.00158200760267
0.00160355504244
0.00164815759279
0.00176150894277
0.00194196728798
0.00217241711411
0.00231798931305
0.00234125700611
0.00229859982917
0.00224100705714
0.00219426651792
0.00216312455157
0.00214412516263
0.00213311768502
0.00212684589603
0.00212321418945
0.00212105209829
0.0021197297507
0.00211892288247
0.00211839810899
0.00211802819096
0.00211791609909
0.00211800926285
0.00211837320616
0.00211865058881
0.00211908155192
0.00211972891678
0.00212018351899
0.00211951897897
0.00211642206205
0.00210807830272
0.00208680523665
0.00203555949775
0.00192191381811
0.00169218955389
0.00126167859044
0.000512036478665
0.000623588566223
0.00127568424566
0.00154617171868
0.00164883330437
0.00167604817031
0.00173204333243
0.0018712703494
0.0020877869271
0.00233192341468
0.00254069113136
0.00259152829988
0.00255259398437
0.0024891151662
0.00243477523046
0.00239802750863
0.00237577198073
0.00236298007371
0.00235588287132
0.00235191856457
0.00234961048996
0.00234818007436
0.00234729723014
0.0023467349121
0.00234634667514
0.00234623101197
0.00234635214167
0.0023468088794
0.00234714414517
0.00234764631687
0.00234836260682
0.00234880145256
0.00234785628197
0.00234389552127
0.00233334402006
0.00230685666636
0.00224462292335
0.0021099312473
0.00184388163436
0.00135608829603
0.000524880988599
0.000630414409141
0.00126305259187
0.00155949282776
0.00166671061891
0.0016916340652
0.00175693446122
0.00192370130447
0.00217837609127
0.00244831359608
0.00269746799868
0.00277598434604
0.00274253442011
0.00267484983373
0.00261409883998
0.00257246567134
0.00254734072075
0.00253306767201
0.00252529985039
0.00252109800001
0.00251872489511
0.00251722861226
0.00251629628803
0.00251572651244
0.00251535131354
0.00251523903579
0.00251538000029
0.00251589706804
0.00251627994221
0.00251683914278
0.0025176022736
0.00251800861775
0.0025167931092
0.0025120506525
0.00249954997278
0.0024686022543
0.00239717340427
0.00224542113001
0.00195094719556
0.00142037269651
0.000532663976964
0.000632694399882
0.00123972390015
0.00155114716116
0.0016553628438
0.00167333141159
0.00174596819049
0.00193916295041
0.00222920922609
0.00253426362669
0.00280310535668
0.00290500124579
0.00287709766812
0.00280643781011
0.00274092467942
0.00269543024428
0.00266796328571
0.00265259787903
0.00264431610802
0.00263996908488
0.00263756788931
0.00263603747287
0.00263508184674
0.00263452105052
0.0026341724604
0.00263406254937
0.00263421382405
0.00263476633837
0.00263518786889
0.002635787322
0.00263658223861
0.00263694951411
0.00263550156645
0.00263011577438
0.0026160461903
0.00258158479097
0.00250305508826
0.00233842710502
0.0020230887941
0.00146230306918
0.000537257841723
0.000633443330967
0.00122089228912
0.00153674473927
0.00163621756901
0.00164552826399
0.00172324893963
0.00193857278449
0.00225525574742
0.002586572864
0.00286853650953
0.0029866157974
0.00296293709016
0.00289045108206
0.00282172976519
0.00277359826136
0.00274451615098
0.00272838531712
0.00271978386692
0.00271536170445
0.0027129551586
0.00271141219739
0.0027104486824
0.00270989977852
0.00270957315604
0.00270946455869
0.00270962247129
0.00271019097879
0.00271063821382
0.00271126481737
0.002712077301
0.00271240993165
0.00271079100304
0.00270494733555
0.00268978100398
0.00265290003885
0.00256955070214
0.00239632095387
0.00206732235481
0.00148732881722
0.000539784674274
0.000633875086054
0.00121176772224
0.00152740673161
0.00162347179928
0.00162591464388
0.00170630345873
0.00193564907814
0.00226661041533
0.00261143265698
0.00290032694165
0.00302628044922
0.00300469336025
0.00293128906341
0.00286095674422
0.00281150601027
0.00278161750207
0.00276508198593
0.00275633638224
0.00275188547217
0.00274948072599
0.00274793172374
0.0027469661416
0.0027464229619
0.00274610629585
0.00274599739798
0.00274615920727
0.00274673198007
0.00274719194091
0.0027478314416
0.00274865110738
0.00274896080292
0.00274724917172
0.00274116641345
0.00272543663395
0.0026873255669
0.00260154644959
0.00242401838531
0.00208827498715
0.00149896931585
0.00054089651567
0.000634002866222
0.00121219999125
0.00152783729296
0.0016239122417
0.0016264715039
0.00170681191734
0.00193597961317
0.00226687952204
0.00261165453625
0.00290061202956
0.00302631372486
0.00300460184021
0.00293118551885
0.00286088338608
0.00281145600642
0.00278158515765
0.00276506250147
0.00275632220451
0.00275187132883
0.00274946496105
0.00274791355101
0.00274694343619
0.00274639680281
0.00274607685436
0.00274596529499
0.00274612609454
0.00274669833643
0.0027471578224
0.00274779578775
0.0027486111582
0.00274891542132
0.00274719880244
0.00274111323526
0.00272538435742
0.00268727942917
0.00260150955807
0.00242399204473
0.00208825873555
0.00149896154498
0.000540895366027
0.000633787298085
0.00122212417067
0.00153795375964
0.00163744518167
0.00164693780898
0.00172453650222
0.00193952640618
0.0022560487209
0.00258722546323
0.00286936417659
0.00298671734013
0.00296268182947
0.00289015626488
0.0028215112358
0.0027734509843
0.00274441767174
0.00272832343465
0.00271974053842
0.00271532090001
0.00271290967938
0.00271135916445
0.00271038356791
0.0027098244717
0.00270948882085
0.00270937295724
0.00270952771537
0.00271009500909
0.00271054103448
0.00271116325164
0.00271196417488
0.00271228151917
0.00271064821998
0.00270479653373
0.00268963258637
0.00265276811991
0.00256944566512
0.00239624584758
0.00206727584176
0.00148730647822
0.000539781293016
0.000633169078121
0.00124169093946
0.00155307247951
0.00165733898471
0.00167543822918
0.0017478847373
0.00194070555134
0.00223047557604
0.00253525184733
0.00280429337267
0.00290508037156
0.00287665918167
0.00280596037706
0.00274057171752
0.00269519740907
0.00266780229949
0.00265249529545
0.00264424177768
0.00263990300464
0.00263749460949
0.00263595180466
0.00263498239177
0.00263440718449
0.00263404550319
0.002633924769
0.00263407114023
0.00263462240981
0.00263504283072
0.00263563499185
0.00263641253992
0.00263675744509
0.00263528780444
0.00262989037856
0.00261582408329
0.00258138686672
0.00250289690279
0.00233831346676
0.00202301786993
0.00146226840508
0.000537252166677
0.000630901185814
0.00126553338776
0.00156197183884
0.00166929231056
0.00169432139833
0.0017593762063
0.00192571920861
0.00218000634242
0.00244961534173
0.00269873258518
0.00277591204092
0.00274189418585
0.00267422087638
0.00261363199566
0.00257215621312
0.00254713133328
0.00253293612364
0.0025251996814
0.00252100952371
0.00251863137004
0.00251712100305
0.00251617565513
0.00251559048571
0.00251520015013
0.00251507541099
0.00251521050098
0.00251572698109
0.00251610879498
0.00251665795114
0.00251740175413
0.00251778229723
0.00251654121484
0.0025117847316
0.00249928794139
0.00246836878102
0.00239698487446
0.00224528456202
0.00195086092689
0.00142032954353
0.000532656257349
0.000623971987433
0.00127830519154
0.00154909401514
0.00165177798657
0.0016790726684
0.00173477373549
0.001873555223
0.00208963944012
0.00233447356798
0.00254171343223
0.00259118313218
0.00255175357183
0.00248835333113
0.00243422254708
0.00239766031472
0.00237554474845
0.00236282612281
0.00235576410794
0.00235181435117
0.00234950387849
0.00234806691035
0.00234717350783
0.0023465969172
0.00234619302735
0.00234606503146
0.00234618110221
0.00234663905832
0.00234697315708
0.00234746499707
0.00234816050946
0.00234857330958
0.00234760386093
0.00234362974969
0.0023330817819
0.00230662383631
0.00224443126776
0.00210979033797
0.00184379122678
0.00135604195701
0.000524871681246
0.000608347311456
0.00125765902568
0.00151259341945
0.00158524954932
0.00160684131021
0.00165107754003
0.00176398700638
0.00194381407679
0.00217447279957
0.00231850641694
0.00234058769334
0.00229760964715
0.00224016556908
0.00219367055749
0.00216273405393
0.00214389727715
0.00213295739281
0.0021267228111
0.00212311025459
0.00212094969767
0.00211962631045
0.00211881304299
0.00211827718998
0.00211789274127
0.00211776993587
0.00211785822278
0.00211822993728
0.00211850646584
0.00211892761565
0.00211955533851
0.00211998731972
0.00211930232883
0.00211619425493
0.00210785396565
0.00208660566049
0.00203539075121
0.00192178686517
0.00169210662406
0.00126163491515
0.000512026535613
0.000579468943143
0.00117764927261
0.00142654361943
0.00147246936357
0.00147315984434
0.00150231489771
0.00159725784019
0.00176025454769
0.00192378380496
0.00201089139545
0.0020108945361
0.00196764567433
0.00191807195244
0.00188027234369
0.00185533983919
0.00184009749591
0.00183111882948
0.00182585594902
0.00182270194954
0.00182078052837
0.00181962000173
0.00181892624807
0.00181846858013
0.00181814795831
0.00181804113676
0.00181810761039
0.00181834835169
0.00181856204124
0.00181889931699
0.00181943520652
0.0018198586763
0.00181944184093
0.00181721889381
0.00181120011791
0.0017956275577
0.00175677441801
0.00166781644359
0.00148258615308
0.00112608059037
0.00049078583418
0.000529560680569
0.00101018497905
0.00121746610545
0.00126011400132
0.00126103005984
0.00127932364763
0.00134391723076
0.00145102081707
0.00155125361885
0.00159576805694
0.00158289823272
0.00154288921561
0.00150541040815
0.00147721206184
0.00145861229375
0.00144720583547
0.00144033107605
0.00143619087268
0.00143363666815
0.00143205504206
0.00143112181138
0.00143060181602
0.00143025542729
0.00143003492435
0.00142994800004
0.0014299918935
0.00143010539037
0.00143023682442
0.00143048546337
0.00143088477841
0.00143125611244
0.00143106300131
0.0014296798719
0.00142595791682
0.0014161413709
0.00139047129257
0.00132917260878
0.00119657908301
0.000933086484585
0.000454452654093
0.000440628394245
0.000726589090774
0.000853989182311
0.000878672475471
0.000876445435788
0.00088459898483
0.000920114726707
0.000977102405037
0.00102637606141
0.00104294948658
0.00102588407963
0.00100158638841
0.000978795173194
0.0009614840145
0.000949953575274
0.000942700332426
0.00093819318804
0.000935406364723
0.0009336514985
0.000932551177065
0.000931953478552
0.000931625843452
0.000931418660592
0.000931292679475
0.000931232758772
0.000931251807864
0.000931308780234
0.000931356882871
0.000931470283151
0.000931706759434
0.000931953060416
0.000931913132746
0.000931268259898
0.000929651365406
0.000925164782179
0.000912682211235
0.000881057538816
0.000808838898889
0.000659201375974
0.000387950797959
0.000271629105013
0.000340872556444
0.000376192873253
0.00038493901568
0.000383905142834
0.000385452144129
0.000392195746872
0.000398836934479
0.000400329488158
0.000395373162743
0.000390517326122
0.000383551876627
0.000376694014811
0.00037128920368
0.000367449601985
0.000364888084408
0.000363227253835
0.000362179047488
0.000361515323333
0.000361119100576
0.000360911720973
0.000360794176257
0.000360723085553
0.000360674956744
0.000360644864185
0.000360634402753
0.000360634190361
0.000360634489141
0.000360655948565
0.000360701996388
0.000360760098844
0.000360773736564
0.000360699446598
0.000360524070582
0.000359990012148
0.000358353571982
0.000353624134352
0.000341192858081
0.000311842751257
0.000255026569886
0.000405855011693
0.000666031651438
0.000799212719612
0.000840396565403
0.000848234236948
0.000859132385193
0.000889570877828
0.000934378978418
0.000973610303495
0.000991151164608
0.000988322682399
0.000975826899338
0.000964516450597
0.000955018478974
0.000947137646788
0.000941441567333
0.000937607366587
0.000935135580632
0.000933563465657
0.00093256205659
0.000931992380847
0.000931657836023
0.000931439287381
0.000931289078463
0.000931225055865
0.000931269006771
0.000931369765332
0.000931457768864
0.000931595336073
0.000931796207397
0.000931973477987
0.000931934285472
0.000931394597113
0.00092981938013
0.000925278932593
0.000912736472799
0.000881052968281
0.000808779861193
0.000659152641175
0.000388001802976
0.000536561117322
0.000757790395749
0.000880898342703
0.000924683922222
0.000936629480775
0.00094877437414
0.000976959635814
0.00101900724063
0.00105766771722
0.00107722682703
0.00107690496605
0.00106715942748
0.00105619571808
0.00104754084681
0.00104129240949
0.00103715020706
0.00103451349376
0.00103287128186
0.0010318472996
0.00103120410703
0.00103081370196
0.00103058231327
0.00103043149212
0.00103033657103
0.00103030058716
0.00103032567525
0.00103037869174
0.00103042304239
0.00103050077889
0.00103061578398
0.00103070591576
0.00103059635859
0.00103002232535
0.00102836543542
0.00102360018044
0.00101047694034
0.00097767619867
0.000904171590805
0.000757895191474
0.000525657762671
0.000696473088659
0.000906518682218
0.00104144502135
0.00109044354276
0.00110488837822
0.00112231051019
0.00116185017262
0.00122187121351
0.00128024010555
0.00131421359544
0.00132037228008
0.00131101959526
0.00129801069778
0.00128721153891
0.00127958619501
0.00127467489605
0.00127164286536
0.00126980449475
0.00126868584061
0.00126799864476
0.00126757942201
0.00126733190505
0.00126717401982
0.00126708022035
0.00126704878435
0.00126707175337
0.0012671220109
0.00126717364919
0.00126725693097
0.00126737774988
0.0012674534197
0.00126725877604
0.00126640297046
0.00126391026299
0.00125694160176
0.00123854533036
0.0011945202822
0.0011000316992
0.000920954232248
0.000671069863892
0.000792272290859
0.00101589312388
0.00116442864393
0.00122137012514
0.00124074318579
0.00126485764154
0.00131570683137
0.00139368073196
0.00147270848762
0.00152247037135
0.00153548463429
0.00152672611941
0.00151146014995
0.00149815860989
0.0014888363741
0.00148292679268
0.00147936572563
0.00147726299704
0.00147601710264
0.00147526699171
0.00147480988049
0.00147453437234
0.00147436179332
0.00147425905152
0.00147422806791
0.00147425096586
0.00147431624219
0.00147438000659
0.00147447419214
0.0014746085253
0.00147466656578
0.00147436341422
0.00147315127776
0.00146964421565
0.00146008940993
0.00143579601545
0.00137975407625
0.00126359059372
0.00105033837958
0.000758143047999
0.000849334691177
0.00108394118115
0.00124450052723
0.00131919343477
0.0013487989292
0.00138043774713
0.00144053528146
0.00152674490044
0.00162211045947
0.0016884693939
0.00170908329394
0.00170114613781
0.00168390285432
0.00166805942119
0.00165697539874
0.00165002823064
0.00164592318745
0.00164356198105
0.00164220152627
0.00164139909762
0.00164091119107
0.00164061404636
0.00164042968856
0.00164031977572
0.00164028781677
0.00164031150724
0.00164039821044
0.00164047130754
0.00164057809428
0.00164072045565
0.00164075363402
0.00164032596792
0.00163872508782
0.00163415586119
0.00162197360781
0.00159192069135
0.00152458131735
0.00138874748886
0.0011451464358
0.000813302923505
0.000880963480379
0.00111951289077
0.00129637181119
0.00138783654928
0.00142530635173
0.00146426444612
0.00153490353651
0.00163204731093
0.00173267426369
0.00181463102976
0.00184326146955
0.00183655229553
0.00181752069574
0.0017994055214
0.00178661526445
0.00177867442318
0.00177405097881
0.00177145367975
0.00176999878974
0.00176915824109
0.00176864788465
0.00176833653591
0.00176814663671
0.00176803565734
0.00176800361939
0.00176802930208
0.00176813161759
0.00176821340921
0.00176833035411
0.00176847591629
0.00176847912465
0.00176792186677
0.0017659344481
0.00176034292248
0.00174570939596
0.00171044073213
0.00163319275094
0.00148065465195
0.0012121242873
0.000849099142867
0.000895905504209
0.00113310134244
0.00132553275081
0.00142797366868
0.00147029829131
0.00151604699159
0.00159814885389
0.00170754172876
0.00181493604379
0.00190661238136
0.00194277104827
0.00193758183577
0.00191713077546
0.00189706082276
0.0018827490285
0.00187391345247
0.00186883604069
0.00186603546036
0.00186450536314
0.00186364025663
0.00186311492575
0.00186279501048
0.00186260544162
0.0018624985689
0.00186246741789
0.00186249430538
0.00186260597584
0.001862695
0.00186281924778
0.00186296462635
0.00186293645331
0.00186225636186
0.00185991629952
0.00185341637445
0.00183666265924
0.00179698371926
0.00171157613983
0.00154566709232
0.00125787740548
0.000872224184796
0.000901344559245
0.0011346895249
0.00133716089363
0.00144556026865
0.00148954862547
0.00154114376553
0.0016349868956
0.00175690712236
0.00187325931945
0.00197009959572
0.00201247762224
0.00200879488609
0.00198731603412
0.00196571898658
0.00195018303955
0.00194061299183
0.00193517660817
0.0019322149228
0.00193063002369
0.00192974900954
0.00192921459805
0.00192889104229
0.00192870476266
0.00192860412823
0.00192857347554
0.00192860025584
0.00192871654233
0.00192881113494
0.00192894010599
0.00192908355151
0.00192902647284
0.00192824174933
0.00192561045492
0.00191837632193
0.00189994338188
0.00185683560379
0.0017652123033
0.00158935461687
0.00128768947047
0.000886692136835
0.000902674219316
0.00113221150712
0.00133909215632
0.00144961500396
0.0014932973739
0.00154915303076
0.00165301311801
0.00178551509758
0.00190957969604
0.00200978668013
0.00205652449358
0.00205400211893
0.00203186501887
0.00200921741566
0.00199283368775
0.00198274810788
0.00197705943858
0.00197398897344
0.00197236889007
0.00197147858857
0.00197093913013
0.00197061474458
0.00197043163908
0.00197033578545
0.00197030507718
0.00197033145293
0.00197044913436
0.00197054734544
0.0019706791981
0.00197082001033
0.00197074033143
0.00196987902095
0.00196704008909
0.00195929137243
0.001939698553
0.00189425404478
0.00179845604359
0.0016160336075
0.00130544283718
0.000895053059862
0.000902878050367
0.00113017216816
0.00133822657248
0.00144903770323
0.00149166682071
0.00154981026387
0.00165991705193
0.00179849291361
0.00192694049664
0.00202895167407
0.00207785663254
0.00207591420101
0.00205344057523
0.00203025660688
0.00201344560153
0.00200309814599
0.00199727857577
0.00199415437288
0.0019925170589
0.00199162210948
0.00199107959512
0.00199075461807
0.0019905725193
0.00199047835175
0.00199044705761
0.00199047315108
0.00199059081876
0.00199069084181
0.00199082389897
0.00199096247416
0.00199086946799
0.00198996680659
0.00198701938601
0.00197900595792
0.00195882240236
0.00191219705265
0.00181430724771
0.00162863033676
0.00131368545217
0.000898860455961
0.000903020496407
0.00113036961371
0.00133841957235
0.00144924328468
0.00149188587827
0.00154999254656
0.0016600188879
0.00179853633598
0.00192696210945
0.00202900159978
0.00207784922102
0.00207587619925
0.00205340231488
0.00203023003972
0.00201342712906
0.00200308513022
0.00199726918785
0.00199414657134
0.00199250928011
0.00199161353238
0.00199106962614
0.00199074273806
0.00199055881448
0.00199046304513
0.00199043060255
0.00199045619378
0.00199057377188
0.00199067376116
0.00199080629278
0.00199094333925
0.00199084818268
0.00198994342737
0.00198699482742
0.00197898177452
0.00195880065746
0.00191217930088
0.0018142943336
0.00162862202116
0.00131368071748
0.000898856939369
0.000903066462117
0.00113277456137
0.00133962436648
0.00145016416159
0.00149385121414
0.00154961290828
0.00165329861052
0.00178565294124
0.00190966271387
0.00200994112679
0.00205650863414
0.00205389556981
0.00203175568822
0.00200913801185
0.00199277886477
0.00198270929715
0.00197703134078
0.00197396581171
0.00197234614808
0.00197145359419
0.00197091008221
0.00197058040445
0.00197039210612
0.00197029170375
0.00197025768523
0.00197028261194
0.00197040010339
0.00197049828492
0.00197062867119
0.00197076522581
0.00197067949011
0.00196981221055
0.00196696991517
0.00195922221253
0.00193963622767
0.00189420306829
0.00179841886244
0.00161600958324
0.00130542910758
0.000895042859169
0.000901912269564
0.00113557043463
0.00133796012609
0.00144631026908
0.00149025034433
0.00154171893341
0.00163536925061
0.0017571240485
0.00187341166759
0.00197032813395
0.00201243770533
0.0020086199748
0.0019871411018
0.00196559070509
0.00195009510181
0.00194055039481
0.00193513110107
0.00193217714423
0.00193059355938
0.00192970927844
0.00192916880069
0.00192883794215
0.00192864404656
0.00192853661139
0.00192850100874
0.00192852556588
0.00192864172542
0.00192873640093
0.00192886310183
0.00192900017698
0.00192893411333
0.00192814041682
0.00192550407998
0.00191827137274
0.00189984854849
0.00185675773669
0.0017651550868
0.00158931734125
0.0012876679365
0.000886675985834
0.000896536254318
0.00113419942553
0.00132652371762
0.0014288188284
0.0014710606851
0.0015166626609
0.00159858650555
0.00170784237375
0.00181520764588
0.00190686532484
0.00194268199374
0.00193733882659
0.00191689940669
0.00189689097899
0.0018826326689
0.00187383174025
0.00186877645668
0.00186598535752
0.00186445744818
0.00186358906747
0.00186305695097
0.00186272897858
0.00186253062347
0.00186241564076
0.00186237858332
0.00186240287085
0.00186251469856
0.00186260390463
0.00186272533309
0.001862863242
0.00186282450467
0.00186213376985
0.00185978763653
0.00185328930703
0.00183654749532
0.0017968883028
0.00171150525706
0.00154562031899
0.00125785000163
0.000872203394615
0.000881536981049
0.00112069386025
0.00129754429163
0.00138882235451
0.00142617179641
0.00146497492146
0.00153545807545
0.00163247197722
0.00173324764715
0.00181485256575
0.00184310010005
0.00183624686571
0.00181724562895
0.00179920448176
0.00178647800294
0.00177858101716
0.00177398133424
0.00177139485262
0.0017699431186
0.00176909997052
0.00176858394046
0.0017682649468
0.00176806626559
0.00176794682494
0.00176790862176
0.00176793181016
0.0017680349062
0.00176811698495
0.00176823108254
0.00176836887502
0.00176836130865
0.001767793361
0.00176579977196
0.00176020972605
0.00174558835042
0.00171033891471
0.00163311583034
0.0014806030012
0.00121209359186
0.000849076140058
0.000849755583611
0.00108507252556
0.00124597374208
0.00132038265715
0.00134985693132
0.00138132698242
0.00144127920191
0.00152730828259
0.00162267940852
0.00168859359774
0.00170883971184
0.00170079339811
0.00168360073959
0.00166784103203
0.00165682822959
0.0016499301542
0.00164584924798
0.00164349986159
0.00164214369885
0.0016413398392
0.00164084788766
0.00164054446799
0.00164035234536
0.0016402345202
0.00164019678701
0.00164021815001
0.00164030696265
0.00164038056549
0.00164048485117
0.00164062010961
0.0016406436138
0.00164020646816
0.00163860009197
0.00163403212187
0.00162186022222
0.00159182352975
0.00152450619834
0.0013886959277
0.00114511540816
0.000813281207747
0.000792499042562
0.00101686181633
0.00116587555057
0.00122289919358
0.00124210258973
0.00126603248275
0.00131681005973
0.00139450160614
0.00147316632982
0.00152246807353
0.00153517267311
0.0015263519391
0.00151115765449
0.00149794001912
0.00148869401928
0.00148283134051
0.00147929446705
0.00147720410561
0.00147596277797
0.00147521254263
0.00147475321655
0.00147447329238
0.00147429475211
0.00147418537471
0.00147414965894
0.00147417059092
0.00147423895623
0.00147430355017
0.00147439607839
0.00147452493822
0.00147457537731
0.00147426485373
0.00147304851476
0.00146954232131
0.00145999417298
0.0014357129044
0.00137968792156
0.00126354402289
0.00105031026592
0.000758127102196
0.000696526969288
0.000907271259419
0.00104272026218
0.00109191515964
0.0011063856199
0.00112363221036
0.00116293036603
0.00122260363936
0.00128054356339
0.00131409695521
0.00132002401773
0.00131065112489
0.00129771933549
0.00128701178785
0.00127945561812
0.00127458831759
0.00127157954709
0.0012697534565
0.00126863976253
0.0012679533605
0.00126753365875
0.00126728371464
0.00126712209391
0.00126702371044
0.00126698891021
0.00126701031103
0.0012670622331
0.0012671163531
0.00126719884664
0.00126731640458
0.00126738703789
0.00126718765593
0.00126632931199
0.00126383675911
0.00125687140015
0.00123848276694
0.00119446892098
0.00109999475698
0.000920932469268
0.000671063516614
0.000536506810092
0.000758342419414
0.000881986756621
0.000926039418668
0.00093808280425
0.000950049294607
0.000977940264374
0.00101960305336
0.00105783088468
0.00107703057628
0.00107655132548
0.0010668146437
0.00105593190816
0.00104736275156
0.00104117615911
0.00103707283836
0.00103445881699
0.00103282929406
0.00103181017901
0.00103116874314
0.00103077935505
0.00103054721813
0.00103039472834
0.00103029761285
0.00103025992875
0.00103028367014
0.00103033730758
0.00103038290563
0.00103046093047
0.00103057444709
0.00103066209499
0.00103055028746
0.00102997527095
0.00102831953865
0.0010235564106
0.00101043751166
0.000977642730308
0.000904147587896
0.000757882135813
0.000525655282547
0.000405756468391
0.000666482572271
0.000800255382324
0.000841815665748
0.000849849565139
0.000860524862266
0.000890577593775
0.000934909577872
0.000973628841945
0.000990787853289
0.000987810712468
0.000975359994798
0.000964155816372
0.000954772449668
0.000946976945107
0.000941338247734
0.000937541869688
0.000935091230742
0.000933527000244
0.000932526539952
0.000931956572507
0.000931619172138
0.000931398065292
0.000931245126811
0.000931179135001
0.000931221791558
0.000931321390542
0.000931409432795
0.00093154853359
0.00093174915638
0.000931924739905
0.000931883774717
0.000931345914171
0.000929778568912
0.000925242657392
0.000912704013976
0.000881023585997
0.000808760109137
0.000659145232523
0.000388004352877
0.000471865040957
0.000906633605972
0.00113082458669
0.00120865563816
0.00123156481554
0.00125334452894
0.00130193747576
0.00137632875947
0.00144787586753
0.00148911401393
0.00149725555114
0.00148664997172
0.00147104456012
0.00145977367997
0.00145020380053
0.00144300065357
0.00143807133853
0.00143489277124
0.00143288753262
0.00143163204167
0.00143091727066
0.00143049353866
0.00143022040116
0.00143003917797
0.00142997048656
0.00143005446328
0.00143021127066
0.00143034349615
0.00143053697149
0.00143080904448
0.00143103091103
0.00143085340523
0.00142968945722
0.00142620395011
0.00141639893546
0.00139067194879
0.00132929913899
0.00119663972061
0.000933190497371
0.000454698535539
0.000668360782096
0.000907561099738
0.00106486771941
0.00113096703697
0.00115449259118
0.00117243361396
0.0012043484475
0.00124923568208
0.00128995840116
0.00131114053886
0.00131234021701
0.00130321755965
0.00129231666144
0.00128399916147
0.00127792106846
0.00127382694829
0.00127120533391
0.0012695759354
0.0012685633747
0.00126792850389
0.00126754079512
0.00126730838847
0.00126715370016
0.00126704401861
0.0012670051247
0.00126704572076
0.00126712067533
0.00126717806046
0.00126726564956
0.00126739033463
0.0012674729054
0.00126728290671
0.00126642963074
0.0012639372717
0.00125693736381
0.00123849768658
0.00119442493597
0.0010999000994
0.000920858114758
0.000671331830494
0.000890968696714
0.00103632460962
0.0011759144516
0.00123875264023
0.00126324283671
0.00128462943746
0.00132275546143
0.00137690171274
0.00142940796319
0.00146141607301
0.00146958025178
0.001463574843
0.00145345987536
0.00144464678425
0.001438296549
0.00143415052041
0.00143158028395
0.00143002937509
0.001429094983
0.00142852462073
0.0014281785985
0.00142797417571
0.00142784189308
0.00142775143567