/*--------------------------------*- C++ -*----------------------------------*\
| =========                 |                                                 |
| \\      /  F ield         | OpenFOAM: The Open Source CFD Toolbox           |
|  \\    /   O peration     | Version:  3.0.1                                 |
|   \\  /    A nd           | Web:      www.OpenFOAM.org                      |
|    \\/     M anipulation  |                                                 |
\*---------------------------------------------------------------------------*/
FoamFile
{
    version     2.0;
    format      ascii;
    class       volScalarField;
    location    "0.2";
    object      ddt0(k);
}
// * * * * * * * * * * * * * * * * * * * * * * * * * * * * * * * * * * * * * //

dimensions      [0 2 -3 0 0 0 0];

internalField   nonuniform List<scalar> 
7968
(
-0.162547897572
-0.161764386239
-0.161452341314
-0.161389473664
-0.161379409803
-0.161376788558
-0.161376086579
-0.161376314569
-0.161376980983
-0.161377530338
-0.161377498919
-0.161376968719
-0.161376357005
-0.161376202294
-0.1613769811
-0.161379563135
-0.161389811997
-0.161452670322
-0.161764195903
-0.162547671891
-0.161764483413
-0.156136939155
-0.153277903625
-0.152536473022
-0.152416801892
-0.152400412758
-0.152397158053
-0.152395045123
-0.152393229255
-0.152391932231
-0.152391851517
-0.152393065874
-0.152394868863
-0.152396788715
-0.152400346953
-0.152416702659
-0.152536759788
-0.153278177266
-0.156136728362
-0.161763873517
-0.161452514236
-0.153277777292
-0.148615274659
-0.147231476751
-0.146981909869
-0.146948695014
-0.146944804631
-0.146943094525
-0.146940481654
-0.146938433456
-0.146938360751
-0.146940296507
-0.146942799359
-0.146944435787
-0.146948431934
-0.146981705244
-0.147231431744
-0.148615323709
-0.153278043884
-0.161452329138
-0.1613896281
-0.152536529113
-0.147231557853
-0.145609217748
-0.145313735543
-0.145281400493
-0.145285233655
-0.145288873083
-0.145288158133
-0.145286234505
-0.145286152538
-0.145287894462
-0.145288422833
-0.145284773877
-0.145280965689
-0.145313368577
-0.145608968211
-0.147231414115
-0.152536283172
-0.161389695286
-0.161379494059
-0.152416742863
-0.146981878349
-0.14531370396
-0.145019287591
-0.145001574269
-0.14501948267
-0.145018841816
-0.14501819881
-0.145017704072
-0.145017714744
-0.145018123025
-0.145018846925
-0.145019256183
-0.145000888631
-0.14501874873
-0.145313378026
-0.14698175187
-0.152416800372
-0.161379669774
-0.161376920666
-0.152400300105
-0.146948615256
-0.145281321752
-0.145001525762
-0.144984064936
-0.144985656539
-0.144988904009
-0.144989523586
-0.144988935994
-0.144988937021
-0.144989465833
-0.144988848875
-0.144985590599
-0.144983998872
-0.145000741064
-0.145280817863
-0.14694844042
-0.152400494212
-0.161377046852
-0.161376188077
-0.152397060601
-0.146944688922
-0.145285135013
-0.145019878822
-0.1449856952
-0.144991540665
-0.144998779818
-0.145001560878
-0.145001810813
-0.145001796624
-0.145001420305
-0.144998591152
-0.144991330349
-0.144985509704
-0.145018102924
-0.145284392481
-0.146944312286
-0.15239691111
-0.161376373471
-0.161376336778
-0.152394916837
-0.146942990716
-0.145288750292
-0.145018909599
-0.144988976965
-0.144998830803
-0.145009729594
-0.145015429663
-0.145017418107
-0.145017358688
-0.145015149516
-0.145009352629
-0.144998465136
-0.144988693316
-0.145018700837
-0.145287765812
-0.146942385773
-0.152394625397
-0.161376663249
-0.161376970934
-0.152393067864
-0.146940432951
-0.145288111976
-0.145018244404
-0.144989614601
-0.145001659974
-0.145015535135
-0.145024090138
-0.145028319406
-0.145028173898
-0.145023628059
-0.145014980416
-0.145001183984
-0.144989277709
-0.145017964753
-0.145286874919
-0.146939688714
-0.152392742825
-0.161377345258
-0.161377541869
-0.152391832793
-0.146938439996
-0.145286259778
-0.145017739843
-0.144989069628
-0.145001988004
-0.145017578744
-0.145028533592
-0.145035249136
-0.145034928482
-0.145027819536
-0.145017002831
-0.145001481713
-0.14498872033
-0.14501772085
-0.14528489685
-0.146937625863
-0.152391521004
-0.161378026339
-0.161377544221
-0.152391804504
-0.146938416328
-0.145286253193
-0.145017763824
-0.144989088073
-0.145002011319
-0.145017616782
-0.145028546331
-0.145035206636
-0.145034890352
-0.145027838706
-0.145017078391
-0.145001554715
-0.144988775917
-0.145017745051
-0.145284964972
-0.146937670851
-0.15239153579
-0.161378220055
-0.161377054143
-0.152393058707
-0.146940396426
-0.145288088307
-0.145018222034
-0.14498963833
-0.145001686331
-0.145015523034
-0.145024033226
-0.145028215509
-0.145028081247
-0.145023667037
-0.145015030085
-0.145001263115
-0.144989365272
-0.145018062558
-0.145287008152
-0.146939814673
-0.152392866803
-0.161377846883
-0.161376508444
-0.152394915993
-0.146942930116
-0.145288646458
-0.145018969548
-0.144989021882
-0.144998857432
-0.145009707806
-0.145015377574
-0.145017366231
-0.145017350724
-0.145015158367
-0.145009414822
-0.144998581752
-0.144988827134
-0.145018872017
-0.145287963072
-0.146942651052
-0.152394965265
-0.161377409615
-0.161376359782
-0.15239686216
-0.146944572987
-0.145285016074
-0.145019694532
-0.144985732738
-0.144991553463
-0.144998759162
-0.145001536233
-0.14500177565
-0.145001818879
-0.145001441301
-0.144998657909
-0.144991450225
-0.144985683975
-0.145018398246
-0.145284750453
-0.146944701403
-0.152397378797
-0.161377333926
-0.161377133872
-0.152400409817
-0.146948569144
-0.145281193132
-0.145001324
-0.1449840929
-0.14498566268
-0.144988881619
-0.144989526333
-0.14498894267
-0.14498898004
-0.144989512401
-0.144988907586
-0.144985717357
-0.14498422177
-0.145001072202
-0.145281259775
-0.146948962911
-0.152401186051
-0.161378134598
-0.161379680515
-0.152416693157
-0.146981817565
-0.14531356128
-0.145019109532
-0.145001297553
-0.145019369984
-0.145018817011
-0.145018214031
-0.145017746367
-0.145017766566
-0.145018124032
-0.145018922197
-0.145019252679
-0.145001114307
-0.145019152066
-0.145313934472
-0.146982456567
-0.152417655961
-0.16138075322
-0.161389906669
-0.152536620435
-0.147231460671
-0.1456090232
-0.145313612738
-0.145281228525
-0.145284949589
-0.145288511098
-0.145287683754
-0.145285724512
-0.145285722754
-0.14528760804
-0.145288351158
-0.145284887258
-0.14528128569
-0.145313864772
-0.145609550123
-0.147232141656
-0.15253768106
-0.161390965997
-0.161452758659
-0.153278132031
-0.14861523888
-0.147231337104
-0.146981867342
-0.146948701387
-0.146944683845
-0.146942887788
-0.14694024217
-0.14693818779
-0.146938161701
-0.146940182029
-0.146942872539
-0.146944747413
-0.14694889503
-0.146982259342
-0.147232149892
-0.148615967759
-0.153278533329
-0.161453526347
-0.161764227792
-0.156136541868
-0.153277852947
-0.152536198473
-0.152416808468
-0.15240063396
-0.152397039961
-0.152394981604
-0.152393083482
-0.152391871014
-0.152391823445
-0.152393041989
-0.15239502185
-0.15239728557
-0.152400998196
-0.15241739584
-0.152537633436
-0.153278405927
-0.156137769338
-0.16176447248
-0.16254765734
-0.161763729253
-0.16145208714
-0.161389463888
-0.161379428599
-0.161376832651
-0.161376261959
-0.161376613506
-0.161377325571
-0.161378052734
-0.161378184216
-0.161377716544
-0.16137720091
-0.161377082964
-0.161377866532
-0.161380540541
-0.161390769242
-0.161453399352
-0.161764418752
-0.162547593488
-0.161770807025
-0.15618317379
-0.15333719584
-0.152598043764
-0.152479621807
-0.152464958731
-0.152463105775
-0.152463008901
-0.152463168553
-0.152463161343
-0.152463108303
-0.152463122659
-0.152462948301
-0.152463031189
-0.1524648814
-0.152479711007
-0.152598253371
-0.153337264108
-0.156182647094
-0.161770520375
-0.156183148224
-0.156047010236
-0.145659899543
-0.141874181186
-0.141082222923
-0.140982233363
-0.140987398107
-0.140999793157
-0.141008324042
-0.141012257797
-0.141012183316
-0.141007917693
-0.140999164499
-0.140986675848
-0.140981445924
-0.141081244463
-0.141873229688
-0.145659214701
-0.156046891522
-0.156182328028
-0.153337255489
-0.145659787769
-0.131309697425
-0.125663012795
-0.124292203023
-0.124067867611
-0.124047200024
-0.12405062374
-0.124053360481
-0.124054148308
-0.124054073326
-0.124053114392
-0.124050232913
-0.124046727397
-0.124067353938
-0.12429161844
-0.125662458932
-0.13130905419
-0.145658569267
-0.153337805358
-0.152598081986
-0.141874068445
-0.125662964231
-0.119141266365
-0.117500893284
-0.117221423969
-0.117192844705
-0.11719524103
-0.117196277003
-0.117195541324
-0.117195457176
-0.117195960955
-0.117194851693
-0.117192404297
-0.117220952362
-0.11750038319
-0.119140777631
-0.125662469008
-0.141873020184
-0.152598348986
-0.152479650625
-0.141081944401
-0.124292098886
-0.117500853319
-0.11578635374
-0.115501206858
-0.115480427329
-0.115497915498
-0.115504069745
-0.11550431615
-0.115504067337
-0.11550296473
-0.11549691297
-0.115480212278
-0.1155005675
-0.115785763338
-0.117500331029
-0.124291662238
-0.141081308363
-0.152479890677
-0.152464953448
-0.140982068317
-0.124067757055
-0.117221353293
-0.115501155471
-0.115240366276
-0.115254087948
-0.11528657284
-0.115299068211
-0.115299751765
-0.115299515053
-0.115298089764
-0.115285211363
-0.115252618323
-0.115238945739
-0.115500390009
-0.117220731224
-0.124067227185
-0.140981253429
-0.152465227297
-0.152463104778
-0.140987212964
-0.124047074605
-0.117192744542
-0.115480479216
-0.115254072978
-0.115292670097
-0.115339847753
-0.115357977142
-0.115359452351
-0.115359070122
-0.115356631682
-0.115337898536
-0.115290526341
-0.115252113251
-0.1154798916
-0.117191983948
-0.124046447693
-0.140986416606
-0.152463281577
-0.152462997754
-0.140999643034
-0.124050514753
-0.117195174348
-0.115497927391
-0.11528662088
-0.115339905204
-0.115395624661
-0.115416302779
-0.115417775285
-0.115417243147
-0.115414540768
-0.11539309156
-0.115337130771
-0.115284025615
-0.115495401196
-0.117194145667
-0.12404977837
-0.140998776179
-0.152463147829
-0.152463166152
-0.141008247707
-0.12405331568
-0.117196253171
-0.115504011594
-0.115299344165
-0.1153583965
-0.115416772981
-0.11543787475
-0.115439797952
-0.115439090434
-0.115435778785
-0.11541370781
-0.115355058238
-0.115296172229
-0.115500996601
-0.117195036071
-0.124052468279
-0.141007280218
-0.152463312721
-0.152463197964
-0.141012254113
-0.124054154489
-0.117195556198
-0.115504415511
-0.115300236077
-0.115360120534
-0.115418523037
-0.115439912172
-0.11544309155
-0.11544233723
-0.115437583144
-0.115415197626
-0.115356550293
-0.11529694786
-0.115501632713
-0.117194384029
-0.124053271157
-0.141011251407
-0.152463349307
-0.152463170996
-0.141012295814
-0.124054136899
-0.117195536318
-0.115504337243
-0.115300218272
-0.115360096427
-0.115418452082
-0.115439750361
-0.1154429218
-0.115442199161
-0.11543749555
-0.115415218391
-0.115356646924
-0.115297018768
-0.115501709843
-0.117194418099
-0.124053298539
-0.141011300899
-0.152463390276
-0.152463172424
-0.141008174673
-0.124053237088
-0.117196140616
-0.115503491968
-0.115299143228
-0.115358129503
-0.11541639116
-0.115437374468
-0.115439139747
-0.115438534237
-0.115435245832
-0.11541356973
-0.115355048981
-0.115296170346
-0.115501002201
-0.117195077674
-0.124052545664
-0.14100750791
-0.15246343493
-0.152463087407
-0.140999301772
-0.124050348937
-0.117195064982
-0.115497798009
-0.115286325346
-0.115339484806
-0.115395019533
-0.115415456779
-0.11541680247
-0.11541643151
-0.115413981553
-0.115392816335
-0.115337048139
-0.115284049735
-0.115495670243
-0.117194274988
-0.124049866418
-0.140998918998
-0.152463386797
-0.152463150949
-0.140986775653
-0.124046843048
-0.117192582101
-0.115480392084
-0.11525361785
-0.115292066106
-0.115339034963
-0.115356903388
-0.115358257944
-0.115358021567
-0.115355883257
-0.115337453484
-0.115290330306
-0.115252064142
-0.115479932281
-0.117192087259
-0.124046563549
-0.140986462365
-0.152463613513
-0.152465003448
-0.14098160358
-0.124067458823
-0.117221095938
-0.115500871444
-0.115239809466
-0.115253341945
-0.115285608946
-0.115297880102
-0.115298473313
-0.115298353926
-0.115297096461
-0.115284591482
-0.115252265739
-0.115238642507
-0.11550042015
-0.117220832637
-0.124067368927
-0.140981256074
-0.152465544582
-0.152479799879
-0.141081330285
-0.124291683766
-0.117500471998
-0.115785967402
-0.115500756906
-0.115480091869
-0.115496788918
-0.115503020409
-0.115503217235
-0.115503049827
-0.115501771891
-0.115496236198
-0.115479972676
-0.115500438876
-0.115785753133
-0.117500438445
-0.124291892175
-0.141081401843
-0.152480241775
-0.152598316421
-0.141873316091
-0.125662475218
-0.119140809626
-0.117500454689
-0.11722096728
-0.117192333955
-0.117194641203
-0.117195650992
-0.117194893712
-0.117194853732
-0.117195381503
-0.117194461395
-0.117192135214
-0.117220811195
-0.11750039064
-0.119140988558
-0.125662971142
-0.141874100771
-0.152598641188
-0.153337350904
-0.14565919151
-0.13130900195
-0.125662451096
-0.124291757344
-0.124067397056
-0.12404670947
-0.124050105274
-0.124052807249
-0.12405358236
-0.124053542421
-0.124052675038
-0.124049885458
-0.124046470796
-0.12406722308
-0.124291724888
-0.125662864
-0.131309984528
-0.145660382105
-0.153337374053
-0.15618273173
-0.156046829206
-0.145658449995
-0.141872919188
-0.141081502724
-0.140981413311
-0.140986718456
-0.140999067881
-0.141007554987
-0.141011493814
-0.141011454074
-0.141007414477
-0.140998662685
-0.140986128042
-0.140980927012
-0.141081147396
-0.141873634809
-0.145660112484
-0.156047093588
-0.156184111594
-0.161770528334
-0.156182161746
-0.153337764842
-0.152598270209
-0.15247980367
-0.152465151317
-0.152463262175
-0.152463210318
-0.152463361134
-0.152463396519
-0.152463389485
-0.152463384096
-0.152463286183
-0.152463463019
-0.152465343564
-0.152480115443
-0.152598555747
-0.153337352943
-0.156183799563
-0.161770732279
-0.161465194259
-0.153342267312
-0.148700573531
-0.147321149971
-0.147072207516
-0.147039378934
-0.147035620133
-0.147035340241
-0.147035162118
-0.147034981233
-0.14703496933
-0.147035125386
-0.147035276828
-0.147035593954
-0.147039372059
-0.147072241226
-0.147321250027
-0.148700625737
-0.153341876976
-0.161464949609
-0.153342202098
-0.14566991477
-0.131334207485
-0.125709144318
-0.124358441962
-0.124153731464
-0.124150405688
-0.1241677526
-0.124180128867
-0.124186082506
-0.124186155374
-0.124179562318
-0.124166863521
-0.124149639424
-0.124153117232
-0.124356780217
-0.125707776215
-0.131333397752
-0.145669679709
-0.153342047662
-0.148700659473
-0.131334022314
-0.112699891054
-0.10473654482
-0.102478243047
-0.102035328581
-0.101979475506
-0.101981157459
-0.101985886384
-0.101988103921
-0.101988045978
-0.101985627359
-0.101980708352
-0.101978977227
-0.102034753142
-0.102477487668
-0.10473589252
-0.112699410683
-0.131333964731
-0.148700372099
-0.147321174786
-0.12570886154
-0.104736463717
-0.0955326315021
-0.0927977505141
-0.0922282465461
-0.09214475871
-0.0921389531311
-0.092139691404
-0.0921396466539
-0.0921395920792
-0.0921394974348
-0.0921386894282
-0.0921444288353
-0.092227811511
-0.0927972281317
-0.0955321993049
-0.104736246388
-0.125709246932
-0.147320939258
-0.147072240725
-0.124358019192
-0.102478116356
-0.0927977170649
-0.0898923366392
-0.0892838102514
-0.0891829915941
-0.0891623068298
-0.0891567209293
-0.089156102869
-0.0891557802766
-0.0891556766986
-0.0891647126733
-0.0891871329649
-0.0892833282164
-0.0898918121226
-0.0927973001223
-0.102477944108
-0.124358601403
-0.147072081873
-0.147039418798
-0.124153628495
-0.102035224762
-0.0922282120077
-0.0892838267109
-0.0886404940054
-0.0884712805124
-0.0883947752365
-0.0883757252674
-0.0883736803487
-0.0883722259218
-0.088371212712
-0.0884018908729
-0.088492572628
-0.0886515258712
-0.0892831350903
-0.0922277060578
-0.10203488156
-0.124153092826
-0.147039204917
-0.147035639537
-0.124150266459
-0.101979379643
-0.0921447543408
-0.0891827511605
-0.0884686856299
-0.0881939665735
-0.0880574191504
-0.088025026019
-0.0880216944342
-0.0880183471782
-0.0880148206354
-0.0880658080629
-0.088235177989
-0.0885057397302
-0.0891855203752
-0.0921441064706
-0.101978946147
-0.124149808257
-0.147035456457
-0.147035341292
-0.12416760216
-0.101981071715
-0.0921389598379
-0.0891602956158
-0.088385468608
-0.0880452323035
-0.0878747932426
-0.0878353445857
-0.0878315386186
-0.0878267868607
-0.0878210459082
-0.0878821256135
-0.088094841876
-0.088441139551
-0.08917028798
-0.0921382136957
-0.101980611057
-0.124167353616
-0.147035200641
-0.14703518679
-0.124180118496
-0.101985895217
-0.0921397513446
-0.0891533566022
-0.0883592312141
-0.0879973700126
-0.0878152209628
-0.0877747515426
-0.0877718077426
-0.0877666266703
-0.0877591293783
-0.0878218343107
-0.0880486384436
-0.0884191547176
-0.0891663777704
-0.0921388818099
-0.101985324183
-0.124179713278
-0.147035072082
-0.147034990506
-0.124186109349
-0.101988159311
-0.0921397534975
-0.0891518161727
-0.0883509700256
-0.0879790152886
-0.0877900553643
-0.0877485647717
-0.087746202655
-0.0877409783322
-0.08773280002
-0.0877965908248
-0.088030157517
-0.0884107946151
-0.0891648710007
-0.0921388877272
-0.101987545635
-0.124185522738
-0.147034887866
-0.147035026388
-0.124186411246
-0.101988174073
-0.0921397478849
-0.0891505916403
-0.0883432671282
-0.0879606563255
-0.0877641050611
-0.0877204002875
-0.0877180078255
-0.0877128015761
-0.0877046440714
-0.0877707021428
-0.0880118780332
-0.088403153044
-0.0891636978349
-0.0921389134993
-0.101987590495
-0.124185690265
-0.147034925398
-0.147035217984
-0.124180281919
-0.101985845066
-0.0921397113545
-0.0891496302586
-0.0883360763901
-0.0879422273911
-0.0877372833427
-0.0876901651046
-0.0876871698609
-0.0876820191873
-0.0876745833346
-0.0877440373568
-0.0879936384298
-0.0883961257312
-0.0891627814853
-0.0921389310304
-0.101985474528
-0.124180384513
-0.147035223976
-0.147035339259
-0.124166977094
-0.101980866887
-0.0921388814047
-0.089159523281
-0.0883662978744
-0.0879871374883
-0.0877864704594
-0.087737940046
-0.0877340916291
-0.0877294345643
-0.0877238357043
-0.0877940212456
-0.0880369520213
-0.0884221235225
-0.089169704216
-0.0921382674603
-0.101980702919
-0.124167881904
-0.147035383957
-0.147035653735
-0.124149814946
-0.101979132614
-0.0921445923472
-0.089185190632
-0.0884702030424
-0.0881761510382
-0.0880163184408
-0.0879761910517
-0.0879727962042
-0.0879695537686
-0.087966185543
-0.08802494498
-0.0882176114176
-0.0885075011011
-0.0891882923557
-0.0921441557505
-0.101979016039
-0.124149882659
-0.147035709155
-0.147039455468
-0.124153285361
-0.102034890524
-0.0922279287452
-0.0892835526259
-0.0886458511151
-0.0884834831706
-0.0884057623332
-0.0883843309984
-0.0883822451508
-0.0883808584656
-0.0883799623756
-0.088413067444
-0.0885050271803
-0.0886571534269
-0.0892830832507
-0.0922276966292
-0.102034947912
-0.124153092781
-0.147039381217
-0.147072299713
-0.124356993232
-0.102477596306
-0.0927972988375
-0.0898919293835
-0.0892833909132
-0.0891838360864
-0.0891653737565
-0.0891607881423
-0.0891601727953
-0.08915989365
-0.0891597974889
-0.0891680046105
-0.0891880179715
-0.0892831054867
-0.0898916706138
-0.0927972874865
-0.102478008587
-0.124358176071
-0.147072129681
-0.147321296562
-0.125707946255
-0.104735965499
-0.0955322408464
-0.0927973751073
-0.0922278487662
-0.092144343405
-0.0921385050108
-0.092139242605
-0.0921391899989
-0.0921391635805
-0.092139113031
-0.0921383526111
-0.0921441724626
-0.0922276530196
-0.0927972345822
-0.0955323948827
-0.104736676462
-0.125709919473
-0.147320886016
-0.148700711229
-0.131333446302
-0.112699464719
-0.104736301852
-0.102478056974
-0.102035043865
-0.101979191821
-0.101980905177
-0.101985608668
-0.101987801151
-0.101987778282
-0.101985535364
-0.101980645884
-0.101978876582
-0.102034796651
-0.102477817161
-0.104736531752
-0.112700441081
-0.131336384542
-0.148699461222
-0.153342036985
-0.145669645326
-0.131334011485
-0.125709343538
-0.124358902434
-0.124153306492
-0.124150216184
-0.124167794713
-0.124180085239
-0.12418589875
-0.124186004723
-0.124180241965
-0.124167495095
-0.124149465935
-0.124152960894
-0.124357645185
-0.125709430273
-0.131336100064
-0.145669663956
-0.153343395987
-0.161464985517
-0.153341973625
-0.148700354738
-0.147320881352
-0.147072000652
-0.14703915442
-0.147035475659
-0.147035280731
-0.147035176757
-0.147034962655
-0.147034983031
-0.147035220544
-0.147035358168
-0.147035590241
-0.147039285901
-0.147072048166
-0.147320859842
-0.148699507119
-0.15334306165
-0.161465435789
-0.161407938446
-0.152604826384
-0.147326664708
-0.145711362523
-0.145408739298
-0.1453660168
-0.145359604369
-0.14535751016
-0.145356083981
-0.145355213849
-0.145355232903
-0.145356052576
-0.14535747069
-0.145359602477
-0.145366080693
-0.145408778166
-0.145711467007
-0.147326005479
-0.152604418856
-0.16140773571
-0.152604751658
-0.141878948513
-0.125688634269
-0.119196718554
-0.117583889644
-0.117328586348
-0.117319845354
-0.117338359629
-0.117351785383
-0.117357384016
-0.117357349988
-0.117351108032
-0.117337345374
-0.117318723304
-0.117328150944
-0.117582136001
-0.119195122363
-0.125688313506
-0.141878415743
-0.152604870514
-0.14732654904
-0.125688628881
-0.104738243831
-0.0955505675182
-0.0928276707042
-0.0922674056875
-0.0921910939657
-0.0921906673351
-0.0921955400545
-0.0921979478854
-0.0921978694566
-0.0921952512415
-0.0921901082588
-0.0921904441531
-0.0922666949195
-0.092826800872
-0.0955498384305
-0.104737692314
-0.12568819592
-0.14732678375
-0.145711550592
-0.119196325308
-0.0955504951855
-0.0848837899323
-0.0815582345526
-0.0808045503478
-0.0806224898296
-0.0805532669269
-0.0805370011092
-0.0805363264536
-0.0805353879601
-0.0805341677969
-0.0805575936474
-0.0806372222386
-0.0808115302913
-0.0815575955427
-0.084883249459
-0.0955501785196
-0.1191973883
-0.145710824003
-0.145408799994
-0.117583471494
-0.0928275538324
-0.081558212169
-0.077947780835
-0.076963323579
-0.07657236756
-0.0763970916722
-0.0763574668897
-0.0763528324264
-0.0763487676368
-0.0763452259566
-0.076408490051
-0.0766216835108
-0.0770094402071
-0.0779639075873
-0.0815576503538
-0.0928272376967
-0.11758365161
-0.14540840815
-0.145366064186
-0.117328299613
-0.092267296628
-0.0808035168862
-0.0769568903314
-0.0756899966656
-0.0751173885125
-0.0748846470492
-0.0748399829019
-0.0748316697289
-0.0748234162012
-0.0748151127582
-0.0749024158255
-0.0752123805781
-0.0758014657128
-0.0770223557146
-0.0808099215258
-0.0922668250547
-0.117328069084
-0.14536573398
-0.14535963345
-0.117319595438
-0.0921910264823
-0.0806156470324
-0.0765443606598
-0.0750846451345
-0.0744530382566
-0.0742243377779
-0.0741899788677
-0.0741815867498
-0.0741700784402
-0.0741553446907
-0.074248533421
-0.0745914488041
-0.0752592347855
-0.0766661955316
-0.0806442883908
-0.0921903854202
-0.117319343285
-0.14535933101
-0.145357524175
-0.117338105773
-0.092190647816
-0.080536849448
-0.0763390896411
-0.0748038508169
-0.0741675500035
-0.0739522614157
-0.0739365708334
-0.0739341690002
-0.0739208975148
-0.0738967357593
-0.073979716132
-0.0743288788366
-0.0750179244332
-0.0764948636727
-0.0805878140349
-0.0921898588938
-0.117338034597
-0.145357257756
-0.145356119251
-0.117351590447
-0.0921956795702
-0.080513853663
-0.0762749631777
-0.0747144178828
-0.0740742723447
-0.0738714228529
-0.0738770173213
-0.0738847240446
-0.0738709793954
-0.073835776315
-0.0738995636523
-0.074241336777
-0.0749385612717
-0.0764405807195
-0.0805718598823
-0.0921946249384
-0.117350562903
-0.145355842447
-0.145355260876
-0.117357731268
-0.0921981686634
-0.0805089628196
-0.0762508831648
-0.0746668032046
-0.0740111125837
-0.0738060242424
-0.0738195480433
-0.0738327433167
-0.0738190090958
-0.0737782514229
-0.0738341222938
-0.0741781094165
-0.0748908725947
-0.076416385554
-0.0805669339647
-0.0921970409036
-0.117356386289
-0.145354939393
-0.145355306983
-0.117357658617
-0.0921981621121
-0.0805038074034
-0.0762275274118
-0.0746192132482
-0.0739448324717
-0.0737298102467
-0.0737407829745
-0.0737539830764
-0.0737402603146
-0.0736995109619
-0.073757942988
-0.0741118530998
-0.0748432909186
-0.0763930434821
-0.0805618015464
-0.0921970920147
-0.117356473925
-0.145354977494
-0.145356165735
-0.117351710221
-0.0921956340526
-0.0804983777723
-0.0762049446496
-0.0745716291435
-0.0738753998427
-0.0736427534564
-0.0736406798189
-0.0736483594093
-0.0736346450047
-0.0735994490448
-0.0736709349807
-0.0740424616869
-0.0747957637463
-0.0763705231882
-0.0805564409732
-0.0921947648345
-0.117350900248
-0.145355981018
-0.145357514726
-0.117337789064
-0.0921904933482
-0.0805221908485
-0.0762597391091
-0.0746313790092
-0.0739240228952
-0.0736708489235
-0.0736453764651
-0.0736428807605
-0.0736295993689
-0.0736056462845
-0.0736983922173
-0.0740853674633
-0.0748454600317
-0.0764153803138
-0.0805732593439
-0.0921899200417
-0.117338672516
-0.145357440767
-0.145359661665
-0.117319263783
-0.092190787454
-0.0806147306157
-0.0764997317019
-0.0749600851942
-0.0742664545514
-0.0740043780387
-0.0739613518725
-0.0739529715042
-0.0739415152024
-0.0739268516927
-0.0740286886143
-0.0744049480112
-0.075134763146
-0.0766215803468
-0.080643542597
-0.0921904214395
-0.117318925712
-0.145359489017
-0.145366121024
-0.117328481027
-0.0922669535056
-0.0808056391092
-0.0769474842449
-0.0756333211198
-0.0750069423539
-0.0747468769682
-0.0746950776784
-0.07468677031
-0.0746785566122
-0.0746703125415
-0.0747647675401
-0.0751020600474
-0.0757449366237
-0.0770130977596
-0.080812288921
-0.0922668837014
-0.117328894
-0.145365838078
-0.14540883591
-0.117582405774
-0.0928270040885
-0.0815577322297
-0.0779500462449
-0.0769603934822
-0.076544194759
-0.0763459112139
-0.076300180134
-0.0762952994519
-0.0762912465031
-0.0762879684591
-0.0763573431833
-0.0765935586152
-0.0770066584124
-0.0779663950667
-0.0815575410677
-0.0928273510893
-0.117583815732
-0.145408337496
-0.145711576804
-0.1191953937
-0.0955500085633
-0.0848833531623
-0.0815577840958
-0.0808040343681
-0.0806218214431
-0.0805524363944
-0.0805361147785
-0.0805354302128
-0.0805345167514
-0.0805333488634
-0.0805568730123
-0.0806367017716
-0.0808112319631
-0.0815574988288
-0.08488333867
-0.0955504800123
-0.119198650224
-0.145710325999
-0.147326296056
-0.125688315544
-0.104737780839
-0.0955503289491
-0.0928274547009
-0.0922671331915
-0.0921908291031
-0.0921903838813
-0.092195129027
-0.092197539108
-0.0921974989575
-0.092195035076
-0.0921899959298
-0.0921903806276
-0.092266760342
-0.0928272016634
-0.0955503534674
-0.104738355214
-0.125688231403
-0.147327306045
-0.15260460776
-0.141878473328
-0.125688192747
-0.119197922566
-0.117584164946
-0.117328622766
-0.11732003161
-0.117338731616
-0.117351186646
-0.117357323762
-0.117357131406
-0.117351337589
-0.117338376464
-0.117318663018
-0.117328697143
-0.117583532884
-0.119198212915
-0.125688205683
-0.141879262982
-0.152605924823
-0.161407816889
-0.152604854161
-0.147326780874
-0.145710659728
-0.145408333535
-0.145365688055
-0.145359358801
-0.14535734371
-0.14535594332
-0.145355043411
-0.145355073526
-0.145356021061
-0.14535742637
-0.145359440757
-0.145365819712
-0.145408313654
-0.145710302003
-0.147326910436
-0.152605604998
-0.161408144694
-0.161398561272
-0.152481598663
-0.14706849903
-0.145414728423
-0.145103561955
-0.145053623931
-0.145042018275
-0.1450369877
-0.145033489513
-0.145031595983
-0.145031613951
-0.145033498064
-0.145037023596
-0.145042080179
-0.145053773329
-0.1451036673
-0.145413876435
-0.147067812233
-0.152481172517
-0.161398319875
-0.152481529815
-0.14105866352
-0.124308509236
-0.117536161504
-0.115837424547
-0.11556283366
-0.115548560613
-0.115561493281
-0.115571260871
-0.115575024293
-0.115574811982
-0.115570509908
-0.115560344247
-0.11554731458
-0.115561619583
-0.115835819325
-0.117535761856
-0.124307842307
-0.141058146109
-0.152481659302
-0.147068414249
-0.124308458779
-0.102460002694
-0.0928049872826
-0.0899156005587
-0.0892906628489
-0.0891419635085
-0.0890837084391
-0.0890712379098
-0.0890717102851
-0.0890707133384
-0.0890682268092
-0.0890874016072
-0.089155639288
-0.0892969215122
-0.0899146202174
-0.0928041135423
-0.102459608469
-0.124308020912
-0.147068569161
-0.145414718953
-0.117536165985
-0.0928049125759
-0.0815528934827
-0.0779116985022
-0.0768838934382
-0.0764855511737
-0.0763224251852
-0.0762882985328
-0.0762841181843
-0.0762796908584
-0.0762750059259
-0.0763386792836
-0.0765513818252
-0.0769453714901
-0.0779398098914
-0.0815525733942
-0.0928044402823
-0.11753549768
-0.145414618138
-0.145103711185
-0.115837025128
-0.0899155963938
-0.0779093962934
-0.0737252616825
-0.0723160596511
-0.071745084153
-0.0715480941934
-0.0715185299728
-0.0715100272038
-0.0715005929159
-0.0714902158068
-0.0715805432228
-0.0718906298069
-0.0724958031888
-0.0738466623814
-0.077937679233
-0.0899148809515
-0.115837957516
-0.145102702296
-0.145053706504
-0.115562524735
-0.0892890098779
-0.0768630169041
-0.0722829225636
-0.0707094776687
-0.0701156963427
-0.0699367773291
-0.0699294646485
-0.0699230925683
-0.0699093712229
-0.0698882872641
-0.06998378641
-0.0703369649814
-0.0710166471553
-0.0725416972792
-0.0769702269496
-0.0892947486833
-0.115562103682
-0.145053006545
-0.145042086623
-0.115548251959
-0.089131965332
-0.0764261965262
-0.071647484446
-0.0700410319042
-0.0694570273617
-0.0693257367496
-0.0693728571704
-0.0693855176863
-0.0693687755971
-0.0693225889152
-0.069382668117
-0.0697319299252
-0.0704414699347
-0.0720272847644
-0.0766284841115
-0.0891583598231
-0.115547101534
-0.14504152962
-0.145037094035
-0.115561533443
-0.0890604585811
-0.0762185969744
-0.0713767464803
-0.0697692194577
-0.0692232765196
-0.0691816388754
-0.0693363291341
-0.0693964791301
-0.0693782094751
-0.0692814085066
-0.0692432363676
-0.0695252546463
-0.070218130168
-0.0718211481628
-0.0764824438578
-0.0891076801402
-0.115560148058
-0.145036516548
-0.145033589448
-0.115571414288
-0.0890398723202
-0.0761533908604
-0.0712887166853
-0.0696815948313
-0.0691759147062
-0.0692360389937
-0.0695160334141
-0.0696355519257
-0.0696169039452
-0.0694597687521
-0.0692986596989
-0.0694843732948
-0.0701426325373
-0.0717498124382
-0.076434363978
-0.0890935111379
-0.115569439091
-0.14503292122
-0.145031733096
-0.115575376707
-0.0890362636322
-0.0761283768534
-0.0712355136357
-0.0696097758857
-0.0691087706598
-0.0692093993502
-0.0695482507941
-0.0696941095829
-0.069675488466
-0.0694917559863
-0.0692718739685
-0.0694170590422
-0.0700706815341
-0.0716966403599
-0.0764092685929
-0.0890897660182
-0.115573108319