/*--------------------------------*- C++ -*----------------------------------*\
| =========                 |                                                 |
| \\      /  F ield         | OpenFOAM: The Open Source CFD Toolbox           |
|  \\    /   O peration     | Version:  3.0.1                                 |
|   \\  /    A nd           | Web:      www.OpenFOAM.org                      |
|    \\/     M anipulation  |                                                 |
\*---------------------------------------------------------------------------*/
FoamFile
{
    version     2.0;
    format      ascii;
    class       surfaceVectorField;
    location    "0.2";
    object      ddt0(Uf);
}
// * * * * * * * * * * * * * * * * * * * * * * * * * * * * * * * * * * * * * //

dimensions      [0 1 -2 0 0 0 0];

internalField   nonuniform List<vector> 
22672
(
(0.00695922027274 0.00456905424638 -0.00792485540011)
(0.00461457229141 0.00684783353997 -0.00792508924212)
(0.00439364697171 0.00434702549152 -0.0138860070831)
(0.0134710212328 0.00508949280548 -0.00727729245083)
(0.0123677647894 0.00751186925742 -0.00672095609436)
(0.0119175678341 0.00475886372207 -0.0141120457496)
(0.0187859304581 0.0057777207805 -0.00721501337209)
(0.0186706091514 0.00849277140953 -0.00657094685223)
(0.0180282566116 0.0054338550377 -0.0139010522351)
(0.0224572056823 0.00666125863666 -0.0071841501997)
(0.0232629423904 0.0100995159841 -0.00653939753307)
(0.0224594570379 0.00626323696969 -0.0138694629892)
(0.024156624692 0.00771496176254 -0.00708933463843)
(0.0259147274132 0.0119407669062 -0.00643646484432)
(0.0250078521965 0.00732767264272 -0.0137460392144)
(0.0234782101284 0.00882545533439 -0.00695726490588)
(0.0262621973976 0.014116961477 -0.00627446278389)
(0.0253378687616 0.0085022842307 -0.0135532201773)
(0.0203527255648 0.00988561647919 -0.00680784102127)
(0.0240664115502 0.016323389666 -0.00608025082319)
(0.0232024629506 0.00969630615336 -0.0133219646185)
(0.0149773862719 0.0107651279948 -0.00666982080763)
(0.0193535944572 0.0182904589416 -0.00588218187515)
(0.0186493792795 0.0107664009136 -0.0130477719861)
(0.00790919985016 0.0113456326618 -0.00657330485994)
(0.0125118196873 0.0197639745637 -0.00571740863588)
(0.0120518992281 0.0115804128862 -0.0128349228592)
(-9.70599707665e-05 0.011547279804 -0.00653831673628)
(0.00424719725278 0.0205657293078 -0.00562327078378)
(0.00408922768836 0.0120170103628 -0.0127019338507)
(-0.00809544951717 0.0113432904883 -0.00657149798826)
(-0.00452041641566 0.0205624476041 -0.0056219629121)
(-0.00435747999787 0.0120172879946 -0.0127060598942)
(-0.0151522143049 0.0107602804953 -0.00666334716471)
(-0.0127770900047 0.019756795579 -0.00571192583575)
(-0.0123094243243 0.0115792016422 -0.0128375627333)
(-0.0205049626763 0.00987958489594 -0.00679509184123)
(-0.0196048170732 0.0182690768683 -0.00587024241547)
(-0.0188921343691 0.0107637758488 -0.0130455509963)
(-0.0236037044436 0.00882186498938 -0.0069365276297)
(-0.0242980757583 0.0162964439621 -0.00606258052382)
(-0.0234283355594 0.00969381950366 -0.0133152987342)
(-0.0242573159041 0.00771306130407 -0.00705753203774)
(-0.0264768615876 0.0140894286766 -0.00624980281197)
(-0.0255424390214 0.00850353990366 -0.0135394042441)
(-0.0225547194314 0.00665867226435 -0.00714551891417)
(-0.0261029119613 0.011919703656 -0.00639674877028)
(-0.0251875828065 0.00733008667415 -0.0137109722893)
(-0.0188418444289 0.00576773658667 -0.00717898397604)
(-0.0234073165495 0.0100414862066 -0.00649568604591)
(-0.0225977503654 0.00627011134878 -0.0138292479622)
(-0.0134895475877 0.00513688400181 -0.00718522538361)
(-0.0187802261161 0.00844144469483 -0.00653153918499)
(-0.0181398159431 0.00542845570962 -0.0138590627523)
(-0.0069548671355 0.00473087718017 -0.00771955040436)
(-0.0124927093515 0.00748751204767 -0.00657188331608)
(-0.0120475375761 0.00487346004123 -0.0140854709071)
(-0.00495247728749 0.00683363924531 -0.0076592582314)
(-0.00472485104794 0.0045634949361 -0.0138303079571)
(0.00760995380882 0.0122689099648 -0.00672118993636)
(0.00513654908208 0.0132721159151 -0.00728399716053)
(0.00480802853377 0.011816685955 -0.014120121204)
(0.0144505779794 0.0134147871217 -0.00601461049576)
(0.0135207101709 0.014296130047 -0.00601769518476)
(0.0125989659949 0.0125125428686 -0.0137184362314)
(0.0202117423034 0.0153652894835 -0.00589533101321)
(0.0205366182217 0.0163503110018 -0.00581026836452)
(0.0191449798938 0.0142089899708 -0.0137177742666)
(0.0243437513957 0.0179855631405 -0.0057917121777)
(0.0257812463912 0.0194345271163 -0.00566959520282)
(0.0239904795164 0.0166509934467 -0.0135728829624)
(0.0262415052914 0.0210816794507 -0.00562159298978)
(0.0289190273485 0.023281446199 -0.00543086862827)
(0.0268526356685 0.0197117332843 -0.0133532807514)
(0.025560793183 0.0243743445808 -0.0053974487012)
(0.0294767687643 0.0276482711074 -0.00510146801876)
(0.0273262268166 0.0231484362968 -0.01297599262)
(0.0222116017836 0.027518808698 -0.00515459167707)
(0.0271486662972 0.0320652386248 -0.00471733440703)
(0.0251403859263 0.0266471055028 -0.0125287802492)
(0.0163978181481 0.0301343381864 -0.00492976970341)
(0.0219255969796 0.0360312950214 -0.00433461760878)
(0.0202854932628 0.0297986080464 -0.012072514706)
(0.00866662041271 0.0318680487442 -0.00476737455973)
(0.0142244179635 0.0390299509106 -0.00402043281299)
(0.0131566350658 0.0322000264315 -0.011686822536)
(-0.000100198573069 0.0324704637636 -0.0047069169596)
(0.00485403566294 0.0406423632388 -0.00384173397222)
(0.00449850641586 0.0334947822534 -0.0114647434193)
(-0.00886370684488 0.0318543310017 -0.00476239075958)
(-0.00510490005545 0.0406349057924 -0.00383928344278)
(-0.00469812760748 0.0334903743212 -0.0114626191466)
(-0.0165792322618 0.0301064812291 -0.00491882108651)
(-0.0144671099226 0.0390056595534 -0.0040128781433)
(-0.0133470204434 0.0321845224534 -0.0116815743046)
(-0.0223810911699 0.0274781772659 -0.00513773109807)
(-0.0221524448445 0.0359934487249 -0.0043212061639)
(-0.0204590558848 0.029771840626 -0.0120614144221)
(-0.0257108020924 0.0243243398743 -0.00537585570609)
(-0.0273520370792 0.0320118220592 -0.00469877365117)
(-0.0252900864977 0.0266108210181 -0.0125118891199)
(-0.026340801802 0.0210233952588 -0.00558901954451)
(-0.0296615752555 0.0275762676028 -0.00507725059386)
(-0.027456958925 0.0231063350776 -0.0129680182236)
(-0.0244081655821 0.0179182742801 -0.00574691590202)
(-0.029079241339 0.0232137142042 -0.0053921527917)
(-0.0269597816217 0.0196633077066 -0.0133220582105)
(-0.0202578282267 0.0152881413484 -0.00584824125486)
(-0.025902161762 0.0193579510216 -0.00562342641357)
(-0.0240613093468 0.0166001064336 -0.0135479529553)
(-0.0144867786884 0.01334872958 -0.00591819711745)
(-0.0206214484854 0.0162844803892 -0.00576680322239)
(-0.0191749238384 0.0141518745785 -0.0136854167942)
(-0.00759564153217 0.012164399115 -0.00651159114311)
(-0.0136778206874 0.0142111673548 -0.00588684474161)
(-0.0127272746581 0.0124951196454 -0.0136827472146)
(-0.00543617080574 0.0132577253243 -0.00705372172945)
(-0.00506546092603 0.0116882131707 -0.0140642976586)
(0.00857294640046 0.0185200374557 -0.00658050240893)
(0.00582450215248 0.0185444161772 -0.00722664582952)
(0.0054780283437 0.0178751810404 -0.0139288761954)
(0.0165104971242 0.0203737847017 -0.00581335305352)
(0.0154667604307 0.019997491084 -0.00590437623819)
(0.0142790811914 0.0190267909255 -0.0137295352737)
(0.023253631444 0.023554243462 -0.00558453255412)
(0.0237140566302 0.0230417413477 -0.00558625087067)
(0.0217716266246 0.0216758901998 -0.0135314679038)
(0.0281566354609 0.02785166839 -0.00530875165339)
(0.0300225799709 0.027545992666 -0.00525305692549)
(0.0274433818967 0.0256367275237 -0.0131196251883)
(0.0305532470777 0.0329532915777 -0.00491074365725)
(0.0339662091209 0.0332411419888 -0.00473076799271)
(0.0309673963454 0.030633304764 -0.0124720533795)
(0.0299629449592 0.0384222573371 -0.00442135372459)
(0.0348957407377 0.0397087214908 -0.00404717778149)
(0.0317611687634 0.0363189179643 -0.0115977750215)
(0.0261723410585 0.0436640688276 -0.00389736033874)
(0.0323480514034 0.0462944387593 -0.00326500715264)
(0.0294060004139 0.0421327803291 -0.0105777118389)
(0.0193878420549 0.0480376231941 -0.00342528071837)
(0.0262662745816 0.0522316368011 -0.00249129506936)
(0.023862508231 0.0474058097496 -0.00956439286717)
(0.0102754993787 0.0509457520601 -0.00309479222548)
(0.0171115191728 0.0567351585602 -0.00187014775669)
(0.0155455598143 0.0514376965357 -0.0087475851562)
(-0.000107536205431 0.0519577956453 -0.00297410045539)
(0.00585898217559 0.0591563369784 -0.00151860988105)
(0.00533506255711 0.0536215664859 -0.00828797622256)
(-0.0104849345019 0.0509208832473 -0.00308977082649)
(-0.00613399267567 0.0591418572718 -0.00151615577623)
(-0.00554615074956 0.0536112800554 -0.00828498969013)
(-0.0195819735869 0.0479887363798 -0.00341526322069)
(-0.0173770805594 0.0566919433457 -0.00186267574871)
(-0.0157471840788 0.0514063782378 -0.00873935304551)
(-0.0263412714879 0.0435916073969 -0.00388224871701)
(-0.0265149171373 0.0521639574827 -0.00248104816079)
(-0.0240457336552 0.0473539114629 -0.00955250601087)
(-0.0300992162262 0.0383262378053 -0.00440016853894)
(-0.0325721983846 0.0462021987033 -0.00324923317385)
(-0.0295640320532 0.0420630350465 -0.0105617505378)
(-0.0306612339297 0.0328433354806 -0.00488038384106)
(-0.0350910749038 0.0396029867838 -0.00402499505741)
(-0.0318926663361 0.0362347010304 -0.0115796117313)
(-0.0282355883526 0.0277312630823 -0.00526866330325)
(-0.034133558573 0.0331345764022 -0.00469889987453)
(-0.0310722216913 0.0305475953525 -0.0124461486247)
(-0.0233100926862 0.0234221217847 -0.00554198838109)
(-0.0301538876699 0.0274379403524 -0.00521409000333)
(-0.0275131487281 0.0255455522441 -0.013091399863)
(-0.0165451153776 0.0202251190463 -0.00573545084654)
(-0.0238026235719 0.0229444310348 -0.00555351374745)
(-0.0217956266299 0.0215892856841 -0.0135016914574)
(-0.00864167275809 0.0183166993237 -0.00642897532795)
(-0.0156115109049 0.0199370174256 -0.00579655946317)
(-0.0143954134457 0.0189172467647 -0.0137033571235)
(-0.00607222918954 0.018472189277 -0.0070412202769)
(-0.00565547689074 0.0176565568087 -0.0139049860284)
(0.010157808747 0.0230761863746 -0.00655051965879)
(0.00670605242799 0.0222011021582 -0.00719170666876)
(0.00630839254161 0.0222766433649 -0.0138924311085)
(0.0195822829128 0.0255779020553 -0.00567727405534)
(0.0180809748547 0.0240956892144 -0.00580085388945)
(0.0167168112788 0.0238546286523 -0.0136074929519)
(0.0277556130095 0.0298190583201 -0.00525477524203)
(0.0280069282619 0.0279122553622 -0.00531299457702)
(0.0257255181705 0.027335964152 -0.0131360238951)
(0.033841016054 0.0356100422558 -0.0046750732648)
(0.0358131418813 0.0335871795582 -0.00467646504278)
(0.032750668514 0.0326472237674 -0.0122285361649)
(0.0369953137076 0.0425334050988 -0.00386720211695)
(0.0408874272862 0.0408409063149 -0.0037072910823)
(0.0373013247527 0.0394218071398 -0.0108678923105)
(0.0365511039185 0.0500108187933 -0.00289083120954)
(0.0423698808891 0.0491109057095 -0.00245106658761)
(0.0385902791341 0.0471831091335 -0.00908422168628)
(0.032101840428 0.0572192830162 -0.00185894188327)
(0.0395530461995 0.0576568571269 -0.00103318007548)
(0.0360168805575 0.0551987475262 -0.00705037323548)
(0.0238882819615 0.063254128843 -0.000936162107686)
(0.0322980308839 0.0653431280319 0.000385478460597)
(0.0294252871621 0.0625177955954 -0.00504310068508)
(0.0126984002898 0.0672792553372 -0.000293965412262)
(0.0211344288788 0.0712191686109 0.00151868893595)
(0.0192676180833 0.0681568877968 -0.00344349993272)
(-0.000121705288946 0.0686786254561 -6.06652018885e-05)
(0.00725747342645 0.0743740052652 0.00216462128365)
(0.00663676943266 0.0712208170613 -0.00254752311321)
(-0.0129357966696 0.0672403770842 -0.000289060698447)
(-0.0075715536729 0.0743527786905 0.00216693780805)
(-0.00687580872541 0.0712029511182 -0.00254435713281)
(-0.0241102270871 0.0631766419036 -0.000928460688809)
(-0.0214388270081 0.0711579980783 0.00152620465207)
(-0.0194968069774 0.0681052148631 -0.0034342113054)
(-0.0322854296605 0.0571067693419 -0.00184803261763)
(-0.0325820028874 0.0652379028016 0.000390076613341)
(-0.0296335656946 0.0624276738322 -0.00503399930675)
(-0.0366931975876 0.049872543514 -0.00287405969231)
(-0.0398033343005 0.0575257709913 -0.00102868944476)
(-0.0361936041286 0.0550778121291 -0.00704121567796)
(-0.0371031530569 0.0423801487129 -0.00384351109088)
(-0.0425806398117 0.048969377141 -0.00243596231251)
(-0.0387304988923 0.0470574101581 -0.00906974000571)
(-0.0339159519072 0.0354481943705 -0.00464432657461)
(-0.0410638891627 0.0406962955225 -0.00368443675235)
(-0.0374090800634 0.0392946003181 -0.0108491879516)
(-0.0278125351883 0.0296539183453 -0.00522561536969)
(-0.035949131572 0.0334513629637 -0.00464806334818)
(-0.0328198737729 0.0325222283456 -0.0122055687653)
(-0.0196178705461 0.0254000257356 -0.00561462236409)
(-0.0280981618337 0.0277802608317 -0.00529531835075)
(-0.0257464279853 0.0272204302259 -0.0131123444805)
(-0.01016508356 0.022862719681 -0.00640880441212)
(-0.0182052694187 0.0239836717121 -0.00570764040438)
(-0.0168084665292 0.0237231909323 -0.0135805594694)
(-0.00693141737987 0.0221122570896 -0.00701760793316)
(-0.006455169587 0.0220668834095 -0.0138591161404)
(0.0120125568517 0.0257132807133 -0.00644204089942)
(0.00775333289438 0.0238838448426 -0.00709113895097)
(0.00736509847599 0.0248165740251 -0.0137668881377)
(0.023421502741 0.0286964645989 -0.00543657441113)
(0.0211663241529 0.0259923647496 -0.0056277612539)
(0.0197672732237 0.0267139515244 -0.0133842532664)
(0.0334482062992 0.0337403669902 -0.00473468437777)
(0.0331006359206 0.0302972469262 -0.00491705465774)
(0.0307174039243 0.0308597776936 -0.0124987995392)
(0.0410924769818 0.0406573690891 -0.00370868286028)
(0.0427317844017 0.036726951829 -0.00387212089236)
(0.0395232857553 0.0371940134984 -0.0108820669305)
(0.0452796290356 0.0489842365847 -0.00229115555295)
(0.0492142361007 0.0450056001638 -0.00229417989265)
(0.0454595809277 0.0453510538741 -0.0084620981095)
(0.0450740681006 0.058032345154 -0.000593415453543)
(0.0514169187674 0.0545066234051 -0.00023437127806)
(0.047482093983 0.0547854928813 -0.00531172423268)
(0.0397787241435 0.0668475799642 0.00121124026838)
(0.0483669926413 0.0643262853694 0.00211756600836)
(0.0446877647122 0.0646365758677 -0.00150387919748)
(0.0297733809144 0.0743036189254 0.00284032950423)
(0.0397527546863 0.0733969249571 0.00445925950209)
(0.0367788147926 0.0737554155267 0.00181778815772)
(0.0158617357052 0.0793071020613 0.00397727563186)
(0.0261368692842 0.0803543368972 0.00633705363564)
(0.0242220855975 0.0808404995816 0.00464281120107)
(-0.000143322907446 0.0810552458506 0.00439222429358)
(0.00900523066329 0.0841606361897 0.00740165930721)
(0.00837204009782 0.084720788358 0.0060876144158)
(-0.0161392805539 0.0792522719546 0.00398220315857)
(-0.00937410738068 0.084129518002 0.00740372211989)
(-0.0086526789839 0.0846940431995 0.0060924608791)
(-0.0300382461003 0.0741968795537 0.00284474195422)
(-0.0264931403184 0.0802657681478 0.00634226870549)
(-0.0244961002894 0.0807636551114 0.00466877944623)
(-0.0399994414646 0.066697994692 0.00120941978621)
(-0.0400795345493 0.0732620922051 0.00445955685688)
(-0.0370316942862 0.0736320894284 0.00181935555724)
(-0.0452356036441 0.0578546385965 -0.00059059206496)
(-0.0486453743768 0.064160917717 0.00211426086415)
(-0.0448820176124 0.0644823585283 -0.00151063628794)
(-0.0453872963903 0.0487906034905 -0.00227688797399)
(-0.0516436144183 0.0543274727395 -0.000227734630755)
(-0.0476207751927 0.0546191013665 -0.00531036124397)
(-0.0411566880604 0.0404593374033 -0.00368817352593)
(-0.0493951677189 0.0448249316062 -0.00227907346265)
(-0.045565002321 0.0451849053715 -0.00845470227154)
(-0.0334839706719 0.033545675808 -0.00471776632924)
(-0.0428652604007 0.0365619407712 -0.00385385110276)
(-0.039583813845 0.0370379814334 -0.0108716840758)
(-0.0234472738025 0.0285013347011 -0.00538833639104)
(-0.033183566582 0.0301458670728 -0.00491075890859)
(-0.0307252799413 0.0307173655255 -0.0124880717383)
(-0.0120450519028 0.0254868893778 -0.00631644392541)
(-0.0212708393986 0.025864606892 -0.00554866887772)
(-0.0198311201071 0.0265691672966 -0.0133714531304)
(-0.00796340912521 0.0237592531708 -0.00693372406729)
(-0.00748894134649 0.0245833844197 -0.0137512371717)
(0.0141740721683 0.0260660819884 -0.00627685930545)
(0.00885783991049 0.023221231136 -0.00695487017673)
(0.00853388988715 0.0251518858044 -0.0135772269826)
(0.027773609301 0.0292593414359 -0.00510824150051)
(0.0244457818334 0.0253335772764 -0.00540152766435)
(0.0231928914886 0.02719841774 -0.0130138216371)
(0.0399060024158 0.0346720655201 -0.00405449117233)
(0.0385584798918 0.0297188571673 -0.00443013700131)
(0.0363930005454 0.0316639573771 -0.0116363786549)
(0.0493606862457 0.042138763097 -0.00245761792474)
(0.0502012631838 0.0362921614613 -0.00290053412321)
(0.0472781292436 0.0384915686115 -0.00911350996269)
(0.0547819484777 0.05118083335 -0.000237395617756)
(0.0582572678526 0.044812033776 -0.000610936437769)
(0.0548919619213 0.0473708424013 -0.0053323490961)
(0.0549021977296 0.0610722637086 0.00247661018385)
(0.0613082054823 0.0546298333623 0.00247284835037)
(0.0578625624712 0.0577566980999 -0.000356086194563)
(0.0488677643857 0.0708306962315 0.00536558524207)
(0.0581250228536 0.064958061582 0.00602424025724)
(0.0549727231504 0.0687396979953 0.00528727235467)
(0.0367442899733 0.0791717115791 0.00795598363351)
(0.0480933976802 0.0745232931444 0.009551625171)
(0.0456179641657 0.0790565114842 0.0108845550242)
(0.0196697700959 0.0848047050868 0.00976143731099)
(0.0317696061559 0.0819353503729 0.0124113742422)
(0.0302258725269 0.0871544599718 0.0153877651939)
(-0.000173063272289 0.0867797148816 0.0104131571335)
(0.0109801669542 0.0859809345931 0.0140278942531)
(0.0104879243919 0.0916203573635 0.0179247096454)
(-0.0200058306237 0.0847341532203 0.00976378766681)
(-0.0114195589944 0.085943274928 0.0140287954028)
(-0.010830402773 0.0915839987321 0.0179274537713)
(-0.0370518785952 0.0790383045849 0.00795708360814)
(-0.0321886842745 0.0818293685571 0.0124114675794)
(-0.0305515092987 0.087051263677 0.0153941890941)
(-0.049117075671 0.0706474572818 0.00536439793482)
(-0.0484699413999 0.0743591756673 0.00954554207068)
(-0.0459035146006 0.0788998435008 0.0108807604032)
(-0.055076952466 0.0608566149585 0.00247711829836)
(-0.0584357505273 0.0647565339439 0.00601640525448)
(-0.0551924667769 0.0685525568226 0.00527717282822)
(-0.0548872649931 0.0509482817008 -0.00022992011942)
(-0.0615517816482 0.054413752031 0.00247078036079)
(-0.0580147783277 0.0575491981234 -0.000362013084834)
(-0.0494097949525 0.0419065640292 -0.00244475103948)
(-0.0584378603183 0.04459273397 -0.000593378645328)
(-0.0549896068275 0.0471739668144 -0.0053297423548)
(-0.0399207760577 0.0344522923593 -0.00404684368212)
(-0.0503229621791 0.036102258999 -0.00289053215164)
(-0.0473245292162 0.0383050647659 -0.009113512094)
(-0.0277760871397 0.0290471401803 -0.00507109139527)
(-0.0386269453445 0.0295489067357 -0.00443349889633)
(-0.0363817160057 0.0314981291049 -0.011635433281)
(-0.0141834082013 0.025819174409 -0.0061659490196)
(-0.0245404685491 0.0251984382419 -0.00533380927394)
(-0.0232407632735 0.0270364538878 -0.0130210892199)
(-0.0090606233101 0.023074266845 -0.0068077328246)
(-0.00864586873012 0.0248978554617 -0.0135622927922)
(0.0163591057355 0.023892964039 -0.00607953853563)
(0.00991099482431 0.0201381162745 -0.00680272314585)
(0.00972010519137 0.0230385079783 -0.0133369936371)
(0.0321768873795 0.0269539403245 -0.00472342316515)
(0.0275754860952 0.0220115375721 -0.00515640548227)
(0.026678637827 0.0250314387256 -0.0125642729698)
(0.0464786613909 0.032145899673 -0.00327617995219)
(0.0437881993344 0.0259644173242 -0.00390799827823)
(0.0421987047039 0.0293244283292 -0.0106254899634)
(0.0579000444044 0.039340383298 -0.00105385263625)
(0.0573987602793 0.031878079953 -0.00187291129872)
(0.0552790471489 0.0359336132604 -0.00709594118813)
(0.0645894335188 0.0481448103786 0.00209930753036)
(0.0670628946658 0.0395417937393 0.00118938481743)
(0.0647370098231 0.0445988585553 -0.00151594284766)
(0.0652282883815 0.0578969328341 0.00602047842376)
(0.071060476675 0.0486223542626 0.0053558245506)
(0.0688507891559 0.0548766302012 0.00526938281758)
(0.058437541386 0.0675829172982 0.0102102801862)
(0.0678108402173 0.0581849347451 0.010206088293)
(0.0659852613123 0.065884106442 0.0134697346537)
(0.0441632316721 0.0759143978445 0.0140070157797)
(0.0564248309279 0.0671065922585 0.0150789829661)
(0.0551916279247 0.0763351751587 0.0216087243663)
(0.0237211856042 0.0815692957824 0.0166778311843)
(0.0374247160837 0.0740665790134 0.0190773987034)
(0.0367847580416 0.0846172944042 0.0282437611942)
(-0.000209037992023 0.0835502129198 0.0176435325223)
(0.0129612549969 0.0778712416996 0.0213457706459)
(0.0128011829033 0.0891927460094 0.0319867770828)
(-0.0241295082522 0.0814876679088 0.0166764753153)
(-0.013482232175 0.0778329752189 0.021344375611)
(-0.0132214484072 0.0891509671003 0.0319862046705)
(-0.0445287394986 0.0757582888666 0.0139999260419)
(-0.0379182306076 0.073943470355 0.0190700919781)
(-0.03717913523 0.0844911810187 0.0282421540843)
(-0.0587250646187 0.0673703621149 0.0101975493903)
(-0.0568577734731 0.0669200859026 0.0150582480292)
(-0.0555284568862 0.0761404718313 0.0215882579674)
(-0.0654224222029 0.057651393685 0.00601006731691)
(-0.0681544983547 0.0579583050623 0.0101813925369)
(-0.0662303053759 0.0656485337852 0.0134413889649)
(-0.0647047583521 0.0478927256588 0.00210732183488)
(-0.0713105873533 0.0483868007232 0.00533750731626)
(-0.0689992067214 0.0546304157709 0.00524773432702)
(-0.0579228560783 0.0390942174145 -0.00103915975749)
(-0.0672375666023 0.039337413041 0.00118787160778)
(-0.064821536845 0.0443652490054 -0.00159525017883)
(-0.0464733927859 0.0319121924416 -0.00327718736586)
(-0.0575084985919 0.0316805850543 -0.00187325552842)
(-0.0553090783074 0.0357237876673 -0.00710455011778)
(-0.0321616444342 0.0267294265625 -0.004696216775)
(-0.0438420086724 0.0257863237084 -0.00392087351978)
(-0.0421644923577 0.0291429426951 -0.0106368136153)
(-0.016373468491 0.0236363117124 -0.00597559307894)
(-0.0276619857417 0.0218890604817 -0.00509508303417)
(-0.0267130504332 0.0248550447128 -0.0125782538238)
(-0.0101071921414 0.0199826136023 -0.00665980017015)
(-0.00982317044416 0.0227824496865 -0.0133495391329)
(0.018314321276 0.0192191737488 -0.00587959009249)
(0.0107853582928 0.0148186335418 -0.00666204088452)
(0.010783793483 0.0185224485944 -0.0130523494026)
(0.03612685271 0.0217726930716 -0.00434098059535)
(0.0301790491786 0.0162429101523 -0.00493092263767)
(0.0298187124889 0.0202021830349 -0.0121090611512)
(0.0524013161781 0.0261034307313 -0.00250472962476)
(0.0481478988721 0.019232891849 -0.00343726172886)
(0.0474613650757 0.0237991306306 -0.00961750619758)
(0.0655697876963 0.0321221198851 0.000370326154953)
(0.0634201872512 0.0237202112582 -0.000952426820172)
(0.0625989012275 0.0293579058784 -0.00509396157993)
(0.0736512817329 0.039564490883 0.00444590183767)
(0.0745064498999 0.0295928377924 0.00282323594448)
(0.0738483186623 0.0367120083826 0.00178006994486)
(0.0747854546806 0.0478935757326 0.00954143441985)
(0.0793897204965 0.0365475208566 0.00794108148119)
(0.0791498638108 0.0455318903986 0.010857681818)
(0.0673592564714 0.0562168679514 0.015074791073)
(0.0761341479902 0.0439505458281 0.0139938785751)
(0.0764311188711 0.0550914830769 0.0215917446118)
(0.0511269153789 0.0634186746366 0.0201493658898)
(0.0636267531208 0.0509044036099 0.0201429785698)
(0.0643510658509 0.0642447207766 0.0323873621269)
(0.0275331019754 0.0683230792272 0.023745338165)
(0.0423295025264 0.0563610751235 0.0252411023198)
(0.0430837419848 0.0715537682532 0.0412761295516)
(-0.000251069583686 0.0700382276309 0.0250466137346)
(0.0146766178386 0.0593487112008 0.0281297045711)
(0.0150217486129 0.0755773056905 0.0463033076758)
(-0.0280170760322 0.0682352156386 0.0237379922737)
(-0.0152854330865 0.0593079616798 0.0281240679904)
(-0.0155323202621 0.0755322785586 0.0462980407349)
(-0.0515576802599 0.0632495772201 0.0201284139654)
(-0.0429042202877 0.0562346458678 0.025222196948)
(-0.0435624673673 0.0714119221828 0.0412556840984)
(-0.067686757574 0.0559892948458 0.0150420911757)
(-0.0641181353658 0.0507125622047 0.0201012283316)
(-0.0647461673717 0.0640278169053 0.0323328958394)
(-0.074989127868 0.0476349926707 0.00950883253621)
(-0.0765088026933 0.0437196597796 0.0139434435819)
(-0.0767023784315 0.0548306411881 0.0215223038385)
(-0.0737384732325 0.0393078017125 0.00441805708916)
(-0.0796379520413 0.0363084347607 0.00789872729698)
(-0.079300141452 0.0452651100098 0.0107926438072)
(-0.0655893336803 0.0318789996681 0.000353775836847)
(-0.0746674993051 0.0293743942688 0.00279168935021)
(-0.0739096747407 0.0364663038455 0.00176248403094)
(-0.0523723274588 0.0258740034882 -0.00251694168234)
(-0.0635166547744 0.0235254073753 -0.000966582265691)
(-0.0625936862716 0.0291452532151 -0.00513006764388)
(-0.0360997669588 0.0215563691544 -0.00431973977895)
(-0.0481838802972 0.0190681816617 -0.00345843180587)
(-0.0474025605876 0.023618056034 -0.00964100720372)
(-0.018317868436 0.0189815754816 -0.00577929012538)
(-0.030248090894 0.0161278182175 -0.0048732674302)
(-0.0298366996609 0.0200347121158 -0.012123863965)
(-0.0109716038407 0.014678823932 -0.00652161779187)
(-0.0108768671735 0.01829072591 -0.0130849912948)
(0.019784368393 0.0124274093331 -0.00571337342971)
(0.0113633635437 0.00781801181412 -0.00656401009852)
(0.011592355448 0.0119713716075 -0.0128390942981)
(0.039109408469 0.0141245577494 -0.00402720377118)
(0.0319049715811 0.00857767205997 -0.00476845694931)
(0.0322105015207 0.013098770728 -0.0117228435455)
(0.056890468284 0.0170025608087 -0.00188495892427)
(0.0510443501385 0.010184714166 -0.00310758209542)
(0.0514835945886 0.0154991311825 -0.00880480317496)
(0.071434015126 0.0210156678942 0.00150048296936)
(0.0674352801085 0.0125975871532 -0.000312141841786)
(0.0682285397311 0.0192153997837 -0.00349954481141)
(0.0805929160749 0.0260036280718 0.00631841558801)
(0.0794953364015 0.0157557845973 0.00395214142521)
(0.0809215851848 0.0241594419908 0.00459987185638)
(0.0821821332854 0.0316162935974 0.0123935256364)
(0.0850024319809 0.01953892455 0.00973966776684)
(0.0872319798865 0.0301463716351 0.015352257936)
(0.0743098855352 0.037254690149 0.0190620660719)
(0.0817723530939 0.023568199242 0.0166527132922)
(0.0846981518116 0.0366823533605 0.0282100245939)
(0.0565839993002 0.0421488399377 0.0252347149998)
(0.0685206978531 0.0273630628606 0.0237236892895)
(0.0716540052473 0.0429647713984 0.0412530730064)
(0.0305154499142 0.0454911079327 0.0296254687259)
(0.0456718218235 0.0303299448395 0.0296117995029)
(0.0481177726041 0.0479866975381 0.0521169287982)
(-0.000294739361468 0.0466560069356 0.0312071588269)
(0.01584157584 0.0319545099861 0.0329328253333)
(0.0167798331891 0.0507349024758 0.0582460589917)
(-0.0310778679213 0.0454067484787 0.0296082726647)
(-0.0165347397961 0.0319153042373 0.032921864819)
(-0.0173872144271 0.0506882004434 0.0582288472099)
(-0.0570827731921 0.0419879738999 0.0251950113143)
(-0.0463230347232 0.0302217985253 0.0295796083449)
(-0.0486842182322 0.0478529412147 0.0520674061068)
(-0.0746767732061 0.0370371780848 0.0190025807379)
(-0.0690687123521 0.0271916519251 0.0236564737501)
(-0.0721099422816 0.0427525744015 0.0411491170402)
(-0.0823928444987 0.0313698407335 0.0123333383427)
(-0.0821759579104 0.0233650551202 0.0165732258691)
(-0.0849931191798 0.0364299817252 0.0280826346912)
(-0.0806594460127 0.0257508538264 0.00627235955803)
(-0.0852570058815 0.0193269616187 0.00967271986053)
(-0.0873653162443 0.0298906852203 0.0152356406914)
(-0.0714297821862 0.0207796144388 0.00147133124767)
(-0.0796396407039 0.0155430800781 0.00390963480963)
(-0.0809520624007 0.0239271385468 0.00456474208312)
(-0.0568353158883 0.0167942353753 -0.00190807238923)
(-0.0675044814383 0.012428955711 -0.000338704971023)
(-0.0681944740315 0.0190193334051 -0.00355940547925)
(-0.0390593483881 0.0139350943504 -0.00401195945713)
(-0.0510572407785 0.0100478603437 -0.00313627994495)
(-0.0513926183397 0.0153373140256 -0.00884173402208)
(-0.0197695133715 0.0122175907416 -0.0056155950967)
(-0.0319573430168 0.0084760331233 -0.00471550107821)
(-0.0322009699512 0.0129559758081 -0.0117447070687)
(-0.0115421056 0.00770658662025 -0.00642301570789)
(-0.0116715368341 0.0117680313766 -0.0128711319791)
(0.0205790848464 0.00422162681878 -0.00561909361812)
(0.0115638069537 -0.00010810206932 -0.00652683361083)
(0.0120276726115 0.00406700523044 -0.0127074612565)
(0.0407128595463 0.00481428237584 -0.00384883527355)
(0.0325030570876 -0.000115107124522 -0.00470707157473)
(0.0335011551403 0.00446732508595 -0.0115032901042)
(0.0593018931861 0.00581270221981 -0.00153476501294)
(0.0520491382101 -0.000127833334761 -0.00298658280556)
(0.0536599028031 0.0053040179663 -0.00834719622487)
(0.0745837703823 0.00720288440449 0.00213951661406)
(0.0688263111476 -0.000149671397607 -7.97192023279e-05)
(0.0712825970073 0.00659864178574 -0.00261029768884)
(0.0843730808951 0.00893739037635 0.00737339360404)
(0.0812301699856 -0.000181954825221 0.00436233934991)
(0.0847859972363 0.0083232344385 0.00607652978577)
(0.0862052247672 0.0108939456196 0.0139988554226)
(0.0869589760879 -0.000222121845929 0.0103880815351)
(0.0916737101322 0.0104235673947 0.0178732065137)
(0.078096327782 0.0128566777267 0.0213143365097)
(0.0837349178268 -0.000273107632602 0.017612273781)
(0.0892492004647 0.0127159956998 0.0319230390256)
(0.059557681081 0.0145544876568 0.0281007737926)
(0.0702183559496 -0.000334377086751 0.0250158125889)
(0.0756550844428 0.0149158991299 0.0462452092167)
(0.0321409486428 0.0157074803229 0.0329191561103)
(0.0468247925941 -0.000395399990444 0.0311780502819)
(0.050853893507 0.0166502186848 0.0581872401554)
(-0.000332226050218 0.0160960229191 0.0346475313253)
(0.016230126982 -0.000446730150256 0.0346434369261)
(0.0177232252686 0.0175840418123 0.0649465107413)
(-0.0327783222407 0.015635310823 0.0328932004992)