/*--------------------------------*- C++ -*----------------------------------*\
| =========                 |                                                 |
| \\      /  F ield         | OpenFOAM: The Open Source CFD Toolbox           |
|  \\    /   O peration     | Version:  3.0.1                                 |
|   \\  /    A nd           | Web:      www.OpenFOAM.org                      |
|    \\/     M anipulation  |                                                 |
\*---------------------------------------------------------------------------*/
FoamFile
{
    version     2.0;
    format      ascii;
    class       volScalarField;
    location    "0.2";
    object      p;
}
// * * * * * * * * * * * * * * * * * * * * * * * * * * * * * * * * * * * * * //

dimensions      [1 -1 -2 0 0 0 0];

internalField   nonuniform List<scalar> 
7968
(
4669.90549668
4670.15245266
4670.61714588
4671.26350596
4672.03639972
4672.86803522
4673.68017131
4674.38942131
4674.91718586
4675.2011171
4675.20647938
4674.9327683
4674.4140995
4673.71243822
4672.90630495
4672.07839683
4671.30773498
4670.66295925
4670.19936871
4669.95464192
4670.14274506
4670.40852036
4670.9087445
4671.60495751
4672.43923912
4673.3401716
4674.22298404
4674.99699671
4675.57561004
4675.88776476
4675.89354018
4675.59231599
4675.02347391
4674.2570985
4673.37984697
4672.48293622
4671.65120915
4670.95616938
4670.45579765
4670.19214982
4670.5890013
4670.89002685
4671.4584775
4672.24977694
4673.20172079
4674.23583251
4675.25727792
4676.16021053
4676.83949928
4677.20761666
4677.21414451
4676.85842199
4676.18989368
4675.29540371
4674.27999138
4673.24982457
4672.3003621
4671.51028659
4670.94185421
4670.64310856
4671.21021475
4671.56071015
4672.22357773
4673.14988238
4674.27176023
4675.5012168
4676.72806441
4677.82355393
4678.65468207
4679.10767174
4679.11540702
4678.67701232
4677.85831473
4676.77266181
4675.55206801
4674.32640704
4673.20680763
4672.2816362
4671.6190168
4671.26922871
4671.95342191
4672.36418267
4673.1437915
4674.23952735
4675.57809457
4677.059981
4678.55477192
4679.90444079
4680.93776003
4681.50467533
4681.51409313
4680.96470032
4679.94648035
4678.60945059
4677.11962609
4675.64107771
4674.304533
4673.20974076
4672.43023789
4672.01932544
4672.75266489
4673.23163717
4674.14317424
4675.4333741
4677.02434182
4678.80337425
4680.61916983
4682.27518713
4683.55294331
4684.25667088
4684.26834514
4683.586197
4682.32601143
4680.68230015
4678.87306138
4677.09681031
4675.50774746
4674.21822039
4673.30637931
4672.82695679
4673.53198127
4674.08086205
4675.12947967
4676.62406348
4678.48454213
4680.58183827
4682.74529285
4684.73593478
4686.28210427
4687.13725166
4687.15160122
4686.32276411
4684.79734582
4682.8201548
4680.66307623
4678.56550381
4676.70860972
4675.21442493
4674.16515836
4673.61609774
4674.21112725
4674.82370618
4675.99955675
4677.68465028
4679.79556298
4682.20077236
4684.69885972
4687.01246006
4688.81773556
4689.81930304
4689.83654842
4688.86649959
4687.08553535
4684.78680399
4682.29522826
4679.89097501
4677.78035814
4676.09448528
4674.91761156
4674.30419538
4674.71381335
4675.37596394
4676.65092679
4678.4859525
4680.79676374
4683.44541926
4686.21093801
4688.78288814
4690.79447262
4691.91209427
4691.93206869
4690.85095496
4688.86711968
4686.31129771
4683.5521035
4680.90363029
4678.5914687
4676.754661
4675.47797636
4674.81410356
4674.97927997
4675.66875463
4676.99817054
4678.91604125
4681.33831351
4684.12147935
4687.03608307
4689.7523156
4691.8784344
4693.05939386
4693.0814726
4691.9405194
4689.84486894
4687.14585401
4684.23747229
4681.45405041
4679.02909443
4677.10865861
4675.77705749
4675.085817
4674.97402701
4675.66343117
4676.99226279
4678.90925368
4681.33035568
4684.1122431
4687.02506338
4689.7391155
4691.86359755
4693.04402997
4693.06702288
4691.92840766
4689.83528008
4687.13877919
4684.23231786
4681.45032339
4679.02641289
4677.10669304
4675.77552882
4675.08446073
4674.69834754
4675.35998465
4676.63332666
4678.4657151
4680.77282476
4683.41716454
4686.17751747
4688.74407448
4690.75125302
4691.86706063
4691.88952916
4690.81470916
4688.83859222
4686.28985112
4683.53631589
4680.89220571
4678.58313899
4676.74850669
4675.47315919
4674.80976591
4674.18607674
4674.79760426
4675.97082671
4677.65167135
4679.75689858
4682.15517852
4684.64533253
4686.95092766
4688.74979051
4689.74880608
4689.76961262
4688.80875526
4687.03934789
4684.75134023
4682.26861618
4679.87132287
4677.76583247
4676.08377381
4674.90910036
4674.29618197
4673.49816595
4674.04531717
4675.09063535
4676.57979836
4678.43240096
4680.52153099
4682.67540761
4684.65658264
4686.19551438
4687.04808779
4687.06655905
4686.24797832
4684.73590887
4682.77185521
4680.62616111
4678.537818
4676.68810857
4675.19908152
4674.15294801
4673.60495541
4672.71114172
4673.187933
4674.09583864
4675.38004663
4676.96271033
4678.73221562
4680.53786367
4682.18397555
4683.45463752
4684.15617452
4684.17206937
4683.50005362
4682.25342191
4680.62386828
4678.82758248
4677.0622229
4675.48189207
4674.19851034
4673.29059447
4672.81323773
4671.90528201
4672.31403166
4673.08975168
4674.17929101
4675.50947544
4676.98191283
4678.4678166
4679.80720137
4680.83412299
4681.39946692
4681.41297707
4680.8729218
4679.86752718
4678.54443445
4677.06799716
4675.60112573
4674.27411352
4673.18622664
4672.41134416
4672.00238557
4671.15691967
4671.50559439
4672.1646423
4673.08489684
4674.19887809
4675.41935909
4676.63733908
4677.72481234
4678.5505601
4679.00243804
4679.0141493
4678.58421703
4677.77717714
4676.70455066
4675.49693643
4674.28297377
4673.17317854
4672.25554064
4671.59767896
4671.24920831
4670.53209914
4670.8312228
4671.39594202
4672.1816928
4673.12646488
4674.1524905
4675.16609174
4676.06240295
4676.73738914
4677.10482737
4677.11514636
4676.76692064
4676.10881453
4675.22623887
4674.22300135
4673.20413215
4672.26432814
4671.48175848
4670.9183304
4670.6203407
4670.08390502
4670.3463347
4670.8430286
4671.53485578
4672.36256811
4673.25603129
4674.13205271
4674.90052071
4675.47541745
4675.78724699
4675.7963765
4675.50201435
4674.94260959
4674.18713431
4673.32143229
4672.43556126
4671.61335626
4670.9253242
4670.43095138
4670.16906781
4669.84758604
4670.09128752
4670.55350125
4671.19308742
4671.95901807
4672.78358199
4673.58926373
4674.29256573
4674.81703234
4675.10091792
4675.10938616
4674.84197716
4674.33239152
4673.64138741
4672.84641368
4672.02947044
4671.26845524
4670.63167332
4670.17333428
4669.92907821
4179.80437932
4180.05022593
4180.51623768
4181.16579296
4181.94503422
4182.78595844
4183.60963389
4184.33186874
4184.87091902
4185.16157664
4185.16688775
4184.88662296
4184.35667382
4183.64175924
4182.82377203
4181.98698191
4181.21020869
4180.5622329
4180.09654986
4179.85199743
4180.03964714
4180.30333397
4180.80751703
4181.51130052
4182.35721891
4183.27438881
4184.17778989
4184.97361886
4185.57052325
4185.89332188
4185.89907086
4185.58726302
4184.99994831
4184.21172959
4183.31404729
4182.4008463
4181.55748062
4180.85483211
4180.35106598
4180.08791116
4180.48664222
4180.78782068
4181.36400434
4182.16995501
4183.14451253
4184.20999794
4185.26968909
4186.21286948
4186.92635455
4187.3143239
4187.32090615
4186.94538517
4186.24247438
4185.30748676
4184.25378431
4183.19222565
4182.2201953
4181.41558774
4180.83971098
4180.53912999
4181.11077653
4181.46506589
4182.14244908
4183.09492578
4184.25731569
4185.54319973
4186.83925364
4188.00779704
4188.90154084
4189.39074502
4189.39865942
4188.9242341
4188.04264694
4186.88284317
4185.59324262
4184.31118679
4183.15109728
4182.19981797
4181.522733
4181.16841814
4181.85986121
4182.27930645
4183.08372188
4184.22321116
4185.62987485
4187.20777971
4188.82254783
4190.29793918
4191.44001916
4192.06945181
4192.07935251
4191.46813729
4190.34020791
4188.87258524
4187.26629511
4185.69212977
4184.28729314
4183.14871424
4182.34444447
4181.9246749
4182.66803545
4183.16202867
4184.112717
4185.4711072
4187.1686801
4189.10009667
4191.10335824
4192.96182592
4194.41723072
4195.225951
4195.23856148
4194.45252274
4193.01464893
4191.1672049
4189.17030066
4187.24194118
4185.54492929
4184.18673906
4183.23581097
4182.74137477
4183.45902256
4184.03090419
4185.13558286
4186.72810719
4188.74052556
4191.0624783
4193.50231597
4195.79501563
4197.60745768
4198.62087453
4198.63690409
4197.6519183
4195.86085932
4193.58070737
4191.14678435
4188.82936374
4186.81333964
4185.21965831
4184.11407281
4183.54136706
4184.1512081
4184.79488699
4186.04471476
4187.86096453
4190.18137012
4192.88285978
4195.75622022
4198.48243718
4200.65043054
4201.86783341
4201.88783847
4200.70539852
4198.56317532
4195.85054021
4192.98166079
4190.28003484
4187.95707107
4186.13878763
4184.88729403
4184.24213989
4184.66504036
4185.36506338
4186.72946904
4188.72401616
4191.29140871
4194.30449958
4197.53399942
4200.61516203
4203.07137494
4204.4532314
4204.47703357
4203.13673528
4200.71094253
4197.64409325
4194.417584
4191.40189029
4188.83040335
4186.8325433
4185.46572107
4184.76374886
4184.93708656
4185.66820132
4187.09605585
4189.18978253
4191.89525345
4195.08521796
4198.51739542
4201.80066295
4204.41965595
4205.8938448
4205.92057885
4204.49287772
4201.90793153
4198.63967152
4195.20935267
4192.01509548
4189.30428851
4187.20628611
4185.77543147
4185.04208609
4184.93165712
4185.66272134
4187.09004906
4189.18282351
4191.88697518
4195.07523441
4198.5052461
4201.78602531
4204.40260079
4205.8754005
4205.90323337
4204.47900114
4201.89797263
4198.63294102
4195.20472698
4192.01184712
4189.30199771
4187.2045964
4185.77400269
4185.04062545
4184.6495437
4185.34896305
4186.71164628
4188.70328563
4191.26674116
4194.2746269
4197.49778425
4200.5717859
4203.02102064
4204.3988157
4204.42579262
4203.09543955
4200.68086429
4197.6230346
4194.40281357
4191.39145011
4188.82299935
4186.82710147
4185.46122571
4184.7592821
4184.12643159
4184.76875963
4186.01563109
4187.82712037
4190.1411052
4192.83432047
4195.69779968
4198.41314948
4200.57130943
4201.78339123
4201.80787061
4200.63940309
4198.51389437
4195.81479013
4192.95592024
4190.26157746
4187.94378536
4186.12891946
4184.87935926
4184.23469984
4183.42541814
4183.99546027
4185.09629166
4186.6826461
4188.68730326
4190.99805314
4193.42573448
4195.70588142
4197.50778419
4198.51642248
4198.53748165
4197.56688488
4195.7941846
4193.53058347
4191.10984054
4188.80226542
4186.79376569
4185.20507715
4184.10245223
4183.53094609
4182.6267588
4183.11863315
4184.06489851
4185.41610583
4187.10412348
4189.02386631
4191.01429981
4192.86043978
4194.30616014
4195.11110982
4195.12876115
4194.35606523
4192.9359134
4191.10595944
4189.12397041
4187.20755487
4185.51955122
4184.16758716
4183.2205452
4182.72788332
4181.81241168
4182.22955474
4183.02934346
4184.16140013
4185.55827428
4187.12458775
4188.7263546
4190.19159014
4191.32558445
4191.95240002
4191.9671098
4191.3676186
4190.25573876
4188.80513009
4187.21355431
4185.651967
4184.25695211
4183.12542367
4182.325619
4181.90774778
4181.05849905
4181.4105789
4182.08352699
4183.02888696
4184.18209545
4185.45748238
4186.7428074
4187.90204703
4188.78937248
4189.27696234
4189.28930354
4188.82487409
4187.9570306
4186.81221104
4185.53678839
4184.26711693
4183.11708341
4182.17328016
4181.50096808
4181.14812514
4180.43114714
4180.72977036
4181.30200641
4182.10144637
4183.06781422
4184.12407361
4185.17469368
4186.11015904
4186.81861164
4187.20564592
4187.2161697
4186.84909856
4186.15791358
4185.23609057
4184.19539854
4183.14561948
4182.18343471
4181.3863479
4180.81555495
4180.51592456
4179.98167675
4180.24279609
4180.74320973
4181.44118522
4182.27976516
4183.18870333
4184.08421651
4184.87343754
4185.46621786
4185.78843058
4185.79759712
4185.49305607
4184.91607071
4184.13985957
4183.25432609
4182.35232567
4181.51856443
4180.82365881
4180.32525784
4180.06345526
4179.74635649
4179.98895107
4180.45155369
4181.09475094
4181.86672627
4182.69990646
4183.51603212
4184.23185726
4184.76712344
4185.05721748
4185.06555441
4184.79183949
4184.27177684
4183.56871916
4182.76259864
4181.93651114
4181.1690871
4180.52853276
4180.06851071
4179.82431038
3689.224815
3689.46933415
3689.93644046
3690.59308115
3691.38419033
3692.24333463
3693.09143171
3693.83958538
3694.40095683
3694.7045972
3694.70972927
3694.41710496
3693.86465032
3693.12345734
3692.28059001
3691.42642827
3690.63767391
3689.98263461
3689.5157795
3689.27184023
3689.45848864
3689.72146804
3690.23116994
3690.94825543
3691.81588557
3692.76405923
3693.70631042
3694.54380064
3695.1764676
3695.52020531
3695.52601841
3695.19342864
3694.57020038
3693.74014838
3692.80356235
3691.8593784
3690.99431477
3690.27823304
3689.76859788
3689.50580419
3689.90634268
3690.21096917
3690.801183
3691.63250701
3692.64709403
3693.76907186
3694.89952706
3695.91943109
3696.69991676
3697.12745819
3697.13418075
3696.71918425
3695.94898164
3694.93698889
3693.81226422
3692.69409001
3691.68206962
3690.85219655
3690.26264342
3689.95813054
3690.53760065
3690.9010525
3691.60411059
3692.6015421
3693.8342169
3695.219614
3696.64187535
3697.95123237
3698.97112785
3699.53569876
3699.543886
3698.99423724
3697.98617975
3696.68527241
3695.26851545
3693.88653322
3692.65615475
3691.66015113
3690.95780067
3690.5941302
3691.29874697
3691.73656459
3692.58436861
3693.79872893
3695.32213265
3697.06737827
3698.90502122
3700.64205678
3702.01717485
3702.784642
3702.79523178
3702.04643603
3700.68592591
3698.95846807
3697.12484944
3695.3822394
3693.86049868
3692.64730637
3691.80016718
3691.36186484
3692.12517569
3692.64992418
3693.6687094
3695.14450013
3697.02669452
3699.24481574
3701.66112041
3703.99317466
3705.85408816
3706.89743312
3706.91171549
3705.89227516
3704.05005867
3701.72905901
3699.31569615
3697.09748307
3695.21563708
3693.74029179
3692.72180504
3692.19706499
3692.9410205
3693.55730321
3694.76115107
3696.52623294
3698.82237381
3701.61747973
3704.747961
3707.80324955
3710.25244812
3711.63286326
3711.6521796
3710.30285178
3707.87774379
3704.83577289
3701.70698742
3698.90666919
3696.60875744
3694.84277257
3693.63832555
3693.02130257
3693.65956103
3694.36274279
3695.74595933
3697.79796554
3700.51958172
3703.90785855
3707.76069186
3711.55271255
3714.6097619
3716.3439022
3716.3697294
3714.67547184
3711.64909153
3707.87112741
3704.0179153
3700.62013568
3697.89275814
3695.83800416
3694.45300234
3693.74825987
3694.19608599
3694.96858528
3696.4971049
3698.78618083
3701.8611528
3705.73373975
3710.17424532
3714.57365101
3718.13241205
3720.15411777
3720.18617613
3718.21460534
3714.69496255
3710.30864079
3705.86384259
3701.97714191
3698.89271976
3696.59847031
3695.06724539
3694.29271903
3694.48140489
3695.29252984
3696.90287608
3699.32677782
3702.60247922
3706.74900853
3711.52611077
3716.27960878
3720.12432579
3722.30709359
3722.34464665
3720.22031888
3716.42058926
3711.67980679
3706.89485535
3702.73070717
3699.44308075
3697.01231147
3695.39823969
3694.58456182
3694.47472807
3695.28685947
3696.89672482
3699.31946261
3702.59337879
3706.73696636
3711.50981791
3716.25862507
3720.09828675
3722.27709678
3722.31631822
3720.19922932
3716.4070367
3711.67235541
3706.89092045
3702.72862518
3699.44174976
3697.01131288
3695.39715643
3694.58312655
3694.18036233
3694.95243877
3696.47886267
3698.76427823
3701.8338285
3705.69744767
3710.12513473
3714.5100903
3718.05347037
3720.06323689
3720.10044682
3718.15052416
3714.65310844
3710.28299222
3705.8493917
3701.96912318
3698.88754352
3696.5946579
3695.06355465
3694.28791984
3693.63556308
3694.3366601
3695.71605833
3697.76187533
3700.47476165
3703.84911092
3707.68192916
3711.45128158
3714.48727488
3716.20634412
3716.23878411
3714.5743939
3711.58137693
3707.82733854
3703.99164617
3700.60428132
3697.88189394
3695.82968345
3694.44599883
3693.74111342
3692.90796371
3693.52193837
3694.72066159
3696.47738567
3698.76201645
3701.54100613
3704.64906878
3707.67950413
3710.10757031
3711.47629912
3711.50263024
3710.17964961
3707.78836071
3704.77535703
3701.6685175
3698.88186138
3696.59115524
3694.82953294
3693.62755426
3693.01147663
3692.08438209
3692.60678369
3693.61961529
3695.08568759
3696.95489374
3699.15676297
3701.55307883
3703.86362626
3705.70686633
3706.74175222
3706.76280135
3705.76523604
3703.95247323
3701.65901071
3699.26717854
3697.06360655
3695.19133398
3693.72200224
3692.70708855
3692.18421488
3691.25277662
3691.68749628
3692.52911445
3693.733537
3695.24391594
3696.97378545
3698.79442011
3700.51469445
3701.87665402
3702.63871005
3702.65552108
3701.92416066
3700.58719804
3698.8828681
3697.06919608
3695.34149485
3693.83032724
3692.62414535
3691.78122295
3691.34535668
3690.48711344
3690.84778198
3691.54513371
3692.5333209
3693.75412997
3695.12594874
3696.5341714
3697.83058737
3698.84099524
3699.40243215
3699.4160452
3698.87988475
3697.89027499
3696.60858639
3695.20906683
3693.84118856
3692.62146146
3691.63292034
3690.9352315
3690.57321761
3689.85309967
3690.15450122
3690.74002427
3691.56324136
3692.56759338
3693.67811684
3694.79717038
3695.80709336
3696.58067055
3697.00643142
3697.01762278
3696.61300968
3695.85726834
3694.86093389
3693.75104025
3692.64572807
3691.64393817
3690.82174408
3690.23746085
3689.93349019
3689.4034232
3689.66274841
3690.16864929
3690.87862319
3691.73736811
3692.67573123
3693.60837887
3694.43776312
3695.06517906
3695.40776637
3695.4170804
3695.09263392
3694.48135237
3693.66479684
3692.7414839
3691.80899313
3690.95383628
3690.24597992
3689.74271205
3689.48043977
3689.16901511
3689.40984873
3689.87331578
3690.52273557
3691.30534612
3692.15576188
3692.99478385
3693.73541994
3694.29231441
3694.59504896
3694.60290347
3694.31641785
3693.77546652
3693.04777665
3692.21788793
3691.37439199
3690.59489239
3689.94680673
3689.48567421
3689.24331932
3198.15970922
3198.40230161
3198.87251143
3199.53178837
3200.33300698
3201.20956092
3202.08317237
3202.86160071
3203.44904109
3203.76956065
3203.77482858
3203.46551766
3202.88671665
3202.11518932
3201.24684746
3200.37430022
3199.57525053
3198.91790768
3198.4470439
3198.20512584
3198.3917953
3198.65664318
3199.16892657
3199.89603079
3200.78390153
3201.76469294
3202.75110321
3203.63864236
3204.31613216
3204.68703557
3204.69297082
3204.33333947
3203.66493478
3202.78458267
3201.80373949
3200.82651433
3199.94113188
3199.21539275
3198.70260281
3198.43758004
3198.84321778
3199.14923994
3199.74936334
3200.6045034
3201.66147205
3202.84833923
3204.06500555
3205.18400405
3206.05418949
3206.5366099
3206.54352175
3206.0738972
3205.21289774
3204.10142954
3202.8900321
3201.70662133
3200.65228007
3199.79886754
3199.19965386
3198.89286251
3199.47823393
3199.85016834
3200.57673173
3201.6216073
3202.93425752
3204.45101748
3206.07113714
3207.61036801
3208.82512233
3209.50196885
3209.51045275
3208.84822289
3207.64520311
3206.11436128
3204.49788297
3202.98322237
3201.67296404
3200.62998166
3199.9048407
3199.53334841
3200.25052814
3200.70683015
3201.59987551
3202.89909195
3204.58701574
3206.64704659
3208.9490871
3211.18141268
3212.95043489
3213.93828024
3213.94963649
3212.9799877
3211.2257047
3209.00399219
3206.7055968
3204.64414204
3202.95624674
3201.65895831
3200.76741733
3200.31141377
3201.09590638
3201.65380942
3202.74953945
3204.37608995
3206.60482064
3209.47765149
3212.77609276
3216.00580815
3218.57877782
3220.02410072
3220.04123546
3218.61832222
3216.06357183
3212.84539111
3209.55245641
3206.67712966
3204.44255953
3202.81653425
3201.72210706
3201.16487428
3201.93835328
3202.606093
3203.92840472
3205.9543205
3208.85990695
3212.72650745
3217.23873901
3221.71900454
3225.33192845
3227.38620035
3227.41192525
3225.38809079
3221.79798636
3217.32787043
3212.81941382
3208.95117912
3206.03459074
3204.0055563
3202.683404
3202.01536755
3202.68852866
3203.46249051
3205.0124603
3207.45352317
3211.047355
3215.90840529
3221.66971934
3227.489377
3232.23818518
3234.97902604
3235.01762701
3232.31700879
3227.60063712
3221.78758922
3216.02375991
3211.15794012
3207.54952662
3205.10113758
3203.54911611
3202.77345618
3203.25267392
3204.11400389
3205.8541587
3208.6357393
3212.78071772
3218.44464621
3225.24725394
3232.202947
3237.91220549
3241.2116326
3241.26193264
3238.01800458
3232.36268504
3225.4045163
3218.58888127
3212.9116693
3208.74619869
3205.95076187
3204.20883924
3203.34598174
3203.55398174
3204.46531036
3206.31495083
3209.28874608
3213.74169399
3219.8614362
3227.28101377
3234.93700495
3241.20435528
3244.80745542
3244.87042113
3241.33833746
3235.13689605
3227.47227409
3220.03005713
3213.89027929
3209.41189936
3206.42172886
3204.5679577
3203.65473687
3203.54797896
3204.45987065
3206.30882863
3209.28059719
3213.729248
3219.84216671
3227.25321081
3234.90110512
3241.15811595
3244.75026504
3244.815636
3241.30016481
3235.11349206
3227.46044704
3220.02464995
3213.88858583
3209.41209909
3206.42223981
3204.56767708
3203.65389472
3203.23726049
3204.09826705
3205.83575715
3208.61094703
3212.74275291
3218.38523481
3225.16126713
3232.08920436
3237.76270586
3241.02520911
3241.08513757
3237.89694379
3232.2905891
3225.3595787
3218.564249
3212.90180504
3208.74386992
3205.95093086
3204.20713056
3203.34301222
3202.66447219
3203.43663833
3204.98162547
3207.4123402
3210.98511949
3215.81135107
3221.52784
3227.29787999
3231.99936717
3234.69511531
3234.7440453
3232.12020579
3227.48016795
3221.70814714
3215.9776
3211.13691194
3207.54100723
3205.09463721
3203.54365694
3202.76753547
3201.90606311
3202.57085262
3203.88611843
3205.8991405
3208.77962386
3212.60414195
3217.06275172
3221.48839934
3225.05564092
3227.08028302
3227.11588424
3225.14688788
3221.62813721
3217.21456822
3212.75415884
3208.91996293
3206.01908748
3203.994184
3202.67377415
3202.00697765
3201.05643042
3201.61092593
3202.69818145
3204.31070643
3206.51632481
3209.351595
3212.60126868
3215.78309202
3218.32013649
3219.74577014
3219.77245906
3218.38967389
3215.89097449
3212.72809905
3209.48333065
3206.63970572
3204.41984341
3202.79949134
3201.70792965
3201.15157427
3200.20588957
3200.65829255
3201.54277164
3202.82814655
3204.49687742
3206.53045453
3208.79876227
3210.99704168
3212.74113616
3213.71798176
3213.73794661
3212.79650839
3211.08268659
3208.90333507
3206.64040078
3204.6018547
3202.92649057
3201.63592603
3200.74809294
3200.29398134
3199.42943041
3199.79826104
3200.51716881
3201.54957904
3202.84627237
3204.34410958
3205.9428848
3207.4612919
3208.66059338
3209.33155891
3209.34719809
3208.70451615
3207.52877375
3206.02625746
3204.43367157
3202.93628086
3201.63748148
3200.60194364
3199.88107108
3199.51073591
3198.7931572
3199.09545499
3199.68917421
3200.53381701
3201.57766239
3202.74983963
3203.95176524
3205.05744837
3205.91738929
3206.39671593
3206.40910019
3205.95301797
3205.1107046
3204.01877844
3202.82491008
3201.65610395
3200.6125209
3199.76654899
3199.17235175
3198.86854049
3198.33938534
3198.60087273
3199.10850525
3199.82697268
3200.70391868
3201.67288005
3202.64755139
3203.52496795
3204.19562084
3204.56451893
3204.57412204
3204.22432365
3203.56984751
3202.70483633
3201.73861258
3200.77389783
3199.89856138
3199.17919123
3198.67736939
3198.41203076
3198.10681946
3198.34589461
3198.81111912
3199.46347573
3200.25426804
3201.12064392
3201.98350797
3202.75276232
3203.33619503
3203.65463913
3203.66127401
3203.36067918
3202.79316829
3202.03680098
3201.18147502
3200.32050246
3199.53109393
3198.88078612
3198.41704418
3198.17656937
2706.62357537
2706.85219655
2707.31619444
2707.97251459
2708.76701439
2709.64362516
2710.52978193
2711.32711829
2711.93793337
2712.27156165
2712.27706284
2711.95405553
2711.35193094
2710.56139318
2709.68052959
2708.80665725
2708.01428499
2707.35878089
2706.89294315
2706.6671552
2706.84260941
2707.10597893
2707.61125723
2708.33424554
2709.22492053
2710.22027838
2711.23668206
2712.16412864
2712.88297788
2713.27957597
2713.28550627
2712.90001363
2712.18959144
2711.26906162
2710.25814604
2709.26535317
2708.37706561
2707.6554805
2707.15011333
2706.88438876
2707.28931062
2707.59329317
2708.18967044
2709.0511422
2710.13214818
2711.37491966
2712.69647736
2713.94309826
2714.91871094
2715.46139735
2715.46801608
2714.93828352
2713.97149635
2712.73227207
2711.41421839
2710.1734053
2709.09522404
2708.23600819
2707.64060626
2707.33594777
2707.92327782
2708.29203745
2709.02556464
2710.10094895
2711.51637328
2713.26931514
2715.23499457
2717.12388964
2718.5946556
2719.40778618
2719.41658189
2718.61598976
2717.15620548
2715.27584103
2713.31454915
2711.5621912
2710.146491
2709.07364135
2708.34255
2707.97483403
2708.69138363
2709.15382942
2710.07479192
2711.48310941
2713.5044795
2716.18396223
2719.25120163
2722.20407367
2724.51075983
2725.79748153
2725.80987836
2724.53888559
2722.24277311
2719.29702813
2716.23576377
2713.55980362
2711.53536956
2710.1276459
2709.2097003
2708.74880189
2709.53923412
2710.11813511
2711.28274617
2713.19466542
2716.13885584
2720.11601413
2724.71153761
2729.22264293
2732.83136774
2734.89451126
2734.91553565
2732.87299787
2729.27644477
2724.76680626
2720.17409198
2716.20319223
2713.26028187
2711.34295722
2710.18056744
2709.603981
2710.39654252
2711.10203998
2712.56677282
2715.11418534
2719.15207708
2724.65172183
2731.15032601
2737.76203512
2743.2513361
2746.45483986
2746.49102387
2743.31924847
2737.84562903
2731.22756142
2724.7248455
2719.22730938
2715.19493974
2712.63951149
2711.17389389
2710.46947009
2711.16735922
2712.00056374
2713.7780793
2716.95877835
2722.05195793
2729.10446429
2737.6990783
2746.77600812
2754.5047257
2759.15769246
2759.2444574
2754.60207046
2746.90172857
2737.81183647
2729.20252188
2722.14368091
2717.05370629
2713.8694507
2712.0821929
2711.2488397
2711.75590845
2712.69502803
2714.72520178
2718.39433725
2724.31874802
2732.67867684
2743.16568912
2754.48770147
2764.17541137
2770.03895258
2770.1401319
2764.31022024
2754.73101019
2743.3520856
2732.82431806
2724.43859992
2718.50585885
2714.81542193
2712.78338015
2711.84485856
2712.07263893
2713.07342488
2715.24706566
2719.18348372
2725.57587625
2734.70872789
2746.37422473
2759.24569364
2770.09984508
2776.48276225
2776.61629399
2770.3021667
2759.58465217
2746.62864782
2734.891373
2725.72186875
2719.31251763
2715.3539296
2713.17043741
2712.16846971
2712.06817018
2713.06874412
2715.24085808
2719.17246301
2725.55547718
2734.67685515
2746.32994433
2759.1981444
2770.0344704
2776.38881159
2776.52456098
2770.25286184
2759.54515557
2746.61028059
2734.88478242
2725.7187823
2719.31344009
2715.356383
2713.17130224
2712.16844693
2711.74289528
2712.68076595
2714.70606302
2718.35983687
2724.25561738
2732.57776486
2743.02700638
2754.32294994
2763.92623415
2769.6744984
2769.79987164
2764.1288211
2754.64712647
2743.28453228
2732.7796038
2724.41630644
2718.50176645
2714.82382432
2712.78479378
2711.84395731
2711.14559883
2711.97597947
2713.74486888
2716.90056361
2721.94549461
2728.93470851
2737.45518039
2746.43228233
2754.06809386
2758.56865253
2758.65958545
2754.25309492
2746.75486745
2737.68906112
2729.11286107
2722.09581725
2717.03843609
2713.86057771
2712.07889294
2711.24534321
2710.3662274
2711.06754723
2712.52121414
2715.03753426
2719.01313465
2724.42701334
2730.82989857
2737.34119906
2742.73713117
2745.87188583
2745.91694977
2742.8528006
2737.53952962
2731.01283671
2724.58772388
2719.1584097
2715.17004707
2712.62959089
2711.16585594
2710.46142517
2709.50202375
2710.07580964
2711.22790763
2713.11165137
2715.99748459
2719.88788057
2724.38768535
2728.81066819
2732.35361978
2734.37028665
2734.40430175
2732.439133
2728.94582819
2724.53353681
2720.03155267
2716.13367943
2713.23240255
2711.32809724
2710.1677678
2709.59163277
2708.64866754
2709.1059127
2710.0148921
2711.40185015
2713.3832706
2715.99875721
2718.99092963
2721.87746418
2724.13935819
2725.40524075
2725.42947604
2724.20515665
2721.97876678
2719.11004585
2716.1237594
2713.50288038
2711.5049533
2710.10531247
2709.19050996
2708.73084364
2707.87770321
2708.24188184
2708.96497295
2710.02357283
2711.41499109
2713.13372599
2715.05675518
2716.90535649
2718.34984647
2719.15318867
2719.17168536
2718.39986132
2716.98330026
2715.15216091
2713.23503095
2711.51191575
2710.11089442
2709.04562211
2708.31850386
2707.95273167
2707.24253987
2707.54254706
2708.13059401
2708.97868478
2710.04318839
2711.26684359
2712.56734142
2713.79437024
2714.75434676
2715.29257506
2715.30632338
2714.7940501
2713.85296276
2712.64048094
2711.34510195
2710.12214042
2709.05483978
2708.20268019
2707.61300977
2707.31174603
2706.79400762
2707.05466896
2707.55368532
2708.26617561
2709.14431389
2710.12560883
2711.12833024
2712.04373854
2712.75329353
2713.14692165
2713.15736174
2712.78364997
2712.09016761
2711.1862735
2710.19147409
2709.21201568
2708.33379385
2707.62004415
2707.12153242
2706.86016474
2706.57568255
2706.79974458
2707.25887961
2707.9064864
2708.69005024
2709.55502698
2710.42954017
2711.21680673
2711.82056867
2712.15185568
2712.16053779
2711.84685609
2711.25821333
2710.48165942
2709.61489299
2708.75259822
2707.97008782
2707.32273639
2706.86450577
2706.63861815
2214.63814206
2214.85856417
2215.26439044
2215.90812057
2216.65982989
2217.49942387
2218.36517107
2219.15974282
2219.77408116
2220.11120822
2220.11670307
2219.789823
2219.18387793
2218.39556331
2217.53413014
2216.69680408
2215.94633768
2215.30306915
2214.90434809
2214.68278374
2214.84995728
2215.08550882
2215.55460644
2216.2440045
2217.09901167
2218.06935282
2219.0802651
2220.02478542
2220.76280566
2221.17098262
2221.1768505
2220.77910624
2220.04921841
2219.11052723
2218.10326321
2217.13534405
2216.28231058
2215.59537196
2215.12920157
2214.89709617
2215.24102646
2215.5390439
2216.10524647
2216.93765878
2218.01525563
2219.32393653
2220.77325438
2222.1522333
2223.22143831
2223.81095937
2223.81741421
2223.23918007
2222.17885433
2220.80582085
2219.35996616
2218.05190421
2216.97546843
2216.14623875
2215.58220117
2215.28306109
2215.86559548
2216.20752479
2216.91533023
2218.01070617
2219.59900325
2221.70486448
2224.08777971
2226.33200087
2228.04220818
2228.9857041
2228.99395249
2228.06193701
2226.35811907
2224.11787816
2221.74002543
2219.63783093
2218.05033772
2216.95639234
2216.25206678
2215.91188583
2216.59428747
2217.03732322
2217.96485207
2219.5670464
2222.10539951
2225.50192326
2229.33474503
2233.00091995
2235.86916826
2237.49246426
2237.50695973
2235.89876943
2233.03322839
2229.36288413
2225.53160943
2222.14339045
2219.61264005
2218.00995311
2217.08642868
2216.64647202
2217.40888555