/*--------------------------------*- C++ -*----------------------------------*\
| =========                 |                                                 |
| \\      /  F ield         | OpenFOAM: The Open Source CFD Toolbox           |
|  \\    /   O peration     | Version:  3.0.1                                 |
|   \\  /    A nd           | Web:      www.OpenFOAM.org                      |
|    \\/     M anipulation  |                                                 |
\*---------------------------------------------------------------------------*/
FoamFile
{
    version     2.0;
    format      ascii;
    class       volScalarField;
    location    "0.2";
    object      p_rgh;
}
// * * * * * * * * * * * * * * * * * * * * * * * * * * * * * * * * * * * * * //

dimensions      [1 -1 -2 0 0 0 0];

internalField   nonuniform List<scalar> 
7968
(
4914.7141742
4914.96119701
4915.42579487
4916.07206911
4916.84495534
4917.67673303
4918.4887465
4919.19800561
4919.72574031
4920.00967158
4920.01503737
4919.74132323
4919.22268975
4918.52103603
4917.71498607
4916.88695352
4916.11629951
4915.47164625
4915.00813512
4914.76332014
4914.9513619
4915.21730902
4915.71736032
4916.41352435
4917.24811364
4918.14874971
4919.03160307
4919.80556787
4920.38419902
4920.69632137
4920.70209764
4920.40091318
4919.83203826
4919.06572003
4918.18846776
4917.29178056
4916.45977543
4915.76480184
4915.26459074
4915.00076977
4915.39784178
4915.69874224
4916.26704821
4917.05853945
4918.01049376
4919.0443526
4920.06577832
4920.96878949
4921.64807721
4922.01618952
4922.02272077
4921.66699686
4920.9984767
4920.10389539
4919.08852207
4918.05856069
4917.10914885
4916.31885446
4915.75056607
4915.45183144
4916.0187857
4916.36932521
4917.03221763
4917.95849557
4919.08044744
4920.30976458
4921.53662609
4922.63209575
4923.46323235
4923.91621984
4923.92395519
4923.48556705
4922.66685479
4921.5812227
4920.36056974
4919.13512285
4918.01540284
4917.09029674
4916.42757832
4916.07780092
4916.76198043
4917.17279519
4917.95237081
4919.04822601
4920.38672859
4921.86854537
4923.36332671
4924.71302052
4925.74631079
4926.31322481
4926.3226436
4925.77325175
4924.75506194
4923.41801746
4921.92823209
4920.44969909
4919.1132153
4918.01831673
4917.23884452
4916.82787965
4917.5612431
4918.04019889
4918.95181217
4920.24194904
4921.83312492
4923.61191291
4925.4277442
4927.08373686
4928.36149824
4929.06522109
4929.07689532
4928.39475212
4927.13456231
4925.49088346
4923.68164258
4921.90556115
4920.31632055
4919.02684677
4918.11493782
4917.63553646
4918.3405347
4918.88945605
4919.93804055
4921.43271635
4923.29311627
4925.39053034
4927.553819
4929.54449768
4931.09065404
4931.94580285
4931.96015289
4931.1313137
4929.60590737
4927.62867614
4925.47180322
4923.37407278
4921.51725054
4920.02298225
4918.97375329
4918.42465068
4919.01968874
4919.63226108
4920.80817552
4922.49321359
4924.60424206
4927.00934225
4929.50744609
4931.82100837
4933.62628745
4934.6278537
4934.64509842
4933.67505195
4931.89408469
4929.5954097
4927.10378594
4924.69963978
4922.58891741
4920.90310773
4919.72616572
4919.11275966
4919.522365
4920.184542
4921.45948981
4923.29458425
4925.60532874
4928.25399452
4931.0194878
4933.59143874
4935.60302262
4936.72064492
4936.74061923
4935.65950489
4933.6756702
4931.11984773
4928.36068472
4925.71219321
4923.40010509
4921.5632208
4920.28655759
4919.6226549
4919.78783606
4920.4773124
4921.80675825
4923.72461463
4926.14690829
4928.9300302
4931.84463409
4934.56086574
4936.68698485
4937.86794437
4937.89002287
4936.74907004
4934.65341901
4931.95440507
4929.04602356
4926.26265031
4923.8376623
4921.91724645
4920.58561259
4919.8943739
4919.78258407
4920.47198483
4921.80085383
4923.71781615
4926.13893627
4928.92079488
4931.83361436
4934.54766523
4936.67214873
4937.85258037
4937.87557288
4936.73695881
4934.64382986
4931.94732995
4929.04086984
4926.25891612
4923.83497226
4921.91528924
4920.58408098
4919.89301973
4919.50689809
4920.16856316
4921.44188478
4923.27434851
4925.58139156
4928.22571909
4930.98606766
4933.55262527
4935.55980303
4936.67561133
4936.69807986
4935.62325916
4933.64714313
4931.09840037
4928.34488383
4925.70076592
4923.3917856
4921.55706213
4920.28174416
4919.61831637
4918.99463718
4919.60615767
4920.77944337
4922.46023366
4924.56560748
4926.96374396
4929.45391607
4931.75947596
4933.55834262
4934.5573568
4934.57816265
4933.61730765
4931.84789745
4929.55994046
4927.07717282
4924.68001101
4922.57438984
4920.8923994
4919.71765287
4919.10474719
4918.30671881
4918.85391042
4919.89919642
4921.38845409
4923.24098072
4925.33024096
4927.48392603
4929.46514816
4931.00406405
4931.85663924
4931.87511078
4931.05652803
4929.5444672
4927.58037124
4925.4348987
4923.34638942
4921.49675694
4920.00763848
4918.96154691
4918.41350783
4917.51971845
4917.99649544
4918.90447895
4920.18862285
4921.77147779
4923.54077761
4925.34646498
4926.99252645
4928.26319347
4928.96472478
4928.98061956
4928.30860904
4927.06197552
4925.43244708
4923.63619072
4921.87095799
4920.29046574
4919.00714433
4918.09915347
4917.62181873
4916.71383901
4917.12264452
4917.89833124
4918.98797596
4920.31808695
4921.79050683
4923.27637865
4924.61578077
4925.64267539
4926.20801681
4926.22152695
4925.68147587
4924.67611512
4923.35300558
4921.87660937
4920.40974552
4919.08278118
4917.99480324
4917.21995327
4916.81094046
4915.96549159
4916.31419496
4916.97328641
4917.89348709
4919.00761685
4920.22786984
4921.4459021
4922.53335634
4923.35911104
4923.81098553
4923.82269625
4923.39277067
4922.58572857
4921.51312117
4920.30545382
4919.09167292
4917.98177129
4917.06419
4916.40624055
4916.05778026
4915.34091743
4915.6399114
4916.20452538
4916.99044866
4917.93523578
4918.96101963
4919.97459428
4920.87098817
4921.5459779
4921.91341517
4921.92373198
4921.57550664
4920.9174082
4920.03473792
4919.03152512
4918.01279249
4917.07314603
4916.29031993
4915.72701401
4915.42904151
4914.89251443
4915.15508362
4915.65162912
4916.34343238
4917.17133559
4918.06467986
4918.94067946
4919.70909442
4920.28400677
4920.59580469
4920.60493418
4920.31061018
4919.75117926
4918.9957622
4918.13003119
4917.24437887
4916.42193679
4915.73393128
4915.23970368
4914.97768056
4914.65621959
4914.90002338
4915.36219305
4916.00164606
4916.76757413
4917.59220354
4918.39786136
4919.10115017
4919.6255891
4919.90947189
4919.91794229
4919.65053241
4919.14097974
4918.44998427
4917.65506542
4916.83802628
4916.07701763
4915.4403441
4914.98208651
4914.73773127
4914.23016735
4914.47604193
4914.94194169
4915.59144779
4916.37073888
4917.21161537
4918.03531029
4918.75751963
4919.29657968
4919.58722745
4919.59253781
4919.31227672
4918.78232464
4918.06742963
4917.24942765
4916.41268643
4915.6358672
4914.98793051
4914.52249393
4914.27775897
4914.46538628
4914.72908724
4915.23322002
4915.93710703
4916.7828718
4917.70010629
4918.60344399
4919.39929572
4919.99617533
4920.31898342
4920.32473088
4920.01291309
4919.42562896
4918.63738096
4917.73974821
4916.82650405
4915.9832898
4915.28052479
4914.77681281
4914.51375318
4914.91253911
4915.21353035
4915.78976391
4916.59562345
4917.57018975
4918.63564859
4919.69536361
4920.63852025
4921.35202736
4921.73999686
4921.74658248
4921.37105443
4920.66812448
4919.73316201
4918.67943682
4917.61789693
4916.64587687
4915.84134591
4915.26541535
4914.96485542
4915.53645326
4915.89085509
4916.56811434
4917.52060588
4918.68296834
4919.96887142
4921.26490254
4922.43347089
4923.32722357
4923.8164915
4923.82441156
4923.34990117
4922.46832041
4921.30849671
4920.0189095
4918.73684661
4917.57676335
4916.62550561
4915.94851604
4915.59408685
4916.28562176
4916.70498234
4917.50943854
4918.64886438
4920.05554963
4921.63343016
4923.24818243
4924.72360139
4925.86581299
4926.49512095
4926.50501463
4925.89393609
4924.76583833
4923.29823688
4921.69195003
4920.11779513
4918.71295618
4917.57441642
4916.77013328
4916.35042436
4917.09370057
4917.58776251
4918.53836811
4919.89680052
4921.59432753
4923.52576275
4925.52902177
4927.38766376
4928.84290026
4929.65162046
4929.6642336
4928.8781887
4927.4404894
4925.59284396
4923.59594512
4921.66759936
4919.97061069
4918.61239272
4917.66154467
4917.16704073
4917.88470635
4918.45655755
4919.56127771
4921.15377063
4923.1662018
4925.48817671
4927.9281599
4930.22068489
4932.03313696
4933.04653131
4933.06255773
4932.07760018
4930.28652758
4928.00655905
4925.57240946
4923.25502367
4921.23900048
4919.64535824
4918.53972755
4917.96706057
4918.57686052
4919.22058678
4920.47038802
4922.28665867
4924.60704882
4927.30872154
4930.18188793
4932.90811265
4935.07608426
4936.29349951
4936.3135045
4935.1310516
4932.9888516
4930.27620846
4927.40753124
4924.70571287
4922.38275754
4920.56445634
4919.31300017
4918.66779261
4919.09070863
4919.79073129
4921.15517406
4923.14972148
4925.71719718
4928.73016385
4931.95966153
4935.04081443
4937.49703431
4938.87888687
4938.90268491
4937.56239472
4935.13659485
4932.06975683
4928.84324955
4925.82768575
4923.25611935
4921.25823216
4919.89138487
4919.18942005
4919.36274125
4920.09387407
4921.52173411
4923.61553583
4926.32091404
4929.51087343
4932.94304691
4936.22631633
4938.84530764
4940.31949701
4940.34623026
4938.91852878
4936.33358533
4933.0653229
4929.63500887
4926.44075796
4923.7300429
4921.63196816
4920.20109499
4919.46773905
4919.35730968
4920.08839055
4921.51572612
4923.60859141
4926.3126422
4929.50089387
4932.93089768
4936.21168288
4938.82825231
4940.3010559
4940.32888792
4938.90465153
4936.32362879
4933.05859213
4929.63038444
4926.43750947
4923.72776541
4921.63027702
4920.19967082
4919.46627699
4919.0752128
4919.77462731
4921.13734765
4923.12898601
4925.69254988
4928.70029805
4931.92345144
4934.99743854
4937.44668344
4938.82447037
4938.85144304
4937.52110171
4935.10651546
4932.04869999
4928.82847976
4925.81726165
4923.2487106
4921.25279659
4919.8868852
4919.18495794
4918.55208293
4919.19447023
4920.44129999
4922.25281017
4924.56677639
4927.26015445
4930.123475
4932.83883116
4934.99696358
4936.20905966
4936.23353798
4935.06505493
4932.93957263
4930.24045983
4927.3817701
4924.68725303
4922.36947549
4920.55458276
4919.30507677
4918.66035104
4917.85110407
4918.4211137
4919.52199606
4921.10830945
4923.11297395
4925.42372145
4927.85160952
4930.13155862
4931.93346989
4932.9420798
4932.96313453
4931.99256964
4930.21985486
4927.95646014
4925.53551027
4923.22793504
4921.21942417
4919.63078443
4918.52810434
4917.95664495
4917.05242618
4917.54438689
4918.49054979
4919.84179854
4921.52977225
4923.44953697
4925.43995729
4927.28630739
4928.73183778
4929.53678467
4929.55443709
4928.78173377
4927.36177448
4925.53161763
4923.54962347
4921.63320733
4919.9452416
4918.59323889
4917.64630224
4917.15354852
4916.23816887
4916.65525003
4917.45508106
4918.58705319
4919.98395315
4921.55023977
4923.15202077
4924.61722723
4925.75139987
4926.37807743
4926.39277389
4925.79343248
4924.68137353
4923.23079476
4921.63920475
4920.07763909
4918.68261166
4917.55114722
4916.75131415
4916.33349836
4915.48417386
4915.83638248
4916.50921644
4917.45457647
4918.60775014
4919.88315293
4921.16846165
4922.32772334
4923.21503692
4923.70272651
4923.71507192
4923.25053907
4922.38270804
4921.23786614
4919.96245655
4918.69277487
4917.54275951
4916.59897942
4915.92676465
4915.57379771
4914.85698664
4915.15547979
4915.72775035
4916.52713063
4917.49349053
4918.54972662
4919.60037069
4920.53581211
4921.24428497
4921.63131852
4921.64184542
4921.27477183
4920.58356648
4919.66176784
4918.62105219
4917.5712939
4916.60912024
4915.81212455
4915.24126126
4914.94165312
4914.40742861
4914.66853617
4915.16890354
4915.86696488
4916.70542726
4917.61442278
4918.50987464
4919.29911561
4919.8918716
4920.21409428
4920.22326196
4919.91870734
4919.34174989
4918.5655161
4917.68003845
4916.77798922
4915.94435427
4915.24937051
4914.75102116
4914.48916501
4914.17214524
4914.41473134
4914.87724933
4915.52040185
4916.29243078
4917.12556524
4917.94170888
4918.65751319
4919.1927772
4919.48286852
4919.49120524
4919.21749247
4918.69742842
4917.99439153
4917.1882553
4916.36220831
4915.59474186
4914.95425157
4914.4942684
4914.2500773
4913.26768418
4913.51243785
4913.97925436
4914.63597269
4915.42694686
4916.28614432
4917.13418319
4917.8823645
4918.44370754
4918.74735273
4918.75248664
4918.45985514
4917.90741983
4917.16620917
4916.32339291
4915.46918456
4914.6805562
4914.02547019
4913.55876247
4913.31470267
4913.50142351
4913.76430578
4914.27421641
4914.9910433
4915.85883302
4916.80681345
4917.74915105
4918.586553
4919.21924002
4919.56295281
4919.56876842
4919.23620763
4918.6129515
4917.78297119
4916.84632146
4915.90231587
4915.03710646
4914.32127279
4913.81141724
4913.54877388
4913.94914985
4914.2539321
4914.84398889
4915.675381
4916.68984707
4917.81185962
4918.94227739
4919.96220408
4920.74266779
4921.1702294
4921.17694995
4920.76193434
4919.99175877
4918.9797389
4917.8550444
4916.73685319
4915.72493161
4914.89499548
4914.30559414
4914.00091186
4914.58045202
4914.94388899
4915.64701112
4916.64430447
4917.87698178
4919.26236543
4920.68463246
4921.99398254
4923.013886
4923.57845814
4923.5866465
4923.03699478
4922.02892986
4920.72803026
4919.31126861
4917.92928971
4916.69893888
4915.70304827
4915.00062545
4914.63699075
4915.34152049
4915.77943618
4916.6271434
4917.84150714
4919.36488526
4921.11013496
4922.92551773
4924.62192464
4925.97890467
4926.74673868
4926.75738648
4926.0081198
4924.6653833
4922.97851575
4921.16760359
4919.42499576
4917.90326297
4916.69010524
4915.84302104
4915.40463335
4916.16794737
4916.69268361
4917.71149584
4919.18725018
4921.06945
4923.22440317
4925.45005094
4927.58917217
4929.3843882
4930.42751019
4930.44189867
4929.42286011
4927.64513992
4925.51571295
4923.29409601
4921.14023676
4919.2583888
4917.7830654
4916.76456926
4916.23983728
4916.98377189
4917.60005838
4918.80390133
4920.56898586
4922.84314328
4925.40730525
4928.06404314
4930.74089292
4933.07553666
4934.45553092
4934.47507955
4933.12663873
4930.81414948
4928.14746482
4925.49291848
4922.92708321
4920.65150993
4918.88552274
4917.68107958
4917.06405438
4917.70231257
4918.4054928
4919.78870822
4921.84071435
4924.5000491
4927.50654943
4930.70114425
4934.01510593
4936.93172957
4938.66527138
4938.69143934
4936.99843163
4934.11020332
4930.80624415
4927.61086628
4924.59937654
4921.93550316
4919.8807518
4918.49575234
4917.79101272
4918.23883615
4919.01133324
4920.53975087
4922.82893083
4925.82359387
4929.26819964
4933.00285951
4936.8990993
4940.31085694
4942.3312276
4942.36357725
4940.39414097
4937.01915902
4933.13170701
4929.39206503
4925.93811769
4922.93546976
4920.64122031
4919.10999545
4918.33546911
4918.52415535
4919.33527984
4920.94562608
4923.36952432
4926.56498608
4930.28399146
4934.35620394
4938.60695462
4942.30411731
4944.48643927
4944.52414301
4942.40110919
4938.74663102
4934.50437448
4930.42361174
4926.69166229
4923.48582513
4921.05506147
4919.44098954
4918.62731192
4918.51747814
4919.3296094
4920.93947482
4923.36220788
4926.55601671
4930.27282714
4934.34201471
4938.58893975
4942.28136268
4944.45956162
4944.49890551
4942.38321532
4938.73603002
4934.49902152
4930.42056652
4926.68972496
4923.48449315
4921.05406288
4919.43990634
4918.62587681
4918.22311235
4918.99518713
4920.52155606
4922.80702823
4925.79667444
4929.23454882
4932.96001181
4936.84437941
4940.24157446
4942.24994697
4942.2874216
4940.33967293
4936.98616284
4933.112343
4929.38027653
4925.93056742
4922.93029352
4920.63740789
4919.10630465
4918.33066987
4917.67831386
4918.37941008
4919.75880833
4921.80462096
4924.45557313
4927.45103727
4930.63081139
4933.92594455
4936.8226472
4938.5411383
4938.57391032
4936.91075892
4934.05475878
4930.77090772
4927.58785834
4924.58388815
4921.92463728
4919.87243248
4918.48874883
4917.78386728
4916.95071485
4917.56469343
4918.76341169
4920.52013865
4922.78289131
4925.33273072
4927.97144264
4930.62730288
4932.94200732
4934.31032582
4934.33688852
4933.01478261
4930.73493772
4928.09338329
4925.45635406
4922.90235648
4920.63390758
4918.87228297
4917.6703091
4917.05422802
4916.12715382
4916.64954844
4917.66240479
4919.12843764
4920.99764821
4923.13679861
4925.34400866
4927.46354414
4929.24184731
4930.27653909
4930.29769644
4929.30051036
4927.55149807
4925.44768109
4923.2459959
4921.10636109
4919.23408488
4917.76478026
4916.7498531
4916.2269857
4915.29554749
4915.73037027
4916.5719165
4917.77632139
4919.28666825
4921.01654102
4922.81518103
4924.49511661
4925.8390557
4926.60145161
4926.6182743
4925.88661235
4924.56731834
4922.90319085
4921.11195028
4919.38424908
4917.87309769
4916.66695203
4915.82408176
4915.38812344
4914.52996451
4914.89062066
4915.58805442
4916.57611345
4917.79689751
4919.16870191
4920.57693049
4921.87333838
4922.88375312
4923.44519105
4923.45880532
4922.92264286
4921.93302619
4920.65134473
4919.25181971
4917.88395027
4916.66426052
4915.67582437
4914.97805213
4914.61608198
4913.89589264
4914.19745111
4914.78282997
4915.6061105
4916.61036401
4917.7209165
4918.83992287
4919.84986778
4920.62342334
4921.04920407
4921.06039692
4920.65576138
4919.90004511
4918.90368709
4917.79383694
4916.68850107
4915.68680615
4914.86455335
4914.28042389
4913.97627837
4913.44637362
4913.70556446
4914.21164074
4914.92141364
4915.78030409
4916.71849757
4917.65123327
4918.48052003
4919.10795144
4919.45051859
4919.45983056
4919.13541106
4918.52410938
4917.70764175
4916.78425073
4915.85191031
4914.99663139
4914.28901477
4913.78554708
4913.52351181
4913.21188294
4913.45299213
4913.9161264
4914.56559869
4915.34810865
4916.19857853
4917.03753925
4917.77819838
4918.33506759
4918.63780475
4918.64566059
4918.35916916
4917.81824423
4917.09052997
4916.26069467
4915.41715234
4914.63774922
4913.98963679
4913.52890703
4913.28621205
4911.83275797
4912.0631054
4912.53347495
4913.19172913
4913.99308938
4914.86941608
4915.74304575
4916.52145083
4917.10889543
4917.42941065
4917.43467858
4917.12536766
4916.54656709
4915.77506188
4914.90670258
4914.03435758
4913.23518329
4912.57885413
4912.10787631
4911.87681636
4912.05252699
4912.31736956
4912.82888812
4913.55626339
4914.44377078
4915.42472244
4916.41095705
4917.29852967
4917.97598299
4918.34683421
4918.35275728
4917.9930952
4917.32482173
4916.44443931
4915.46376286
4914.48638588
4913.6013483
4912.87536165
4912.36328515
4912.09813675
4912.50358685
4912.80918896
4913.409407
4914.26437604
4915.32141242
4916.50818983
4917.72487803
4918.84385418
4919.7138478
4920.19646065
4920.20337175
4919.73357066
4918.87274774
4917.76129986
4916.54988493
4915.36656375
4914.31215073
4913.45889879
4912.85956584
4912.55330281
4913.13816076
4913.51024262
4914.23665839
4915.28154144
4916.59410917
4918.05833857
4919.50622829
4920.87290005
4922.03249345
4922.70924241
4922.71780191
4922.05578291
4920.90719292
4919.54798535
4918.10438251
4916.64307875
4915.33289601
4914.28989942
4913.56491136
4913.19323383
4913.91045027
4914.36674913
4915.25983726
4916.55894879
4918.12332335
4919.68935546
4921.23443873
4922.9253504
4924.54040741
4925.52802682
4925.53969411
4924.57088009
4922.96892177
4921.28514074
4919.74319118
4918.17872289
4916.61611277
4915.31890691
4914.42732263
4913.97135051
4914.75576633
4915.31371236
4916.40939844
4917.98421679
4919.64853836
4921.22846969
4923.14392944
4925.55825834
4927.91413087
4929.35925568
4929.3771449
4927.95596937
4925.61685649
4923.20917394
4921.29481165
4919.71424086
4918.04978881
4916.47639914
4915.38199638
4914.82473079
4915.59820539
4916.2659439
4917.58819869
4919.39130577
4921.15083168
4923.10017661
4925.92503645
4929.46585136
4932.83022378
4934.8843249
4934.91131589
4932.89016343
4929.54793351
4926.01255392
4923.18508901
4921.2308995
4919.4689856
4917.66540805
4916.34325615
4915.67522164
4916.34837906
4917.12233707
4918.67167354
4920.72030463
4922.80235247
4925.47530169
4929.42759384
4934.24747803
4938.73290366
4941.47275846
4941.51294358
4938.81644753
4934.3632772
4929.54551259
4925.58407075
4922.90023537
4920.81112844
4918.76087844
4917.20896676
4916.43330657
4916.91252447
4917.77365182
4919.51334047
4921.84863338
4924.38570698
4927.80224979
4932.76803878
4938.7110783
4944.15162148
4947.45072885
4947.50266906
4944.2623742
4938.87562753
4932.92575129
4927.94028801
4924.5038064
4921.95298036
4919.61005965
4917.86868906
4917.00583258
4917.21383174
4918.12516036
4919.97444945
4922.50185127
4925.34909157
4929.22507238
4934.81162583
4941.45653892
4947.45645832
4951.05896582
4951.12358822
4947.59538107
4941.66122942
4935.00330322
4929.38744643
4925.48482855
4922.61893691
4920.08133206
4918.22780619
4917.31458691
4917.20782896
4918.11970865
4919.96840961
4922.49430126
4925.33953321
4929.2127853
4934.79519959
4941.43475648
4947.42512278
4951.01665847
4951.08368789
4947.57210666
4941.65194273
4935.00286198
4929.38903015
4925.48603027
4922.61970926
4920.08181525
4918.22752708
4917.31374473
4916.89711049
4917.75788699
4919.49493742
4921.82558031
4924.35638373
4927.76377977
4932.71615347
4938.63961635
4944.04667993
4947.30892561
4947.37047561
4944.18584744
4938.84584739
4932.91493182
4927.93662517
4924.50262317
4921.95238395
4919.61020943
4917.86698023
4917.00286389
4916.32432223
4917.09647989
4918.64086773
4920.6813492
4922.75234392
4925.40963767
4929.33800941
4934.12144354
4938.56315514
4941.25789897
4941.30842695
4938.68876146
4934.30826081
4929.5183868
4925.56933382
4922.89151893
4920.80479796
4918.75414627
4917.20350789
4916.42738567
4915.56591467
4916.23070375
4917.54589462
4919.33751145
4921.08104976
4923.00896969
4925.80449703
4929.30649524
4932.62959807
4934.65405072
4934.69092275
4932.72463624
4929.44933114
4925.95473041
4923.15103409
4921.21024065
4919.45450813
4917.65403168
4916.33362535
4915.66683139
4914.71628822
4915.27082364
4916.35804588
4917.91922506
4919.56501803
4921.1214859
4923.00798438
4925.3884766
4927.71251873
4929.13794316
4929.16538641
4927.78435194
4925.49718945
4923.13078171
4921.24479656
4919.68177089
4918.02733426
4916.45935543
4915.36781516
4914.81142995
4913.86580711
4914.31820063
4915.20273578
4916.48801449
4918.03411036
4919.57848569
4921.0987902
4922.76344082
4924.35612224
4925.33284877
4925.35313076
4924.41243203
4922.84837195
4921.1992006
4919.68371989
4918.13738209
4916.58635953
4915.29587298
4914.40799256
4913.95391323
4913.08933647
4913.45831613
4914.17709625
4915.20951906
4916.50613063
4917.95187429
4919.38073763
4920.72829594
4921.87279103
4922.54357916
4922.55927777
4921.91683314
4920.79518917
4919.46247639
4918.04056016
4916.59614012
4915.29740817
4914.26185522
4913.54113019
4913.17061925
4912.45355013
4912.75537914
4913.34917102
4914.19369182
4915.23758699
4916.40969637
4917.61164426
4918.71729956
4919.57717139
4920.05656749
4920.06895032
4919.61283192
4918.77055624
4917.67865686
4916.48476458
4915.31602558
4914.27238867
4913.42657195
4912.83228123
4912.52903748
4912.0000932
4912.2615016
4912.76845884
4913.48709272
4914.36380007
4915.33288788
4916.30741073
4917.18489686
4917.85547335
4918.22435553
4918.23394919
4917.88417632
4917.22976664
4916.36469589
4915.39861775
4914.43377863
4913.55870838
4912.8391575
4912.33850563
4912.07279429
4911.77953216
4912.00676994
4912.47182442
4913.123398
4913.91431975
4914.78050364
4915.64338887
4916.41261325
4916.99604916
4917.31448408
4917.32110144
4917.02053123
4916.4530191
4915.69667905
4914.84133517
4913.98053791
4913.19100112
4912.5415771
4912.07798857
4911.84830187
4909.92765806
4910.14718514
4910.60867489
4911.25370761
4912.04414924
4912.92076907
4913.80673932
4914.60406165
4915.21350668
4915.54851165
4915.55401284
4915.23072561
4914.62888295
4913.83834837
4912.95764712
4912.08371334
4911.29525441
4910.65013137
4910.18758245
4909.9752271
4910.13977986
4910.38487185
4910.89238827
4911.61131617
4912.50220679
4913.49691344
4914.51345914
4915.43941395
4916.15167188
4916.55506412
4916.56085059
4916.16897453
4915.46452192
4914.54578358
4913.5344729
4912.54262787
4911.65412933
4910.9371526
4910.42983156
4910.18036972
4910.58044694
4910.87348751
4911.46667714
4912.32819632
4913.40910269
4914.60418112
4915.69713911
4916.7239667
4917.62992329
4918.17128172
4918.17796471
4917.64974419
4916.75193289
4915.73153636
4914.64322583
4913.45036066
4912.37226901
4911.51301033
4910.92085838
4910.62944824
4911.20464127
4911.56905244
4912.30263841
4913.37750981
4914.51213093
4915.46379413
4916.44654204
4917.68402711
4918.9704264
4919.78365083
4919.79289175
4918.99309963
4917.71649888
4916.4844492
4915.50438092
4914.55478867
4913.42300633
4912.35070692
4911.61953122
4911.25608551
4911.96843595
4912.43088804
4913.35177627
4914.47910035
4915.27314913
4915.97685877
4917.2769273
4919.24527663
4921.29421768
4922.58238743
4922.59618105
4921.32662069
4919.28842528
4917.32324565
4916.0233443
4915.32027835
4914.52762866
4913.40462553
4912.48677035
4912.0258284
4912.81622509
4913.39510098
4914.51010662
4915.39297633
4915.93749853
4917.16918382
4919.60327509
4922.93750895
4926.24310907
4928.30964998
4928.33335619
4926.29301006
4923.00229299
4919.66608319
4917.2277021
4915.99354008
4915.44948954
4914.56717069
4913.45752799
4912.88100604
4913.6735623
4914.37895672
4915.57032809
4916.33644816
4917.19611049
4919.56040142
4923.64742655
4928.96627138
4934.12686074
4937.33611649
4937.37625327
4934.2071815
4929.06772413
4923.73960593
4919.63964205
4917.26718438
4916.40465184
4915.63955353
4914.45079643
4913.74646496
4914.4443139
4915.27744558
4916.56454582
4917.53721539
4919.12698334
4922.85941762
4928.93076469
4936.64661685
4943.97956342
4948.63077158
4948.72165139
4944.08930407
4936.79518681
4929.06319763
4922.96719645
4919.21733447
4917.61950381
4916.65084216
4915.35800525
4914.52579443
4915.03285863
4915.96752256
4917.44260695
4918.79377805
4921.14871844
4926.15167693
4934.09642117
4943.99256747
4953.52183966
4959.39287891
4959.49731999
4953.66901578
4944.25948778
4934.30444253
4926.30841529
4921.2678579
4918.89283652
4917.52674653
4916.05765342
4915.12180889
4915.34958951
4916.3482749
4917.96283371
4919.58658608
4922.41745237
4928.20398857
4937.33719627
4948.77972303
4959.48644496
4965.88401932
4966.02427913
4959.70551888
4949.14411943
4937.6133705
4928.39791022
4922.56266966
4919.70313887
4918.06385921
4916.44501977
4915.44541971
4915.34512018
4916.3432226
4917.95726722
4919.57957702
4922.40876484
4928.19383597
4937.32356631
4948.76708383
4959.45672985
4965.82950384
4965.97277401
4959.69434224
4949.13978222
4937.62566429
4928.41304829
4922.57130468
4919.70808349
4918.06688546
4916.44544845
4915.445397
4915.01984528
4915.95377715
4917.42551079
4918.77130911
4921.12073155
4926.11591222
4934.04968483
4943.93234654
4953.38163053
4959.14208217
4959.27287521
4953.60414405
4944.28276666
4934.32879939
4926.32886493
4921.28073312
4918.90080951
4917.53686247
4916.05991093
4915.1209075
4914.42255029
4915.25292354
4916.53385237
4917.49675667
4919.07478905
4922.79205818
4928.83270836
4936.47391887
4943.71901931
4948.22004199
4948.31518576
4943.91914855
4936.81932918
4929.0863113
4922.98002814
4919.22373377
4917.62203665
4916.64425431
4915.35539022
4914.52230515
4913.64321923
4914.34446589
4915.52660181
4916.27636541
4917.11501837
4919.45164784
4923.49678512
4928.74736371
4933.82361179
4936.96440652
4937.01340228
4933.95168472
4928.96375523
4923.69500637
4919.61869046
4917.25613122
4916.39637424
4915.63100729
4914.44276775
4913.73842836
4912.77900903
4913.35277333
4914.45635095
4915.31895881
4915.83722199
4917.03582751
4919.42746761
4922.70616426
4925.95517951
4927.97537335
4928.01208166
4926.04903381
4922.85246852
4919.58103243
4917.18003743
4915.96517134
4915.43064475
4914.55315458
4913.44471955
4912.86865524
4911.92569788
4912.38296141
4913.29187486
4914.40038693
4915.16837525
4915.84124829
4917.10599287
4919.03409316
4921.04554462
4922.31272932
4922.3383402
4921.11553857
4919.13978282
4917.22555217
4915.96096667
4915.27983971
4914.50013531
4913.38228864
4912.46757321
4912.00785985
4911.15913501
4911.51887667
4912.24201462
4913.30017196
4914.41278671
4915.34042156
4916.29669036
4917.50702656
4918.77110898
4919.57452318
4919.5934593
4918.8224482
4917.58511137
4916.38915859
4915.43709865
4914.50739351
4913.38744581
4912.32267804
4911.59548054
4911.23422747
4910.53324664
4910.82263213
4911.40758699
4912.25569464
4913.32014425
4914.49219687
4915.56979904
4916.58115202
4917.47203571
4918.00878844
4918.02262414
4917.51175842
4916.63910395
4915.6410998
4914.57081155
4913.39909457
4912.33187294
4911.47968485
4910.89208272
4910.60395703
4910.09043253
4910.33446131
4910.83373682
4911.54322016
4912.42149997
4913.40188988
4914.40523757
4915.31826962
4916.02220616
4916.42216808
4916.43265109
4916.05414525
4915.36457793
4914.46304773
4913.46768059
4912.48921125
4911.61082734
4910.89932274
4910.40474393
4910.15581805
4909.88135923
4910.09303634
4910.55169158
4911.18858538
4911.96710136
4912.83216066
4913.70650601
4914.4937611
4915.09640157
4915.42880568
4915.43748779
4915.12380609
4914.53516748
4913.75862867
4912.89201184
4912.02965455
4911.25213104
4910.61386281
4910.15714048
4909.94509669
4907.56533407
4907.75987449
4908.18157363
4908.80807456
4909.56021161
4910.39362961
4911.25931437
4912.05379284
4912.66813116
4913.00525822
4913.01075307
4912.683873
4912.07792793
4911.28971214
4910.42830559
4909.59702814
4908.84623328
4908.22058622
4907.80368442
4907.60183406
4907.75249076
4908.00233002
4908.45719705
4909.15326922
4909.99318462
4910.96330898
4911.9705306
4912.82096383
4913.52810513
4913.95797736
4913.96586243
4913.54804357
4912.84620934
4912.00036615
4910.99726858
4910.02950986
4909.19164966
4908.49659809
4908.04401692
4907.79826577
4908.15214656
4908.44470824
4908.99974072
4909.83171964
4910.74718395
4911.43918717
4912.1332604
4913.02773448
4913.95364377
4914.54336436
4914.55015021
4913.97238479
4913.05469349
4912.16436217
4911.47220139
4910.78185793
4909.86952734
4909.04070631
4908.48976824
4908.18864853
4908.76628297
4909.11133785
4909.80938893
4910.58050797
4910.97138761
4911.2269454
4911.90502131
4913.19707227
4914.65836634
4915.60366078
4915.61333868
4914.68251344
4913.22860754
4911.93755845
4911.25916912
4911.00487605
4910.61699591
4909.85044874
4909.1548621
4908.81520906
4909.50039927
4909.93140143
4910.6946237
4910.94212847
4910.81696091
4911.35776938
4912.9587689
4915.41692315
4917.97693437
4919.60496374
4919.62271866
4918.01695396
4915.46489439
4913.00091311