/*--------------------------------*- C++ -*----------------------------------*\
| =========                 |                                                 |
| \\      /  F ield         | OpenFOAM: The Open Source CFD Toolbox           |
|  \\    /   O peration     | Version:  3.0.1                                 |
|   \\  /    A nd           | Web:      www.OpenFOAM.org                      |
|    \\/     M anipulation  |                                                 |
\*---------------------------------------------------------------------------*/
FoamFile
{
    version     2.0;
    format      ascii;
    class       surfaceVectorField;
    location    "7.8";
    object      ddt0(Uf);
}
// * * * * * * * * * * * * * * * * * * * * * * * * * * * * * * * * * * * * * //

dimensions      [0 1 -2 0 0 0 0];

internalField   nonuniform List<vector> 
22672
(
(0.00014387192635 5.2401335386e-05 -6.45745254638e-05)
(7.11192390525e-05 0.000108323800638 -6.30022897245e-05)
(8.56761929e-05 6.89000719763e-05 -0.000252555392297)
(0.000301896086381 6.29002795246e-05 -8.38314261371e-05)
(0.000262345226192 0.00014917360141 -0.000131300858698)
(0.000286646676031 0.000115876359885 -0.000307382621445)
(0.000421788346157 5.80146002615e-05 -6.84116699862e-05)
(0.000394681331084 0.000159120392704 -0.000126882937254)
(0.000402954839495 0.000133858678812 -0.00027931336949)
(0.000489089241843 4.24066804539e-05 -2.68446917054e-05)
(0.000468496782207 0.000137585547601 -8.14020950275e-05)
(0.000451198909539 0.000128141133721 -0.000205260884162)
(0.000499296538801 2.50298910501e-05 2.4116507492e-05)
(0.000504235289241 9.77286078725e-05 -1.49786911531e-05)
(0.000457812517205 0.000107159648119 -0.000108375714882)
(0.000468005443988 4.8832796492e-06 6.25247442437e-05)
(0.000464665836318 4.79456391877e-05 5.39764245536e-05)
(0.000410742672747 7.00064181658e-05 -1.7138750777e-05)
(0.000435729559607 -1.54469080263e-05 8.78374574197e-05)
(0.00043697214709 -1.57114838963e-05 9.67094555567e-05)
(0.000378908940209 3.02640150792e-05 4.74861136755e-05)
(0.000389991201333 -2.63454111979e-05 0.000111217139543)
(0.000402229444792 -6.4292436188e-05 0.000139522465148)
(0.000350312884664 -7.24600015618e-06 0.000109530710005)
(0.000324598851441 -2.79321096023e-05 0.00012539432948)
(0.000348674042363 -8.91385472675e-05 0.00017226175967)
(0.00031278047142 -2.928653832e-05 0.000154035798261)
(0.000246764879941 -2.55994960904e-05 0.000130570240284)
(0.000285574994685 -9.65570449819e-05 0.000188278720961)
(0.00027197362675 -3.7965712942e-05 0.000173891224081)
(0.000160571140754 -2.1280382786e-05 0.000129185744184)
(0.000216675259127 -9.25930984634e-05 0.000191290483189)
(0.000227790072337 -3.5620609882e-05 0.000178268807828)
(7.02219059117e-05 -1.38362934121e-05 0.000119228887138)
(0.000138156655941 -7.7904704527e-05 0.000181361972015)
(0.000171227041784 -2.28080235489e-05 0.0001677158587)
(-1.66868036743e-05 7.50139460818e-07 0.000100139066064)
(5.10883717582e-05 -4.73640639859e-05 0.00015505783473)
(9.95932185357e-05 2.59856169754e-06 0.000133736270297)
(-0.000101249851401 1.78062813856e-05 7.44386160444e-05)
(-3.33176268398e-05 4.1099548942e-06 0.000117129137171)
(2.09443859395e-05 4.13443589402e-05 7.99615217313e-05)
(-0.00018076990563 4.17804160492e-05 4.16569978284e-05)
(-0.000113699613384 6.38311869049e-05 7.30233947804e-05)
(-6.47729287241e-05 7.60954050393e-05 1.5291457912e-05)
(-0.000244829062563 6.25875237249e-05 -4.16807500801e-06)
(-0.000214623259135 0.000126655071982 1.64997944683e-05)
(-0.000169306179448 0.00012572272281 -6.28673010197e-05)
(-0.00024521686218 7.31460378699e-05 -4.84901062364e-05)
(-0.000253708327913 0.000161926041071 -5.34600996871e-05)
(-0.000238006793799 0.000142132018718 -0.000161682376274)
(-0.000191395514461 7.67307927955e-05 -6.48343747612e-05)
(-0.000248622397131 0.000182871886006 -0.000100055706708)
(-0.000256695228147 0.00014806743322 -0.000236748045291)
(-9.41699240757e-05 6.25306857938e-05 -4.75725182639e-05)
(-0.000183201318516 0.000170492920631 -0.000109152531092)
(-0.00020666033773 0.000128476555766 -0.000267758734572)
(-4.6380543583e-05 0.000123355801701 -4.79069786696e-05)
(-6.19421728382e-05 7.56392462457e-05 -0.00021754415831)
(0.000188466889106 0.000204609813974 -0.000129728622959)
(8.35522763057e-05 0.000224110928667 -8.03165518863e-05)
(0.000139261660856 0.000230501398179 -0.000304389749334)
(0.000360374370115 0.000245763969084 -0.000174352369815)
(0.000307170680731 0.000276594433499 -0.000173355449757)
(0.000351059158505 0.000283342559849 -0.000299380991821)
(0.000454878935982 0.000237469400252 -0.000139873362295)
(0.000409172969928 0.000273702729494 -0.000138680512466)
(0.000421350925516 0.000295624347016 -0.00020924533679)
(0.000485373616408 0.000186580996224 -6.95360944751e-05)
(0.000446986777535 0.000210948136303 -6.72842599362e-05)
(0.000431188445165 0.000252269746275 -0.000104082732472)
(0.000464980477488 0.000107324807481 1.48812259084e-05)
(0.00044009278732 0.00010442609628 1.97115957533e-05)
(0.000406207589736 0.000180265298726 1.34155945836e-05)
(0.000422914540323 7.40993311524e-06 8.81611358665e-05)
(0.00038749826681 -3.09690439542e-05 0.000100104067536)
(0.000351084456942 8.07680204013e-05 0.000120670178756)
(0.000387258531319 -8.98208643923e-05 0.000148394463285)
(0.000357243358821 -0.000182719386558 0.00015662568964)
(0.000316430062849 -3.55789126711e-05 0.000202349374155)
(0.000350287723819 -0.000156195139053 0.000200567085275)
(0.000333869699977 -0.000301412070978 0.000209408403692)
(0.000295093248934 -0.000131219586669 0.000273785688687)
(0.000306287773516 -0.000189003426923 0.000235146151151)
(0.00030599926947 -0.000373947967186 0.000252139855921)
(0.000278526246954 -0.00019094071086 0.000328509725446)
(0.000255128044125 -0.000195342379008 0.000248998963866)
(0.000275609662978 -0.000403471047663 0.000274814123128)
(0.000264286168003 -0.000215440420482 0.000357760844413)
(0.000195542450058 -0.000179952678763 0.00024346671102)
(0.00024031828139 -0.000397052059213 0.000279011660349)
(0.000246222406869 -0.000210459773526 0.00036370190973)
(0.000126736752412 -0.000139583983662 0.000217190919607)
(0.000193807603668 -0.000355721519435 0.000264463269548)
(0.000215304930884 -0.000177401317505 0.000346252567539)
(5.01369749268e-05 -6.82080076126e-05 0.000172047905836)
(0.000132066193422 -0.000274106375203 0.000229723272635)
(0.000165546572643 -0.00011132692801 0.00030297509036)
(-3.52389794031e-05 3.06430271389e-05 0.000115713915907)
(5.89394946108e-05 -0.000151096936901 0.00018285794736)
(9.62650201206e-05 -1.26785277747e-05 0.000240268493476)
(-0.000137288078923 0.000136035464132 4.78661914203e-05)
(-2.56464024939e-05 1.3120137189e-06 0.000129627664538)
(7.88577051051e-06 0.000103674128757 0.000164355617251)
(-0.000225215925679 0.000220694545756 -3.27922302108e-05)
(-0.000142628952165 0.000147715556237 5.80146752303e-05)
(-0.000108099874468 0.000211471285058 6.67807197526e-05)
(-0.000267381554554 0.000271023268604 -0.000105025700159)
(-0.000222716630007 0.000252723286461 -2.84827961574e-05)
(-0.00020093773029 0.000284703394215 -4.86071683718e-05)
(-0.000243734577852 0.000277352844826 -0.000144373863039)
(-0.000257399795342 0.000313753144875 -0.000102271640046)
(-0.000259113203618 0.000328075921868 -0.000154446835889)
(-0.000136729297142 0.000230971491066 -0.000109486991498)
(-0.000225248259788 0.00031306056826 -0.000145112099421)
(-0.0002562659433 0.000313902562201 -0.000249510869221)
(-5.84059302924e-05 0.000253512775863 -6.57358768909e-05)
(-0.00010762493546 0.000252502878631 -0.000266853718128)
(0.000200081476232 0.00029234218779 -0.000123943378685)
(7.96013884144e-05 0.000300588681734 -6.53756552574e-05)
(0.000160007223214 0.00030082373001 -0.000276690242531)
(0.000360446385545 0.00030177331992 -0.000137683592408)
(0.000300681377146 0.000325525339737 -0.00013814177403)
(0.000367711693296 0.000307476696536 -0.000209329482741)
(0.000416165570738 0.000243822727073 -6.60914101069e-05)
(0.000353759001651 0.000283649693327 -6.65128506776e-05)
(0.000404917182548 0.000286606215272 -6.57931011647e-05)
(0.000403304377704 0.000125030874948 2.19634302924e-05)
(0.000338095733611 0.000155819519556 1.58659516929e-05)
(0.000373221816458 0.000196911706988 6.78055973978e-05)
(0.000356260172271 -3.57265738127e-05 0.000104934437381)
(0.000286014641972 -3.12890451833e-05 9.63351296883e-05)
(0.000312514139252 5.46444332863e-05 0.000182536062103)
(0.000310954825879 -0.000220053765256 0.00016856862131)
(0.000221980275398 -0.000256168229257 0.000150947006811)
(0.000247195504166 -0.000122780584456 0.000270270827794)
(0.000287900436566 -0.000390630619902 0.000217639630048)
(0.000201055993998 -0.000487625564528 0.000178292918635)
(0.000217804563622 -0.000310135340238 0.000327743244128)
(0.00027992193941 -0.000513301493526 0.000260981174338)
(0.000209883204428 -0.000669387192845 0.000207172171854)
(0.000217735110593 -0.000459679775657 0.00037576337401)
(0.000272646413424 -0.000581025613486 0.000291807827898)
(0.000230119635771 -0.00078388000327 0.000234920644934)
(0.000232179657201 -0.000555254039268 0.000417033944598)
(0.000260583964401 -0.000597393379175 0.000304826819611)
(0.000253717296108 -0.000833202577395 0.00025082391227)
(0.000251781683049 -0.000596845494136 0.000441613169386)
(0.000239450909759 -0.000566193632109 0.000300008218878)
(0.000273047661069 -0.00082452295247 0.00025480433795)
(0.000266967417081 -0.000588447727677 0.000448396136279)
(0.000206275123278 -0.000485837484078 0.000276995622577)
(0.000279896432651 -0.000758808121555 0.000246802324627)
(0.000268205847413 -0.000531325538341 0.00043602968254)
(0.000157022655092 -0.000355007604485 0.000240533314159)
(0.000264445910927 -0.000631299805951 0.000226984262805)
(0.000247454698825 -0.000423715959465 0.00040621747501)
(8.21453747056e-05 -0.000180489118104 0.000196771695992)
(0.000221679947269 -0.000443422117091 0.00020453082682)
(0.000198391419822 -0.00026820574588 0.00036702343922)
(-2.36338424324e-05 9.88553286453e-06 0.000139776148349)
(0.000144110198448 -0.00020978502085 0.000182113749665)
(0.000114752718744 -7.95049751853e-05 0.000316785665171)
(-0.000139160510556 0.00017450256483 6.23241092839e-05)
(1.46656250847e-05 2.42628426122e-05 0.000137028640143)
(-1.13114385901e-05 0.000104300998411 0.000238987446316)
(-0.000225013847665 0.000291047663117 -2.57287360447e-05)
(-0.000111321075923 0.000209469334295 5.89577369701e-05)
(-0.000138080255675 0.000245711234407 0.000129185322493)
(-0.000241260153114 0.000345867954695 -0.000103009876428)
(-0.000199917263745 0.000334257042979 -2.57236992968e-05)
(-0.000236598350678 0.000333955686979 -4.17194535836e-06)
(-0.000147434580082 0.00033113456624 -0.000101360984815)
(-0.000217410353976 0.000372767802736 -0.000106658886041)
(-0.000266732655199 0.000352576596652 -0.000153510596074)
(-5.41373253815e-05 0.000340909696776 -5.00376305846e-05)
(-0.000124524905905 0.000338716093093 -0.000234845542582)
(0.000179419598205 0.000322593267388 -7.95740506029e-05)
(6.6516946461e-05 0.000327149849603 -2.42841795247e-05)
(0.000155595444177 0.00030484100999 -0.000206029552759)
(0.000299377128661 0.000294499162496 -6.69710322999e-05)
(0.000250483139683 0.000312670940057 -6.90050087224e-05)
(0.000325846268714 0.000273432136891 -0.000107045866006)
(0.000290292974467 0.000182995021783 1.54445111221e-05)
(0.000236210656685 0.000227688569409 1.95475433603e-05)
(0.000317463704015 0.000212404789558 6.50203052488e-05)
(0.000219167376845 -8.31548800662e-06 9.02376510887e-05)
(0.000147931921857 4.11230738543e-05 8.82017374462e-05)
(0.000227678120164 6.54264024046e-05 0.000185752420293)
(0.000139157364629 -0.000249567534446 0.000142347699118)
(4.74404605493e-05 -0.000211677975671 0.000133618673532)
(0.000120653401535 -0.000148288284238 0.000260307023933)
(9.50944962986e-05 -0.000507788886848 0.000160671304136)
(-2.88723623634e-05 -0.000502301736162 0.000139739381643)
(3.83594131604e-05 -0.000398344644854 0.00029011297162)
(0.00010425571692 -0.000736832292862 0.000167825460441)
(-2.69422967625e-05 -0.000782663996807 0.000121696671533)
(2.56667632083e-05 -0.000643512412872 0.00028582833127)
(0.000150623054589 -0.000899342273159 0.000181111642451)
(3.11768372992e-05 -0.00100143307026 0.000115296484247)
(7.06655536589e-05 -0.000837159719426 0.000285671474743)
(0.000209051712737 -0.000988775022615 0.000193936729306)
(0.000121280634101 -0.00113635899187 0.000118448964533)
(0.000143841491833 -0.000958494449715 0.000294069870506)
(0.00026600377652 -0.00101113539958 0.000200801430609)
(0.000221551499142 -0.00119475989433 0.000121950563358)
(0.000225345283681 -0.00101097715425 0.00030462310723)
(0.000313898524274 -0.000969958492221 0.0002015984437)
(0.000318242874151 -0.00118368056118 0.000125878302065)
(0.000302088424432 -0.00100014513791 0.000311256950384)
(0.000345471340236 -0.000863591578208 0.000196790964856)
(0.000400848675616 -0.00110475730783 0.00013094582151)
(0.000364826508886 -0.000927156780184 0.000314346873842)
(0.000348365536174 -0.000689682943768 0.000190981775467)
(0.000453040581225 -0.000952926601022 0.00013701940094)
(0.000400912699762 -0.000789062335132 0.00031870521309)
(0.000302451876061 -0.000455785268388 0.000189872880493)
(0.000456299747186 -0.000726418454087 0.000150679509365)
(0.000393319802826 -0.000586914167365 0.000328920753176)
(0.000196445620543 -0.000192366498834 0.000179366241459)
(0.000397880870139 -0.000444094268899 0.000174667844145)
(0.000324071062212 -0.000339218074374 0.00034038969592)
(4.6360882773e-05 5.15503274923e-05 0.000133662267829)
(0.000254147123406 -0.000146375505833 0.000178306389768)
(0.000181590032482 -8.55358210404e-05 0.0003208549322)
(-9.80883593842e-05 0.000239605684234 5.89627737179e-05)
(7.80849781189e-05 0.000102904880427 0.000135434685509)
(8.14573790275e-06 0.000125187385552 0.000251162943676)
(-0.000179107507572 0.000347401287624 -2.93727089098e-05)
(-8.29492686605e-05 0.000284586192425 6.34784054074e-05)
(-0.000146925684737 0.000269266472674 0.00013079021736)
(-0.000126252398708 0.000370380952207 -5.53355318113e-05)
(-0.000167617232475 0.000366066292184 -3.47931161396e-05)
(-0.000223300934475 0.000328387818316 -4.6160831656e-05)
(-4.08839947176e-05 0.000374075621011 -7.24964698725e-06)
(-0.000117798092089 0.000354004815635 -0.000159466479012)
(0.000141678213769 0.000316325631547 -1.37151376442e-05)
(4.82530633474e-05 0.000297686093983 2.32726784593e-05)
(0.000137820943739 0.000267624763507 -0.000112179788144)
(0.000193584263998 0.00024594637612 1.75135669377e-05)
(0.000168694993179 0.000255215829025 1.21491911351e-05)
(0.000254174640813 0.000208679351917 5.69449612288e-06)
(0.00010353105288 8.87735302158e-05 9.23047696842e-05)
(7.29600244775e-05 0.000143115311622 9.85155459653e-05)
(0.000175651473319 0.000113367000331 0.000174697597085)
(-3.28764666801e-05 -0.000152175128494 0.000131582759889)
(-9.64515610255e-05 -7.76336443274e-05 0.00013555400615)
(1.39768929992e-05 -7.98508674989e-05 0.000255198212215)
(-0.000143229425469 -0.000443690782307 0.000131010356057)
(-0.000245286433619 -0.00036235219056 0.000127813530943)
(-0.000137313982123 -0.000338380989496 0.000261047975585)
(-0.000173603228794 -0.000748095566821 0.000100764749041)
(-0.000329732547504 -0.000678126639618 7.17539886266e-05)
(-0.000222872444415 -0.000625858552257 0.000206237639855)
(-0.000118212985998 -0.00101284504378 6.91676953391e-05)
(-0.000293729423646 -0.00097187569395 4.75316199024e-06)
(-0.000202823074989 -0.000896046644287 0.000133903744552)
(-4.44702364206e-06 -0.00120024809564 5.26338063294e-05)
(-0.000173153860372 -0.00119641724651 -3.81678627858e-05)
(-0.000103522255025 -0.00110804256787 8.1350014034e-05)
(0.00013283662059 -0.00130231700713 4.64627985845e-05)
(-1.0710568558e-06 -0.00133236427888 -5.72558860664e-05)
(4.02403630565e-05 -0.00123969149163 5.88860431838e-05)
(0.000273406285505 -0.00132647644471 4.70274348141e-05)
(0.000186287785551 -0.00138841378354 -6.31693340609e-05)
(0.000195703158942 -0.00129485743257 5.3252206772e-05)
(0.000404324209817 -0.00127810065184 5.52256798752e-05)
(0.000369638004109 -0.00137456760877 -5.83011496387e-05)
(0.000345966583552 -0.00128092997947 6.01178138412e-05)
(0.000513238643562 -0.00115551432849 7.11742575943e-05)
(0.000537648821711 -0.00129373436982 -4.16425937785e-05)
(0.00048134442363 -0.0012000823564 8.01911484351e-05)
(0.000579934020497 -0.000954957211015 9.6717134838e-05)
(0.00066863177448 -0.00113792601421 -1.0926235096e-05)
(0.000584508817779 -0.0010479889205 0.000118433294427)
(0.000575155722337 -0.000685394177141 0.000135474473016)
(0.000728852875368 -0.000903638535872 3.99924237224e-05)
(0.000626651268516 -0.000825383898028 0.000182154354146)
(0.000479376101093 -0.000377169526214 0.000173607992453)
(0.000699175480798 -0.000609350147271 0.000111855227459)
(0.000585284770211 -0.00055295373573 0.000261229263429)
(0.00029671304423 -8.48793375436e-05 0.000180078807447)
(0.000545831189928 -0.000290573794114 0.000177092836903)
(0.000436256987616 -0.000265673912857 0.000327071742668)
(8.64426734756e-05 0.000150724249459 0.000139950317198)
(0.000318157006189 -1.18783845271e-05 0.000185909826226)
(0.000218635390694 -1.33386441853e-05 0.000325230716455)
(-7.51254762171e-05 0.000302985281824 5.80579981772e-05)
(7.73535008483e-05 0.000202020240923 0.000144644339145)
(-7.0278850854e-06 0.00017544853513 0.000244211826744)
(-8.94083056912e-05 0.000367929491555 1.32927686844e-05)
(-8.75660411121e-05 0.00030939648454 4.82963265179e-05)
(-0.00015218673975 0.000268155980358 7.08876420686e-05)
(-2.21375516742e-05 0.000344536133708 4.16142704519e-05)
(-9.8835363047e-05 0.000322344199356 -5.99629187397e-05)
(8.65734566871e-05 0.000243952858698 4.91370072386e-05)
(2.71227726623e-05 0.000241170935593 5.84005126279e-05)
(9.56426888067e-05 0.000188538406447 -2.99527898992e-05)
(5.25435997579e-05 0.000159201662641 9.31511701627e-05)
(6.58404250034e-05 0.000182960031214 8.23093221974e-05)
(0.00015108412862 0.000120815330643 0.000106501696158)
(-0.000127441707222 -1.04455974779e-05 0.000141764782431)
(-0.000115799173024 6.64856638227e-05 0.000158473399298)
(-5.76121436467e-06 1.53117918297e-05 0.000256758758373)
(-0.000328936309775 -0.000265235489575 0.000131784777204)
(-0.000360545710479 -0.000155054871567 0.000148979428207)
(-0.00024058240974 -0.000196150783279 0.000279019721047)
(-0.000462744896668 -0.0005663501343 6.85571635126e-05)
(-0.000553225141395 -0.000428766246399 9.1817417494e-05)
(-0.000427940991594 -0.000459368354329 0.000200309342066)
(-0.000472356051686 -0.000867341665812 -2.42575984237e-05)
(-0.000632934381074 -0.000726591529012 -2.62548205467e-05)
(-0.00050905782088 -0.000744049736219 5.81760457325e-05)
(-0.000360621532586 -0.00111831975225 -0.000102582396135)
(-0.000557259845508 -0.00099278529681 -0.000138064515369)
(-0.000449381315051 -0.00100177203138 -9.06852561431e-05)
(-0.000170936635095 -0.00129120413772 -0.000148057555182)
(-0.000369177534306 -0.00119518577119 -0.000211530557922)
(-0.000285444478122 -0.00119768175392 -0.000190728886625)
(5.20060322898e-05 -0.00138169720199 -0.000166888018712)
(-0.000114742578747 -0.00131719416403 -0.000246286239144)
(-6.56073489983e-05 -0.00131643445843 -0.000237891543164)
(0.000281847663227 -0.00139970970692 -0.000168497918514)
(0.000156171690393 -0.001366278031 -0.000255356894876)
(0.000167279946405 -0.00136283425167 -0.000251749214193)
(0.000501052827195 -0.00135340644959 -0.000155169423292)
(0.000419430491174 -0.00135012756572 -0.00024865269049)
(0.00039368654223 -0.00134614826423 -0.000243431652157)
(0.000693658758118 -0.0012393321702 -0.000123743086469)
(0.00066866289964 -0.00127408963551 -0.000226198310192)
(0.000604948559582 -0.00126970080512 -0.000212053179943)
(0.000830988542704 -0.00105078166679 -6.76509462115e-05)
(0.000878328131681 -0.00112973979361 -0.000176591709538)
(0.000779938287204 -0.00112660413213 -0.000145317516571)
(0.000875798984794 -0.00079470403 1.63731781654e-05)
(0.000997883024479 -0.000916368974482 -9.35021219938e-05)
(0.000878043007592 -0.000917368287416 -3.18635586126e-05)
(0.000795702846235 -0.00049305053003 0.000115340071908)
(0.000999907183456 -0.000650393351432 2.04056109562e-05)
(0.00086750443714 -0.00065923465945 0.000121374320349)
(0.000588412734723 -0.00019475053761 0.000182923855681)
(0.00084953634687 -0.000352094174174 0.000145993100621)
(0.000720912180326 -0.000379215199293 0.000269031376108)
(0.000312701756504 5.22834154635e-05 0.000190603848173)
(0.000573923923913 -8.7998848571e-05 0.000201827774114)
(0.000466197987769 -0.000124691235927 0.000351980302085)
(6.30785220904e-05 0.000214800232665 0.000134882667486)
(0.000260721040384 0.000123633676898 0.000205640181509)
(0.000169516209247 7.8291468277e-05 0.000328023903122)
(-3.46779316967e-05 0.000293076836153 7.66178282854e-05)
(1.22109418838e-05 0.00023292869992 0.000119104689198)
(-5.14036024357e-05 0.000179273438776 0.000174075384242)
(-1.2707634358e-06 0.00028479014988 7.72336206715e-05)
(-5.63639794071e-05 0.00024250345201 2.49186498139e-05)
(2.44709821385e-05 0.000190816622721 9.15728275868e-05)
(7.92908711242e-06 0.000184516113916 8.28006267486e-05)
(5.85197652947e-05 0.000130774666889 3.23511435353e-05)
(-0.000100916642673 0.000102260352886 0.000147631551333)
(-3.30463186565e-05 0.000124273071751 0.000139836616378)
(3.40804538862e-05 6.02423805758e-05 0.000184348954592)
(-0.000363115018791 -6.03531714247e-05 0.000165688045074)
(-0.000290845503805 1.84242542991e-05 0.000204663905696)
(-0.000197295413816 -4.12662205874e-05 0.00031045578522)
(-0.000613562250259 -0.000295416048021 0.000109012068498)
(-0.000596598551784 -0.000173380567212 0.000151270476731)
(-0.000491612801656 -0.000238645367318 0.000268918475207)
(-0.000759008706028 -0.000566293287183 -2.99456656534e-06)
(-0.000823370049061 -0.000404644735241 5.35844204848e-05)
(-0.000702454363217 -0.000473266459385 0.000121436592764)
(-0.000737778216939 -0.000831973657105 -0.000140061737492)
(-0.000888329504543 -0.000650778722998 -0.00011118597641)
(-0.000769254761793 -0.000723237788365 -9.69352641718e-05)
(-0.000570073607806 -0.00105184136998 -0.000247012677156)
(-0.000776987268282 -0.000865760914355 -0.000252699412306)
(-0.000668350236188 -0.000944781464513 -0.000294595659009)
(-0.000310344388288 -0.00120300922822 -0.000309759241885)
(-0.000528038046648 -0.00103004619456 -0.000349032885957)
(-0.000444152783638 -0.00111558682233 -0.000424696455144)
(-1.10949313964e-05 -0.00127885268152 -0.000334755115309)
(-0.000204199160293 -0.00112965663482 -0.000385576486417)
(-0.000154654922041 -0.00121700612823 -0.000486584444594)
(0.000293185899132 -0.00129056353651 -0.000335511666853)
(0.000133370736121 -0.00116693495798 -0.000376826035078)
(0.000147419140209 -0.00125321829387 -0.000503413107345)
(0.000584233304385 -0.00124695910901 -0.00031968157739)
(0.000465305854855 -0.00114863346381 -0.000373727203496)
(0.000439040326335 -0.00123450931697 -0.000492343180055)
(0.000850622750556 -0.00114581836406 -0.000279046933261)
(0.000781893073741 -0.00108694401193 -0.000347266059591)
(0.000716931744277 -0.00116466663762 -0.0004533507105)
(0.00105149277887 -0.000979073199341 -0.00020244288532)
(0.00105233810175 -0.000965094839285 -0.000304055280094)
(0.000956864114913 -0.00103835954128 -0.000365330893437)
(0.00114315118958 -0.000754326036418 -8.94696892029e-05)
(0.00122393023637 -0.000790860075992 -0.000195518890942)
(0.0011042866356 -0.000854225801001 -0.000216971067004)
(0.00108617474998 -0.000489586429203 5.1058639669e-05)
(0.00125180103108 -0.000576405085628 -5.34522187005e-05)
(0.00112268966529 -0.000632185695738 -1.68097054422e-05)
(0.000863789604213 -0.000224545569207 0.000164897019054)
(0.00111166023621 -0.000331256709374 0.000116321964839)
(0.000985559455473 -0.000388807423847 0.000201716521952)
(0.000539545146821 -2.01310482395e-07 0.00021686410745)
(0.000798164294058 -0.000111782786746 0.000208838459042)
(0.000705011144324 -0.000167714850618 0.000348103344093)
(0.000210624470629 0.00015302946019 0.000189862203221)
(0.000427787831666 6.90474233246e-05 0.000252782570202)
(0.000350899031207 1.82663606117e-05 0.000383430109119)
(2.45300017592e-05 0.000234256468128 0.000119720481584)
(0.000106355674689 0.000166241255354 0.000177005607741)
(6.02233164929e-05 0.000113158684721 0.000252537141591)
(1.58569590346e-05 0.000220327920901 0.000102101042943)
(-2.10159975111e-05 0.000179001112765 8.87862459336e-05)
(-2.62688939417e-05 0.000133909751489 0.000131064415539)
(-5.79467993984e-06 0.000122263758348 0.000103253386907)
(1.99423619609e-05 8.03150406548e-05 8.87520915356e-05)
(-0.000223859809616 5.62310436964e-05 0.000196868970741)
(-0.000103428575683 7.14188552563e-05 0.00018730824857)
(-6.447779567e-05 1.78229698321e-05 0.000250776836049)
(-0.000552338990811 -7.64949408651e-05 0.000190246337353)
(-0.000422041954405 -6.90863103909e-06 0.000243998309702)
(-0.000353761347798 -6.40706424108e-05 0.000354060679159)
(-0.000840588620254 -0.000264939560499 9.58428287182e-05)
(-0.000769351679342 -0.000148057206578 0.000158814351273)
(-0.000695806380344 -0.000218881951142 0.00026310471782)
(-0.000991509274951 -0.000476776006918 -5.46069893601e-05)
(-0.00102051747473 -0.000312068305393 2.76862436417e-05)
(-0.000925547327654 -0.000403093699118 5.84698757663e-05)
(-0.000945179283025 -0.000680010154682 -0.000223823651223)
(-0.00107165185698 -0.000485491703992 -0.000167437975181)
(-0.000974653802191 -0.000593421936582 -0.000211517309693)
(-0.000733812080528 -0.000845616252635 -0.000354719621106)
(-0.000935329305873 -0.000635293292073 -0.000328914449287)
(-0.000843162217165 -0.000761228932277 -0.000441728890853)
(-0.00041591679623 -0.000962659297422 -0.00042485013049)
(-0.000644989660866 -0.00074931849792 -0.000434644103579)
(-0.000569545990848 -0.000892064652032 -0.000598491453346)
(-5.78531963865e-05 -0.00103004098222 -0.000427647406186)
(-0.000275253529857 -0.000823277903508 -0.000463013018938)
(-0.000224551033044 -0.000972167254958 -0.000664287984873)
(0.0003038747998 -0.00104210688217 -0.000415041571721)
(0.000112996746138 -0.00085478704118 -0.000466491526839)
(0.000132024588725 -0.00100075695777 -0.000673719722953)
(0.000658753563015 -0.00100395107513 -0.000401311685696)
(0.000502226223243 -0.000840320373592 -0.000466069997748)
(0.000481600501634 -0.000981909924379 -0.000663051707745)
(0.0009752629573 -0.00091428781975 -0.000372274406423)
(0.00087058067824 -0.000794312425847 -0.000429674792105)
(0.000813968618368 -0.000926892235758 -0.000609016795218)
(0.00122610785735 -0.000778280978255 -0.000297131285716)
(0.00118735481759 -0.000695998363662 -0.000368423627304)
(0.00109908301531 -0.000819500996939 -0.000519819962318)
(0.00135232062759 -0.000609483360245 -0.00015950142044)
(0.00138678820095 -0.000575766091596 -0.000258094751964)
(0.00128581112456 -0.000680069848374 -0.000341180368738)
(0.00131183375522 -0.000407403241417 1.18111064697e-05)
(0.00143131684252 -0.000427287906905 -9.73544770861e-05)
(0.00132278824439 -0.000511922327007 -0.00010850620068)
(0.00107901893228 -0.000201805140757 0.000160263404827)
(0.00130088233936 -0.000254203581164 0.000101716171394)
(0.00119479283697 -0.000326914198049 0.000155842835389)
(0.000717489486563 -2.49892272494e-05 0.000244756921794)
(0.000959812787922 -9.87761598578e-05 0.000221631045846)
(0.000893561340344 -0.000157537883902 0.0003485026353)
(0.000326159430452 9.72796265671e-05 0.000239925974723)
(0.00054847291045 3.05065698992e-05 0.000293153054016)
(0.000496168292405 -1.43001695881e-05 0.000429697975537)
(7.16039822794e-05 0.000167623153302 0.0001593861691)
(0.00017145602005 0.00010124415506 0.000224946498586)
(0.000151693268518 5.99906871718e-05 0.000319219649314)
(2.68570731138e-05 0.00014696062585 0.000122231529181)
(1.47335062493e-05 0.000117959243634 0.000144718656861)
(-5.54160329479e-05 6.93073525745e-05 0.000159497219937)
(-1.13884435827e-05 5.13139167985e-05 0.000114528091014)
(-4.99067086507e-06 3.24323566169e-05 0.00012667073293)
(-0.000304234944128 1.75455860384e-05 0.000234437587531)
(-0.000141651391064 2.28560836299e-05 0.000216373635346)
(-0.000130338687158 -8.96351791872e-06 0.000297781699994)
(-0.000680787619514 -6.66472986529e-05 0.000212566323622)
(-0.000499804807058 -1.78671989716e-05 0.00026964470719)
(-0.000460616466414 -6.13307517769e-05 0.000387825257527)
(-0.000985196534541 -0.000186221269357 9.06577661965e-05)
(-0.000871166111573 -8.72661043337e-05 0.000164405970311)
(-0.00083157709954 -0.000158206246962 0.000243850719278)
(-0.0011404379363 -0.000319199037284 -8.51447421796e-05)
(-0.00113661609203 -0.000177886933233 1.18803604664e-05)
(-0.00107297852446 -0.000273052380842 2.12198990394e-05)
(-0.00107973303972 -0.000443560624347 -0.000272528773245)
(-0.00117760995379 -0.000268616539135 -0.000197292330886)
(-0.0011096903841 -0.000389497865251 -0.000277466006606)
(-0.000841908997172 -0.000543923809009 -0.000408838931759)
(-0.00102484340251 -0.000345573624335 -0.000367955685688)
(-0.000959553772826 -0.00049253630094 -0.000527441910287)
(-0.000493029227617 -0.000619346037364 -0.000472806992027)
(-0.000727873822607 -0.000401598325327 -0.000438503744588)
(-0.000657046043575 -0.000575887684909 -0.000696486832375)
(-0.000100733043583 -0.000662263787157 -0.000501857139591)
(-0.000323708940003 -0.000444506221583 -0.000506215779678)
(-0.000274707611731 -0.000627118622122 -0.000770945661766)
(0.00030774120741 -0.000667590852964 -0.000517519952866)
(9.8219869854e-05 -0.00046130913866 -0.000540607599799)
(0.000121437818601 -0.000639920370386 -0.000801838237265)
(0.00070868641371 -0.000644114903779 -0.000494433104157)
(0.000520678753374 -0.000454625910537 -0.000536291089654)
(0.000510479457019 -0.000627453278247 -0.000786551652096)
(0.00106873896477 -0.000587958637316 -0.000425824012986)
(0.000920938446602 -0.000431753914972 -0.000493135258083)
(0.000879688419472 -0.000592938331544 -0.000722553310198)
(0.00134347261392 -0.000500171048392 -0.000329387093552)
(0.00126784649649 -0.000379262604628 -0.00039663914415)
(0.00120191171444 -0.000525978039746 -0.00059142332858)
(0.00148759265219 -0.000394733933276 -0.00019594780861)