/*--------------------------------*- C++ -*----------------------------------*\
| =========                 |                                                 |
| \\      /  F ield         | OpenFOAM: The Open Source CFD Toolbox           |
|  \\    /   O peration     | Version:  3.0.1                                 |
|   \\  /    A nd           | Web:      www.OpenFOAM.org                      |
|    \\/     M anipulation  |                                                 |
\*---------------------------------------------------------------------------*/
FoamFile
{
    version     2.0;
    format      ascii;
    class       volScalarField;
    location    "7.8";
    object      p_rgh;
}
// * * * * * * * * * * * * * * * * * * * * * * * * * * * * * * * * * * * * * //

dimensions      [1 -1 -2 0 0 0 0];

internalField   nonuniform List<scalar> 
7968
(
4891.43732013
4891.43757603
4891.40864649
4891.36685627
4891.32288233
4891.28343961
4891.25564279
4891.2386904
4891.22767641
4891.21772588
4891.20660484
4891.19427707
4891.18335372
4891.1790192
4891.18679977
4891.20711169
4891.23571371
4891.26533541
4891.28673296
4891.28364667
4891.43962158
4891.45899982
4891.43941174
4891.40199866
4891.35835208
4891.3197958
4891.29141549
4891.27464487
4891.26444299
4891.2549385
4891.24370809
4891.2307518
4891.21882967
4891.21388727
4891.22165127
4891.24171689
4891.26933333
4891.29442435
4891.30657013
4891.28486003
4891.41622799
4891.44476894
4891.42788022
4891.38744415
4891.33717051
4891.29208334
4891.25875019
4891.23812851
4891.22522623
4891.21419894
4891.20267736
4891.19072372
4891.18107219
4891.17974555
4891.19234676
4891.21869644
4891.25270248
4891.28053699
4891.28995502
4891.25939043
4891.3822906
4891.41548358
4891.39557424
4891.34855551
4891.29232951
4891.24541016
4891.21415265
4891.19702197
4891.18690295
4891.17707134
4891.16533825
4891.15176763
4891.13896786
4891.13394444
4891.14435679
4891.17221243
4891.2118031
4891.24576979
4891.25796717
4891.22285378
4891.34802923
4891.38174999
4891.35519588
4891.30217622
4891.24620297
4891.20643169
4891.18553064
4891.17926331
4891.17725913
4891.17154004
4891.15969333
4891.14170835
4891.120355
4891.10416427
4891.10413701
4891.12473491
4891.16376603
4891.20323871
4891.22167573
4891.186004
4891.32015177
4891.35447932
4891.32127648
4891.26635417
4891.21756107
4891.19101057
4891.18592325
4891.19554228
4891.20544871
4891.20581532
4891.19390507
4891.16958085
4891.13569215
4891.10305762
4891.08703203
4891.09461248
4891.12650239
4891.16751027
4891.19225317
4891.1559389
4891.3044207
4891.3384234
4891.30013075
4891.24727124
4891.20895526
4891.19834875
4891.21248057
4891.24138862
4891.26606752
4891.27392892
4891.26200963
4891.230066
4891.1806833
4891.12793371
4891.09233344
4891.08413444
4891.10585194
4891.14474907
4891.17436243
4891.13830435
4891.30010771
4891.33449699
4891.29240698
4891.24315832
4891.21595443
4891.22149282
4891.25503914
4891.30391319
4891.34404736
4891.3631958
4891.35173669
4891.30829907
4891.24267191
4891.16908418
4891.11352733
4891.08923217
4891.10016772
4891.13558812
4891.16896339
4891.13255104
4891.30191477
4891.33726516
4891.29274317
4891.24663337
4891.22771353
4891.24540609
4891.29388162
4891.35827375
4891.41903934
4891.45046222
4891.43954529
4891.38459193
4891.2973224
4891.20707672
4891.13611961
4891.09954607
4891.10226193
4891.13480831
4891.17067564
4891.13335859
4891.30469616
4891.34063526
4891.29492283
4891.25021082
4891.23566455
4891.25959822
4891.31569812
4891.39058878
4891.46338986
4891.49983545
4891.48913655
4891.43004212
4891.3308982
4891.2284759
4891.14982934
4891.10694651
4891.10537671
4891.13648713
4891.17356065
4891.13565336
4891.30587743
4891.34186216
4891.29622946
4891.25161653
4891.23714614
4891.26115177
4891.31731602
4891.39226975
4891.46513678
4891.50163571
4891.49096417
4891.43188197
4891.33274035
4891.23031411
4891.15163368
4891.10867815
4891.10700669
4891.13798646
4891.17493814
4891.1369936
4891.30536589
4891.34085822
4891.29657519
4891.25080443
4891.23210696
4891.25005186
4891.29877659
4891.36339329
4891.42439634
4891.45601779
4891.44517971
4891.39023663
4891.30291148
4891.21260223
4891.14149713
4891.10467292
4891.10706212
4891.13921351
4891.17473367
4891.13727151
4891.30558847
4891.34020654
4891.29848573
4891.24976213
4891.22305557
4891.2291243
4891.26317849
4891.31251994
4891.35309799
4891.37262798
4891.36132123
4891.31784302
4891.2520118
4891.17820225
4891.12228183
4891.09748254
4891.10782011
4891.14258435
4891.17542654
4891.13875685
4891.31157158
4891.34581676
4891.30799202
4891.25580286
4891.21825555
4891.2084716
4891.22341264
4891.25306882
4891.2783606
4891.28662518
4891.2748991
4891.24293789
4891.19331825
4891.14010845
4891.1038688
4891.09488839
4891.11574389
4891.15377555
4891.18273211
4891.14641617
4891.32853506
4891.36306352
4891.33036153
4891.27624404
4891.22839874
4891.20285439
4891.19879109
4891.20935922
4891.22004038
4891.220919
4891.20923431
4891.18484896
4891.15059935
4891.11732337
4891.10045523
4891.10706458
4891.13792505
4891.17795656
4891.20201467
4891.16553574
4891.35707961
4891.39110415
4891.3650392
4891.31284139
4891.25788131
4891.21921975
4891.19942604
4891.19422135
4891.19308386
4891.18794752
4891.17634209
4891.15825269
4891.13644673
4891.11950258
4891.11852126
4891.13805848
4891.17602148
4891.21456703
4891.23241645
4891.19648872
4891.39175654
4891.42523772
4891.40577372
4891.3595023
4891.30422823
4891.25838955
4891.22823805
4891.21217893
4891.20295448
4891.19373424
4891.18225185
4891.16853474
4891.15522712
4891.14941272
4891.15885978
4891.18567274
4891.22430017
4891.25750103
4891.26922913
4891.23399996
4891.42589024
4891.45475108
4891.43822494
4891.3983961
4891.34891521
4891.30479063
4891.27247926
4891.25285547
4891.24080818
4891.23037602
4891.2190988
4891.20697412
4891.19680405
4891.19473297
4891.20645085
4891.23190693
4891.26516976
4891.29243883
4891.30152298
4891.27087623
4891.44964895
4891.46912156
4891.44986108
4891.41294545
4891.36988764
4891.33217969
4891.30475758
4891.2889234
4891.2794959
4891.27051979
4891.25949506
4891.24638497
4891.23398976
4891.22836062
4891.23535075
4891.25471752
4891.28181477
4891.30646446
4891.31839224
4891.29667608
4891.44755678
4891.44805003
4891.41937847
4891.37807654
4891.33476735
4891.29614335
4891.26918966
4891.25306264
4891.24273778
4891.23326478
4891.22232947
4891.20986962
4891.19853557
4891.1935977
4891.20070988
4891.22031861
4891.24837311
4891.27756199
4891.29862845
4891.29528583
4891.41421251
4891.40193135
4891.36334951
4891.31464238
4891.26900362
4891.23202973
4891.20599092
4891.19129619
4891.18222388
4891.17313936
4891.16198151
4891.14878815
4891.13595676
4891.12922689
4891.13483628
4891.15341561
4891.18335799
4891.21970434
4891.25053417
4891.25977815
4891.4037987
4891.40369174
4891.36872937
4891.32458004
4891.28595329
4891.25689364
4891.23772399
4891.22792537
4891.22185396
4891.21411591
4891.2029796
4891.18844868
4891.17266469
4891.16095829
4891.15970797
4891.17061807
4891.19322092
4891.22452865
4891.25145008
4891.2485369
4891.37046133
4891.37410555
4891.33316352
4891.28280965
4891.24038404
4891.21048459
4891.19247222
4891.18388149
4891.17826574
4891.17055714
4891.1591163
4891.14421403
4891.12770199
4891.11481173
4891.11250241
4891.12398822
4891.15011726
4891.18722324
4891.21974566
4891.21303943
4891.32992283
4891.33824274
4891.2909916
4891.23697182
4891.19680078
4891.17407688
4891.16533709
4891.16525469
4891.16480023
4891.15930062
4891.1476683
4891.13006077
4891.10793341
4891.08649193
4891.07496047
4891.0791883
4891.10286059
4891.14309633
4891.18135491
4891.16989394
4891.29436933
4891.30969564
4891.25840698
4891.20651985
4891.17722836
4891.17273715
4891.1840538
4891.20110905
4891.21263611
4891.21297096
4891.20123309
4891.17740241
4891.14264058
4891.10349459
4891.07190183
4891.05804458
4891.07099707
4891.10875614
4891.15045331
4891.13179571
4891.26886721
4891.29175954
4891.2394443
4891.19462734
4891.18357017
4891.20263467
4891.2397495
4891.27977404
4891.30747686
4891.31592644
4891.3042997
4891.2722398
4891.22044251
4891.15732909
4891.09964455
4891.06259446
4891.05754591
4891.08812095
4891.13040664
4891.10398356
4891.25517064
4891.28473164
4891.23338508
4891.19785226
4891.20709909
4891.25211882
4891.31701731
4891.38239107
4891.42852863
4891.44625163
4891.43492938
4891.39374427
4891.32268138
4891.23275512
4891.14631803
4891.08356165
4891.05896972
4891.08041765
4891.12167825
4891.08845939
4891.25318978
4891.28777264
4891.23754077
4891.21079846
4891.2374974
4891.30583902
4891.39619818
4891.48598586
4891.54873084
4891.57035239
4891.55877527
4891.51409882
4891.4261155
4891.31055408
4891.19750706
4891.11131235
4891.06965393
4891.08296652
4891.12326156
4891.08507057
4891.25697441
4891.29471514
4891.2450802
4891.22386558
4891.26294813
4891.34781189
4891.45666672
4891.56331394
4891.62769394
4891.65264825
4891.64122291
4891.59232902
4891.50235739
4891.37015077
4891.23772973
4891.13478437
4891.08110917
4891.08930157
4891.12912344
4891.08788385
4891.26077463
4891.2999083
4891.25066093
4891.23189689
4891.27696599
4891.36993578
4891.4878899
4891.59945092
4891.66666803
4891.69533041
4891.68408107
4891.63096663
4891.53665835
4891.40121693
4891.25936199
4891.14817887
4891.08853807
4891.09427672
4891.13387977
4891.09118629
4891.26202935
4891.30120961
4891.25205633
4891.23334277
4891.27843976
4891.37146831
4891.48946767
4891.60107073
4891.66833788
4891.69704702
4891.68582453
4891.63271997
4891.53842657
4891.40303294
4891.2611975
4891.1499962
4891.09025745
4891.09589206
4891.13533801
4891.09259851
4891.26063487
4891.29852726
4891.24917834
4891.22809563
4891.26742781
4891.35255769
4891.46157961
4891.56836464
4891.63288873
4891.65794883
4891.6465881
4891.59772618
4891.50782105
4891.37571689
4891.24332141
4891.14024999
4891.08623973
4891.0940638
4891.13343609
4891.09203326
4891.25893426
4891.29386214
4891.24397988
4891.21770642
4891.24493422
4891.31389079
4891.40465801
4891.49482779
4891.55790614
4891.57966075
4891.56817364
4891.52352708
4891.43563446
4891.32000405
4891.20677263
4891.12017345
4891.07792904
4891.09057765
4891.13021393
4891.09170737
4891.26256466
4891.29251931
4891.24173694
4891.20697825
4891.21707904
4891.2630321
4891.32878488
4891.39488053
4891.44164041
4891.45975336
4891.44859524
4891.40734996
4891.33607458
4891.2457877
4891.15878564
4891.09524188
4891.06977611
4891.09029407
4891.13072633
4891.09711733
4891.27745161
4891.30073004
4891.24915607
4891.2053349
4891.19536036
4891.21562694
4891.25392651
4891.29499826
4891.32353119
4891.33249232
4891.32109958
4891.28892722
4891.23672198
4891.17295793
4891.11438059
4891.07627653
4891.0701209
4891.09957438
4891.14095476
4891.11414633
4891.30379795
4891.31953851
4891.26895883
4891.21814102
4891.19005746
4891.18684421
4891.19948514
4891.21770437
4891.23020125
4891.23116726
4891.21968002
4891.19569317
4891.16039117
4891.12047207
4891.0878429
4891.07282714
4891.08456913
4891.12115716
4891.16203449
4891.14299243
4891.3398499
4891.34851911
4891.30180906
4891.24881396
4891.20987068
4891.18841766
4891.18097623
4891.18206314
4891.18262188
4891.17783572
4891.16648921
4891.14866664
4891.12595316
4891.10367045
4891.09107149
4891.09419937
4891.11665832
4891.15582188
4891.19343054
4891.1817031
4891.3806204
4891.38449704
4891.34393322
4891.29437984
4891.25307772
4891.22435291
4891.20748834
4891.20002408
4891.19541903
4891.18847717
4891.17736194
4891.16216662
4891.14502982
4891.1313507
4891.12811651
4891.13857324
4891.16362668
4891.19988751
4891.23197556
4891.22518246
4891.41401533
4891.41413535
4891.3794284
4891.33588802
4891.29813543
4891.2700558
4891.25194931
4891.24331779
4891.23813093
4891.23103391
4891.22011857
4891.20534816
4891.189007
4891.17655011
4891.17449591
4891.18457135
4891.20635585
4891.23706952
4891.26370388
4891.26074413
4891.42457712
4891.41255777
4891.37421094
4891.3260524
4891.28123803
4891.24523216
4891.22016165
4891.20632216
4891.19798313
4891.18946669
4891.17853567
4891.16517734
4891.15187154
4891.14450098
4891.14936995
4891.1671798
4891.19637974
4891.2321479
4891.26259004
4891.27132005
4891.38967473
4891.36547826
4891.32026801
4891.26645192
4891.21784728
4891.17873484
4891.15117458
4891.13414858
4891.12237855
4891.11136928
4891.09989973
4891.08823789
4891.07779412
4891.07348903
4891.08065424
4891.10121091
4891.13389816
4891.1751583
4891.21249698
4891.23296769
4891.36737919
4891.36414917
4891.32829174
4891.28572521
4891.25179987
4891.22775683
4891.21223923
4891.20390701
4891.19665123
4891.1874915
4891.17587882
4891.16235441
4891.14759134
4891.13487406
4891.12982031
4891.13571821
4891.15377991
4891.18322529
4891.21045274
4891.21024069
4891.32759719
4891.33406721
4891.28716166
4891.2290985
4891.18416812
4891.15530832
4891.13986176
4891.13213416
4891.12573271
4891.11677769
4891.10444796
4891.09013231
4891.07404717
4891.06046183
4891.0560479
4891.06673445
4891.0952602
4891.13996849
4891.17802195
4891.16849627
4891.28221433
4891.30013722
4891.23751076
4891.17056274
4891.12564408
4891.10591838
4891.10498738
4891.10946696
4891.1116683
4891.10693009
4891.09450324
4891.0751286
4891.04970441
4891.02369486
4891.00515882
4891.00667522
4891.03522793
4891.088268
4891.14153793
4891.12059004
4891.24407
4891.27649432
4891.2026194
4891.13549541
4891.10269303
4891.10269804
4891.12321706
4891.14753886
4891.16340835
4891.16528695
4891.1528124
4891.12631949
4891.08726609
4891.04194247
4891.00179449
4890.98297861
4890.99863735
4891.05167449
4891.11543117
4891.08001327
4891.2168632
4891.2638093
4891.18474631
4891.12638921
4891.11281987
4891.13986084
4891.18798154
4891.23506628
4891.26614272
4891.27532971
4891.26227024
4891.2271572
4891.17192389
4891.10471874
4891.03882816
4890.99306619
4890.98829038
4891.03203633
4891.10055955
4891.05063254
4891.20182136
4891.26077893
4891.18122044
4891.13700929
4891.14428978
4891.19875739
4891.27449048
4891.3447411
4891.39161118
4891.40872734
4891.39453494
4891.34863467
4891.27485443
4891.1846226
4891.09427378
4891.02304115
4890.99682486
4891.0265679
4891.09597467
4891.03392067
4891.19778602
4891.26502755
4891.18633002
4891.15445444
4891.18155953
4891.2594926
4891.359504
4891.45201352
4891.51565424
4891.54134698
4891.52595066
4891.46825933
4891.3744936
4891.26143188
4891.14928142
4891.0570362
4891.01187786
4891.02962671
4891.09866473
4891.02844912
4891.19923626
4891.27116179
4891.19401142
4891.17139296
4891.21256634
4891.30674119
4891.42462583
4891.53591719
4891.61530949
4891.64810673
4891.6320555
4891.56584785
4891.45386774
4891.32112091
4891.19146
4891.08423677
4891.02617494
4891.03562506
4891.103562
4891.02886228
4891.20137253
4891.27545203
4891.1994145
4891.18158045
4891.22959581
4891.33185864
4891.45918801
4891.5806706
4891.6678841
4891.70451664
4891.68816694
4891.61767463
4891.4975347
4891.353838
4891.21458135
4891.09950121
4891.0348693
4891.04005208
4891.10736238
4891.03057859
4891.2027205
4891.2768613
4891.2009316
4891.18315657
4891.23123944
4891.33360688
4891.46116781
4891.58288484
4891.67029064
4891.70704157
4891.69072233
4891.62020765
4891.5000023
4891.35619227
4891.21681056
4891.10163945
4891.03690799
4891.04179684
4891.10884025
4891.03211126
4891.20303596
4891.27527698
4891.19845261
4891.17608407
4891.21773047
4891.31231796
4891.43077769
4891.54271663
4891.62266775
4891.655791
4891.63981307
4891.57354431
4891.46134916
4891.32820313
4891.19809789
4891.09054581
4891.03214204
4891.04102906
4891.10824508
4891.03334337
4891.203801
4891.27162963
4891.1934716
4891.16215756
4891.19009503
4891.26887041
4891.36975032
4891.46335543
4891.52807202
4891.55440539
4891.53912003
4891.48120785
4891.38694492
4891.27306101
4891.16009698
4891.06719534
4891.02141635
4891.03823648
4891.10614338
4891.03553914
4891.20966636
4891.26921206
4891.19047364
4891.14720101
4891.15540207
4891.21097043
4891.28798813
4891.35960321
4891.40768901
4891.42553652
4891.4115517
4891.3654052
4891.29097133
4891.19979304
4891.10844023
4891.03637398
4891.00924689
4891.03767469
4891.10581294
4891.04310216
4891.22588601
4891.27328927
4891.19561012
4891.13855193
4891.12599912
4891.15411357
4891.20364926
4891.25210735
4891.28435883
4891.29436281
4891.28158509
4891.24615018
4891.19029228
4891.12222926
4891.05543854
4891.00873244
4891.002778
4891.04487275
4891.11195315
4891.06132576
4891.25397257
4891.28691087
4891.21429693
4891.14872266
4891.11731828
4891.11843094
4891.14024276
4891.16598678
4891.18307081
4891.18581001
4891.17358668
4891.1467842
4891.10705144
4891.06096405
4891.01999331
4891.00004692
4891.01413427
4891.06544591
4891.12788273
4891.09175337
4891.29260051
4891.31106117
4891.24916273
4891.18390836
4891.14059126
4891.12228251
4891.12255144
4891.12837038
4891.13189381
4891.12822894
4891.11628313
4891.09632636
4891.07009145
4891.04328711
4891.02379867
4891.02388158
4891.05077765
4891.10232114
4891.15454379
4891.13293337
4891.33822644
4891.34501906
4891.29852103
4891.241689
4891.19845179
4891.17110872
4891.15699758
4891.15054753
4891.14559444
4891.13798236
4891.12637852
4891.11108397
4891.09389481
4891.07939741
4891.07386641
4891.08313975
4891.11023842
4891.15370856
4891.19115186
4891.18106243
4891.37816041
4891.37506609
4891.33943301
4891.29769551
4891.26484179
4891.24201209
4891.22828538
4891.22081856
4891.21458466
4891.20628856
4891.19508062
4891.18117544
4891.16567838
4891.15207665
4891.14598867
4891.15085476
4891.16789404
4891.19656491
4891.22337361
4891.22283508
4891.40011906
4891.37637945
4891.33143743
4891.27837731
4891.231016
4891.19332854
4891.16697491
4891.1509716
4891.1400366
4891.12975721
4891.1185939
4891.10663444
4891.09566153
4891.09033703
4891.09637585
4891.11598843
4891.1476429
4891.18812703
4891.22474917
4891.24459621
4891.34494162
4891.31058341
4891.26149177
4891.2039263
4891.15082113
4891.10693108
4891.07402156
4891.05048063
4891.03222603
4891.01704413
4891.00481522
4890.99601921
4890.99138237
4890.99332266
4891.00601015
4891.0318864
4891.06902866
4891.11397856
4891.1548995
4891.18566842
4891.31240535
4891.30706394
4891.26772021
4891.21685979
4891.17177965
4891.13517414
4891.10849611
4891.08730177
4891.06810478
4891.05284446
4891.04027091
4891.03212071
4891.02836039
4891.02763349
4891.03446376
4891.05262649
4891.08197282
4891.12015967
4891.15081157
4891.15304057
4891.2689803
4891.27379947
4891.22292812
4891.15362837
4891.0945499
4891.05159308
4891.02606677
4891.01081452
4890.99776271
4890.98429212
4890.96858071
4890.9589498
4890.94975519
4890.9438787
4890.94948343
4890.97430849
4891.01709724
4891.07240055
4891.11511379
4891.10776505
4891.22012009
4891.23165225
4891.16255653
4891.07423987
4891.0092364
4890.9770947
4890.97291348
4890.97924949
4890.98200433
4890.9768389
4890.96278966
4890.94146678
4890.91529413
4890.8889504
4890.87451387
4890.88781552
4890.93557672
4891.01025591
4891.07072984
4891.05661294
4891.17789277
4891.1970048
4891.11363372
4891.01893626
4890.96692765
4890.96443431
4890.9925289
4891.0254501
4891.04514521
4891.04745955
4891.03177303
4890.99913991
4890.95394649
4890.90436367
4890.86310102
4890.84820514
4890.88017159
4890.95955036
4891.03387823
4891.01230517
4891.14559934
4891.17210926
4891.08134279
4890.99571445
4890.97266125
4891.00820408
4891.07348096
4891.13098325
4891.16509084
4891.17230588
4891.15245492
4891.10636046
4891.04015059
4890.96599262
4890.89891059
4890.85556968
4890.85951533
4890.9261978
4891.00739986
4890.97824576
4891.12501854
4891.15660954
4891.06641936
4891.00189564
4891.01052272
4891.08549821
4891.18255329
4891.26225155
4891.30859433
4891.31919363
4891.29373082
4891.23243889
4891.14372659
4891.04464231
4890.95305914
4890.88601737
4890.86497925
4890.91061359
4890.99115338
4890.95633421
4891.11466862
4891.14823293
4891.06306592
4891.02098131
4891.05918477
4891.16525875
4891.28797924
4891.38937985
4891.44803807
4891.46228485
4891.43141449
4891.35453206
4891.24294201
4891.12079544
4891.00787421
4890.92133297
4890.87951353
4890.90508395
4890.98149703
4890.94449512
4891.11044063
4891.14401897
4891.06579225
4891.04124143
4891.09970004
4891.22624329
4891.36922512
4891.49086452
4891.56281665
4891.5818911
4891.54821152
4891.45991838
4891.32676683
4891.18343526
4891.05267393
4890.94965025
4890.8936562
4890.90623904
4890.97549931
4890.93895848
4891.10944979
4891.14319289
4891.06928618
4891.05360668
4891.12196148
4891.2581784
4891.4123541
4891.54498829
4891.62314231
4891.64431995
4891.60929753
4891.51642052
4891.37332656
4891.21881276
4891.07844544
4890.96659822
4890.90251758
4890.90713136
4890.97259909
4890.93715539
4891.11090639
4891.14514225
4891.07115532
4891.05560213
4891.12420709
4891.2608915
4891.41569244
4891.54910093
4891.62773171
4891.64911096
4891.61413536
4891.52113316
4891.37777252
4891.22274739
4891.08182813
4890.96943542
4890.90506315
4890.90938761
4890.97446255
4890.9388009
4891.11468181
4891.14896161
4891.07117942
4891.04735218
4891.10658577
4891.23466293
4891.37961854
4891.50338147
4891.57683438
4891.59650048
4891.56277136
4891.47418543
4891.34018239
4891.19525119
4891.06270074
4890.95782773
4890.90100403
4890.91263897
4890.98080905
4890.94372685
4891.12137213
4891.15611017
4891.07155061
4891.03062147
4891.07030175
4891.17916529
4891.30480982
4891.40932481
4891.47086443
4891.48650353
4891.45554711
4891.37796583
4891.2647353
4891.13980839
4891.02381618
4890.93459316
4890.89100971
4890.91521035
4890.98991617
4890.95200982
4891.13368708
4891.16619449
4891.07724798
4891.0142406
4891.02456653
4891.10268582
4891.20337558
4891.28652908
4891.33584176
4891.34793301
4891.3226707
4891.26059508
4891.16990228
4891.06782893
4890.97266648
4890.90263353
4890.87972969
4890.92340089
4891.00191792
4890.96600178
4891.15565707
4891.18286392
4891.09377912
4891.01028679
4890.98828064
4891.02582899
4891.09510836
4891.15578277
4891.1922618
4891.20085744
4891.18136988
4891.13475531
4891.06672978
4890.98995544
4890.91985124
4890.87418101
4890.87636123
4890.94074223
4891.01973524
4890.98938619
4891.1887203
4891.20858434
4891.12693856
4891.03431208
4890.9843172
4890.98291656
4891.01286823
4891.04806148
4891.0696082
4891.07314529
4891.05789073
4891.02493126
4890.97845601
4890.92733276
4890.88451498
4890.8680996
4890.89800407
4890.97477134
4891.04713977
4891.02435353
4891.23138874
4891.24369459
4891.17629661
4891.08955037
4891.02656259
4890.99628662
4890.99338227
4891.00103726
4891.00584159
4891.00210245
4890.98871136
4890.96647857
4890.93874167
4890.91158013
4890.89612635
4890.90763819
4890.95296375
4891.02527011
4891.08436896
4891.06924733
4891.28034239
4891.28560655
4891.23564309
4891.16875944
4891.11093547
4891.06977206
4891.04567835
4891.03114745
4891.02049823
4891.00997152
4890.99741637
4890.98348817
4890.97170548
4890.96560216
4890.96999477
4890.99272911
4891.03327718
4891.08727373
4891.12869381
4891.12052993
4891.32374431
4891.31852742
4891.2797896
4891.23038427
4891.18693141
4891.15216044
4891.12639753
4891.10663961
4891.08912486
4891.07502774
4891.06307264
4891.054351
4891.04914022
4891.04744157
4891.05287513
4891.06945659
4891.09739713
4891.13409243
4891.16406575
4891.16567366
4891.35586653
4891.32171764
4891.27325093
4891.21704576
4891.16562169
4891.12292321
4891.09134119
4891.06899909
4891.05185206
4891.03752093
4891.02571035
4891.016701
4891.01133776
4891.01230047
4891.02369898
4891.04792549
4891.0836091
4891.12743154
4891.16745854
4891.19827617
4891.32880163
4891.29406986
4891.24635283
4891.18231538
4891.12027524
4891.06439354
4891.01895366
4890.98384136
4890.95597119
4890.93496346
4890.92146731
4890.91593776
4890.9193684
4890.93285313
4890.95801506
4890.99595152
4891.04272079
4891.09467683
4891.13477413
4891.16590075
4891.29589916
4891.26937254
4891.21976858
4891.1473417
4891.07601857
4891.01107697
4890.95828088
4890.90471438
4890.86159527
4890.8517765
4890.84185899
4890.82755031
4890.84591037
4890.87115764
4890.90448558
4890.95145968
4891.00674776
4891.06652401
4891.1089165
4891.13283147
4891.25411589
4891.22552386
4891.16220366
4891.06782618
4890.96089347
4890.875624
4890.84295287
4890.80345355
4890.76291874
4890.75608178
4890.74716897
4890.72465389
4890.74130771
4890.7559218
4890.76950641
4890.8405274
4890.92538851
4891.00648616
4891.06264422
4891.08884628
4891.19922141
4891.16208911
4891.07721495
4890.91835266
4890.81053977
4890.75557985
4890.73629359
4890.73296679
4890.73504441
4890.73703048
4890.72131541
4890.69408913
4890.67021155
4890.66740658
4890.65519894
4890.69074604
4890.78137872
4890.91876122
4890.99703058
4891.03144474
4891.14809672
4891.10154047
4890.97930238
4890.81430175
4890.74254558
4890.75821434
4890.79899578
4890.84894402
4890.87439254
4890.87695424
4890.85447994
4890.808863
4890.74986787
4890.68680899
4890.64206236
4890.63271592
4890.68517761
4890.82626531
4890.93500711
4890.97815443
4891.10455386
4891.04860698
4890.90055386
4890.75649082
4890.76409306
4890.81688795
4890.91813234
4890.99134073
4891.02990069
4891.03357434
4891.00093433
4890.93397821
4890.84565533
4890.75774313
4890.68259863
4890.6246649
4890.64721933
4890.75210465
4890.88034053
4890.93264552
4891.07253578
4891.00713918
4890.87703386
4890.78519256
4890.8158479
4890.93292146
4891.06759509
4891.15990141
4891.20400153
4891.20351213
4891.15821447
4891.06843852
4890.95401228
4890.83997802
4890.73979074
4890.63628036
4890.64749697
4890.72450666
4890.83784601
4890.89866501
4891.05099016
4890.96897104
4890.8370374
4890.8156862
4890.89092902
4891.05047966
4891.2080236
4891.32153599
4891.37111748
4891.36522967
4891.3071888
4891.19403754
4891.05216035
4890.91686334
4890.79843731
4890.70406583
4890.61911386
4890.69985947
4890.80109455
4890.87488131
4891.03840949
4890.9456279
4890.81579257
4890.84729979
4890.95381872
4891.13765286
4891.31987537
4891.45988694
4891.52144943
4891.51770667
4891.45565705
4891.32627127
4891.14819069
4890.98497603
4890.84847857
4890.73498868
4890.62479188
4890.6806102
4890.77924299
4890.86000887
4891.03323338
4890.94959768
4890.82645871
4890.86619026
4890.98796446
4891.18291674
4891.38029322
4891.53134151
4891.5932205
4891.58587525
4891.52267218
4891.39231676
4891.20146895
4891.02514756
4890.87855055
4890.7577014
4890.63569223
4890.68492955
4890.77403049
4890.85329253
4891.03475613
4890.95380003
4890.83110014
4890.86869023
4890.99106608
4891.18740632
4891.386511
4891.53934465
4891.60171442
4891.59414027
4891.53109958
4891.40043858
4891.20901741
4891.03158635
4890.88371001
4890.76107763
4890.63983741
4890.6878515
4890.77624688
4890.8551087
4891.04280482
4890.95242426
4890.82545773
4890.85515067
4890.96414554
4891.15167035
4891.33928074
4891.48426491
4891.54786765
4891.54358501
4891.48065694
4891.35112483
4891.17144403
4891.00436816
4890.86376582
4890.7460563
4890.63515414
4890.68866436
4890.78479189
4890.86519241
4891.0578997
4890.97809089
4890.85100459
4890.82837047
4890.90735911
4891.07463656
4891.23757359
4891.35804557
4891.41416139
4891.41056531
4891.35126369
4891.23622698
4891.08956346
4890.94767477
4890.82256941
4890.7232102
4890.63109663
4890.71318179
4890.8099007
4890.8829021
4891.081466
4891.01692902
4890.893206
4890.80177061
4890.83536947
4890.96087481
4891.10259246
4891.20189174
4891.25186805
4891.25345126
4891.20724709
4891.11499944
4890.99619341
4890.87577334
4890.76793165
4890.65769206
4890.6673336
4890.73976267
4890.84968788
4890.90881572
4891.114696
4891.06022482
4890.91837515
4890.77812494
4890.7837993
4890.83942926
4890.95387062
4891.03142599
4891.07406832
4891.07949264
4891.04694759
4890.97834363
4890.88593959
4890.79247527
4890.71178356
4890.64252024
4890.67024854
4890.77180121
4890.89346645
4890.94396079
4891.15921329
4891.11420735
4890.99554271
4890.83619853
4890.76706973
4890.78132897
4890.82592822
4890.88030742
4890.90979386
4890.91382232
4890.89168596
4890.84514161
4890.78249208
4890.71854268
4890.67090246
4890.65857244
4890.70926098
4890.84446486
4890.94861399
4890.99020946
4891.21073326
4891.17492407
4891.09170783
4890.93932665
4890.83395721
4890.779363
4890.76596541
4890.77397517
4890.77567097
4890.77739134
4890.76165982
4890.73420993
4890.70872867
4890.69332314
4890.68316809
4890.71587589
4890.80281716
4890.93477056
4891.01065497
4891.04373844
4891.26586587
4891.23780788
4891.17629448
4891.08404186
4890.98199618
4890.90142874
4890.86501428
4890.82604764
4890.79052122
4890.78351658
4890.77218448
4890.75388162
4890.76153703
4890.7823221
4890.79612622
4890.86228739
4890.94294082
4891.02137733
4891.07619917
4891.10127352
4891.30766609
4891.28106824
4891.23257142
4891.16218427
4891.09293151
4891.0297003
4890.97842422
4890.92984598
4890.88775275
4890.87948799
4890.86915851
4890.85707213
4890.87130827
4890.89410928
4890.92553451
4890.96984875
4891.02266671
4891.08091694
4891.12192248
4891.14482855
4891.33957824
4891.30527432
4891.25845758
4891.19595787
4891.13555823
4891.08164628
4891.03802278
4891.00447194
4890.97790447
4890.95784244
4890.94481748
4890.93934331
4890.94198843
4890.95414572
4890.9773788
4891.01306992
4891.05757074
4891.10794833
4891.14680754
4891.17784687
4891.38231432
4891.34604447
4891.30279196
4891.23837524
4891.17618284
4891.12031461
4891.0760016
4891.0438291
4891.02125198
4891.00380685
4890.98927904
4890.97848919
4890.97487486
4890.98389067
4891.00745922
4891.04484469
4891.09173086
4891.14414405
4891.18076724
4891.21212123
4891.34756815
4891.28005891
4891.21672617
4891.11930325
4891.02097985
4890.92657245
4890.84809023
4890.78167145
4890.72600313
4890.71493455
4890.70283387
4890.68650922
4890.71361312
4890.7509451
4890.81007586
4890.88661835
4890.9700228
4891.05482809
4891.11329665
4891.17819522
4891.3109816
4891.22178357
4891.1440479
4891.02550522
4890.68858504
4889.85746752
4889.37667269
4889.22628813
4889.28784539
4889.35082403
4889.33887509
4889.2465976
4889.17649531
4889.35176323
4889.80835105
4890.57200868
4890.87059263
4890.97987289
4891.05169856
4891.13793221
4891.25693734
4891.13498643
4891.03613805
4890.36021369
4889.34269487
4889.28893435
4890.05550141
4890.50034021
4890.5070737
4890.50062915
4890.47786078
4890.43708182
4890.32958614
4889.74443827
4888.98124399
4889.33519208
4890.23271245
4890.8633051
4890.96115194
4891.07968633
4891.20774595
4891.04979392
4890.71379035
4889.32820832
4889.49504967
4889.70570406
4889.95284516
4890.64169716
4890.67951117
4890.68755358
4890.64938124
4890.57513983
4890.4909952
4890.15794479
4889.98072311
4889.09038765
4889.36010938