/*--------------------------------*- C++ -*----------------------------------*\
| =========                 |                                                 |
| \\      /  F ield         | OpenFOAM: The Open Source CFD Toolbox           |
|  \\    /   O peration     | Version:  3.0.1                                 |
|   \\  /    A nd           | Web:      www.OpenFOAM.org                      |
|    \\/     M anipulation  |                                                 |
\*---------------------------------------------------------------------------*/
FoamFile
{
    version     2.0;
    format      ascii;
    class       volVectorField;
    location    "7.8";
    object      U_0;
}
// * * * * * * * * * * * * * * * * * * * * * * * * * * * * * * * * * * * * * //

dimensions      [0 1 -1 0 0 0 0];

internalField   nonuniform List<vector> 
7968
(
(0.000762031223988 0.000703220190737 -0.00121394025737)
(0.00294054517378 0.000153409288997 -0.00140059310949)
(0.00591207458648 -8.02445859572e-05 -0.0013178793027)
(0.00827897289492 -6.70006718901e-05 -0.000991494188831)
(0.00983137427175 0.000199032841191 -0.000630034609204)
(0.00996746006473 0.00065408097493 -0.000297532737008)
(0.00919487427153 0.000991136921668 -0.000121503354154)
(0.00745879185611 0.00137801712231 2.32706572958e-05)
(0.00499851818309 0.00167630296304 8.93403981849e-05)
(0.00215983447069 0.00183273735383 0.00010568413654)
(-0.0008054584628 0.00184046775621 0.000109731158889)
(-0.00368110675398 0.00169811333835 0.000102205601167)
(-0.00621825983876 0.00141013173122 4.81029269489e-05)
(-0.00806901587987 0.00102772273524 -8.27452021873e-05)
(-0.00896924224818 0.000674405475374 -0.000257637510053)
(-0.00898948097644 0.000244556715345 -0.000564910837321)
(-0.00762741985508 -3.13462636121e-05 -0.000927411432104)
(-0.00545330316758 -4.23878712198e-05 -0.0012510133328)
(-0.00267597931448 0.000189918831745 -0.0013361024445)
(-0.000672320447978 0.000732869021822 -0.00115296351281)
(0.000215104917778 0.0027691582139 -0.00139720844691)
(0.00266547082558 0.00249096585276 -0.00366079731686)
(0.00620880616513 0.00267147016094 -0.00435731913592)
(0.00889410174151 0.00329407264541 -0.00425249524963)
(0.0104593950495 0.00427976674618 -0.00390113654778)
(0.0106277710421 0.00537622037588 -0.00350893036013)
(0.00967689057193 0.00628103091788 -0.00320241862635)
(0.00776958122452 0.00706140062738 -0.00296675419259)
(0.0051734860888 0.00762806654253 -0.00283432633256)
(0.00222738756908 0.00792604358714 -0.00278652916763)
(-0.000834246814677 0.00793896440357 -0.00277810769219)
(-0.00382016848789 0.007663657666 -0.00280828975857)
(-0.00649647920448 0.00711214968318 -0.00292245606897)
(-0.00851997089964 0.00633791948905 -0.00314306961878)
(-0.00960166586378 0.00543649076211 -0.00344050354222)
(-0.00959780991972 0.00436290781373 -0.00381833633926)
(-0.00822136322496 0.00338543009626 -0.0041665620599)
(-0.00574015720268 0.00276940195499 -0.00427377601767)
(-0.00239649443068 0.00258578757284 -0.00358838498832)
(-0.000121614755376 0.00284913837106 -0.00133774135899)
(-1.54885935126e-05 0.00562963217771 -0.00132395615394)
(0.00284990896331 0.00591946494549 -0.00435931483844)
(0.00689095822705 0.00659832053757 -0.00507952476132)
(0.00987175483319 0.00778986942915 -0.0047387136945)
(0.0114985508378 0.00935773086642 -0.00410936322194)
(0.0116010399003 0.010997238622 -0.00349680294161)
(0.0104417675098 0.0123989083687 -0.00304400013236)
(0.00829374432792 0.0135530710398 -0.00275408529602)
(0.0054772191138 0.0143833079902 -0.00261320690928)
(0.00233565308567 0.0148159480636 -0.00256656975697)
(-0.000913922111529 0.0148375137592 -0.00255703875875)
(-0.00410207928807 0.0144423538105 -0.0025847447539)
(-0.00700751131037 0.0136349437382 -0.00270805457928)
(-0.00927432387187 0.0124877584183 -0.0029836027522)
(-0.0105658533557 0.0110925828452 -0.00342288504524)
(-0.0106241779455 0.00947653992703 -0.00401815842684)
(-0.00918578929254 0.00792016897372 -0.00463734198231)
(-0.00641241681096 0.00673725629578 -0.00497874333015)
(-0.00257566807162 0.00605736323449 -0.00427395830951)
(0.000110329822207 0.00575062475918 -0.00125863579659)
(-2.55529406149e-06 0.00789771965356 -0.00100156346859)
(0.00347152094847 0.00849896644988 -0.00426229128326)
(0.00808309832778 0.00947217845427 -0.00474766473965)
(0.0114097923352 0.0110090594008 -0.00402553893123)
(0.0131114828172 0.012919037672 -0.00299609800048)
(0.0130742110562 0.0148670397026 -0.0020593338521)
(0.0116262991944 0.016557880315 -0.00138684089891)
(0.00912625633023 0.0179435178732 -0.000990639181999)
(0.00596413250308 0.018936916807 -0.000817703671333)
(0.00250501829473 0.0194612160367 -0.00077100907356)
(-0.00104840721501 0.0194902722297 -0.000758501533552)
(-0.00456482578832 0.0190156971397 -0.000781402864987)
(-0.00782985049532 0.0180497526254 -0.000935835579767)
(-0.0104548908212 0.0166677925584 -0.00131950559599)
(-0.012033103651 0.014978593461 -0.00197644009019)
(-0.0122233063619 0.0130515587633 -0.00289119383676)
(-0.0107086265899 0.0111564659993 -0.00390623942781)
(-0.00759165210753 0.00963094766986 -0.00462677115402)
(-0.00318900281733 0.00865974077282 -0.0041594780403)
(0.000101187511888 0.00804122417177 -0.000925563154688)
(0.000268057050056 0.00936152868883 -0.000643645171808)
(0.00445551864085 0.00997527738556 -0.00391786471019)
(0.00965017437519 0.0110104741338 -0.00413015065597)
(0.0133187190499 0.0126231143434 -0.003009295551)
(0.0151037928167 0.0146172071492 -0.00155001726263)
(0.0149011640046 0.0166452372699 -0.000241394567715)
(0.0131363028419 0.018398999189 0.000750288297265)
(0.0102340821238 0.0198431068609 0.00139550571582)
(0.00664209524289 0.0208879346003 0.00172579020049)
(0.00274927955694 0.0214500119416 0.00184669319716)
(-0.00124315328702 0.0214872095387 0.00186607486824)
(-0.00521202847276 0.0209866441584 0.00177887862433)
(-0.00893064626872 0.019970039837 0.00146742455663)
(-0.0119696508892 0.0185209890142 0.000828503111884)
(-0.0138606162261 0.0167582842073 -0.000153381315209)
(-0.0142062700848 0.0147462048146 -0.00143635957517)
(-0.0126037243248 0.0127652324818 -0.00287280908057)
(-0.00914667818392 0.0111654199423 -0.0039895476567)
(-0.00416643519917 0.0101346032791 -0.00379490256767)
(-0.000167448925765 0.00950567785289 -0.000554254664283)
(0.000715461535173 0.00943287989584 -0.000324704801513)
(0.00554513085288 0.0100751278082 -0.00353814473893)
(0.0112845647055 0.0110446523266 -0.00353069815505)
(0.0152621072429 0.0125180932691 -0.00208366558674)
(0.0171276783254 0.0143480842002 -0.000250141016115)
(0.0167030027503 0.0161560852882 0.00141590011045)
(0.0146214595814 0.017737410774 0.00264759307653)
(0.0113185892921 0.0190585623027 0.00345787829641)
(0.00729999405573 0.0200296625166 0.0038760641483)
(0.0029872841101 0.0205652824786 0.00402995593521)
(-0.00142693853433 0.0206087388485 0.00405984005766)
(-0.00584055122405 0.0201447737915 0.00395408230871)
(-0.0100182294817 0.0192055368851 0.00355011563571)
(-0.0134731267574 0.0178739152518 0.0027277298912)
(-0.015673429618 0.0162710681608 0.00149312004056)
(-0.0162217586037 0.0144658891109 -0.000141401302872)
(-0.0145351295589 0.0126440527204 -0.00194460202917)
(-0.0107681590009 0.0111783940178 -0.00337991856139)
(-0.00524826829629 0.010210289878 -0.00340457017001)
(-0.000609009381353 0.00955472158607 -0.000229465421643)
(0.0010580221404 0.00861200794139 -0.000151823213686)
(0.00644926492738 0.00907490046986 -0.00323990929551)
(0.0126853620345 0.00983253723705 -0.00308637874645)
(0.016952243786 0.0110122848635 -0.00141640751287)
(0.0188815499494 0.0125202459093 0.000740721851698)
(0.0182836014 0.0140082970283 0.00265223261618)
(0.0159433979755 0.0153268306202 0.00406164288864)
(0.01229282608 0.0164575583782 0.00501235282533)
(0.00789752297316 0.0173147703152 0.00551814026929)
(0.00320882415474 0.017779057621 0.00572644813625)
(-0.00158565623253 0.0178227864183 0.00576750842144)
(-0.0064009767906 0.0174356921702 0.00562084067049)
(-0.0109909411942 0.0166165072079 0.00512186176068)
(-0.0148141596156 0.0154757553056 0.00414432383487)
(-0.0172732594583 0.0141314731298 0.00272158817661)
(-0.0179793125408 0.0126356404318 0.000841704862483)
(-0.0162219738168 0.0111257566679 -0.00128161319317)
(-0.0121627260104 0.00994509012614 -0.00293257306957)
(-0.00614941717292 0.00918515352755 -0.00310143174524)
(-0.000953675030832 0.00871176484203 -5.46821834071e-05)
(0.00144039779029 0.0068385279788 -1.38684548147e-05)
(0.00722387414871 0.00712929892791 -0.00301432169356)
(0.0138319132277 0.00764116478719 -0.00280591173951)
(0.0183287920669 0.0084595376632 -0.00103016052714)
(0.0203181564159 0.00955338907477 0.00137937527593)
(0.0195973732519 0.0106297523113 0.00346334364873)
(0.0170715109597 0.0115896699736 0.00501693950653)
(0.0131462233271 0.012434600762 0.00612375072669)
(0.00838976222873 0.013022187651 0.006790951972)
(0.00338915613167 0.0134453834549 0.00676128022674)
(-0.00171559053372 0.013493790202 0.00677763493959)
(-0.00685321511172 0.0131345805727 0.00689196038723)
(-0.0118299422007 0.0125781264584 0.00626082283905)
(-0.0159553368391 0.0117344717739 0.00511155084591)
(-0.0186067869366 0.0107520285006 0.00353737033744)
(-0.019428770991 0.00966348033727 0.00148270231312)
(-0.0176073077482 0.00855962705717 -0.00089021515254)
(-0.0133149320387 0.00773109140705 -0.00265031833589)
(-0.00692809157326 0.00721191562972 -0.00287465138038)
(-0.00133965331086 0.00691298163957 8.04268204073e-05)
(0.00173053948992 0.00436191081762 4.68728879592e-05)
(0.00777798342724 0.00451627877457 -0.00289209930745)
(0.0146434177739 0.00480182731766 -0.0026766411542)
(0.0192982800644 0.0052655277781 -0.000873920702895)
(0.0213382249032 0.00591616789089 0.00168974860414)
(0.020542672978 0.00655011075846 0.0038617377743)
(0.0179074285293 0.00711807036205 0.0055024953348)
(0.0137245542326 0.00758981501673 0.00677156688245)
(0.0088111183515 0.00801187096644 0.00684256412284)
(0.00352126855759 0.00826019409836 0.00685320494572)
(-0.00182157623791 0.00829017265243 0.00688521921451)
(-0.00725691731473 0.00808964031428 0.00691301239219)
(-0.0124042914201 0.00769608936319 0.00687581019815)
(-0.0167889862545 0.00722458642773 0.0056234569157)
(-0.0195654590853 0.00664415182279 0.00395539146695)
(-0.0204631831315 0.00600108263519 0.00180851289384)
(-0.0185906848584 0.0053396057714 -0.000722475255379)
(-0.0141381405993 0.00486461606604 -0.00251876662631)
(-0.00748991069474 0.00457159843728 -0.00275388968115)
(-0.00163510728692 0.00441217617453 0.000137844607229)
(0.00187776420451 0.00152926821056 5.93343860834e-05)
(0.00806006074787 0.00157696522011 -0.00285286728594)
(0.0150507865979 0.00166533451115 -0.0026414594255)
(0.0197902070422 0.00180893208518 -0.000844987386623)
(0.0218625971498 0.00201983838949 0.00178461678768)
(0.0210362343856 0.00222370645138 0.00398115389335)
(0.0183349915644 0.00240622242127 0.0056679538768)
(0.0141025374095 0.00255626720387 0.00674486431039)
(0.00904213265182 0.0026804995289 0.00682465431325)
(0.00360773735939 0.00276422488308 0.00690966302218)
(-0.00189190602097 0.00277433035819 0.00694743252114)
(-0.00747511495482 0.00270472751934 0.00690978905823)
(-0.012793842462 0.00259568329188 0.00678223530045)
(-0.0172071755281 0.00244414348559 0.005806986261)
(-0.0200647392675 0.00225884746788 0.00409095935935)
(-0.0209947128527 0.00205339395906 0.0019165150662)
(-0.0190904957645 0.00184047051725 -0.000685076147577)
(-0.0145528847766 0.00169412938406 -0.00248127225671)
(-0.00777702797832 0.00160429811144 -0.00271532373437)
(-0.00178561383344 0.00155539063571 0.000149028060083)
(0.00187731935365 -0.00141127248301 5.97520221061e-05)
(0.0080580658557 -0.0014573528534 -0.00285200426019)
(0.0150483906383 -0.00155305429592 -0.00264193642544)
(0.0197876660055 -0.00170734880063 -0.000846775770248)
(0.0218600014398 -0.00192957577743 0.00178198580081)
(0.0210333211433 -0.00214404927626 0.00397725598552)
(0.0183318893867 -0.00233718775152 0.0056630879213)
(0.0140995539964 -0.00249766901177 0.00673887576655)
(0.00903996870301 -0.00263044504456 0.00681866269864)
(0.00360647004493 -0.00272044863761 0.00690417685896)
(-0.00189259206086 -0.00273222974414 0.00694194384025)
(-0.00747443875432 -0.0026597957317 0.00690348617677)
(-0.0127911195018 -0.00254275515885 0.00677493940748)
(-0.017202953555 -0.00237985374424 0.00580077333154)
(-0.0200598004629 -0.00218049469225 0.00408609076852)
(-0.0209893636439 -0.00195878160942 0.00191345874404)
(-0.0190849441855 -0.00172655040756 -0.000686024267314)
(-0.0145478914484 -0.00156282079153 -0.00248018965796)
(-0.00777350448333 -0.00146009911512 -0.00271253224113)
(-0.00178485286624 -0.00141112020928 0.000150203662051)
(0.00172946741383 -0.00424432137471 4.88646788461e-05)
(0.00777250882471 -0.00439661556259 -0.0028885574421)
(0.0146370730411 -0.00468741904435 -0.00267690401216)
(0.0192915138516 -0.00515884368616 -0.000877911875739)
(0.0213314098093 -0.00581735909996 0.00168343917585)
(0.0205349727957 -0.00645811022927 0.00385214849288)
(0.0178993348869 -0.00703283920124 0.00549045402805)
(0.0137164008795 -0.00751172394645 0.0067568037044)
(0.00880483405839 -0.00794043255299 0.00682531539916)
(0.00351734882292 -0.00819394435762 0.00683623331663)
(-0.00182336674748 -0.00822540028501 0.00686809555805)
(-0.0072547759799 -0.00802258830315 0.00689341856172)
(-0.0123967587523 -0.00762183541964 0.00685577520949)
(-0.0167776821664 -0.00714181127237 0.00560794392647)
(-0.0195521528037 -0.00655162544889 0.00394314183625)
(-0.0204488927699 -0.00589699520742 0.00180083413526)
(-0.0185758745244 -0.00522135356654 -0.000724873062163)
(-0.0141248566759 -0.00473322126057 -0.0025156842756)
(-0.00748035555575 -0.00443016006022 -0.00274609317015)
(-0.0016331676967 -0.00427062153095 0.000141679796928)
(0.00143936424787 -0.00672547424066 -9.40057456348e-06)
(0.00721678270212 -0.0070128714937 -0.00300777983376)
(0.0138244880022 -0.00752627504985 -0.00280443145195)
(0.0183210041688 -0.00834714291349 -0.00103350631367)
(0.0203108301819 -0.00944283046045 0.00137371650956)
(0.0195886904263 -0.0105196300647 0.00345463627579)
(0.0170621247444 -0.011480193109 0.00500620151737)
(0.0131359609418 -0.0123265768014 0.00611247166378)
(0.00838029327082 -0.0129173639106 0.0067750642185)
(0.0033834723523 -0.0133448289565 0.00673500390968)
(-0.00171763715633 -0.0133933104952 0.00675023242379)
(-0.00685018679972 -0.0130330591681 0.00686339169332)
(-0.0118191574058 -0.0124691450578 0.00624433027021)
(-0.0159412255707 -0.0116231335712 0.00509576892691)
(-0.0185898046374 -0.0106380255272 0.00352492403105)
(-0.0194105030955 -0.00954561125792 0.00147482746515)
(-0.0175879361355 -0.00843569041941 -0.000892278782071)
(-0.0132977417465 -0.0076008183988 -0.00264534922687)
(-0.00691514274225 -0.00707666593565 -0.00286309634348)
(-0.0013374401824 -0.00677880755261 8.74324124048e-05)
(0.00105745034141 -0.0085091560503 -0.000144838972319)
(0.00644307672472 -0.00896706295818 -0.00323135389533)
(0.0126800463418 -0.00972238839233 -0.00308266087774)
(0.0169478010174 -0.0108991777587 -0.00141658533967)
(0.0188787109692 -0.01240354471 0.000739951018572)
(0.018279101893 -0.0138865702395 0.00265102884624)
(0.0159369415995 -0.0152002834618 0.00405966361481)
(0.0122848146716 -0.0163281927925 0.00500971658589)
(0.007889569324 -0.0171838763252 0.00551410037834)
(0.00320349982713 -0.0176465215634 0.00572023851249)
(-0.00158572948925 -0.0176888322125 0.00575985031948)
(-0.00639588149707 -0.0173007479241 0.00561324493667)
(-0.0109819017457 -0.0164811947039 0.00511424701612)
(-0.0148019791025 -0.0153418780839 0.00413721406333)
(-0.0172590282989 -0.0140012136139 0.00271577050548)
(-0.0179634710852 -0.0125083142926 0.000838208238224)
(-0.0162038736994 -0.0109999384696 -0.00128099751588)
(-0.0121458822785 -0.00982021582714 -0.00292533831431)
(-0.00613646377972 -0.00906091883653 -0.00308746209715)
(-0.000951883359852 -0.00859069808502 -4.49164210654e-05)
(0.000712382405544 -0.00934182059725 -0.000318049460481)
(0.00554270287279 -0.00997905580767 -0.00352889308734)
(0.0112858562575 -0.0109440136863 -0.00352461637964)
(0.0152656195923 -0.0124110710083 -0.00207937196581)
(0.0171335672074 -0.0142342918663 -0.000244273078725)
(0.0167071551082 -0.0160350793849 0.00142379636938)
(0.0146222890918 -0.0176086833046 0.00265618363829)
(0.0113158736588 -0.0189241042692 0.00346611042216)
(0.00729578798609 -0.0198914994963 0.00388224616694)
(0.00298453993473 -0.0204244721846 0.00403378790741)
(-0.00142589468464 -0.0204657889434 0.00406252583596)
(-0.00583583164778 -0.020000484925 0.00395784450094)
(-0.010012083155 -0.0190612505208 0.00355541876932)
(-0.013467146295 -0.0177331858413 0.00273253701861)
(-0.0156669352338 -0.0161365812499 0.00149699250631)
(-0.0162138884991 -0.0143377736342 -0.000137605487204)
(-0.0145246544879 -0.0125223339525 -0.00193926346446)
(-0.0107578527182 -0.0110629298716 -0.00336999540552)
(-0.0052392800727 -0.0100993830339 -0.00338996017874)
(-0.000604425879195 -0.0094477120188 -0.000220842281789)
(0.000271736574952 -0.00928869958798 -0.000633719117056)
(0.00446158366117 -0.00989842020701 -0.00390823007986)
(0.00966188084914 -0.0109264947869 -0.00412200485899)
(0.0133332667208 -0.0125301110357 -0.00300074827069)
(0.0151201109301 -0.0145159890089 -0.00153858626337)
(0.0149157030463 -0.0165361776759 -0.000226010919438)
(0.0131472423283 -0.0182816247537 0.00076802810336)
(0.0102401763589 -0.0197187533621 0.0014146605385)
(0.00664479539627 -0.0207579511075 0.00174453272984)
(0.00275103781425 -0.0213156256783 0.00186406036498)
(-0.00124054808383 -0.0213501058896 0.00188281873906)
(-0.0052087332171 -0.0208488774288 0.00179646582928)
(-0.00892906201029 -0.0198335286914 0.00148561223722)
(-0.0119710155985 -0.0183883128206 0.000844889024496)
(-0.0138633032556 -0.0166321781584 -0.000139177863097)
(-0.0142092246403 -0.0146280624444 -0.00142453161863)
(-0.0126054655712 -0.0126562732668 -0.0028615480107)
(-0.00914857252983 -0.0110669654732 -0.00397681411922)
(-0.0041678653852 -0.0100445679411 -0.00378009841937)
(-0.00017173329809 -0.00941956738593 -0.000542244671925)
(-2.35336579733e-09 -0.00784652843192 -0.000992828438419)
(0.00348254536837 -0.00844243610544 -0.00425541990296)
(0.00810206054798 -0.00940808601849 -0.00473956382113)
(0.011432379526 -0.0109355209193 -0.00401478200035)
(0.0131349120212 -0.0128369448548 -0.00298107734305)
(0.013094797485 -0.0147778049458 -0.00204123253085)
(0.0116425132465 -0.0164622149673 -0.00136721264595)
(0.00913772336914 -0.0178428255052 -0.000970485862333)
(0.00597214136977 -0.0188314872554 -0.000797499198189)
(0.00251151637888 -0.0193515707785 -0.000750955336266)
(-0.00104230578044 -0.0193777689359 -0.000738168580806)
(-0.00455972192586 -0.0189021812339 -0.000759994239731)
(-0.00782836219344 -0.0179367678467 -0.000913437096923)
(-0.0104585076603 -0.0165567952688 -0.00129738462241)
(-0.012040770717 -0.0148726059008 -0.00195562697497)
(-0.0122340513956 -0.0129531838482 -0.00287205978284)
(-0.0107202726051 -0.0110681860491 -0.00389040034241)
(-0.00760301856847 -0.00955432704373 -0.00461310238502)
(-0.00319751870126 -0.00859252171831 -0.00414740307829)
(9.72892135793e-05 -0.00798044092303 -0.000916773416579)
(-1.19554579637e-05 -0.00559824939717 -0.00131549017155)
(0.00286422291492 -0.00588376838329 -0.00435494755962)
(0.00691530643493 -0.00655599189923 -0.00507302561338)
(0.0099008085256 -0.00773901888303 -0.00472749669497)
(0.0115282781739 -0.00929859854487 -0.00409260494969)
(0.0116267202142 -0.0109307926305 -0.00347650614909)
(0.0104630996184 -0.0123257159267 -0.00302230929856)
(0.00831063182645 -0.0134745811104 -0.00273204409987)
(0.00549052279766 -0.0143000932472 -0.00259070381689)
(0.00234640965925 -0.0147290343537 -0.00254355012105)
(-0.000905344036484 -0.0147482268183 -0.00253324064572)
(-0.00409638587306 -0.014352450012 -0.00255991672991)
(-0.00700676531167 -0.0135463480964 -0.00268209535825)
(-0.00928003837261 -0.0124021098506 -0.00295731183904)
(-0.0105773785162 -0.0110127526232 -0.00339733340788)
(-0.010641826257 -0.0094050952281 -0.00399511398664)
(-0.00920574636618 -0.00785845419466 -0.0046200322608)
(-0.00643128567583 -0.00668591286024 -0.0049664984172)
(-0.00258955566354 -0.00601430554718 -0.00426515433755)
(0.000104298188578 -0.00571206644133 -0.0012522053236)
(0.000218641016034 -0.00275511522024 -0.00139279660629)
(0.00267932408464 -0.00247450037655 -0.003659054943)
(0.00623351287924 -0.00265060430933 -0.00435439480951)
(0.00892532526947 -0.00326767502253 -0.00424526953399)
(0.0104926300711 -0.00424788810799 -0.00388603020601)
(0.0106559780566 -0.00533937059677 -0.0034892606207)
(0.0097005100097 -0.00623926828977 -0.00318142812627)
(0.00778896622806 -0.00701587827104 -0.00294546539134)
(0.00518975613415 -0.00757938965967 -0.00281205008078)
(0.00224121790657 -0.00787502195978 -0.00276317690916)
(-0.000822947855736 -0.00788644405333 -0.00275357856793)
(-0.00381239039954 -0.00761064198342 -0.00278277822137)
(-0.00649450899976 -0.00705994436697 -0.00289610646909)
(-0.00852576498305 -0.00628803125506 -0.00311669200723)
(-0.00961489458517 -0.00539092317014 -0.00341538736415)
(-0.0096192930629 -0.00432357354941 -0.00379742265498)
(-0.00824453455932 -0.00335240514521 -0.00415405487116)
(-0.00576077675258 -0.0027426384334 -0.00426604468178)
(-0.00241097564959 -0.00256331648124 -0.00358451253625)
(-0.000127578514029 -0.00282763451199 -0.00133557074807)
(0.000760921164061 -0.000698691473018 -0.00121028228168)
(0.00294634156031 -0.00014826370198 -0.0014009727734)
(0.00592852005353 8.66368057615e-05 -0.00131762310081)
(0.00830162166021 7.50215994499e-05 -0.000989181904329)
(0.00985728685829 -0.00018938327324 -0.000624138516853)
(0.00998981877937 -0.000642460762447 -0.000288810301984)
(0.00921494596974 -0.000977860551212 -0.000112529192022)
(0.00747674549105 -0.00136339353461 3.23167943445e-05)
(0.00501469311527 -0.00166100804696 9.85720455806e-05)
(0.00217454586661 -0.00181702147536 0.000115025026352)
(-0.000792205353753 -0.0018243220899 0.000119654513406)
(-0.00367020446915 -0.00168146684677 0.000113159362236)
(-0.00621177633003 -0.00139332397418 6.03892531689e-05)
(-0.00806855137458 -0.0010116488032 -6.96698208031e-05)
(-0.00897451075935 -0.000659083583228 -0.000245234216036)
(-0.00900202823029 -0.000232990342592 -0.000554398221944)
(-0.00764108957893 4.16574517173e-05 -0.000921729449351)
(-0.00546371468301 5.11158058805e-05 -0.00124765722936)
(-0.00267950162858 -0.000181246935236 -0.001332487485)
(-0.000671571250034 -0.000723128226531 -0.00114423442279)
(0.00160055547955 0.00154272791361 -0.00588255934553)
(0.00466099617762 0.00222247238666 -0.00665692070723)
(0.00755492968706 0.00280661241389 -0.00665929324659)
(0.00965378068347 0.00345817967192 -0.0061819927951)
(0.0107956802722 0.00416311298877 -0.00553094036806)
(0.0106962028772 0.00479358242087 -0.00492181202524)
(0.00967095916576 0.00525158921993 -0.00445348640507)
(0.0077460494521 0.00563517012413 -0.00409375501034)
(0.00515741317083 0.00590561393043 -0.00391558823295)
(0.00222346291399 0.00604602960097 -0.00386746856928)
(-0.000825787173914 0.00605245137553 -0.00385304152157)
(-0.00379840496106 0.00592278054701 -0.00386974709978)
(-0.00646564429553 0.00565896059227 -0.00401028095575)
(-0.00850712407568 0.00527727326281 -0.00433270739357)
(-0.0096672956857 0.00481413692318 -0.0047769341623)
(-0.00992345005593 0.00420788628399 -0.00535131052902)
(-0.00897874192207 0.00350553115949 -0.0059906722035)
(-0.00708145438583 0.00285913194188 -0.00646346226991)
(-0.00439399568322 0.00227118241437 -0.00646521874954)
(-0.00151785418085 0.00157475684396 -0.00570283659021)
(0.00229448407544 0.00448895800808 -0.00665757162454)
(0.00543011017608 0.00522992679087 -0.00886150983635)
(0.00801114125584 0.00608810945596 -0.0091191034123)
(0.0097715735806 0.00719425067816 -0.00852879865394)
(0.0105964419106 0.00843121605614 -0.00765496318547)
(0.0104074009804 0.00962111840128 -0.00677952992779)
(0.00929734017895 0.010618704695 -0.00606633518225)
(0.00740052880164 0.0114259007405 -0.00555051275909)
(0.00493728508952 0.0120002361303 -0.00525309649812)
(0.00215709337635 0.0123028995783 -0.00513176353894)
(-0.000737218627165 0.0123210810828 -0.00511324124682)
(-0.00356102299194 0.0120496155017 -0.00519642955879)
(-0.00610617032813 0.0114936068989 -0.00545534004192)
(-0.0081156212859 0.0106910556985 -0.00593604099965)
(-0.00935898861152 0.00969666269638 -0.00661745324705)
(-0.00970329162363 0.00852308564124 -0.00745998859919)
(-0.00905698953684 0.00730031412488 -0.00831242166766)
(-0.00749253593421 0.00620473433951 -0.00889441363151)
(-0.00511292959187 0.00534471328452 -0.00864224342422)
(-0.00218458394123 0.00457688202615 -0.00645655218752)
(0.00288520176558 0.00726004717209 -0.00667911246267)
(0.00629871138199 0.00769319544229 -0.0091338369224)
(0.00894048118284 0.00861394856788 -0.00910012916588)
(0.0106183646111 0.00992741585435 -0.00798791264535)
(0.0112805826125 0.011436267369 -0.00653088611648)
(0.0109181782331 0.0129198327413 -0.00512205959509)
(0.00962636711089 0.0142073423355 -0.00400047479639)
(0.00758880349484 0.0152361440873 -0.00322652620643)
(0.00503710590137 0.0159667483017 -0.00278487862025)
(0.0021941625365 0.0163601051756 -0.00259582058316)
(-0.000758926606387 0.0163884427546 -0.0025714547474)
(-0.00365336016901 0.0160436886372 -0.00271389392725)
(-0.00629564487122 0.0153410331239 -0.00311532028325)
(-0.00844703335282 0.0143186757807 -0.00385507860439)
(-0.00986782471615 0.0130351548496 -0.00494128185834)
(-0.0103778767724 0.011564185089 -0.00631188446894)
(-0.00988410139743 0.0100698639401 -0.00773805413723)
(-0.00839671830262 0.00876919912948 -0.008836334599)
(-0.00595499905907 0.00785169548162 -0.00887624910987)
(-0.00275907738129 0.0074026654629 -0.00644682434657)
(0.0035399770647 0.00924762595935 -0.00622279961059)
(0.00740787043133 0.0093475167068 -0.0085662772246)
(0.0102563059046 0.0101897688659 -0.00801149101219)
(0.0119150089659 0.0114873905099 -0.00623843502023)
(0.0124209077088 0.0129976154151 -0.00411486437089)
(0.0118148059769 0.0144825181731 -0.00213577125638)
(0.0102615279966 0.0157847356679 -0.000595094768829)
(0.00799559919664 0.0168279984545 0.000440194550798)
(0.00526750759405 0.0175708706129 0.00102071796814)
(0.00227737977575 0.0179757098234 0.00127209453842)
(-0.000819423129594 0.0180131324645 0.00130504066655)
(-0.00387410301465 0.0176717386582 0.00111299643782)
(-0.0067096016824 0.0169626835905 0.000574324050945)
(-0.00909540043821 0.0159235703478 -0.000432870411719)
(-0.0107713258976 0.014617221387 -0.00194026525237)
(-0.0115143217023 0.0131378898695 -0.00387715976496)
(-0.0111670399726 0.0116398770208 -0.00595850250983)
(-0.0096932027025 0.0103570070684 -0.00770929675282)
(-0.00704554350531 0.00952337372005 -0.00826657197781)
(-0.00340159641794 0.00941592126207 -0.00594635982773)
(0.0042473680181 0.0102965137683 -0.0055964314553)
(0.00864294826316 0.0100858967732 -0.00771932623543)
(0.0117646069717 0.0107697508681 -0.00658217954798)
(0.0134227538495 0.0119149408221 -0.0041404128965)
(0.0137470581701 0.0132466516293 -0.00135857788501)
(0.0129000767076 0.014595076468 0.00116323721046)
(0.0111049488327 0.0158098745159 0.00307788673135)
(0.00860062994555 0.0168032992193 0.0043360913395)
(0.00563774413755 0.0175208409304 0.00503821834919)
(0.0024149593445 0.0179191610105 0.00534788536333)
(-0.000920544661209 0.0179659715705 0.00539229611203)
(-0.00422740303467 0.0176466942212 0.00515708989025)
(-0.00732535345992 0.0169688528561 0.00449074020424)
(-0.00996590323653 0.0159737269568 0.00323851606931)
(-0.0118781728401 0.0147417932022 0.00134498861065)
(-0.0128440915878 0.0133866595558 -0.00112408988707)
(-0.0126652757979 0.0120608979627 -0.00384743064895)
(-0.011186363445 0.0109302427563 -0.00625067953217)
(-0.0082687048602 0.0102563027835 -0.00738058280478)
(-0.00409987682743 0.0104618262379 -0.0052756747524)
(0.00487239300777 0.0101334034447 -0.00501679989453)
(0.00982930203062 0.00983157163526 -0.00687126296847)
(0.0132460242398 0.0103425194075 -0.00519808561151)
(0.0149042226577 0.0112449948838 -0.00217865840531)
(0.0150885339811 0.0123362426142 0.00115254664704)
(0.0140556393481 0.0134988833333 0.00409567037391)
(0.0120378398873 0.0145711934758 0.00629576452426)
(0.00929453691837 0.0154645306391 0.00773818711534)
(0.00607804765989 0.0161247329587 0.00854947072978)
(0.00258580719415 0.0165031582106 0.00891527392497)
(-0.0010342388413 0.0165587601134 0.00897838118059)
(-0.00463616386244 0.0162746094965 0.00871439194004)
(-0.0080270137358 0.015661755185 0.00793519577233)
(-0.0109334059774 0.0147636546116 0.0064623354262)
(-0.0130669164762 0.0136624631918 0.0042484450921)
(-0.0142010880592 0.0124784765992 0.00135782977432)
(-0.0141434717416 0.01137897675 -0.00189157572319)
(-0.0126572994491 0.0104852999685 -0.00485452468528)
(-0.00944612233831 0.00998007807273 -0.00651009074505)
(-0.00471487005549 0.0102753804571 -0.0046714570609)
(0.00533353035419 0.0090603380087 -0.00456684077825)
(0.0108253114551 0.0086722044009 -0.00617930934025)
(0.0145293194583 0.0089985431139 -0.00409401712345)
(0.0161987710238 0.00963324972885 -0.000647938173557)
(0.0162925915353 0.0104770783742 0.00306723514245)
(0.0151195680758 0.0114104210818 0.00630083613408)
(0.0129251789232 0.0122969835963 0.00870234002635)
(0.00997579022358 0.0130549052347 0.0102970988682)
(0.00652532825924 0.013640000394 0.0112182154741)
(0.00276932656156 0.0139946907274 0.0116517437897)
(-0.00113791512075 0.0140544166904 0.0117411094184)
(-0.00503107675277 0.0137998132204 0.0114509707718)
(-0.00869837983364 0.0132665648794 0.0105718730466)
(-0.0118465704831 0.0125081932904 0.00891550633274)
(-0.0141682984017 0.0115917348235 0.00645159606151)
(-0.0154332130997 0.0106268568585 0.00324874207895)
(-0.0154487415243 0.00976234140863 -0.000375443235655)
(-0.0139404676558 0.00912140914248 -0.0037521670138)
(-0.0104411461335 0.0087933151267 -0.00581178928388)
(-0.00517472897249 0.00917389445899 -0.00421497253412)
(0.00571437063004 0.00710048644818 -0.0042256283652)
(0.0116249157297 0.00674009331383 -0.00568413981477)
(0.0155437814083 0.00692040691007 -0.0033384120441)