/*--------------------------------*- C++ -*----------------------------------*\
| =========                 |                                                 |
| \\      /  F ield         | OpenFOAM: The Open Source CFD Toolbox           |
|  \\    /   O peration     | Version:  3.0.1                                 |
|   \\  /    A nd           | Web:      www.OpenFOAM.org                      |
|    \\/     M anipulation  |                                                 |
\*---------------------------------------------------------------------------*/
FoamFile
{
    version     2.0;
    format      ascii;
    class       volScalarField;
    location    "6.2";
    object      k_0;
}
// * * * * * * * * * * * * * * * * * * * * * * * * * * * * * * * * * * * * * //

dimensions      [0 2 -2 0 0 0 0];

internalField   nonuniform List<scalar> 
7968
(
0.000392038151987
0.00045967425115
0.000512781702751
0.000545932138531
0.000564382033842
0.00057231882779
0.000573585591132
0.000570698720463
0.000566417686566
0.000562743497264
0.000562391273758
0.000565780168054
0.000569962290157
0.000572841802218
0.000571646209282
0.000563825897355
0.00054554110126
0.000512560301948
0.000459574926931
0.000392017295795
0.000459749056028
0.000703060087673
0.00085992054905
0.000947795579967
0.000989783071339
0.00100192857725
0.000997800344585
0.00098626694146
0.000974954680374
0.000968106397424
0.000967632123791
0.000973744518676
0.000984586843987
0.000995925615014
0.00100006736349
0.000988035685404
0.000946295405783
0.000858800391677
0.000702391052766
0.000459486425014
0.000512984550323
0.000859980380848
0.00107667147354
0.00119687359773
0.00125404580944
0.00127064546541
0.00126482210152
0.00125013973359
0.00123638795395
0.00122834226506
0.00122769747811
0.00123471804602
0.00124783721826
0.0012622770894
0.00126809249799
0.00125160243847
0.00119468393686
0.0010749445235
0.000858885444055
0.000512473402598
0.000546182606748
0.000947926799654
0.0011969467647
0.00133285085839
0.00139464929295
0.00140929128673
0.00139897644687
0.00138040194011
0.00136482347037
0.00135614030265
0.00135530074399
0.00136266792831
0.00137752263151
0.00139588513313
0.00140625938695
0.00139170457713
0.00133010722851
0.00119467283279
0.000946380767172
0.000545383455981
0.000564668910868
0.000989934791239
0.00125417067314
0.00139468162982
0.00145272446383
0.0014617250876
0.00146640531028
0.00145965388659
0.00144962942939
0.00144265474849
0.0014418175559
0.00144755092337
0.00145698953426
0.00146369360275
0.00145902073874
0.00144959416683
0.0013915964123
0.00125145624397
0.00098795866209
0.000563577861775
0.000572631986446
0.00100211135435
0.0012707601669
0.00140919657098
0.0014615354665
0.00149610270642
0.00150678828779
0.0015014737404
0.00149097434509
0.00148316912086
0.00148214724934
0.00148849170729
0.00149840771935
0.00150387872642
0.00149355961017
0.00145911611509
0.00140614092204
0.00126786054712
0.000999897514524
0.000571328420502
0.000573896268776
0.000997981356623
0.001264866275
0.00139865100815
0.00146607301834
0.00150662106191
0.00151726954551
0.00150927898223
0.00149555203993
0.0014854940011
0.00148420896457
0.00149248271339
0.00150558129936
0.00151392451042
0.00150396522934
0.0014638511301
0.00139584039957
0.00126198697241
0.000995671628709
0.000572495792111
0.000570993264376
0.000986489983114
0.00125021487496
0.0013800417723
0.00145930662265
0.00150133403501
0.0015093442935
0.00149657922344
0.00147787636225
0.0014645737818
0.00146299862358
0.00147416697536
0.00149212992779
0.00150540882062
0.00149835937018
0.00145705739393
0.00137741216672
0.001247389696
0.000984177367984
0.00056958296015
0.000566705600037
0.000975320095983
0.00123670850057
0.0013648250833
0.0014496073844
0.00149126670771
0.00149617857372
0.0014785275588
0.00145456016159
0.00143693624066
0.00143503445926
0.00145017196084
0.00147338291788
0.00149162103718
0.00148787427218
0.00144714540445
0.00136206238672
0.00123384668324
0.000973014110865
0.000565316412591
0.00056307423748
0.000968700201292
0.00122906920805
0.00135679043778
0.00144324831664
0.00148425184176
0.00148713565409
0.00146643637118
0.00143828439899
0.0014168259598
0.00141464531614
0.00143339104226
0.001460766102
0.00148212807518
0.00148052892797
0.00144056398331
0.00135381068935
0.00122611389469
0.000966359758211
0.000561667845178
0.000562895473596
0.000968501044019
0.00122886770323
0.00135660796965
0.00144307336823
0.00148408821088
0.00148697383879
0.00146625790452
0.00143806086221
0.00141654497467
0.00141435368311
0.00143314996561
0.00146057077493
0.00148194917129
0.00148034663802
0.0014403632876
0.0013535791766
0.00122584877429
0.000966093449857
0.000561433458362
0.000566341525507
0.000974779835205
0.00123613712777
0.00136429294586
0.00144911122406
0.00149080531115
0.00149572875179
0.00147805080058
0.00145400948455
0.00143629590744
0.00143437515566
0.0014495872236
0.0014728718531
0.00149113435548
0.00148736979029
0.00144658686516
0.00136140960376
0.00123312415659
0.000972319604553
0.000564844959107
0.000570536765446
0.000985666763315
0.00124929376668
0.00137913008463
0.00145848594285
0.00150056310913
0.00150858555263
0.00149578446401
0.00147702804963
0.00146365298601
0.0014620597182
0.0014732825589
0.00149129451913
0.00150460400217
0.00149753200784
0.00145615397118
0.00137634466727
0.00124627757128
0.000983160512191
0.000569000663043
0.000573417516829
0.000996980145261
0.00126367825526
0.00139739014696
0.00146495141365
0.00150556061556
0.00151622172714
0.00150819699755
0.001494415406
0.00148430689863
0.0014830039109
0.00149130568905
0.00150444801559
0.00151281762931
0.00150283496992
0.00146263210012
0.00139440473719
0.0012605915257
0.000994459455492
0.000571889397167
0.000572199755672
0.00100106353516
0.00126944506836
0.00140772378784
0.00146011262932
0.00149477274763
0.00150550402011
0.00150016420405
0.0014896217054
0.00148177916497
0.00148073741053
0.00148708939526
0.00149702900204
0.00150251401926
0.00149214493029
0.0014575833563
0.0014044717144
0.00126631742642
0.000998627254991
0.000570776184621
0.000564328521053
0.00098894672112
0.00125289014523
0.00139319021557
0.00145101484457
0.00146013248979
0.00146489109909
0.00145812144286
0.00144805184529
0.00144103924107
0.00144017564688
0.00144590446652
0.00145535503924
0.00146205983627
0.00145732300992
0.00144768059919
0.00138986652497
0.00124992068056
0.000986743037247
0.000563128820627
0.00054596780102
0.000947141888954
0.00119587434297
0.00133154502665
0.0013930947604
0.00140748497182
0.00139695459121
0.00137828947412
0.00136263263743
0.00135389668969
0.00135300860841
0.00136035556232
0.00137521949387
0.00139362955634
0.00140420542812
0.00138987782034
0.00132851519921
0.00119332163407
0.000945362463576
0.00054507717652
0.000512883749076
0.000859471556115
0.00107593214063
0.00119590728374
0.00125283150502
0.00126919252585
0.00126316673203
0.00124833291167
0.00123445812246
0.00122631961051
0.00122562079461
0.00123264067252
0.00124580596189
0.00126035789974
0.00126635638823
0.00125008461391
0.00119342075998
0.0010739333454
0.000858158023618
0.00051230574205
0.000459745682208
0.000702853241451
0.000859581078915
0.000947278355291
0.000989031600787
0.00100096360782
0.000996661963607
0.00098498198685
0.000973538603082
0.000966587278999
0.000966057897674
0.000972185494456
0.000983091656303
0.000994546594567
0.000998848689729
0.000987021383823
0.000945536206283
0.000858240444528
0.000702022976922
0.000459444787103
0.000392054759006
0.000459672783944
0.000512741613415
0.000545821191476
0.000564161277726
0.000571974091381
0.000573135758588
0.000570151852749
0.000565780812014
0.000562025969801
0.0005616230919
0.000565038122824
0.00056927817325
0.000572245112722
0.000571158166103
0.00056347106491
0.000545318488105
0.000512430509506
0.000459510737638
0.000392010344435
0.000449957330636
0.000645259194388
0.000787606127357
0.000877530343938
0.000929471468474
0.000954865379362
0.000963191926485
0.000961892409386
0.000957311274672
0.000953688937054
0.000953306038846
0.000956339013167
0.000960563100166
0.00096172391051
0.00095342653084
0.000928174047641
0.000876481438532
0.000786871426342
0.000644855590298
0.000449862755749
0.00064547652228
0.00128812236768
0.00163546484398
0.00183805289045
0.00194554711228
0.00199076230245
0.00199930201605
0.001989535429
0.00197569140962
0.00196636006901
0.00196555263632
0.00197355228098
0.0019864941503
0.00199578976255
0.0019870773569
0.00194180280461
0.00183447843409
0.00163233927345
0.00128588122176
0.000644520996889
0.000787955077682
0.00163555565267
0.00209293393591
0.00236528226677
0.00251557950501
0.00258419408515
0.00260283145334
0.0025964861804
0.00258312850733
0.00257331026744
0.00257223867536
0.00258028826352
0.0025925041148
0.00259829881751
0.00257950339453
0.0025108746197
0.00236073851241
0.00208888009428
0.00163253655445
0.000786473608368
0.000877943682093
0.00183828476846
0.00236544284342
0.00268266344996
0.00286088460955
0.00294575606233
0.00297177909476
0.00297081555517
0.00296204785797
0.00295415635068
0.0029529079113
0.00295875712946
0.00296625822986
0.00296645314527
0.00294042642199
0.00285563655356
0.00267754524017
0.00236076051593
0.00183467316456
0.00087605389204
0.000929923201297
0.00194590324643
0.00251585861053
0.00286096311339
0.00305705900631
0.00315602423476
0.00318394331937
0.00317882352136
0.00316432834637
0.00315319144343
0.00315138653794
0.00315962514602
0.00317259118863
0.00317752270352
0.00315014424917
0.00305158392388
0.00285561934902
0.00251082911509
0.00194188820307
0.000927696430357
0.000955322812542
0.00199115504953
0.00258446775147
0.00294572235225
0.00315586809958
0.00324875610616
0.00327139036637
0.00325962888417
0.00323892752912
0.00322408060812
0.00322168051985
0.00323272245097
0.00325160341675
0.00326357419777
0.00324213755816
0.00315025060421
0.00294047650857
0.0025794042432
0.00198701285669
0.00095288810422
0.00096362457519
0.00199968338165
0.00260304915548
0.00297159802969
0.00318363853967
0.00327130494967
0.00328602201366
0.00326505445548
0.00323631949988
0.0032167387413
0.00321369988935
0.00322847059067
0.0032549355281
0.00327639060915
0.00326357727414
0.00317767605324
0.00296655015456
0.00259811968636
0.00199558460157
0.000961124732955
0.000962318971835
0.00199001102087
0.00259684164285
0.00297081149292
0.00317887055803
0.00326011818608
0.00326581385686
0.00323413770442
0.00319637080065
0.00317257932239
0.00316900012995
0.00318711620575
0.00322184005211
0.00325410550349
0.00325094106353
0.00317228139462
0.00296609027415
0.00259198950171
0.00198598336192
0.00095984344616
0.000957792780661
0.00197645397485
0.0025839433205
0.00296268887147
0.00316548064281
0.00324101924009
0.00323914926135
0.00319869803896
0.0031552351374
0.00312585895941
0.00312173203256
0.00314455440147
0.00318480210006
0.00322554949869
0.00323036892012
0.00315803307874
0.00295765707389
0.00257897300944
0.00197242048509
0.000955360428559
0.000954298634812
0.00196756200687
0.0025748217941
0.00295573454973
0.00315593942718
0.00322845283963
0.00322250301388
0.00317827356892
0.00312947245948
0.00309603898816
0.00309158705181
0.00311793225831
0.00316317572353
0.0032077026034
0.00321683524289
0.00314787270096
0.00295040890934
0.00256968805048
0.00196345941805
0.000951866900037
0.000954106736452
0.00196723955197
0.00257447502233
0.00295541833918
0.00315567705784
0.00322824559744
0.00322233763019
0.00317812674715
0.00312929388098
0.0030958199464
0.00309135916929
0.00311773719847
0.00316301355153
0.00320752113896
0.00321661361886
0.00314759360992
0.00295007068223
0.00256929585405
0.00196308120379
0.000951621459898
0.000957275368374
0.00197552819708
0.00258293910609
0.00296177157236
0.00316469782064
0.0032403833331
0.0032386368336
0.00319826720491
0.00315478542592
0.00312534334744
0.00312119829773
0.00314407048093
0.0031843452769
0.00322500752902
0.00322970280588
0.00315721034039
0.00295668790694
0.00257786355865
0.00197137023295
0.000954722530539
0.00096155871056
0.00198853222125
0.00259521436856
0.00296930417564
0.00317751303975
0.00325893741307
0.00326479292832
0.00323320879482
0.00319555312268
0.00317173083314
0.00316813441402
0.00318626858385
0.00322088468077
0.00325305554574
0.00324972589927
0.00317087128489
0.00296451384876
0.00259023474723
0.00198435786002
0.000958936431675
0.000962734106649
0.00199776808805
0.00260089327405
0.00296950043741
0.00318170119322
0.00326951393382
0.003284363845
0.00326349414067
0.00323481730313
0.00321524479597
0.00321218808386
0.00322693196854
0.00325333539265
0.00327468965834
0.00326173592643
0.00317566270032
0.00296435040956
0.00259582474125
0.00199351880864
0.000960081868263
0.000954418377378
0.00198897843134
0.00258196270956
0.00294319900524
0.00315346566391
0.00324643871117
0.00326912796608
0.00325743545248
0.00323679346042
0.00322196848222
0.00321954954115
0.00323054139979
0.00324934542028
0.00326123399176
0.00323972513963
0.00314772729704
0.00293781742014
0.00257673373958
0.00198467158507
0.000951830834078
0.000929106205013
0.0019436417217
0.00251323582589
0.00285824939601
0.00305436387338
0.0031533776388
0.00318130386345
0.00317625591793
0.00316180235288
0.00315067163673
0.00314884379889
0.00315703586872
0.00316992445455
0.00317474618095
0.003147326877
0.00304872345051
0.00285271406286
0.00250798754653
0.00193942053833
0.000926726092203
0.000877303393134
0.0018362004331
0.00236297720286
0.00268004015183
0.00285818551051
0.00294302518888
0.00296909577963
0.00296852359205
0.00295984422594
0.0029519582559
0.00295068110463
0.00295647640996
0.00296384719305
0.00296358784998
0.00293748294449
0.00285270412247
0.00267465820899
0.00235801642582
0.00183234042729
0.000875266550495
0.000787531824476
0.00163385569214
0.00209088103649
0.00236302568102
0.00251317820737
0.00258168863559
0.00260026565386
0.0025939161287
0.00258051511061
0.0025706376032
0.00256951910727
0.00257754605502
0.00258973913784
0.00259549717618
0.00257673717781
0.00250818751345
0.00235817552831
0.00208651845793
0.00163057106914
0.000785921205864
0.000645286152102
0.00128702674936
0.00163408316414
0.00183646323811
0.00194377284374
0.00198883632101
0.00199726164662
0.00198740449646
0.00197346110661
0.00196404079799
0.00196318238694
0.00197118549558
0.00198415935578
0.00199351554797
0.0019849019756
0.00193975894421
0.00183260735676
0.00163068098904
0.00128454774355
0.00064423867742
0.000449954959963
0.00064496367564
0.000787128767872
0.000876908718291
0.000928697979746
0.000953939125116
0.000962130857221
0.000960706304854
0.000956003296844
0.000952281777254
0.000951851812419
0.000954909654437
0.000959203984668
0.000960472783162
0.000952309860042
0.000927215831345
0.000875690826667
0.0007862458526
0.000644447067207
0.000449829433035
0.000497278910977
0.000771723541386
0.000970510839563
0.00109760726814
0.00117319671271
0.00121296882637
0.00122965744439
0.00123339881199
0.00123210809764
0.00123039337117
0.00122997081791
0.0012309502122
0.00123170220914
0.00122765788473
0.00121088851109
0.00117121209627
0.00109588491031
0.000969189167501
0.000770912120002
0.000497127625033
0.000772097283925
0.00158991495647
0.00203576514416
0.00230364334477
0.00245406494875
0.00252618886587
0.00255046261089
0.00254973019268
0.00254073948406
0.00253353319925
0.00253245493988
0.00253779657127
0.00254546272099
0.00254543429135
0.00252078897725
0.00244849285538
0.00229818614293
0.00203080344742
0.00158606255408
0.000770335515926
0.000971064104661
0.00203591779188
0.00261074857556
0.00296251657059
0.00316810217689
0.00327406738961
0.0033169236476
0.00332501976763
0.00331868653353
0.00331152297607
0.00331007228069
0.00331475710597
0.00331944840394
0.00331058631623
0.00326743846974
0.0031614219172
0.00295596031031
0.00260465984088
0.0020309906945
0.000968445876568
0.00109826760421
0.00230405053783
0.00296280486165
0.00336989640746
0.00361320272828
0.00374443858427
0.003804035169
0.00382275038249
0.003820104518
0.00381368683232
0.00381182797651
0.00381508501466
0.00381576964695
0.00379658983968
0.00373678109742
0.00360572804328
0.00336259407036
0.00295590487959
0.00229830041737
0.00109506947751
0.00117394750024
0.00245475255943
0.00316868483491
0.0036134505262
0.00388382763215
0.00403534743059
0.0041006923535
0.00411748214161
0.00411250417611
0.0041042503208
0.00410179874136
0.0041058240111
0.00410788502811
0.00409038577307
0.00402607843496
0.00387554452242
0.00360559061375
0.00316117076614
0.00244835927788
0.00117028405404
0.00121377745235
0.0025270855372
0.00327485489092
0.00374480655936
0.00403552235549
0.00418985483844
0.00425315066936
0.00426344526575
0.00425198303264
0.00423975982173
0.00423662575145
0.00424325403505
0.00425003369376
0.00423786427072
0.00417701880198
0.00402588329501
0.00373650629086
0.00326695139581
0.00252033808417
0.0012098134689
0.0012304853965
0.002551521271
0.00331791082984
0.003804648304
0.00410149511634
0.00425484661687
0.00431106810417
0.00431078803198
0.0042898056962
0.00427206583321
0.00426835858566
0.00427914343511
0.00429321099612
0.0042894361566
0.00423624361784
0.00408947437952
0.00379599507816
0.00330974066756
0.00254461664052
0.00122641216068
0.00123425923015
0.00255107449103
0.00332646588331
0.00382421411137
0.00412019860911
0.00426908546685
0.00431581636295
0.00430332894736
0.00427150616121
0.00424736998479
0.0042431947792
0.00425921991852
0.00428228796368
0.00428873347131
0.00424478741393
0.00410499153662
0.00381403624949
0.0033178437418
0.00254406121765
0.00123022967934
0.00123304543411
0.00254258456611
0.00332096465422
0.00382297696424
0.00411786507477
0.00426191926845
0.00430030567311
0.00427739400936
0.00423567898257
0.00420557510343
0.00420101039977
0.00422202539035
0.00425372824752
0.00426959846999
0.00423394943274
0.00410017582021
0.00381158530561
0.00331185333993
0.002535438097
0.00122912740448
0.0012314648783
0.00253603501423
0.00331488091445
0.00381824944324
0.00411219634212
0.00425330951344
0.00428693367604
0.00425801107615
0.00421051071005
0.00417670345232
0.00417189333241
0.0041960034917
0.00423288636006
0.00425441254761
0.00422362520006
0.00409327552068
0.00380613059361
0.00330540910058
0.00252874426416
0.00122760363221
0.00123124972662
0.00253563676508
0.00331447772388
0.00381792258667
0.00411196527788
0.00425316507519
0.00428683702569
0.0042579086628
0.00421037038694
0.00417652852519
0.00417171850262
0.00419586161769
0.0042327766372
0.00425430856958
0.00422348000154
0.00409304001944
0.00380578578801
0.00330496444878
0.00252828378159
0.00122732405216
0.00123241699233
0.00254139704692
0.00331977000083
0.00382200791451
0.00411717478402
0.0042615026099
0.00430007642709
0.004277225818
0.00423549675204
0.00420535810085
0.0042007948409
0.00422183062998
0.00425354507748
0.00426936362152
0.00423353854479
0.00409948159082
0.0038105806549
0.00331057341765
0.00253412650546
0.0012283581261
0.00123327762674
0.00254913304381
0.00332450808591
0.00382260531657
0.00411903267235
0.00426843791604
0.00431563379813
0.00430341593901
0.00427170530169
0.00424759202793
0.00424341230668
0.00425939731637
0.00428235044388
0.00428853712294
0.00424414682948
0.00410382402382
0.00381239461036
0.00331580391931
0.00254199775756
0.00122908096296
0.00122927809581
0.0025489575828
0.00331529630073
0.00380245897869
0.0040997731185
0.0042538135529
0.00431079352365
0.00431104898388
0.00429033039536
0.00427267656439
0.00426895737032
0.0042796338266
0.00429343140682
0.00428913729972
0.00423520983186
0.00408774283682
0.00379378258382
0.00330705685449
0.00254194928615
0.00122503293116
0.00121249740813
0.00252411306194
0.00327175500343
0.00374200302133
0.00403317434169
0.00418808514852
0.00425211276677
0.00426301404725
0.00425186773591
0.00423975147588
0.00423660736505
0.00424311290693
0.00424956862605
0.00423679463698
0.0041752150498
0.00402349990868
0.0037336563032
0.00326376282704
0.00251724939613
0.00120835605623
0.00117273610039
0.00245161395706
0.00316536547419
0.0036103174281
0.00388101467618
0.00403287601476
0.00409862173108
0.00411573320997
0.00411095958207
0.00410277515959
0.00410030614186
0.00410423572907
0.00410607488013
0.00408824204176
0.00402352424729
0.00387265298574
0.00360234897075
0.00315769695887
0.00244504866252
0.00116888638308
0.00109724627309
0.00230105402266
0.002959553701
0.00336669062831
0.00361014151185
0.00374157095434
0.00380161973991
0.00382028475877
0.00381768046048
0.00381127151215
0.00380938126235
0.00381257687436
0.0038131833043
0.00379405213953
0.00373376639691
0.00360250072243
0.00335918216006
0.00295240974557
0.00229506187553
0.00109385806337
0.000970307658991
0.00203332538797
0.00260784556912
0.00295952129841
0.00316508947088
0.00327107808586
0.00331400219434
0.0033220806511
0.00331570167712
0.00330847788905
0.0033069771396
0.00331163557122
0.00331630829085
0.00330744280635
0.00326421364773
0.0031581520372
0.00295267718564
0.0026014479002
0.00202811067752
0.000967511442008
0.000771671966965
0.00158803243029
0.00203355187367
0.00230123676397
0.00245150260254
0.00252351461641
0.00254771366149
0.00254690844721
0.00253781734594
0.00253051654022
0.00252938007016
0.00253471882862
0.00254240724163
0.00254243062409
0.00251785329601
0.0024456508507
0.0022954798851
0.00202828101175
0.00158389700936
0.000769770468446
0.000497271682805
0.000771105130202
0.00096958590758
0.00109648465775
0.00117188673887
0.00121147676634
0.0012280031932
0.00123159939574
0.00123016902623
0.00122834839233
0.00122787158153
0.00122886661639
0.00122968864572
0.00122576863285
0.00120916183965
0.00116967330375
0.00109454713958
0.000968071692891
0.000770145912302
0.000497084330413
0.000534708264831
0.000875207873407
0.00111783830284
0.0012734213469
0.00136843708529
0.00142182753878
0.00144844228498
0.00145974127695
0.00146411740324
0.0014656567743
0.00146528341013
0.00146302355823
0.00145804218824
0.001446300711
0.00141946483196
0.00136608829939
0.00127132928187
0.00111621319518
0.000874198927052
0.000534551328277
0.000875810564653
0.00184011641711
0.00236299860815
0.00268295958102
0.00287021630279
0.00296827873049
0.00301081434154
0.0030230361256
0.00302310256614
0.00302082595439
0.00301959058202
0.00301962566848
0.00301787058722
0.00300458472157
0.002961501845
0.00286319575288
0.00267602431072
0.00235659178492
0.00183493595442
0.000873245043888
0.00111870457899
0.00236326469404
0.00302568564141
0.0034350339436
0.00368166194577
0.00381709523576
0.00388121969858
0.0039033960149
0.00390607624284
0.00390328801049
0.00390145280872
0.00390101742273
0.00389613362734
0.00387290497829
0.0038085458311
0.00367315709736
0.00342671408761
0.00301786465771
0.00235668190236
0.0011149442029
0.0012744716255
0.00268371056386
0.00343557020794
0.003901460493
0.00418709833066
0.0043496581045
0.00443313231019
0.0044631243009
0.00446736872919
0.00446391540055
0.00446131746491
0.00446014244524
0.00445216109005
0.00442045787077
0.0043382369078
0.00417695676589
0.00389175616368
0.00342637376751
0.00267575375109
0.00126986526124
0.0013696866342
0.00287157929579
0.0036828434896
0.00418766105963
0.0045033085532
0.00468586074728
0.0047735230121
0.00480220205007
0.00480297559874
0.00479674937796
0.00479329574347
0.00479294443456
0.00478558725973
0.00475249853136
0.00466640999452
0.0044895009376
0.00417646280953
0.00367223225702
0.00286227898764
0.00136434665453
0.00142325114404
0.00297023952159
0.00381890005399
0.00435083639197
0.00468795655645
0.00487712314979
0.00496142526241
0.0049818441959
0.00497462274434
0.0049636970227
0.00495956515708
0.00496196160073
0.00495882602153
0.00492915451734
0.00484433595764
0.00466456429846
0.00433706135843
0.00380692808315
0.00295982810803
0.0014173925625
0.00144996383298
0.00301330054262
0.00388368412215
0.00443646638214
0.00478164856234
0.00496938027628
0.00504408470841
0.00505176766077
0.00503381080692
0.00501721978035
0.00501289165019
0.00501977323202
0.00502368348125
0.00500128585701
0.00492228829307
0.0047454243791
0.00441719793957
0.00387037111275
0.00300207261872
0.00144390010256
0.00146130327777
0.00302610293798
0.0039068025843
0.00447040600523
0.00481816893091
0.00500041066392
0.00506341530446
0.00505701530066
0.00502774152879
0.00500522636598
0.00500101429279
0.00501351508829
0.00502633565843
0.00501334084716
0.00494259094945
0.00477150696148
0.0044451331198
0.00389225289268
0.00301437337171
0.00145536251799
0.00146567437917
0.00302686091862
0.00391081122389
0.00447820294867
0.00482515261135
0.00500149453925
0.00505447154495
0.0050364518967
0.00499732651438
0.00496955379875
0.00496541475989
0.00498297104917
0.00500434712924
0.00500057481183
0.00493799406419
0.00477295016208
0.00444940090969
0.00389522174201
0.00301485875975
0.00146004537551
0.00146724052606
0.00302535709482
0.00390957376025
0.00447754366795
0.00482318106651
0.00499588257455
0.00504320298366
0.00501869475459
0.00497403275932
0.00494314878455
0.00493899685611
0.00495938871507
0.00498574706927
0.00498764786401
0.00493015344287
0.00476889768177
0.00444732785705
0.00389333707745
0.00301317515412
0.00146181850496
0.00146702698359
0.00302492605763
0.00390919068636
0.00447730109475
0.00482309356385
0.00499590115624
0.00504322678165
0.00501862310468
0.00497385550709
0.00494291121327
0.00493877215165
0.00495923566082
0.00498568496795
0.00498767173427
0.00493019134508
0.00476883814437
0.0044470947077
0.00389291630544
0.00301265472318
0.00146152019285
0.00146500632132
0.00302550893467
0.0039096346034
0.00447746572498
0.00482492068205
0.00500168350564
0.00505481793
0.00503669326606
0.00499742699491
0.00496957187405
0.0049654593225
0.00498308761012
0.00500460622221
0.00500094040091
0.00493823962052
0.00477280681511
0.00444870932343
0.00389398833996
0.00301334930719
0.00145919914957
0.00146021936899
0.00302384112517
0.00390482489996
0.00446921000189
0.00481793912791
0.00500113740474
0.00506478122662
0.00505856975446
0.00502927951535
0.00500673687182
0.00500253845405
0.00501505960411
0.00502787128343
0.00501468350215
0.0049433717715
0.00477139956511
0.00444401581292
0.00389025709259
0.00301198182912
0.0014540698129
0.00144860200623
0.00301029579145
0.00388099799965
0.00443476159325
0.00478133562821
0.00497066005316
0.00504672420589
0.00505518112795
0.00503750885364
0.00502098571797
0.00501665042819
0.00502342439939
0.0050270135248
0.00500386579687
0.00492362996072
0.004745223789
0.00441557605728
0.00386769845495
0.00299898138013
0.00144232341264
0.00142179747903
0.00296678053847
0.00381569035076
0.00434839506783
0.00468696693681
0.00487802889357
0.00496418323478
0.00498583993371
0.00497916768398
0.00496840634513
0.00496427622362
0.00496649311339
0.00496278525524
0.00493190112446
0.00484528809202
0.00466365996779
0.00433469452501
0.00380371049651
0.00295626941994
0.00141571305662
0.00136831163477
0.00286796912192
0.00367936798244
0.00418470066041
0.00450136293768
0.00468517435629
0.00477452366685
0.00480446228996
0.00480581771706
0.00479976958043
0.00479631088371
0.00479577786976
0.00478782516912
0.00475348388936
0.00466573857594
0.00448757933775
0.0041734968717
0.00366865903336
0.00285849871889
0.00136273288459
0.00127330219987
0.00268024161813
0.00343208451035
0.00389823305998
0.00418422488219
0.00434724241898
0.00443152591751
0.00446221430269
0.00446679763662
0.00446343789976
0.00446082065347
0.00445952319247
0.00445117862996
0.00441877117812
0.0043357533417
0.00417399786116
0.00388837973321
0.00342266200717
0.00267202250502
0.00126845184955
0.00111781302278
0.00236018002082
0.00302243314487
0.00343178582072
0.00367847533118
0.00381399917504
0.00387822182356
0.00390045424961
0.00390313474697
0.00390030970221
0.00389842154984
0.00389793486811
0.003892983832
0.0038696859069
0.00380522678955
0.00366972807046
0.00342318174413
0.00301428509984
0.00235326903959
0.00111382494725
0.000875274772238
0.0018377204561
0.00236031285017
0.00268006038512
0.00286711522643
0.00296501411151
0.00300742902968
0.00301957117764
0.00301952807571
0.00301715069334
0.00301583548563
0.0030158452409
0.00301409104141
0.00300087276135
0.00295792281744
0.00285977668326
0.0026727904022
0.00235355416393
0.00183219983155
0.000872528177427
0.000534752531025
0.000874355820863
0.00111661248909
0.00127195124235
0.00136672138752
0.0014198700598
0.00144628205937
0.00145742748455
0.00146166733122
0.00146310886724
0.00146266732336
0.00146039291517
0.00145545389152
0.00144383905964
0.00141720993127
0.00136408692632
0.00126959346722
0.001114749642
0.000873166220506
0.000534553367689
0.000569732620534
0.00097738266928
0.00126086261504
0.00144327254032
0.00155838879917
0.00162786217832
0.00166768553979
0.00168959040347
0.00170172420483
0.0017074663054
0.00170730454527
0.00170119319792
0.00168869000548
0.00166636486999
0.00162619494441
0.00155660906961
0.0014417220078
0.00125984451421
0.00097686423287
0.000569653449664
0.000978306915976
0.00208940426964
0.00268193757729
0.0030505633343
0.0032748375252
0.00340158832397
0.00346669000411
0.00349642092647
0.0035090228956
0.00351342370579
0.00351224522009
0.00350566703339
0.0034914178301
0.00346059057336
0.00339487918798
0.00326784637735
0.00304367191274
0.00267554511975
0.00208412029944
0.000975346573893
0.00126222863849
0.00268246171031
0.00341730753114
0.00387288931832
0.0041524817411
0.00431252351628
0.00439514362804
0.00443046613438
0.0044422298203
0.0044441768654
0.00444194188702
0.00443602844645
0.0044209343215
0.00438371945757
0.00430193377469
0.00414295850811
0.00386383242555
0.003408913115
0.00267526333575
0.00125773014132
0.00144492508907
0.00305192953411
0.00387381096338
0.0043786917827
0.00469121739988
0.00487310394946
0.00496701673959
0.00500368672429
0.00501220880941
0.00501062943643
0.00500690655893
0.00500148720975
0.00498609283197
0.00494467404626
0.00485201034779
0.00467501605413
0.00436677880526
0.00386297896136
0.00304251070766
0.00143925081629
0.00156037298253
0.00327725816615
0.00415457528619
0.0046926898202
0.00503107874616
0.00522533946972
0.00531806002476
0.00534814514388
0.00534926622109
0.00534270681001
0.00533754249874
0.00533354012315
0.00532013938028
0.00527868335827
0.00518357512894
0.00499896040259
0.00467358369506
0.00414087910254
0.00326546354168
0.00155364126985
0.00163013323448
0.00340509049536
0.00431619164455
0.00487973162753
0.00523446053114
0.00543035818868
0.00551355933147
0.00553005271539
0.00552030405398
0.0055077452307
0.00550181101715
0.00550109815405