/*--------------------------------*- C++ -*----------------------------------*\
| =========                 |                                                 |
| \\      /  F ield         | OpenFOAM: The Open Source CFD Toolbox           |
|  \\    /   O peration     | Version:  3.0.1                                 |
|   \\  /    A nd           | Web:      www.OpenFOAM.org                      |
|    \\/     M anipulation  |                                                 |
\*---------------------------------------------------------------------------*/
FoamFile
{
    version     2.0;
    format      ascii;
    class       surfaceVectorField;
    location    "5.5";
    object      ddt0(Uf);
}
// * * * * * * * * * * * * * * * * * * * * * * * * * * * * * * * * * * * * * //

dimensions      [0 1 -2 0 0 0 0];

internalField   nonuniform List<vector> 
22672
(
(0.000955131519206 0.00048067997395 -0.000710373321677)
(0.000480589883492 0.000955181442011 -0.000710227676822)
(0.000569967934891 0.00057002449061 -0.00191065762047)
(0.00181714334882 0.000442335787851 -0.000637551331014)
(0.00145032432237 0.000980727282686 -0.000827338852154)
(0.00164797454504 0.000642969137504 -0.00184313517117)
(0.00241518538476 0.000383676632633 -0.000502905394788)
(0.00220523641713 0.000955447879098 -0.000762402129703)
(0.0023542315496 0.000680872756602 -0.00155389402177)
(0.00269082608589 0.000331563569942 -0.00027101308758)
(0.00265941530611 0.000892541912425 -0.000591922756045)
(0.00271734731627 0.000673297604099 -0.0011685496052)
(0.00257162730944 0.00027026870926 -0.000101669120843)
(0.00277087621391 0.000836929670162 -0.000289541115687)
(0.00272742454963 0.000653677656652 -0.00071800325623)
(0.00228185859689 0.000236953024733 -1.50970096369e-05)
(0.00253230447658 0.000736257925611 -0.000154849685574)
(0.00246488348096 0.000575188817827 -0.000446597312264)
(0.00179896477515 0.000262387767372 7.09155764999e-05)
(0.00214318937416 0.000705462025506 1.31509327265e-05)
(0.00202827262334 0.000556688058883 -0.000222449532453)
(0.00122954873437 0.000306421895838 8.90396621827e-05)
(0.00160707577596 0.000688465253128 0.000118902071989)
(0.00148553742979 0.000547837365484 -0.000118672455284)
(0.00061869423442 0.000358826284383 7.71196433562e-05)
(0.00097027397052 0.0007121941835 0.000171134590414)
(0.000879414637302 0.000574017501381 -0.000100722208978)
(2.60758720383e-06 0.000381696659718 6.78307647353e-05)
(0.000322879069837 0.000739139997596 0.000182894150856)
(0.000288771730335 0.000601914243073 -0.000122260533897)
(-0.000613632927095 0.000358936371703 7.73294405252e-05)
(-0.000317371482073 0.000739047085733 0.00018307035808)
(-0.000283048137263 0.000601889199323 -0.0001219313348)
(-0.00122477446571 0.000306596533289 8.93735607342e-05)
(-0.000964892176946 0.000711986360337 0.000171591411746)
(-0.000873858112324 0.00057394652618 -9.99760171457e-05)
(-0.00179468180489 0.000262470621859 7.13918336769e-05)
(-0.00160207167191 0.000688230582134 0.000119624626959)
(-0.00148041239986 0.000547671903495 -0.000117519479842)
(-0.00227807195788 0.00023712527241 -1.42612933111e-05)
(-0.00213893686593 0.000705064437944 1.39935914383e-05)
(-0.00202393829461 0.000556355484692 -0.000220957676193)
(-0.00256854064166 0.000270383379486 -0.000100952540182)
(-0.00252861356569 0.000735938403303 -0.00015385920855)
(-0.00246115817785 0.000575104218774 -0.000444840118538)
(-0.00268848413688 0.00033165749769 -0.000270658604602)
(-0.00276772423184 0.000836982791457 -0.000288690484247)
(-0.00272426987467 0.000653435636121 -0.00071649544656)
(-0.00241359892454 0.000384058415526 -0.000502563342232)
(-0.00265743919543 0.000892957120344 -0.000591242589962)
(-0.0027152187336 0.000673410609787 -0.00116739177527)
(-0.00181617305841 0.000442771827583 -0.000637275651568)
(-0.00220389778668 0.000956077016728 -0.000761823806301)
(-0.00235278658031 0.00068111376896 -0.00155314931622)
(-0.000954629547063 0.000481020591331 -0.000710068066411)
(-0.00144968390948 0.000981380110074 -0.000826919772397)
(-0.00164723809265 0.000643169832119 -0.00184263581082)
(-0.000480497768333 0.000955602559969 -0.000709880983963)
(-0.000569806349154 0.000570069556006 -0.00191003684924)
(0.000980669126741 0.00145034557327 -0.000827193207299)
(0.000442253191631 0.0018166184797 -0.000637362260806)
(0.000643081615513 0.00164757548067 -0.00184245901213)
(0.00191398164935 0.00149668297935 -0.000952189650844)
(0.00149641913386 0.00191393129292 -0.000952117367665)
(0.00177482729917 0.00177468410574 -0.00186689206533)
(0.00253743959745 0.00146605668308 -0.000851419490961)
(0.00225262305242 0.00190355745885 -0.000898640306282)
(0.00243716291783 0.0018451686792 -0.00157193554378)
(0.00281438557364 0.0013884666843 -0.000610450784152)
(0.00269091079373 0.00180434610914 -0.00070169669685)
(0.00275589925147 0.00184771601525 -0.00118906378214)
(0.00273597560126 0.00127386993133 -0.000342721680419)
(0.00281524493571 0.0016669021599 -0.000391877625003)
(0.00276986389966 0.00179399533151 -0.000751754908271)
(0.00239995754211 0.00115631497456 -0.000126601743211)
(0.00256036933294 0.00146669617545 -0.000147008076274)
(0.00249049283025 0.00167867040439 -0.000394414025647)
(0.00191511046184 0.00107005248057 6.11374282153e-05)
(0.00219152199945 0.00128952633464 5.86375035349e-05)
(0.0020802985366 0.00157855527939 -9.89485570433e-05)
(0.00131711615018 0.00102212390541 0.00020099700022)
(0.00165866287024 0.00115543174493 0.000233721026238)
(0.00154143385569 0.00149960772507 0.000131583479462)
(0.000664682407681 0.00101446488143 0.000276909097914)
(0.00101375865024 0.00108936463494 0.000353081526758)
(0.000928795234318 0.00147070901435 0.000276075967611)
(2.84858214206e-06 0.00101704939308 0.000298133744201)
(0.000340801035797 0.001069541741 0.000403670678416)
(0.000309537491648 0.00146740071717 0.000332423213916)
(-0.000659020080919 0.00101402099722 0.000277332329301)
(-0.000334945105458 0.00106926839712 0.000403877087619)
(-0.00030402403565 0.00146716184376 0.000332714907532)
(-0.00131160706975 0.00102144572559 0.000201842477971)
(-0.0010079492079 0.0010885731234 0.000353788379424)
(-0.000923408677059 0.00147006968654 0.000277052384624)
(-0.00191018358183 0.00106931419378 6.22263847207e-05)
(-0.00165325315609 0.00115460890936 0.000234637705413)
(-0.00153644545691 0.00149869708027 0.000133177537198)
(-0.00239577093782 0.0011555444046 -0.000125604323801)
(-0.00218692227568 0.00128875482789 5.95994723778e-05)
(-0.00207596009015 0.0015774866815 -9.72179977007e-05)
(-0.00273221781432 0.0012735781949 -0.000341597152615)
(-0.00255638224294 0.00146601920623 -0.000146255842227)
(-0.0024867289937 0.00167768039224 -0.000392847536562)
(-0.00281161772353 0.00138880461065 -0.000609274469607)
(-0.0028117751008 0.00166702661932 -0.000390675939042)
(-0.00276649985514 0.00179370971018 -0.00074996417883)
(-0.00253555694481 0.0014666937915 -0.000850503054031)
(-0.00268853581535 0.00180489935919 -0.000700773634798)
(-0.00275342877375 0.00184787102636 -0.00118744506196)
(-0.00191301752895 0.00149750952176 -0.00095146792713)
(-0.00225107830939 0.00190444159766 -0.00089779462334)
(-0.002435474915 0.001845651821 -0.00157047052602)
(-0.000980362389761 0.00145108759555 -0.000826732689949)
(-0.00149576554927 0.00191492081697 -0.000951489860524)
(-0.00177404206205 0.00177520304719 -0.0018658483039)
(-0.000442237411914 0.00181742146222 -0.000637024081085)
(-0.000643016645564 0.00164784281237 -0.00184194540621)
(0.000955266416814 0.00220478268173 -0.000762286421172)
(0.00038355545686 0.0024145691558 -0.000502955621997)
(0.000680862358455 0.00235336826055 -0.00155347234183)
(0.00190309384952 0.00225287130369 -0.000898568023103)
(0.00146556408938 0.00253759629648 -0.00085122986869)
(0.00184491187754 0.0024370133793 -0.00157175004718)
(0.00250677525602 0.00217754053104 -0.000748917512171)
(0.00217670314517 0.00250776306608 -0.000748843412162)
(0.00248491368435 0.00248545438841 -0.00120813450054)
(0.0027558267216 0.00201776019328 -0.000483123537701)
(0.00256433566554 0.00234049044261 -0.00052905833142)
(0.00276144038504 0.0024408176894 -0.000785389175049)
(0.00267531398999 0.00179582596118 -0.000196164020859)
(0.00265441969136 0.00209673632595 -0.000238089167397)
(0.0027477725531 0.00231595471618 -0.000349390757463)
(0.00235609553358 0.00153782382043 3.82311704716e-05)
(0.00240515924138 0.00176555153448 1.302352652e-06)
(0.00246799747929 0.00210862378616 2.04976509654e-05)
(0.00190183667525 0.0013089783502 0.000231221101558)
(0.00206771268405 0.00142590538316 0.000176971123564)
(0.00208006638869 0.001884679938 0.000318281267523)
(0.00132815137124 0.00114926321358 0.000385805552776)
(0.00157947409928 0.00116196253359 0.000326817124401)
(0.00156827642791 0.00169808138094 0.000567843314251)
(0.000683593752057 0.00106817756944 0.00047984310726)
(0.000982090941969 0.000987128710385 0.000443620681677)
(0.000967830260393 0.00158512430756 0.000747735655365)
(2.94698811255e-06 0.00104726560451 0.000509414021834)
(0.000336595862843 0.00092442114994 0.00048872605704)
(0.000328519716635 0.00153653563724 0.000826883148369)
(-0.000677855573408 0.00106732568687 0.000480333137742)
(-0.000330859186516 0.000924035461284 0.000488972575206)
(-0.000323019892781 0.00153628494318 0.000827225014018)
(-0.00132239384095 0.00114811762326 0.000386583606867)
(-0.000976042338049 0.000985329596182 0.000444841849876)
(-0.000962545772839 0.00158444665061 0.000748957377128)
(-0.0018967919635 0.00130810242379 0.00023201079307)
(-0.00157353930289 0.00116108282233 0.00032755279178)
(-0.00156347727285 0.00169718834269 0.000569032910008)
(-0.00235173063936 0.00153709153023 3.8947953952e-05)
(-0.00206286300523 0.00142521083768 0.000177565530425)
(-0.00207585374953 0.0018837736319 0.000319503674957)
(-0.00267143554978 0.00179560302653 -0.000195334628654)
(-0.00240080943992 0.00176504774522 1.71351183335e-06)
(-0.0024641343392 0.00210785904161 2.15997235997e-05)
(-0.00275276528937 0.0020181893506 -0.000482175104233)
(-0.0026506157484 0.00209717268559 -0.000237254252545)
(-0.00274425904257 0.00231593045658 -0.000348009383853)
(-0.0025045812572 0.0021783679854 -0.000748065204108)
(-0.00256147127708 0.00234139744201 -0.000528242194215)
(-0.00275862218529 0.00244134397196 -0.000784016395399)
(-0.00190186210134 0.00225392167379 -0.000897816556735)
(-0.00217476488106 0.00250906259137 -0.000748057076868)
(-0.00248291588971 0.00248633966215 -0.00120682091933)
(-0.000954843088769 0.00220577618209 -0.00076178125166)
(-0.00146464109881 0.00253896367014 -0.000850574957478)
(-0.00184387239229 0.00243794823298 -0.00157064021949)
(-0.000383455485504 0.00241579139269 -0.000502704061066)
(-0.000680725224213 0.00235408982928 -0.00155292410054)
(0.00089227671711 0.00265943940301 -0.000591899069515)
(0.000331229495381 0.00269038950377 -0.000271545714887)
(0.00067314519664 0.00271685290183 -0.00116820936797)
(0.00180353028516 0.00269183522527 -0.000701505257748)
(0.00138803923246 0.00281494466708 -0.000610106480687)
(0.00184722685515 0.00275634610188 -0.00118870450513)
(0.00233884539226 0.00256611057658 -0.00052898423141)
(0.00201671641002 0.00275750912113 -0.000482869814772)
(0.00243977804378 0.00276275915221 -0.000785153581912)
(0.00252566605646 0.00231738542125 -0.000284023961115)
(0.00231515902914 0.0025284064832 -0.00028383757446)
(0.00264718082884 0.00264922118086 -0.000374777738466)
(0.00242022264751 0.00197505017466 -4.06227938866e-05)
(0.00234434043007 0.00219277800502 -4.72742453363e-05)
(0.00257878836621 0.00242144492383 9.48059994569e-06)
(0.0021200150575 0.00157805276694 0.000140042305744)
(0.00209656000479 0.00175740067583 0.000113006407802)
(0.00228927555529 0.00209739193153 0.000308632166253)
(0.00170769577325 0.00122185960469 0.000272567146406)
(0.00179613992978 0.00130318272621 0.000218949079938)
(0.00191773570266 0.00174864842501 0.000535564716447)
(0.00119353839335 0.000971524696428 0.000384632253301)
(0.00137857363341 0.000950301336798 0.000320792812139)
(0.00144921675813 0.00146193699622 0.000726604067903)
(0.000636120823083 0.000829646183858 0.000452503631456)
(0.000865815912726 0.000735227256571 0.000414107935327)
(0.000906125954932 0.00127362069512 0.000810332965126)
(2.91646169562e-06 0.000783679008806 0.000468284610412)
(0.000299699562254 0.000617358719356 0.000449128404313)
(0.000310974211851 0.00118320673705 0.00094143790428)
(-0.000631178035703 0.000829409309266 0.00045348128734)
(-0.000293386190507 0.000617528357309 0.000449386792572)
(-0.000305311483487 0.00118306608228 0.000941840023256)
(-0.00118639630781 0.00097112572939 0.000385811034789)
(-0.000859290396524 0.00073638186566 0.00041528828985)
(-0.000900682924815 0.00127323780328 0.000805395386172)
(-0.00170218913242 0.00122143014719 0.000273107529134)
(-0.0013722559351 0.000950359410945 0.000321436431847)
(-0.00144422591287 0.00146138627686 0.000727693190341)
(-0.00211523656911 0.00157773754977 0.000140331088306)
(-0.00179094681566 0.00130319844404 0.000219290007768)
(-0.00191337897842 0.00174813303068 0.000536167521435)
(-0.00241583132911 0.00197530725194 -4.0206112058e-05)
(-0.00209177551351 0.00175765474599 0.000113163412025)
(-0.00228511906951 0.00209719022043 0.000309011040762)
(-0.00252198843764 0.00231831890671 -0.000283321342527)
(-0.00234005905704 0.00219386975914 -4.66867471163e-05)
(-0.00257479997702 0.002421978042 1.03679996843e-05)
(-0.00233610535619 0.00256746514566 -0.000528234066975)
(-0.00231175021006 0.00252983629101 -0.000283134317526)
(-0.00264383316586 0.00265026729501 -0.00037356399045)
(-0.00180187664241 0.00269344385412 -0.000700815477612)
(-0.00201430206938 0.00275936068547 -0.000482042399846)
(-0.00243732542847 0.00276423718861 -0.000783926854132)
(-0.000891630496637 0.00266104351788 -0.000591497766885)
(-0.00138678993465 0.00281681218848 -0.00060933738155)
(-0.00184578296646 0.0027579300088 -0.00118759554399)
(-0.000330895182543 0.00269215695572 -0.000271407568175)
(-0.000672829957383 0.00271834519846 -0.00116765317099)
(0.000836632836377 0.00277096262724 -0.000289753126059)
(0.000270449210956 0.00257163108393 -0.00010198718593)
(0.000653281161712 0.00272715931016 -0.000717855702626)
(0.00166617037065 0.00281648273289 -0.00039147103771)
(0.00127376894067 0.0027366430855 -0.00034252640418)
(0.00179368005206 0.00277060686032 -0.000751199710493)
(0.00209505237859 0.00265701547782 -0.000237723157822)
(0.00179516173725 0.00267745133828 -0.0001957240278)
(0.00231488970351 0.00274970683943 -0.00034877441581)
(0.00218957134151 0.00234796822708 -4.70878586811e-05)
(0.00197309770662 0.00242383185291 -3.99534055466e-05)
(0.00241917994957 0.00258179609143 1.01578598775e-05)
(0.00204372867347 0.00193567976267 0.000106354956352)
(0.00193178085555 0.00204841984236 0.000106941638397)
(0.00227862276728 0.00228233070232 0.000290416704667)
(0.001770294168 0.00146214687726 0.000191913181996)
(0.00167869623701 0.00157459992861 0.00017047422609)
(0.00197269675166 0.00188560385314 0.000456623989023)
(0.00142612121081 0.00102405586611 0.000267174745671)
(0.00142626991315 0.00108396750462 0.000189292657082)
(0.00163907708718 0.00145668304291 0.000563988217492)
(0.00101238283154 0.000706745399717 0.000350268494165)
(0.00109918895012 0.000687753876677 0.00024225966954)
(0.00124250709797 0.00110537194209 0.000677100944196)
(0.000531891216039 0.000520553490967 0.000410732708184)
(0.000695480310199 0.000431976198492 0.000306449577004)
(0.000780264212887 0.000867496914721 0.000784747696159)
(3.54920612498e-06 0.000457870029255 0.000430230586473)
(0.00024123834444 0.000311175219553 0.000339253504891)
(0.000269427498628 0.00075166401797 0.000835659516328)
(-0.000525124006146 0.000521050749226 0.000411193795082)
(-0.000233569097551 0.000311314358756 0.000339490908605)
(-0.000263061528243 0.000751687187716 0.000836076421338)
(-0.00100576230165 0.000707312399068 0.000350913686908)
(-0.000688183220197 0.000432467889972 0.000307132276385)
(-0.000774317058825 0.000867576954454 0.000785737247087)
(-0.00142037706141 0.00102441654278 0.000267618910481)
(-0.00109264042445 0.000688280127484 0.000242945156947)
(-0.00123721955904 0.00110546145107 0.00067784673076)
(-0.00176514565967 0.0014627330357 0.000192122331487)
(-0.00142063825351 0.00108479979702 0.000189660160215)
(-0.00163437625693 0.0014569549806 0.000564278195968)
(-0.002038919311 0.00193677361833 0.000106682776966)
(-0.00167350552861 0.00157587047203 0.000170609406839)
(-0.00196813773727 0.00188632494679 0.000456606916713)
(-0.00218546419685 0.00234954352638 -4.64997221162e-05)
(-0.00192707898862 0.00205030498811 0.000107386394372)
(-0.00227428857645 0.00228362021529 0.000291057378764)
(-0.00209179762482 0.00265889758621 -0.000236942650397)
(-0.00196914445231 0.00242590223225 -3.93937209156e-05)
(-0.00241538191737 0.00258345687629 1.10693889249e-05)
(-0.0016640888342 0.00281848048707 -0.000390564303785)
(-0.00179221593816 0.00267977745605 -0.000194905437838)
(-0.0023119570625 0.00275177676931 -0.000347478441168)
(-0.000835676297558 0.0027729086205 -0.00028924718284)
(-0.00127205584328 0.00273886076846 -0.000341712552639)
(-0.00179182744898 0.00277272430663 -0.000749907610718)
(-0.000270096185467 0.0025739519791 -0.000101606802789)
(-0.000652643278522 0.0027292589582 -0.000717092200708)
(0.000736656033033 0.00253276682032 -0.000154760464051)
(0.000237662826259 0.00228180839048 -1.55434358168e-05)
(0.00057575187727 0.00246476114306 -0.000446728213371)
(0.00146665378674 0.00256208319174 -0.000146779394269)
(0.00115682924533 0.00240089846575 -0.000126667469805)
(0.00167888191518 0.00249153413271 -0.000394125232026)
(0.00176447128454 0.00240829076226 2.04572447513e-06)
(0.00153795392237 0.00235808557783 3.90323777846e-05)
(0.00210813089705 0.00247023662137 2.16975183828e-05)
(0.00175462744516 0.00210113820561 0.000114076091532)
(0.00157696715577 0.00212341735122 0.000141592086747)
(0.00209560912777 0.00229279632854 0.000310464650549)
(0.00156985459406 0.00168409729489 0.000171060908136)
(0.00145875208208 0.00177508970777 0.00019408441743)
(0.0018820238078 0.0019773798753 0.00045841323604)
(0.00132480257304 0.00121041195253 0.000167853701176)
(0.00120494906797 0.00132980880929 0.000168821750743)
(0.00156195648289 0.00156688725045 0.0004902968831)
(0.00106527688996 0.000777318103854 0.000164377580951)
(0.00101155056756 0.000882653135844 0.00011223906956)
(0.00127532333389 0.00113843642584 0.000461454755401)
(0.000763665829046 0.000458380963751 0.000198440752379)
(0.000786865198916 0.000510387897271 0.000119882050914)
(0.000966176395793 0.000782728239228 0.00047976046683)
(0.000404227213125 0.000273255987742 0.00023497037371)
(0.000505760638837 0.000263796411926 0.000174171994708)
(0.000611916753461 0.000546110143924 0.000528544984087)
(4.10431468126e-06 0.000213128181109 0.000248513827023)
(0.000178897009686 0.000153213449348 0.000156055847935)
(0.000213186640475 0.000432058299189 0.000559106019083)
(-0.000396307671874 0.000273579429992 0.000235429389908)
(-0.000170209316665 0.000153344607745 0.000156100584586)
(-0.000205821373921 0.000432154550276 0.000559439111026)
(-0.000756385284966 0.000458977157583 0.000199163746424)
(-0.000497544568608 0.000264169482496 0.000174929040761)
(-0.000605086422701 0.000546431358488 0.000529429521651)
(-0.00105892960283 0.000778233983598 0.000164986406681)
(-0.000779551520339 0.000511092751272 0.000120746675748)
(-0.000960205397997 0.000783318628819 0.000480771439143)
(-0.00131912922092 0.00121184756683 0.000168147235568)
(-0.0010052233755 0.000883968377398 0.000112828283393)
(-0.00127009588597 0.00113950577577 0.000462054475669)
(-0.00156466958822 0.001686150656 0.000171313024245)
(-0.00119932197422 0.00133187637626 0.000169162552956)
(-0.00155707454782 0.00156852814263 0.000490524076342)
(-0.00174997457297 0.00210353927992 0.000114492395573)
(-0.0014537775133 0.00177789692756 0.000194664096402)
(-0.00187738451068 0.00197954898647 0.000458621744781)
(-0.00176059272459 0.00241081179723 2.64349164317e-06)
(-0.00157274029426 0.00212613942429 0.000142227246476)
(-0.00209138989672 0.0022952508255 0.000311159902543)
(-0.00146402799775 0.00256467241423 -0.000146053686693)
(-0.00153467075938 0.00236094649326 3.98740033657e-05)
(-0.00210475187322 0.00247295323047 2.29060941666e-05)
(-0.000735469823133 0.00253523453389 -0.000154072172587)
(-0.00115477326547 0.00240362172453 -0.00012584191649)
(-0.00167657754073 0.00249430071143 -0.00039275687141)
(-0.000237281739861 0.00228441508482 -1.50397187555e-05)
(-0.000575203036772 0.00246742227173 -0.000445549092427)
(0.000706234585288 0.00214385829278 1.25495584292e-05)
(0.000263126213108 0.00179953832201 6.96656998685e-05)
(0.000557276311462 0.00202839934714 -0.000223827937248)
(0.00129037207853 0.0021927593005 5.91443022486e-05)
(0.00107127778011 0.00191565243824 6.09632546385e-05)
(0.00157965036919 0.00208098770812 -9.87273440353e-05)
(0.00142567317723 0.00206982947283 0.000178578740057)
(0.00130971622861 0.00190256659869 0.000232367136735)
(0.00188510139315 0.00208157560504 0.000320414066891)
(0.00130137857834 0.0017996278555 0.000221600412646)
(0.00122185332937 0.00170869663263 0.0002753541256)
(0.00174783482087 0.00192029830833 0.000539274580669)
(0.00107965632957 0.00143073666048 0.000191845260038)
(0.00102168277997 0.00142884482272 0.000271094183081)
(0.00145376793801 0.00164276298382 0.000568323452528)
(0.000877905605771 0.00101605142728 0.000113207119127)
(0.00077191316298 0.00106796580239 0.000166785672755)
(0.00113368483167 0.00127911606058 0.000464064748263)
(0.000712560303015 0.000633022216208 6.77435395223e-05)
(0.000628432155038 0.00071475492117 6.77850706313e-05)
(0.000901896754636 0.000905382542526 0.000333844694073)
(0.000526337960991 0.000333996734379 9.56132932423e-05)
(0.000494890577345 0.000407136663647 4.50754327352e-05)
(0.000689806833982 0.000589286515947 0.000290198172921)
(0.000278751233909 0.000164555030994 9.52574689324e-05)
(0.000324975166494 0.000189110242115 5.76768069774e-05)
(0.000446711250503 0.000373443626875 0.000323099719563)
(4.52102882623e-06 0.000118275038799 6.36426054985e-05)
(0.000116886987904 0.000105429124011 1.08339958928e-05)
(0.00015978481597 0.000277492914183 0.000322897882622)
(-0.000269855209267 0.0001647566455 9.56002354384e-05)
(-0.00010739211466 0.000105563157657 1.07106269346e-05)
(-0.000151518727175 0.00027761595916 0.000323051982672)
(-0.000518152679996 0.000334439185605 9.65119700842e-05)
(-0.000315985095991 0.000189335111416 5.79501956553e-05)
(-0.000438987063169 0.000373713994975 0.000324015477275)
(-0.000705367562888 0.000634107398434 6.85885524602e-05)
(-0.000486824581034 0.000407926487183 4.51116793317e-05)
(-0.000682952806945 0.000589978898134 0.000291258235383)
(-0.000871593928793 0.00101801176615 0.000113843600781)
(-0.000621267414538 0.000716362277272 6.87303959633e-05)
(-0.00089591470457 0.000906885900119 0.000334713641918)
(-0.00107419118465 0.00143349332629 0.000192513625113)
(-0.000765926235649 0.001070502906 0.00016770397564)
(-0.00112841437286 0.00128148981128 0.000464837992788)
(-0.00129675045057 0.00180255226776 0.000222398947306)
(-0.00101685691146 0.00143201617726 0.000272235481479)
(-0.00144899727044 0.00164573384077 0.000569246140214)
(-0.00142175060017 0.00207268206826 0.000179457758198)
(-0.00121782960761 0.0017112835713 0.000276485962004)
(-0.00174363151164 0.00192328749408 0.00054055185356)
(-0.00128766712706 0.00219564057196 6.00857735689e-05)
(-0.00130636954965 0.00190549530524 0.000233485769862)
(-0.00188175209917 0.00208472367487 0.000321946318388)
(-0.000704881550122 0.00214669063667 1.31905373425e-05)
(-0.00106926632799 0.00191846593468 6.19813713955e-05)
(-0.0015773187849 0.00208404405958 -9.71098307862e-05)
(-0.000262658725067 0.00180246389206 7.00862641654e-05)
(-0.000556453743431 0.00203140934117 -0.000222576110374)
(0.00068979821501 0.00160772930765 0.000118079396078)
(0.000307288096566 0.00123066465925 8.77066856249e-05)
(0.00054891695709 0.00148581067253 -0.000120800996306)
(0.00115678995792 0.00165884768977 0.000234186089125)
(0.00102335949954 0.00131733347517 0.00020056923257)
(0.00150138415087 0.00154148613026 0.000131484555379)
(0.00116180328099 0.00157822528317 0.000329142522278)
(0.001148583456 0.00132713440563 0.000387128698387)
(0.00169917413967 0.0015682884754 0.000570620187381)
(0.000950199539998 0.00137810600605 0.000324847896035)
(0.000972401457856 0.00118712933883 0.00039061345663)
(0.00146196723153 0.00144941874568 0.000733445552451)
(0.000683906634394 0.00110064019189 0.000246034595798)
(0.000706637690276 0.00101178320942 0.000355202268566)
(0.00110311930528 0.00124338303965 0.000683724889308)
(0.000505496337788 0.000787900184626 0.000121363624259)
(0.000452893667586 0.000763244019352 0.000201136739853)
(0.000777883284217 0.000966706575061 0.000483612679039)
(0.000404984339683 0.000495401725224 4.51169638443e-05)
(0.000328973234208 0.000525474350519 9.46146636393e-05)
(0.000585596660058 0.000689502277836 0.000290379584407)
(0.000303344262268 0.000255539272852 7.13894647084e-06)
(0.000255115348499 0.000302412227949 5.97594465113e-06)
(0.000449862700444 0.000449169956305 0.000207050440559)
(0.000161669186133 0.000113049350278 -2.67466660609e-05)
(0.000177007086131 0.000147085822163 -5.19512390561e-05)
(0.000300604697973 0.000286362584427 0.000184451491864)
(4.89646112601e-06 7.10138792871e-05 -4.20979826707e-05)
(6.56892031811e-05 8.44143647501e-05 -8.53067283802e-05)
(0.000109392073236 0.000214052157305 0.000178560554696)
(-0.000152138160919 0.000113286470596 -2.69394128482e-05)
(-5.57117711777e-05 8.46221221874e-05 -8.54421271411e-05)
(-0.000100410583015 0.000214157201804 0.000178732384672)
(-0.000294592776375 0.000256238286815 6.54990490298e-06)
(-0.000167447103292 0.000147685185642 -5.23134310283e-05)
(-0.000292202365946 0.00028671402307 0.000184835205483)
(-0.000396950549041 0.00049673245897 4.5253522835e-05)
(-0.000246392615504 0.00030361844407 5.27487806982e-06)
(-0.000442290252728 0.000450099286201 0.000207389100023)
(-0.000498636770402 0.000789998445377 0.000122590770822)
(-0.000321174394068 0.000527074449608 9.57342857071e-05)
(-0.000578830325251 0.000691132271035 0.00029170561483)
(-0.000678496504324 0.00110349622245 0.000247425832006)
(-0.000446816536695 0.000765705100875 0.000202573444788)
(-0.000772348943757 0.000969314188563 0.000485383903753)
(-0.000946221785739 0.00138037231644 0.000326322496177)
(-0.00070294470303 0.00101467271799 0.000357124379363)
(-0.00109865505796 0.00124663672854 0.000685745065162)
(-0.00115772094765 0.00158030924399 0.000330513973667)
(-0.000968920617302 0.00118720191544 0.000393539524439)
(-0.00145819641725 0.00145246374376 0.000736161791185)
(-0.00115417734693 0.00166161295819 0.000235381367689)
(-0.00114484243594 0.00132961276707 0.000388661683941)
(-0.0016961300822 0.00157146219554 0.000572821279721)
(-0.000688641615444 0.00161056735257 0.000118877098218)
(-0.00102160580709 0.00131998437002 0.000201651020463)
(-0.00149940795578 0.00154450359323 0.000133384208077)
(-0.000306985825673 0.00123345792755 8.81939173943e-05)
(-0.000548249376389 0.00148868277071 -0.000119336650938)
(0.000713460638965 0.000971275002965 0.000170196522117)
(0.000359492487474 0.000620425317628 7.58883788669e-05)
(0.000575063845092 0.000880352818264 -0.000103128937204)
(0.00109012574338 0.00101389493083 0.000353511841832)
(0.00101538303548 0.000665248194691 0.000276243430866)
(0.00147225958243 0.000928602023445 0.000275556263232)
(0.000981299584325 0.000981846208773 0.000448599632738)
(0.00106725405727 0.000684191008803 0.000480619999336)
(0.00158580107551 0.00096691654987 0.00075196350832)
(0.000741072326173 0.000865328362693 0.000420967829161)
(0.000830293475955 0.000641926447219 0.000457767969845)
(0.00127371148008 0.000904813660475 0.000785710836289)
(0.000428614696076 0.000694412686341 0.000310304412621)
(0.000519984192203 0.000531233283864 0.000415278584067)
(0.00086538617921 0.000778538824113 0.000793398306836)
(0.000258446712408 0.000504159826887 0.000174387779233)
(0.000267421677213 0.000402289921789 0.000236536653682)
(0.000540879677687 0.000609465556155 0.000531625922924)
(0.000186699028198 0.000323082761283 5.54736444456e-05)
(0.0001585979217 0.00027709907266 9.49688451004e-05)
(0.000369252195732 0.000443681626099 0.000320736382065)
(0.000148245479561 0.00017460744221 -5.31142408762e-05)
(0.000111833477157 0.000160241228117 -2.91188659534e-05)
(0.000287029754441 0.000297231985907 0.000181321682799)
(8.46881734985e-05 9.0657072642e-05 -0.000110511301376)
(9.33432153807e-05 8.28237538199e-05 -0.000111280487146)
(0.000207464786292 0.000203625574965 0.000128559748425)
(5.04696618573e-06 6.69624605178e-05 -0.000128650872851)
(3.95938711843e-05 5.11916858099e-05 -0.000147744300886)
(7.96571286864e-05 0.000165093579165 0.000113598224394)
(-7.47715755412e-05 9.11443281474e-05 -0.000110816145321)
(-2.92428717789e-05 5.1523894669e-05 -0.00014787114592)
(-7.03864304128e-05 0.000165282484659 0.000113609921928)
(-0.000138913410498 0.000175634081902 -5.35884578614e-05)
(-8.33422879223e-05 8.3810547103e-05 -0.000111590225747)
(-0.000198581608029 0.000204244424375 0.000128665285051)
(-0.000178090854879 0.000324546882423 5.57556409425e-05)
(-0.000102625388856 0.000161722342317 -2.94395710969e-05)
(-0.000278918365476 0.000298360963618 0.00018170091655)
(-0.000251338939796 0.000506191203098 0.000175716959673)
(-0.000150657887602 0.000278831374678 9.57050239968e-05)
(-0.000362122861793 0.000445268470196 0.000322117191261)
(-0.000423706874485 0.000697270795018 0.000312271992145)
(-0.000261313242395 0.000404744259226 0.000238003340538)
(-0.000535277331142 0.000611857922929 0.000533943847478)
(-0.000740335613246 0.000868531324636 0.000424341407625)
(-0.000516728732056 0.000534774170208 0.00041772445781)
(-0.000861451991962 0.000781727215139 0.000797090130135)
(-0.000975215665268 0.000984801592552 0.000451687234712)
(-0.000827708186628 0.000648018560962 0.000461079154502)
(-0.00127077210714 0.000907996810018 0.000774535303911)
(-0.0010878391159 0.00101656147099 0.000354931336715)
(-0.00106444099639 0.000687266363765 0.000482180203834)
(-0.00158354265617 0.000969897554529 0.000755350825825)