/*--------------------------------*- C++ -*----------------------------------*\
| =========                 |                                                 |
| \\      /  F ield         | OpenFOAM: The Open Source CFD Toolbox           |
|  \\    /   O peration     | Version:  3.0.1                                 |
|   \\  /    A nd           | Web:      www.OpenFOAM.org                      |
|    \\/     M anipulation  |                                                 |
\*---------------------------------------------------------------------------*/
FoamFile
{
    version     2.0;
    format      ascii;
    class       volScalarField;
    location    "5.5";
    object      epsilon;
}
// * * * * * * * * * * * * * * * * * * * * * * * * * * * * * * * * * * * * * //

dimensions      [0 2 -3 0 0 0 0];

internalField   nonuniform List<scalar> 
7968
(
0.000179159201792
0.000227205019681
0.00026606725667
0.000289094988354
0.000298733447603
0.000299448943533
0.000295235088013
0.000288422170869
0.000281603935006
0.000276487636101
0.000276476952789
0.000281584937001
0.000288402591331
0.000295220900953
0.000299446798854
0.000298743182166
0.000289116596796
0.000266094296586
0.00022723136575
0.000179173588683
0.00022719235238
0.000418456157559
0.000559358917656
0.000640216364261
0.000672937450318
0.00067366506686
0.000657439772103
0.000634311138997
0.000613876750431
0.000601936530313
0.000601899727531
0.000613784206302
0.000634182809702
0.000657304762849
0.000673556844279
0.00067287436762
0.000640206872507
0.000559386418152
0.000418497511278
0.000227214813562
0.000266039377357
0.000559326088452
0.000774838682228
0.000899751395383
0.00095262321654
0.000956341088918
0.000933172462581
0.00089996178085
0.000870999550995
0.000854460669504
0.000854399774703
0.000870840261373
0.000899729492924
0.000932911531064
0.000956108954744
0.000952459631159
0.000899671022483
0.000774824718063
0.000559350637934
0.000266062131563
0.000289049186491
0.000640154547948
0.000899727199703
0.00105045828541
0.00111363203062
0.00111627333392
0.0010861755747
0.00104555329637
0.00101142894933
0.000994106664978
0.000994039174202
0.00101122073741
0.0010452304573
0.00108579081626
0.00111591162494
0.00111335246009
0.00105028368135
0.000899644768885
0.000640139531108
0.000289066633177
0.000298674480251
0.000672879300642
0.000952629987394
0.00111368231824
0.0011770072349
0.00117472666677
0.00116610815821
0.00114554115175
0.00112209384842
0.00110676879001
0.00110670005161
0.0011219127347
0.0011452768347
0.00116578271871
0.001174270357
0.0011766147989
0.00111340497304
0.000952464286916
0.000672807301645
0.000298678360892
0.000299397989328
0.000673674619112
0.000956468021846
0.0011164916423
0.00117491868761
0.00120987658087
0.00121734274449
0.00120321154518
0.00118143545799
0.00116568973355
0.00116561954346
0.00118125704174
0.00120295543912
0.0012170401335
0.00120952577769
0.00117446648694
0.00111613635746
0.000956234469485
0.000673554720662
0.000299386484553
0.000295197493944
0.000657541687266
0.000933472702414
0.00108664364139
0.00116642556557
0.00121753045279
0.00123094733837
0.00121690872552
0.00119260689378
0.001174430466
0.00117436175214
0.00119243513815
0.00121666704353
0.00123067183001
0.00121724058869
0.00116611573236
0.00108627463851
0.000933212806997
0.000657390813379
0.000295168529808
0.000288399181188
0.000634496791507
0.000900409758756
0.00104621901028
0.00114603831085
0.00120361067769
0.0012171364406
0.00119942144575
0.00117029000521
0.00114821290714
0.00114815181949
0.00117014336415
0.00119922503357
0.00121692325767
0.00120339820087
0.00114582046289
0.00104594160487
0.00090019696972
0.000634357571314
0.000288360615912
0.000281579024488
0.000614084073258
0.000871488846431
0.00101214114183
0.00112269348585
0.0011819774137
0.00119300569854
0.00117047017094
0.00113465024544
0.00110701215679
0.00110696803835
0.00113455535213
0.00117036150961
0.00119290901719
0.00118189811617
0.0011226200231
0.00101204398221
0.000871400941622
0.000614007829012
0.000281544542607
0.000276447242648
0.000602093608765
0.000854865629327
0.000994600216763
0.00110730739915
0.00116623018734
0.00117486560196
0.00114846109239
0.00110710014697
0.00107422646735
0.00107421371647
0.00110708951213
0.00114848208248
0.00117493210106
0.00116633416672
0.00110743001843
0.000994721154916
0.000854960254691
0.000602123672711
0.0002764342425
0.000276453186412
0.000601986049817
0.000854658926512
0.000994362614883
0.00110707823927
0.00116602647863
0.00117471330179
0.00114838497574
0.00110711150987
0.00107431781562
0.00107434985599
0.00110720898665
0.00114855909988
0.00117496277847
0.001166328309
0.00110740493289
0.000994691411352
0.000854945487056
0.000602136846388
0.000276476219481
0.000281576533507
0.0006138217283
0.000870976784388
0.00101143755543
0.00112212647616
0.00118149971905
0.00119266640456
0.00117032570967
0.00113472355663
0.00110727501009
0.00110732769785
0.0011348717105
0.00117057384898
0.00119300642769
0.00118189874837
0.00112256262616
0.00101194110443
0.000871363923789
0.000614036025895
0.000281616265059
0.000288401275666
0.000634180936736
0.000899760124495
0.00104528200392
0.00114531922534
0.00120302191726
0.00121674584373
0.0011993007025
0.00117046543353
0.0011486343068
0.00114869165086
0.00117062437615
0.00119956091755
0.00121709471291
0.00120342488684
0.00114575439086
0.00104579586179
0.000900147918145
0.000634396267345
0.000288439335446
0.000295218909742
0.000657271094697
0.000932857070057
0.00108569936435
0.00116567592871
0.00121694910754
0.00123059855261
0.00121686338478
0.00119288507593
0.00117496712238
0.0011750226088
0.00119303612608
0.00121710098087
0.00123090199788
0.00121728854075
0.00116603334893
0.00108610237827
0.000933158055283
0.000657434156298
0.000295241131472
0.000299442007502
0.000673514050588
0.000956015222999
0.00111574241946
0.00117401684133
0.00120931760418
0.00121706501736
0.00120323756723
0.00118177353133
0.00116627798931
0.00116633029818
0.00118191069341
0.00120343886857
0.00121730271966
0.001209564812
0.00117427200943
0.00111596880955
0.000956184704996
0.000673599131713
0.0002994439162
0.000298736399314
0.000672850441865
0.000952386551009
0.00111320354842
0.00117636988345
0.00117415266387
0.00116590016798
0.00114562654384
0.00112246872725
0.00110736471137
0.00110741548615
0.00112259585948
0.00114579524114
0.00116607214428
0.00117428275013
0.001176461047
0.0011132775918
0.000952438736452
0.000672865439712
0.000298722673194
0.000289106258273
0.000640223420301
0.000899665898852
0.00105023118023
0.00111328699425
0.00111595090779
0.00108604088284
0.00104570503708
0.00101187275785
0.000994700789473
0.000994751311
0.00101199649142
0.00104584970135
0.00108615885916
0.00111601759459
0.00111330759658
0.0010502312787
0.000899653607989
0.000640198884774
0.000289085636944
0.000266081078525
0.000559437262803
0.000774887927291
0.00089969532346
0.000952485687781
0.000956211714514
0.000933156725323
0.000900138517772
0.00087139231424
0.000855035417031
0.000855084983095
0.000871506833388
0.000900267620562
0.000933257501838
0.000956263701461
0.000952493701122
0.000899677073828
0.000774858117204
0.000559405071224
0.000266062380432
0.000227217692765
0.000418551334999
0.000559440084264
0.000640246307792
0.000672918881508
0.000673644624076
0.000657470589634
0.000634446533929
0.000614137144956
0.000602308656241
0.000602346675607
0.000614221124325
0.000634539460092
0.000657542505539
0.000673681794752
0.000672924147364
0.000640230092016
0.000559416447198
0.000418528926175
0.000227204588215
0.000179166448457
0.000227238698649
0.000266111551247
0.000289138802237
0.000298771437033
0.000299486213183
0.000295278807866
0.000288486706488
0.000281696150501
0.000276609094331
0.000276623714835
0.000281726579565
0.000288517189824
0.000295298822195
0.000299493328929
0.000298768421319
0.00028912906642
0.00026610201876
0.000227231563133
0.000179159565689
0.000223411755685
0.000360259705948
0.000477300952007
0.000556459456611
0.00060054132877
0.00061832780875
0.000619311302131
0.000611531782996
0.000602328204841
0.000596363975451
0.000596338462202
0.000602266846697
0.000611452098421
0.000619232589768
0.000618271157314
0.000600518641446
0.00055647036341
0.00047733429163
0.000360297915133
0.000223431178385
0.000360237055648
0.000453856536047
0.000555294282104
0.000627596712869
0.000670801572194
0.000691339959517
0.000696717568449
0.000693656116252
0.000688094159034
0.000684130305854
0.000684105910385
0.000688031820165
0.000693569558553
0.000696624578873
0.000691261394501
0.000670752453235
0.000627581225793
0.000555305850979
0.000453882873087
0.000360267514322
0.000477254933279
0.000555279700098
0.000659710438977
0.000736731740114
0.000784121607998
0.000807432962674
0.000814079676984
0.000811115502881
0.000804898093056
0.000800261066311
0.000800235095127
0.000804830565874
0.000811018958534
0.00081397018581
0.000807331872278
0.000784045577689
0.000736687682809
0.0006596951804
0.000555284942428
0.00047727651169
0.000556389192817
0.000627576278361
0.000736729206587
0.000818942557336
0.000870944581711
0.000898119516853
0.000908030359236
0.000908486123614
0.000904752909454
0.000901279753511
0.000901257436942
0.00090469376608
0.000908397502685
0.000907913152483
0.000897999857127
0.000870840681241
0.00081886505854
0.000736678911784
0.000627549023775
0.000556385223192
0.000600470486495
0.000670796918054
0.000784137569832
0.000870963627733
0.000928294496424
0.000963495299865
0.000985122061359
0.000993644503313
0.000993752262603
0.000991483015202
0.000991462273909
0.000993700552352
0.000993573133383
0.000985035252893
0.00096338613871
0.000928172355611
0.000870854711495
0.000784050394272
0.000670731800953
0.000600429455054
0.000618297897209
0.000691381709208
0.000807495051801
0.000898183625381
0.000963532039232
0.00101350192807
0.00104549279848
0.00106028098638
0.00106312553059
0.00106156433932
0.00106154345442
0.00106307585886
0.00106021721544
0.00104542204239
0.00101341770282
0.000963420781385
0.000898056669683
0.000807380199063
0.000691284156358
0.000618218891689
0.000619351931535
0.000696824068619
0.000814203030216
0.000908150205233
0.000985192824919
0.00104553495743
0.00108488493672
0.00110347328619
0.00110726343703
0.00110544084084
0.00110542011571
0.00110721550625
0.00110341528541
0.00108482486195
0.00104546860021
0.000985107485267
0.000908028623513
0.000814081429378
0.000696711323913
0.000619245992979
0.000611646054293
0.000693818693458
0.000811286772774
0.000908628605623
0.000993755429452
0.00106038500987
0.00110355391216
0.00112331580175
0.00112697218273
0.0011241978265
0.00112418144885
0.00112693802229
0.0011232772225
0.001103512371
0.0010603398506
0.00099369780525
0.000908547160791
0.000811190091097
0.0006937212608
0.000611542627401
0.000602472637607
0.000688271332263
0.00080508099966
0.000904904353795
0.000993898218451
0.00106329394665
0.00110743582657
0.00112707484152
0.00112848271918
0.00112331287238
0.00112330671395
0.00112847603211
0.00112707440201
0.00110743651518
0.00106329046692
0.000993884741975
0.000904877227143
0.000805041686914
0.000688225051267
0.000602412689456
0.00059647658594
0.000684269926857
0.000800408330985
0.000901402321736
0.000991627972871
0.00106175666521
0.0011056526907
0.0011243621427
0.00112338458822
0.00111584064603
0.00111585107591
0.00112342059183
0.00112442219576
0.00110572242185
0.0010618207039
0.000991680668534
0.000901447139581
0.000800452296456
0.000684303874068
0.00059649888796
0.000596392474623
0.000684178081917
0.000800313018174
0.000901322526569
0.000991557380805
0.00106169397801
0.00110560423957
0.00112433936569
0.00112339803709
0.00111589049639
0.0011159215678
0.00112348406392
0.00112446817027
0.00110575203114
0.00106183500796
0.000991684439237
0.000901444758674
0.000800445540659
0.000684298908044
0.00059651002567
0.000602273893643
0.000688044650081
0.00080484341907
0.000904701519944
0.000993730416481
0.0010631533736
0.0011073323959
0.0011270380419
0.00112853458285
0.00112345079243
0.00112349012461
0.00112864056882
0.00112719510649
0.00110751571081
0.00106333079657
0.000993896851366
0.000904870608869
0.000805024429338
0.000688211402317
0.000602438638336
0.000611414387228
0.000693532768432
0.000810979314876
0.000908356667564
0.000993547543286
0.00106022475066
0.00110344987073
0.00112330154181
0.00112707526779
0.00112440902459
0.00112444796625
0.00112718002444
0.00112345566925
0.0011036287201
0.00106040098014
0.000993717761065
0.000908536086584
0.000811165529404
0.000693701590707
0.000611576678857
0.000619159508653
0.000696552423091
0.000813895658538
0.000907839760698
0.000984976853739
0.00104538685205
0.00108480695958
0.00110349538789
0.00110741134731
0.00110569193783
0.00110572739637
0.00110750622327
0.00110363316448
0.0010849631574
0.0010455413992
0.000985128363774
0.000908004340176
0.000814051090178
0.000696687560736
0.000619281918879
0.000618185318547
0.000691176635134
0.000807246695726
0.000897913479971
0.0009633105658
0.00101336596336
0.00104543598721
0.0010603181923
0.00106327417666
0.00106181246038
0.00106184409974
0.00106335744311
0.00106043582861
0.00104556629433
0.00101349178744
0.000963429433034
0.000898028235104
0.000807348824085
0.000691258657293
0.00061825169747
0.000600438370242
0.000670678574309
0.000783977380005
0.00087077066488
0.000928100303241
0.000963363301631
0.000985074411899
0.000993682886088
0.00099388706741
0.000991704994784
0.000991734627201
0.00099396304263
0.000993785593658
0.000985182304132
0.000963458095838
0.000928176043551
0.000870833503726
0.000784026692829
0.000670709698189
0.000600455873996
0.000556409972916
0.00062753712398
0.000736658275768
0.000818836766725
0.000870819808936
0.0008980156791
0.000907989349005
0.00090853152421
0.000904888735496
0.000901493453058
0.000901522753418
0.000904961973597
0.000908625622744
0.000908080004012
0.000898085438597
0.000870865461148
0.000818864481256
0.000736670972245
0.000627534106861
0.000556400137829
0.000477294283168
0.000555297267155
0.000659711761153
0.00073670082411
0.00078406364031
0.000807377287504
0.000814066194207
0.000811177326421
0.000805050546551
0.000800497949281
0.000800528303122
0.000805123631782
0.000811265950534
0.000814145300323
0.000807431995105
0.000784091964417
0.000736708775998
0.000659704660695
0.000555278329968
0.000477276164957
0.000360265436776
0.000453904891032
0.000555344024265
0.000627620549056
0.000670794849664
0.000691323563504
0.000696727303635
0.000693727216148
0.000688244227855
0.00068435596819
0.000684385413343
0.000688312474086
0.000693806406343
0.000696793920996
0.000691365456362
0.00067081143937
0.000627618122381
0.000555329565222
0.000453883137727
0.000360247135799
0.000223398870603
0.000360326805668
0.000477386120847
0.000556521638048
0.000600570602859
0.00061834356009
0.000619350916629
0.000611637776719
0.000602520177349
0.000596637283271
0.000596671050309
0.000602595778783
0.000611724431664
0.000619425374682
0.000618395028777
0.000600598635431
0.000556532330151
0.00047738664317
0.000360319951457
0.000223385016561
0.000273049399285
0.000484019981226
0.000667667801107
0.000794764500293
0.00086872510104
0.000902569292364
0.000912073078834
0.000911836344348
0.000911799784253
0.000913414343059
0.000913369922558
0.000911682793628
0.000911673473517
0.000911900716101
0.000902432218314
0.000868652347506
0.000794757720848
0.000667706374467
0.000484070123429
0.000273071930013
0.000484002325959
0.000579452105016
0.000701619181973
0.00079480305528
0.000855199364508
0.000888115003103
0.00090231019666
0.000906598656767
0.000907583991782
0.00090802838889
0.000907995099888
0.000907494889239
0.000906472104158
0.000902171649123
0.000887996356848
0.000855124937088
0.000794778519904
0.000701633550607
0.000579487313227
0.00048405227292
0.000667625179382
0.000701616692728
0.000798074127282
0.00087657627806
0.000929712958562
0.000960199559666
0.000974245950181
0.000978078896815
0.000977168560838
0.000975648301191
0.000975621589366
0.000977097322309
0.000977977269338
0.000974132131874
0.000960092022171
0.000929633201535
0.000876532768237
0.00079806310463
0.000701628444445
0.000667662146219
0.000794694061845
0.000794803502068
0.000876583597944
0.000947127068188
0.000997768253564
0.00102996606358
0.00104925447691
0.00105819932888
0.00105981311744
0.00105901698477
0.00105899882768
0.00105976572365
0.00105813445516
0.00104918598196
0.00102987295255
0.000997682150844
0.000947058885212
0.000876536392219
0.000794774059315
0.000794685249343
0.0008686679133
0.000855225189457
0.000929742519821
0.000997785695956
0.00105153938441
0.00109325582288
0.00111983749598
0.00113341900687
0.00113763609262
0.00113774489688
0.00113773056408
0.00113760025462
0.00113337249369
0.00111978644332
0.00109319289471
0.00105145841051
0.000997696698661
0.00092965662154
0.000855145156096
0.000868593205867
0.000902596081265
0.000888203820112
0.00096027170365
0.00103000700582
0.001093269128
0.00114303340016
0.0011769802179
0.00119542827749
0.0012019451655
0.00120275443997
0.00120273978928
0.00120190992652
0.00119538545847
0.00117693832556
0.00114298835518
0.0010932072896
0.00102991045732
0.000960156717217
0.000888077713441
0.000902452109366
0.000912245308501
0.000902489265858
0.000974369311894
0.00104929513715
0.00111985567869
0.00117699716497
0.0012172639346
0.00123937009057
0.00124698855102
0.0012477439471
0.00124772916408
0.00124695511131
0.00123933154184
0.00121722678901
0.00117696215906
0.00111981199906
0.00104922713507
0.000974249514613
0.000902341120272
0.000912054686715
0.000912158165996
0.00090685770219
0.000978246969196
0.00105826744971
0.00113345524047
0.00119549150133
0.00123944936032
0.00126283505662
0.00126956746022
0.00126909514753
0.00126908722316
0.00126955248194
0.00126281921275
0.00123942744988
0.00119546872647
0.00113342764551
0.00105821400919
0.000978151089601
0.000906731194211
0.000911978649225
0.000912170298632
0.000907857596157
0.000977343200501
0.0010598928928
0.00113770294744
0.00120207454749
0.0012471767377
0.0012697055755
0.00127405916552
0.00127145927814
0.00127146437069
0.00127407692969
0.00126973156936
0.00124719556603
0.00120208522956
0.00113770597829
0.00105987920429
0.000977308463063
0.000907806042946
0.000912081091315
0.000913695346667
0.000908233329757
0.000975776837128
0.00105907951602
0.00113782490452
0.00120292525
0.00124800652758
0.00126932225663
0.00127155853021
0.00126716005643
0.00126717915259
0.00127161392769
0.00126940380039
0.00124809107846
0.00120299388282
0.00113787934564
0.00105912729592
0.00097583174403
0.000908296298852
0.000913759500934
0.000913496539062
0.000908079653982
0.000975658631435
0.00105899806915
0.00113776177545
0.00120287034303
0.00124796251505
0.00126930283515
0.00127157195568
0.00126720186844
0.00126723410002
0.00127166157102
0.00126943632003
0.00124811172458
0.00120300061738
0.00113787359954
0.00105911180394
0.000975805675978
0.000908258781804
0.000913718514574
0.00091167567885
0.000907465092715
0.000977039027909
0.00105968557022
0.00113754729672
0.00120194295616
0.00124707530746
0.0012696636464
0.00127409833875
0.00127156902957
0.0012716059292
0.00127419968099
0.0012698130463
0.00124724265781
0.00120209599898
0.00113768534222
0.00105983425981
0.000977236529989
0.00090770609344
0.000911978616694
0.000911539342754
0.000906342381331
0.000977840156962
0.00105799439437
0.00113325511175
0.00119532747007
0.00123932606429
0.00126279543824
0.0012696379007
0.00126926109549
0.00126929547557
0.00126973363144
0.00126293524178
0.00123947941325
0.00119546927124
0.00113338753476
0.00105814240092
0.000978040773637
0.000906584169713
0.00091183696142
0.00091166625124
0.000901968096267
0.000973942306218
0.00104901609042
0.00111964337526
0.00117683109206
0.00121714591837
0.00123934122844
0.00124707638912
0.00124793705843
0.00124796654665
0.00124715903163
0.00123945992533
0.0012172727259
0.00117694639607
0.00111975200528
0.00104913634499
0.000974108397249
0.000902161631204
0.000911891579032
0.000902154438806
0.000887759226168
0.000959879469808
0.00102968952496
0.00109304469238
0.00114287061495
0.00117686895586
0.0011953915688
0.00120200476845
0.00120290331577
0.00120292986097
0.00120207601777
0.00119548914467
0.00117696948202
0.00114295875308
0.00109312679671
0.00102978312956
0.000959990210767
0.000887876698812
0.000902275586995
0.00086837778097
0.000854892718206
0.000929427306957
0.000997503722846
0.00105131001732
0.00109308997846
0.00111972194138
0.00113335828069
0.00113765117851
0.00113783661379
0.00113786221157
0.00113771718039
0.00113344363956
0.00111980461438
0.0010931565874
0.00105136225097
0.00099755467829
0.00092947936004
0.000854935924694
0.000868406866229
0.000794520910615
0.000794582593218
0.000876358736957
0.000946902881761
0.000997556362025
0.00102978571765
0.00104913101807
0.00105813050832
0.00105981711767
0.00105909473977
0.00105912241941
0.00105988586924
0.00105821481001
0.00104920690888
0.0010298370729
0.000997584664264
0.000946919021972
0.000876365765403
0.000794574303045
0.000794497148441
0.000667521214183
0.000701489391074
0.000797935262839
0.000876413270461
0.000929528572249
0.000960016200809
0.000974099184234
0.000978001077047
0.000977178420414
0.000975743521585
0.000975775549312
0.000977254862946
0.000978089297521
0.00097417002564
0.000960054912545
0.000929537124269
0.000876402750332
0.000797911972363
0.000701453243292
0.000667479268764
0.000483926983875
0.000579393299742
0.000701550563705
0.000794691489524
0.000855036156964
0.000887922109166
0.000902134649879
0.000906489435601
0.000907563880542
0.000908095368754
0.000908129862151
0.000907642287157
0.000906573843255
0.000902194559914
0.00088794451213
0.000855024521089
0.000794659642519
0.000701508456632
0.000579346056786
0.000483883230131
0.000272958719902
0.000484003915052
0.000667650186398
0.000794689868474
0.000868578824451
0.000902379386611
0.000911904693139
0.000911758392331
0.000911834325336
0.000913550155608
0.000913595210658
0.000911932969098
0.000911864121256
0.000911984346271
0.000902419723686
0.000868582048517
0.000794670903421
0.000667619471503
0.000483967867738
0.000272925134903
0.00033848389175
0.000646926087917
0.000914538333542
0.00110150370783
0.00121660096193
0.00127980810966
0.00131725051148
0.00135227052904
0.00139118251953
0.00141959518148
0.00141953031678
0.00139099227656
0.00135198678661
0.00131692862474
0.00127953736287
0.00121644266997
0.00110146081224
0.000914572864277
0.000646981796713
0.000338507144974
0.000646934805866
0.00074767737274
0.00090763757783
0.00103529598507
0.00112223347723
0.00117373659304
0.00120263417854
0.00122232523255
0.00123943875439
0.0012510376074
0.00125099175191
0.00123930752333
0.0012221338739
0.00120242363679
0.00117356301666
0.00112213616907
0.00103527810372
0.000907673957281
0.000747735590316
0.000647009858113
0.000914530477741
0.000907655252576
0.00101122360806
0.00110007962949
0.00116159526308
0.00119768224896
0.00121607957513
0.00122404876692
0.00122762110752
0.00122937323617
0.00122933791739
0.00122752307845
0.0012239075843
0.00121592357008
0.00119754463754
0.0011615051947
0.00110004816604
0.0010112401855
0.000907698114721
0.000914597802992
0.00110147135617
0.00103532459455
0.00110009898952
0.0011620255782
0.00120873893125
0.00124004612639
0.00126257302316
0.00127246798423
0.00127475607964
0.00127436884433
0.0012743481969
0.0012747006417
0.00127239163357
0.00126248911319
0.00123996680159
0.00120865597305
0.00116196757816
0.00110007473145
0.00103532492282
0.00110148182607
0.00121660092714
0.00112229303951
0.00116164312558
0.00120875926717
0.00125518440757
0.00129408097724
0.00132038007168
0.00133298326662
0.00133544676753
0.00133424660746
0.00133423110536
0.00133540662773
0.0013329322984
0.00132032972443
0.00129403777273
0.00125515149192
0.0012086849002
0.00116157055873
0.00112223043421
0.00121651818199
0.0012799442089
0.00117387599799
0.00119777759269
0.00124007154046
0.00129407867102
0.00134025843443
0.00137211591995
0.00138703749433
0.00138927536807
0.0013873836872
0.00138736390012
0.00138922404525
0.00138697279232
0.00137206047225
0.00134022196217
0.00129404763405
0.00124001048299
0.00119766614281
0.00117374702702
0.00127975329946
0.00131762206027
0.00120289594
0.00121623371059
0.00126259700784
0.00132035855808
0.00137211934409
0.00140766642449
0.00142298587448
0.00142369012646
0.0014205487693
0.0014205267945
0.00142363477852
0.00142291667145
0.00140759990303
0.00137207653661
0.00132033248945
0.00126254440342
0.00121611055844
0.00120272909788
0.0013173544734
0.00135284862523
0.00122268875913
0.00122424941304
0.00127248779695
0.0013329523462
0.00138709475184
0.001423109289
0.00143683062262
0.00143467870598
0.00142932531052
0.00142931641634
0.00143465901543
0.00143680588008
0.00142306102771
0.00138705695629
0.00133293717964
0.0012724548825
0.00122415510381
0.00122255044173
0.00135260784719
0.00139173795924
0.00123978400903
0.00122781500922
0.00127478219876
0.00133545576408
0.00138942461376
0.00142397272978
0.00143489575025
0.00142886460757
0.00142084608078
0.00142085797195
0.00142889657946
0.00143493505844
0.00142398677395
0.00138942865481
0.00133546585126
0.00127479097938
0.00122780215034
0.00123975964618
0.00139166090493
0.00141990674403
0.00125123647258
0.00122948835447
0.00127438132216
0.00133429734117
0.00138760128363
0.00142093619358
0.0014296604811
0.00142098298023
0.00141115770675
0.00141118438644
0.00142105733196
0.00142976907087
0.00142104392739
0.00138768114652
0.00133436013433
0.00127445786582
0.00122959392268
0.00125138021336
0.00142007610095
0.00141954152414
0.00125097589991
0.00122930262398
0.00127426338836
0.0013342097098
0.00138751918994
0.0014208676703
0.00142962757056
0.00142099091269
0.00141119502903
0.0014112320472
0.0014210954015
0.00142979102396
0.00142105807603
0.0013876757048
0.00133433453547
0.00127441270155
0.00122952467407
0.00125127739878
0.00141993059835
0.00139077662689
0.00123909378782
0.0012273208882
0.00127447214743
0.00133523190167
0.00138921475879
0.00142379546508
0.00143480081469
0.0014288729693
0.00142093023048
0.00142097145935
0.00142898837416
0.00143497852052
0.00142400118953
0.00138939222822
0.00133537896377
0.00127465678665
0.00122760714177
0.00123948066612
0.00139127898834
0.00135157153588
0.00122174955562
0.00122356370285
0.00127205701951
0.00133264617042
0.00138680602163
0.00142285415251
0.00143669929748
0.00143469425137
0.00142945107802
0.00142948886967
0.00143480351666
0.00143686476177
0.00142303418425
0.00138695854328
0.00133277724611
0.00127223525183
0.00122385178755
0.00122213454125
0.00135205715737
0.00131634499512
0.00120190939687
0.00121547807226
0.00126210294043
0.00132000390665
0.00137180017654
0.0014073847254
0.00142283592914
0.00142370852003
0.00142070004328
0.0014207309146
0.00142380053871
0.00142297159686
0.0014075224716
0.00137190795175
0.00132010194542
0.00126225153572
0.00121572115236
0.00120222147643
0.00131671121551
0.00127887664746
0.00117298734354
0.00119704474754
0.00123955520432
0.00129369752549
0.00133993591188
0.00137182734077
0.00138684487394
0.00138921440424
0.00138744299495
0.00138747081497
0.00138929078205
0.00138694644904
0.00137192131696
0.00134000434691
0.00129376885669
0.00123966344346
0.00119721113743
0.00117318253301
0.00127906664457
0.00121579031155
0.0011215663676
0.00116099037028
0.00120821071448
0.00125479523631
0.00129373351447
0.00132005903783
0.00133270651364
0.00133526088156
0.00133416290486
0.00133418829836
0.00133532779205
0.00133278831891
0.00132012904063
0.00129378452722
0.00125484737962
0.0012082748704
0.00116107581839
0.0011216452308
0.00121582063787
0.00110087866691
0.00103476937178
0.00109955704889
0.0011615063785
0.00120826343487
0.00123963319868
0.00126218904146
0.001272130731
0.00127449899562
0.001274203632
0.00127423253171
0.00127457099481
0.00127221389146
0.0012622544674
0.00123967304728
0.00120828103521
0.00116152279821
0.00109957388928
0.00103476304656
0.00110081377489
0.0009140926524
0.000907256199391
0.0010108003896
0.00109961273133
0.0011610889636
0.00119716002128
0.00121557939076
0.0012236179103
0.00122728572347
0.00122913703547
0.0012291721265
0.00122736816452
0.00122370567604
0.00121563661705
0.00119717463825
0.00116107149356
0.00109958215972
0.001010761654
0.000907197542974
0.000913993872929
0.000646615111554
0.000747403414257
0.000907313050392
0.00103486990891
0.00112168640592
0.00117308867373
0.00120194610085
0.00122166645788
0.00123884095623
0.00125051517975
0.00125054968451
0.00123891526541
0.00122173228037
0.00120196843463
0.00117305916981
0.00112161806132
0.00103478656524
0.000907226616351
0.000747315647873
0.000646517846429
0.000338264142843
0.00064668649162
0.000914216677075
0.00110103532712
0.00121595060201
0.00127899387178
0.00131635537934
0.00135138163263
0.00139031624689
0.00141877246758
0.00141881007745
0.00139038709388
0.00135142840373
0.00131634704956
0.00127892905734
0.00121584520235
0.00110091899262
0.000914103196176
0.000646586998619
0.000338192664093
0.000430585205546
0.000891904727782
0.00129399244269
0.00158925669153
0.00179721250197
0.00194556605781
0.00207247867491
0.00220571469362
0.00233416310828
0.00241607243358
0.00241599765851
0.00233397637286
0.00220539821292
0.00207207496374
0.00194520813612
0.00179700912542
0.00158921077613
0.00129404393332
0.000891977508185
0.000430613299698
0.000891958144671
0.000995452518888
0.00121852905971
0.00141030989861
0.00155178862617
0.00164745041098
0.00171624562374
0.00177713581075
0.00183233476998
0.00186727329264
0.00186722636711
0.00183219491965
0.00177691863344
0.00171600544551
0.00164727131506
0.00155173139649
0.00141036648484
0.00121864624605
0.000995571373005
0.000892074408399
0.0012940351118
0.00121857147901
0.00133612435346
0.00144515214093
0.00152049871774
0.00156463522341
0.00158927197
0.00160477181929
0.0016164589337
0.00162377212068
0.00162372708897
0.00161632936203
0.00160458130632
0.0015890662351
0.0015644770591
0.00152043054437
0.00144519214027
0.00133624000692
0.00121870557202
0.00129417321809
0.00158926980096
0.00141035666689
0.00144517409189
0.00149091770735
0.00152627662143
0.00155299661166
0.00157075821372
0.00157731843693
0.00157634677425
0.00157394790337
0.00157392021513
0.0015762701281
0.00157721118222
0.00157064446943
0.00155291376934
0.00152619370086
0.00149090854188
0.00144524882412
0.00141047678717
0.00158937984082