/*--------------------------------*- C++ -*----------------------------------*\
| =========                 |                                                 |
| \\      /  F ield         | OpenFOAM: The Open Source CFD Toolbox           |
|  \\    /   O peration     | Version:  3.0.1                                 |
|   \\  /    A nd           | Web:      www.OpenFOAM.org                      |
|    \\/     M anipulation  |                                                 |
\*---------------------------------------------------------------------------*/
FoamFile
{
    version     2.0;
    format      ascii;
    class       volScalarField;
    location    "0.8";
    object      epsilon;
}
// * * * * * * * * * * * * * * * * * * * * * * * * * * * * * * * * * * * * * //

dimensions      [0 2 -3 0 0 0 0];

internalField   nonuniform List<scalar> 
7968
(
0.0184861730459
0.0191851374637
0.0195636480584
0.0196966350349
0.019734332941
0.0197426857726
0.0197424995122
0.0197398221654
0.0197366750149
0.0197344862852
0.0197348091447
0.0197374057955
0.0197407007021
0.0197433969285
0.0197435386309
0.0197350847626
0.0196972175186
0.0195640594138
0.0191854561281
0.0184862470553
0.0191851598735
0.0240079994254
0.0266515262693
0.0276875689001
0.0280194595674
0.0281012344973
0.0281099851663
0.0281034257153
0.0280978976427
0.0280957268394
0.0280961501857
0.0280990934718
0.0281052312002
0.0281121968224
0.028103614422
0.0280218210247
0.0276896052095
0.026653077542
0.024009129447
0.0191853550215
0.0195638542929
0.0266518561404
0.0309930926914
0.032892435629
0.0335744155919
0.0337673313834
0.0337982466918
0.0337913758153
0.0337845549169
0.0337828064393
0.0337833078617
0.0337859959719
0.0337936032634
0.0338010486634
0.0337703969642
0.0335774254538
0.0328949600273
0.0309949586856
0.0266529483002
0.0195639900924
0.019696901952
0.0276882171378
0.0328925605681
0.0353084479019
0.0362209120241
0.0364810169086
0.036514134188
0.0364959918585
0.0364828196797
0.0364798707811
0.03648047026
0.0364845053066
0.036498602504
0.0365174120279
0.0364846405208
0.0362243713132
0.0353113971243
0.0328946528736
0.027689377349
0.0196970008759
0.0197346615521
0.0280197056115
0.0335747717478
0.0362209016729
0.0372261806783
0.0374936160716
0.0375365463757
0.0375377605147
0.0375305211269
0.037527628312
0.0375279729413
0.0375315087009
0.0375392709294
0.0375384452542
0.0374979015531
0.0372303773967
0.0362243718596
0.0335772003255
0.0280210040949
0.0197347477383
0.0197430226582
0.028101738362
0.033767490656
0.0364808743766
0.0374934371765
0.0378131346089
0.0378815950178
0.0378733935786
0.0378598691346
0.0378548118871
0.0378552335349
0.0378611023907
0.0378753075852
0.0378838757249
0.0378155636495
0.0374984451205
0.0364851254449
0.0337704711638
0.0281034020115
0.0197431526514
0.019742845708
0.0281101947003
0.0337980450063
0.0365135333604
0.0375363675835
0.0378813703414
0.0379351060492
0.037912024071
0.0378900075809
0.0378818038304
0.0378823655471
0.0378916604923
0.0379145843525
0.0379381231548
0.0378842745145
0.0375389043323
0.0365186704933
0.0338017463571
0.0281123224978
0.0197430773751
0.019740117659
0.0281032943622
0.0337906263379
0.0364946081591
0.0375372163369
0.0378726947822
0.0379114689195
0.0378755310458
0.0378453022266
0.0378334485625
0.0378342312355
0.0378475253308
0.0378788630865
0.0379152774412
0.0378763128666
0.0375402238309
0.0365007623673
0.0337950814733
0.0281059146736
0.0197404423977
0.0197368417075
0.0280972797879
0.0337831334225
0.0364806626701
0.0375295049088
0.0378586022779
0.0378887201771
0.0378444350152
0.0378075830013
0.0377916957238
0.0377927507811
0.0378104396692
0.0378485343318
0.0378931991146
0.0378627868341
0.0375329970848
0.0364876510085
0.0337882095235
0.0281002712563
0.0197372615007
0.0197343697335
0.0280946238107
0.033780773272
0.0364769394732
0.037526178001
0.0378529903977
0.0378797884396
0.0378316177031
0.0377905229703
0.0377709854487
0.0377723527951
0.0377939058411
0.0378362368696
0.0378846771214
0.0378574879231
0.0375299101953
0.0364843687656
0.0337862017209
0.0280978394754
0.0197348574598
0.0197343389503
0.0280946280238
0.0337807862542
0.0364769387182
0.037526174511
0.0378529818414
0.0378797686729
0.037831580182
0.0377904677535
0.0377709203774
0.0377722876108
0.0377938649642
0.0378362095516
0.0378846583526
0.0378574680851
0.037529881598
0.0364843265342
0.0337861317121
0.0280977852708
0.0197347649869
0.0197367623295
0.0280972944524
0.0337831689252
0.0364806682136
0.037529506968
0.0378585903018
0.0378886868822
0.0378443785812
0.0378075023148
0.0377916202587
0.0377926810407
0.0378103978114
0.0378484906599
0.0378931534646
0.03786272722
0.0375329183595
0.0364874906478
0.0337880558688
0.0281001242121
0.0197370443078
0.0197400086542
0.0281033128248
0.0337906733143
0.0364946220545
0.0375372132173
0.0378726739831
0.0379114217731
0.0378754586997
0.0378452229505
0.0378333909123
0.0378341740612
0.0378474671501
0.0378787861598
0.037915189364
0.0378762064707
0.0375400791991
0.036500474718
0.0337948106092
0.0281056539668
0.0197401474898
0.0197427446618
0.0281102507729
0.0337981520656
0.0365135736522
0.0375363758605
0.0378813518573
0.0379350564133
0.0379119425916
0.0378899208848
0.0378817434562
0.0378823029168
0.0378915864699
0.0379144860766
0.0379380071931
0.0378841275251
0.0375387060894
0.0365182911849
0.0338014043334
0.0281119976712
0.0197427393858
0.0197429241384
0.0281018151032
0.0337676403422
0.0364809927707
0.0374934942478
0.0378131374432
0.0378815652137
0.0378733366283
0.0378598028882
0.0378547557284
0.037855172937
0.037861028983
0.0378752052747
0.0378837409882
0.0378153741098
0.0374979972713
0.036484677757
0.0337700511719
0.0281029989429
0.0197428133968
0.0197345830118
0.028019849779
0.0335750417291
0.0362210990416
0.0372262376511
0.0374935575517
0.03753651914
0.0375376974948
0.0375304359337
0.0375275348758
0.0375278673837
0.0375313947077
0.0375391255416
0.0375382635657
0.0374974489353
0.0372298821624
0.036223875375
0.0335767021556
0.0280205186171
0.0197343975139
0.0196968257979
0.0276883569403
0.0328928671213
0.0353087292411
0.0362210443898
0.0364810010749
0.036514003429
0.0364957683298
0.0364825301105
0.0364795518799
0.0364801214891
0.036484146148
0.0364982104679
0.0365169932646
0.0364841763536
0.0362238593632
0.0353108410255
0.0328940224543
0.0276887087303
0.0196966282838
0.0195637995788
0.0266520637319
0.0309934314384
0.0328927381878
0.0335745353348
0.0337673498297
0.033798132849
0.0337911948884
0.0337843198488
0.0337825380982
0.0337830078021
0.0337856764573
0.0337932475075
0.0338006489498
0.0337699452783
0.0335769162133
0.0328943595779
0.030994301909
0.0266522709129
0.0195636437191
0.01918524128
0.0240084480036
0.0266519345742
0.0276878732701
0.0280195685673
0.0281012284426
0.0281099222091
0.0281032813479
0.0280977162236
0.028095503103
0.0280958995325
0.0280988379219
0.0281049646699
0.028111893492
0.0281032734633
0.0280214091379
0.027689159413
0.0266526349573
0.0240085144109
0.0191851005666
0.0184861937233
0.0191852394469
0.0195637111984
0.0196966517092
0.0197343060193
0.0197426257592
0.0197424062186
0.0197396775229
0.0197364923999
0.0197342405544
0.0197345136462
0.0197371102826
0.0197404103449
0.0197431072359
0.0197432495861
0.0197348055208
0.0196969566527
0.0195638283982
0.019185217391
0.0184860995487
0.0191732928198
0.0239193128192
0.0265327969271
0.0275598835621
0.0278914867268
0.0279771238667
0.0279895464838
0.0279848028022
0.0279788895737
0.0279757347118
0.027976042036
0.027979726352
0.02798599091
0.027990899885
0.0279785000063
0.0278927274637
0.0275608384829
0.0265333771552
0.0239196316687
0.0191733508062
0.023919200063
0.0247508358266
0.0266294990576
0.0274573949288
0.0277457618151
0.0278276962916
0.0278443491638
0.0278445244194
0.0278424711977
0.0278413442099
0.0278414439043
0.0278427548275
0.027844952531
0.0278448702496
0.0278282488965
0.0277462769995
0.0274577866445
0.0266297533819
0.0247511358925
0.0239195555822
0.0265329533965
0.0266294944194
0.0284826693632
0.029373360252
0.0297104545278
0.0298152606201
0.029839366031
0.0298410773795
0.0298391472846
0.0298380188503
0.0298381064329
0.0298393999681
0.0298414664133
0.0298398486627
0.0298157747195
0.0297109247798
0.0293737030653
0.0284828832184
0.026629757759
0.0265331874343
0.0275602689474
0.0274574810771
0.0293734347124
0.030332036707
0.0307107188797
0.0308338106613
0.0308640772634
0.0308674811288
0.0308660453828
0.0308651462141
0.030865230258
0.0308662863491
0.0308678515893
0.0308645368503
0.0308343169882
0.0307111659779
0.0303323426232
0.0293735985363
0.0274576975754
0.0275604028365
0.027892017028
0.0277458850686
0.0297105930412
0.0307107750123
0.0311125946891
0.0312455465576
0.0312828590252
0.031291854542
0.0312926906593
0.0312922762582
0.0312923121438
0.0312928018679
0.0312920228822
0.0312830804751
0.0312460391313
0.031113070998
0.0307110963351
0.029710757304
0.0277460986479
0.0278921332843
0.0279776730253
0.0278278331239
0.029815399885
0.0308338742725
0.0312455610137
0.0313917916657
0.0314372614988
0.0314481475484
0.0314492480602
0.0314487437199
0.0314487809806
0.031449358286
0.0314483108513
0.0314374444241
0.031392002814
0.0312460537858
0.0308342715237
0.0298156332361
0.0278281174263
0.0279778997671
0.0279900231221
0.02784443389
0.0298394544407
0.0308640950409
0.0312829036222
0.031437269893
0.0314846597777
0.0314952007599
0.0314954890134
0.0314944582836
0.031494509856
0.0314956391226
0.0314954143473
0.0314848858755
0.0314374502494
0.0312830609312
0.0308645751924
0.0298397986394
0.0278448325739
0.027990456166
0.0279851092527
0.0278445241515
0.0298410756477
0.0308674058215
0.0312918732938
0.0314481371785
0.0314951786404
0.0315044615694
0.0315034134274
0.0315015772276
0.0315016432795
0.0315036030423
0.031504735287
0.0314954646521
0.0314483610118
0.0312920440293
0.0308680133901
0.0298415449975
0.0278450443204
0.0279857677726
0.0279789254332
0.0278423610554
0.0298390362526
0.0308658642821
0.0312926718701
0.0314491957768
0.0314954251832
0.0315033710988
0.0315008739657
0.0314981588884
0.0314982542008
0.0315011008538
0.0315036725775
0.0314957550496
0.031449463535
0.0312928802577
0.0308665810694
0.0298396083581
0.0278429803318
0.0279797946897
0.0279754221824
0.0278411172304
0.0298378020775
0.0308648602163
0.0312922108359
0.0314486545163
0.0314943498867
0.0315014881337
0.0314981079684
0.0314947238969
0.0314948208914
0.0314983714988
0.0315018111709
0.0314946977813
0.0314489402148
0.0312924419371
0.0308656341261
0.0298384288023
0.0278417908695
0.0279764247561
0.0279754095915
0.0278411185072
0.0298378039489
0.0308648614836
0.0312922134347
0.0314486565525
0.0314943509618
0.0315014909767
0.0314981203958
0.0314947421685
0.0314948383164
0.0314983817268
0.0315018089484
0.0314946922887
0.0314489350214
0.0312924373917
0.0308656241383
0.029838415443
0.0278417745776
0.027976378331
0.0279788935773
0.0278423653921
0.0298390420912
0.030865869191
0.0312926812675
0.0314492078797
0.0314954428999
0.0315033927682
0.0315009071384
0.0314981984793
0.031498297013
0.0315011252203
0.0315036770553
0.0314957513663
0.0314494541607
0.0312928650614
0.030866549412
0.0298395703226
0.0278429335849
0.0279796685301
0.0279850610803
0.0278445321963
0.029841085348
0.0308674134183
0.0312918857728
0.0314481561305
0.0314952044653
0.0315044924914
0.0315034510639
0.0315016168798
0.0315016850386
0.0315036295857
0.0315047445805
0.0314954627559
0.031448348568
0.0312920191765
0.0308679574667
0.0298414797186
0.027844968025
0.0279855744383
0.0279899842504
0.0278444515552
0.0298394725128
0.0308641074957
0.0312829185599
0.0314372913475
0.0314846883045
0.0314952337276
0.0314955235008
0.0314944887793
0.031494539557
0.0314956605373
0.0314954236961
0.0314848825317
0.031437433254
0.0312830222845
0.0308644975927
0.0298397099322
0.0278447329317
0.0279902150338
0.0279776520535
0.0278278618996
0.0298154272114
0.0308338927323
0.0312455698132
0.0313918065505
0.0314372814219
0.0314481688846
0.031449267545
0.0314487592741
0.0314487934806
0.0314493647185
0.0314483082741
0.0314374294846
0.0313919661425
0.0312459682761
0.0308341662443
0.0298155158379
0.0278279912515
0.02797763651
0.0278920286783
0.0277459358454
0.029710634839
0.030710796392
0.0311125930712
0.0312455309413
0.0312828521776
0.0312918475992
0.0312926802304
0.0312922619416
0.031292294174
0.031292778345
0.0312919895989
0.0312830314986
0.0312459413968
0.0311129485987
0.0307109555345
0.0297105997151
0.0277459313365
0.0278918191479
0.027560324211
0.0274575534626
0.0293734844872
0.0303320566044
0.0307107053149
0.0308337716249
0.0308640217899
0.0308674131287
0.0308659672974
0.0308650616492
0.0308651393516
0.0308661896694
0.0308677447411
0.0308644169761
0.0308341768018
0.0307110030434
0.0303321527527
0.029373377987
0.0274574558117
0.0275600165969
0.0265330773015
0.0266296080422
0.028482735115
0.0293733824092
0.0297104316554
0.029815208367
0.0298392921202
0.0298409887972
0.0298390480857
0.0298379119652
0.0298379922469
0.0298392790509
0.0298413353549
0.0298397035395
0.0298156093448
0.0297107295779
0.0293734664161
0.0284825996844
0.0266294379235
0.0265327616541
0.0239194445373
0.0247510192283
0.0266295931185
0.0274574373313
0.0277457535371
0.02782765826
0.0278442908493
0.0278444480832
0.0278423846352
0.0278412477105
0.0278413388448
0.0278426438021
0.0278448344072
0.0278447397443
0.0278280962559
0.0277460851105
0.0274575370418
0.0266294243175
0.0247507116624
0.0239191168884
0.0191732524417
0.0239194133345
0.0265328448551
0.0275598980343
0.027891437665
0.0279770368354
0.0279894198972
0.0279846288499
0.0279786849836
0.0279755007297
0.0279757870511
0.0279794711687
0.0279857364275
0.0279906415446
0.0279782209091
0.0278924019754
0.0275604466386
0.026532894156
0.0239190625692
0.0191731606534
0.0195448099635
0.0265031929577
0.0307797658733
0.0326525490643
0.0333304783034
0.0335309232122
0.0335720031262
0.0335707147502
0.0335635723836
0.0335595345208
0.0335598311587
0.0335644288601
0.033572004045
0.0335735387502
0.0335325135884
0.0333319251606
0.0326536202718
0.0307803279499
0.0265034107319
0.0195449193932
0.0265030295322
0.0266096807815
0.0284667398935
0.0293606328923
0.0297023004772
0.0298128233427
0.0298424741789
0.0298482884061
0.0298486189104
0.0298483464813
0.0298484063355
0.0298487912067
0.0298485485855
0.0298427848367
0.029813137068
0.0297025600462
0.0293607775786
0.0284667849414
0.0266098445291
0.0265034014127
0.0307798570759
0.0284666307887
0.0296353764413
0.03027782995
0.0305406088498
0.0306318598281
0.0306585332927
0.0306644383253
0.0306649914449
0.03066476523
0.0306647980238
0.0306650866819
0.0306645859105
0.0306587151209
0.0306320458605
0.0305407586466
0.0302779080169
0.02963541767
0.0284668495832
0.0307800456853
0.0326529841911
0.0293605722104
0.0302778429869
0.0308237005657
0.0310537567798
0.0311366111476
0.0311624373574
0.0311690098625
0.0311700855493
0.031170060461
0.0311700804388
0.031170144182
0.031169101488
0.0311625517656
0.031136728642
0.031053841386
0.0308237237452
0.0302778456873
0.0293607670312
0.0326529626304
0.0333311357367
0.0297022936083
0.0305406499867
0.0310537795013
0.0312714332046
0.0313510531012
0.0313773774863
0.031385136654
0.0313868935039
0.0313870731507
0.0313870795405
0.0313869117223
0.0313851626647
0.0313774154428
0.031351114162
0.0312714789114
0.0310537724218
0.0305406321038
0.0297024812311
0.0333310490966
0.0335316129325
0.0298128278243
0.0306319061192
0.031136640736
0.0313510636279
0.0314311898896
0.031458769792
0.0314673169393
0.0314693963612
0.0314696262775
0.0314696248936
0.0314693928016
0.0314673016632
0.0314587486107
0.0314311834748
0.03135107877
0.0311366314644
0.0306319029874
0.0298130612302
0.0335316719543
0.0335725717772
0.0298424497706
0.0306585617779
0.0311624567865
0.0313773930134
0.0314587870453
0.031487144157
0.0314959706441
0.0314980482337
0.0314981667636
0.031498160155
0.0314980311939
0.0314959241536
0.0314870728278
0.0314587225285
0.0313773626583
0.031162460981
0.0306585971386
0.0298427613632
0.0335728864463
0.0335710457673
0.0298482098088
0.0306644327085
0.0311690082715
0.0313851583039
0.0314673618414
0.0314960083181
0.0315048007744
0.0315066538654
0.0315065103366
0.0315065029684
0.0315066284867
0.0315047296191
0.0314958968696
0.0314672538773
0.0313851062385
0.0311690365815
0.0306645135392
0.0298486071621
0.033571671497
0.0335635781306
0.0298484720256
0.0306649458713
0.0311700614822
0.0313869189359
0.0314694632366
0.0314981203053
0.0315066960511
0.031508162843
0.0315076432149
0.0315076384089
0.0315081337404
0.0315066015957
0.031497979843
0.0314693282265
0.0313868552298
0.0311701078704
0.0306650635835
0.0298489405187
0.0335644785905
0.0335591744756
0.0298481255368
0.0306646806611
0.0311700147107
0.0313870979442
0.0314697044344
0.0314982581977
0.0315065786794
0.0315076703313
0.0315068438899
0.031506837004
0.031507630645
0.0315064582849
0.0314980913957
0.0314695498216
0.0313870255121
0.0311700678924
0.0306648164594
0.029848632824
0.0335602409392
0.033559168222
0.0298481276225
0.0306646820201
0.0311700157939
0.0313870983828
0.031469702977
0.0314982572613
0.0315065833474
0.0315076838622
0.0315068619298
0.031506851478
0.0315076375344
0.0315064565043
0.0314980863155
0.0314695451947
0.0313870224865
0.0311700642377
0.0306648108782
0.0298486232723
0.033560202153
0.0335635670236
0.0298484789552
0.0306649497774
0.0311700651379
0.0313869226731
0.0314694657243
0.0314981261956
0.0315067102166
0.0315081913951
0.0315076787881
0.0315076690019
0.0315081478875
0.0315066003299
0.0314979734305
0.0314693206651
0.031386848246
0.0311700971704
0.0306650472136
0.0298489138723
0.0335643686764
0.0335710385008
0.0298482219564
0.0306644387439
0.0311690132828
0.0313851645047
0.0314673684525
0.0314960165251
0.0315048138113
0.0315066754439
0.031506533926
0.0315065268662
0.031506640566
0.0315047293502
0.0314958906739
0.0314672458718
0.0313850952195
0.031169017552
0.0306644862184
0.0298485665591
0.0335715016601
0.0335725710319
0.0298424658658
0.030658568802
0.0311624596588
0.0313773962685
0.0314587920829
0.0314871503489
0.031495978536
0.0314980565603
0.0314981702642
0.0314981649374
0.0314980316665
0.0314959181958
0.0314870630173
0.0314587089595
0.0313773418726
0.0311624298241
0.0306585574713
0.0298427092291
0.0335726727536
0.0335316348314
0.0298128491038
0.030631910494
0.0311366333433
0.0313510508432
0.031431176982
0.0314587583027
0.0314673047718
0.0314693809157
0.0314696061794
0.031469603811
0.0314693688464
0.0314672754646
0.0314587192683
0.0314311473659
0.031351031784
0.0311365776003
0.0306318434277
0.0298129919106
0.0335314150102
0.0333312139144
0.0297023248171
0.030540645153
0.0310537495252
0.0312713878239
0.0313510014686
0.0313773245176
0.0313850818829
0.031386835634
0.0313870121248
0.0313870168288
0.0313868466755
0.0313850948997
0.031377342915
0.0313510322451
0.0312713897728
0.0310536802428
0.0305405376681
0.0297023806484
0.033330737622
0.0326531154432
0.0293606111301
0.0302778220571
0.0308236396326
0.0310536707316
0.0311365115135
0.0311623307319
0.031168898482
0.0311699700759
0.0311699417067
0.0311699591854
0.0311700204637
0.0311689743921
0.0311624199529
0.0311365904129
0.0310536979003
0.0308235765543
0.0302776929955
0.0293606009561
0.0326525330518
0.0307800419976
0.028466684779
0.0296353473543
0.0302777512919
0.0305404996376
0.0306317333891
0.0306583965464
0.0306642946083
0.0306648428501
0.0306646127812
0.0306646420739
0.0306649273429
0.0306644226173
0.0306585467635
0.0306318694602
0.0305405705286
0.0302777029768
0.0296351852916
0.0284665748824
0.030779481331
0.0265032553982
0.0266097542508
0.0284667229661
0.0293605747427
0.0297022171647
0.0298127274143
0.0298423661522
0.0298481714898
0.0298484977266
0.0298482210997
0.0298482754306
0.0298486539221
0.0298484050607
0.0298426364989
0.0298129735558
0.0297023632946
0.0293605267063
0.0284664463292
0.0266093892211
0.026502742053
0.0195447743687
0.0265032073924
0.0307797078078
0.0326524420271
0.033330305428
0.0335307158489
0.0335717347606
0.0335704039794
0.0335632372235
0.0335591868162
0.0335594679876
0.0335640503251
0.0335716151277
0.0335731519627
0.0335321019052
0.0333314262729
0.0326529950845
0.0307795520978
0.0265025556591
0.0195447740519
0.0196776603022
0.0275194271443
0.0326376571104
0.0350207285641
0.0359414673587
0.0362353993689
0.0363055691212
0.0363114337508
0.0363056928511
0.0363019729001
0.0363022841901
0.0363066048445
0.0363128270779
0.0363072661711
0.0362371541421
0.0359430568672
0.035021868955
0.0326382017214
0.0275195269201
0.0196777875342
0.0275192495944
0.027427113473
0.0293488400184
0.030311061002
0.03069637308
0.0308288406874
0.0308680409653
0.0308776870841
0.0308794499381
0.0308796304227
0.0308796763459
0.0308795831359
0.0308778872192
0.0308682763648
0.0308290618518
0.0306965241958
0.0303110899001
0.0293487800081
0.0274272021102
0.0275195527107
0.0326377006428
0.0293486798925
0.0302723256175
0.0308206670879
0.0310524971372
0.0311371835533
0.0311646400004
0.0311723784712
0.0311741180054
0.0311743618539
0.0311743758649
0.0311741590692
0.0311724428643
0.0311647185731
0.031137255107
0.0310525331548
0.0308206480393
0.0302723041056
0.0293488901425
0.0326378831886
0.0350211644068
0.0303109277387
0.0308206475089
0.0311852828164
0.0313412956078
0.0313993902292
0.0314196177469
0.0314262130665
0.0314280718432
0.031428434965
0.0314284327613
0.0314280663887
0.0314262004237
0.0314195994784
0.0313993730024
0.0313412619304
0.03118521635
0.0308206058743
0.0303111365479
0.0350211045908
0.0359421667842
0.0306962912426
0.0310524879707
0.0313412967631
0.0314619132275
0.0315061617738
0.0315222796636
0.031528311162
0.0315303981887
0.03153090409
0.0315308918697
0.0315303610386
0.0315282448144
0.0315221890653
0.0315060616152
0.0314618136467
0.0313411945379
0.0310524275937
0.0306965008733
0.0359420400463
0.0362361167644
0.0308287675488
0.0311371746071
0.0313993920625
0.0315061728244
0.0315445808483
0.0315592082588
0.0315654403594
0.0315680450838
0.0315687660784
0.0315687492084
0.031567995394
0.0315653441992
0.0315590699834
0.0315444102825
0.0315060016652
0.0313992614403
0.0311371205223
0.0308290328948
0.0362361983528
0.0363060924393
0.0308679367834
0.0311646187575
0.0314196303232
0.0315223248476
0.0315592434026
0.0315739704244
0.0315810844359
0.0315845845091
0.0315855760252
0.0315855624741
0.0315845406119
0.0315809754754
0.0315738014904
0.0315590158137
0.0315220726282
0.03141945859
0.0311645906429
0.0308682946866
0.036306562861
0.0363116265746
0.0308775321089
0.0311723379538
0.0314262482016
0.031528400357
0.0315655219771
0.031581136676
0.0315896736546
0.0315943631091
0.0315955202507
0.0315955239103
0.0315943524464
0.0315895681945
0.031580944702
0.0315652515624
0.031528082583
0.0314260340654
0.0311723381135
0.0308779864458
0.0363125546721
0.0363054996241
0.0308792383572
0.0311740597038
0.0314281249179
0.0315305233799
0.0315681729476
0.0315846920874
0.0315944230866
0.0315999922686
0.0316009663671
0.0316009916351
0.0316000276284
0.0315943299265
0.0315844801135
0.0315678660455
0.0315301641968
0.0314278848904
0.0311740780087
0.0308797648691
0.0363068111667
0.0363013442337
0.0308793552587
0.0311742874158
0.0314284977191
0.0315310533352
0.031568924695
0.0315857104422
0.0315955918283
0.0316009544893
0.0316015098902
0.0316015409364
0.0316009929734
0.0315954752808
0.0315854641411
0.0315685828049
0.0315306684475
0.0314282435247
0.0311743118622
0.030879920212
0.0363028815919
0.0363013423826
0.0308793587478
0.0311742885098
0.0314284973367
0.0315310500003
0.031568918021
0.0315857087066
0.0315955993131
0.0316009728291
0.0316015305074
0.0316015552194
0.0316009985752
0.0315954694331
0.0315854541254
0.0315685729221
0.0315306637938
0.0314282411892
0.0311743086599
0.0308799139042
0.0363028401688
0.0363054884413
0.0308792490214
0.0311740628591
0.0314281250483
0.0315305188904
0.0315681651153
0.0315846931503
0.031594438738
0.0316000303889
0.0316010159007
0.0316010311593
0.0316000466586
0.0315943240899
0.031584465059
0.0315678496498
0.0315301557352
0.0314278796099
0.0311740694154
0.030879748801
0.0363066942875
0.0363116120064
0.0308775484292
0.031172341874
0.0314262484245
0.0315283964762
0.0315655160988
0.0315811348736
0.0315896829732
0.0315943885107
0.0315955535762
0.0315955596071
0.0315943710671
0.0315895656564
0.0315809311406
0.0315652361121
0.0315280724344
0.0314260249129
0.0311723239753
0.030877963494
0.0363123719379
0.0363060729105
0.0308679529608
0.0311646190935
0.0314196247886
0.0315223151107
0.0315592331271
0.0315739604975
0.0315810791893
0.0315845849168
0.031585575444
0.0315855676189
0.0315845380232
0.0315809611268
0.0315737813976
0.0315589954668
0.0315220538043
0.0314194391581
0.0311645676225
0.0308682669647
0.036306350955
0.0362361110625
0.0308287817068
0.0311371633429
0.0313993659874
0.0315061385404
0.0315445444139
0.0315591709778
0.0315654003229
0.0315680020672
0.031568719438
0.0315687047112
0.0315679462307
0.0315652937741
0.0315590213447
0.0315443630613
0.0315059559347
0.0313992173101
0.0311370781814
0.0308289888476
0.0362359175564
0.0359422322085
0.0306963054608
0.0310524533284
0.0313412318823
0.0314618322347
0.031506073996
0.0315221897155
0.0315282179576
0.0315303014102
0.0315308050229
0.0315307929829
0.0315302593967
0.0315281429542
0.0315220888372
0.0315059630304
0.0314617183017
0.0313411065107
0.0310523494074
0.0306964269179
0.035941712938
0.0350212703915
0.0303109340104
0.0308205806153
0.0311851703447
0.0313411583541
0.0313992417445
0.0314194651144
0.0314260582229
0.0314279147454
0.0314282760988
0.031428273207
0.0314279053693
0.0314260386629
0.0314194375186
0.0313992111491
0.0313411040227
0.0311850685884
0.0308204689917
0.0303109979203
0.035020659766
0.03263782396
0.0293486786132
0.0302722369866
0.0308205289733
0.0310523329361
0.0311370066435
0.0311644566103
0.0311721913313
0.0311739286439
0.0311741704851
0.0311741831013
0.0311739648834
0.0311722470604
0.0311645212386
0.0311370552827
0.0310523310662
0.0308204429361
0.0302720857687
0.0293486355398
0.0326372930116
0.0275193478172
0.0274271010908
0.0293487570181
0.0303109514561
0.0306962535026
0.030828717801
0.030867911179
0.030877554285
0.0308793193722
0.0308794982517
0.0308795417037
0.0308794441416
0.0308777408395
0.0308681266873
0.0308288974436
0.0306963282333
0.0303108438448
0.0293484493633
0.0274267550252
0.027518899516
0.0196776105568
0.0275192670765
0.0326374474421
0.0350204652809
0.0359411405994
0.0362350178761
0.0363051061267
0.0363109150769
0.0363051610785
0.0363014185399
0.0363017232074
0.0363060405949
0.0363122466792
0.0363067151964
0.0362365808591
0.0359424015017
0.0350211005484
0.0326373126002
0.027518625431
0.0196777117836
0.0197200995954
0.0278658387823
0.0333354097092
0.0359641516712
0.0370170825217
0.0373696076156
0.0374626995909
0.0374774655937
0.0374754096243
0.037473235542
0.0374735978243
0.0374764712754
0.0374790912504
0.0374647253073
0.037371680473
0.0370189093622
0.0359654441604
0.0333360648893
0.0278660238491
0.0197202639664
0.0278656473789
0.0277184228082
0.0296887671868
0.030692079638
0.0311027204843
0.0312480486835
0.0312929512159
0.0313048948377
0.0313074529077
0.0313078407747
0.0313078832263
0.0313075778388
0.0313050853175
0.031293180299
0.0312482543964
0.0311028377801
0.0306920650807
0.0296886755701
0.027718513558
0.0278660813463
0.0333354131462
0.0296885773023
0.0305356575486
0.0310514669636
0.031270935799
0.031352477627
0.0313801340738
0.0313887004561
0.0313909962953
0.0313914491449
0.0313914539779
0.0313910098847
0.0313887152745
0.0313801470378
0.0313524895422
0.0312709246993
0.0310514111606
0.0305356235296
0.0296888213239
0.0333357670499
0.0359645453771
0.0306919015717
0.0310514299497
0.0313410911792
0.0314618950112
0.0315062263836
0.0315225123528
0.0315287225535
0.0315309782137
0.0315315808838
0.0315315685334
0.0315309407749
0.0315286542489
0.0315224171183
0.0315061088649
0.0314617737318
0.0313409856227
0.0310513829265
0.0306921645033
0.0359647230998
0.0370177470457
0.0311025841436
0.0312708975168
0.0314618857884
0.0315340873691
0.0315578463258
0.031567351646
0.0315725015104
0.0315753134902
0.0315762884111
0.0315762736065
0.0315752672469
0.0315724199463
0.0315672415583
0.0315576950788
0.0315338895723
0.0314617067836
0.0312708369563
0.0311028755215
0.0370179547103
0.0373701688135
0.0312478950614
0.0313524314448
0.0315062284
0.0315578481468
0.031572389714
0.0315796842348
0.0315861054762
0.0315908803398
0.0315926289945
0.0315926284472
0.0315908673551
0.031586047527
0.0315796159523
0.0315722869627
0.031557636301
0.0315059769837
0.0313523729306
0.0312483013254
0.0373708509843
0.0374628777662
0.03129273706
0.0313800817669
0.0315225502561
0.0315673604197
0.0315796718477
0.0315886350389
0.0315991905211
0.0316079297688
0.0316107014271
0.0316107453547
0.0316080140845
0.0315991798109
0.0315886054379
0.0315796261431
0.0315671571805
0.03152222671
0.0313800243234
0.0312933117789
0.0374643516818
0.0374770790638
0.0313046064039
0.0313886529954
0.0315288076526
0.0315725386765
0.0315861195826
0.0315992412797
0.0316163036333
0.0316308786958
0.0316342064136
0.0316343478852
0.0316311914296
0.031616402184
0.0315992314415
0.0315860899354
0.0315723252536
0.0315284156402
0.0313885915931
0.0313053372354
0.0374794041002
0.0374744861403
0.0313070995511
0.0313909512403
0.0315311003127
0.0315753962089
0.0315909565434
0.0316080757965
0.0316309827074
0.0316508090975
0.031653314771
0.0316535789986
0.031651447781
0.0316312496375
0.0316080910143
0.0315909083833
0.0315751474172
0.0315306691967
0.0313908905066
0.0313079317198
0.0374774214363
0.0374717302833
0.0313074263903
0.031391399977
0.0315317248331
0.0315764045433
0.0315927246597
0.031610805461
0.0316341304031
0.0316529722376
0.0316537118175
0.0316540089831
0.0316537448369
0.0316344622318
0.031610811583
0.0315926376485
0.0315761196181
0.0315312734623
0.0313913389853
0.0313083053084
0.0374750120898
0.0374717263011
0.0313074312762
0.0313914001873
0.0315317224612
0.0315763992601
0.0315927191825
0.0316108074903
0.031634136559
0.0316529858498
0.031653719913
0.0316540066054
0.0316537422515
0.0316344434261
0.0316107919753
0.0315926206896
0.0315761113655
0.0315312704565
0.0313913366597
0.031308302856
0.0374749695959
0.0374744766619
0.0313071165313
0.0313909520232
0.0315310955826
0.0315753889905
0.0315909511549
0.03160808163
0.0316310030213
0.0316508604402
0.031653387008
0.0316536344667
0.0316514850063
0.0316312317271
0.0316080592254