/*--------------------------------*- C++ -*----------------------------------*\
| =========                 |                                                 |
| \\      /  F ield         | OpenFOAM: The Open Source CFD Toolbox           |
|  \\    /   O peration     | Version:  3.0.1                                 |
|   \\  /    A nd           | Web:      www.OpenFOAM.org                      |
|    \\/     M anipulation  |                                                 |
\*---------------------------------------------------------------------------*/
FoamFile
{
    version     2.0;
    format      ascii;
    class       volScalarField;
    location    "0.8";
    object      epsilon_0;
}
// * * * * * * * * * * * * * * * * * * * * * * * * * * * * * * * * * * * * * //

dimensions      [0 2 -3 0 0 0 0];

internalField   nonuniform List<scalar> 
7968
(
0.0194564815181
0.0201688188454
0.0205507427855
0.0206829963908
0.0207198500195
0.0207278446214
0.0207275519683
0.020724844674
0.020721677925
0.0207194689558
0.0207197821407
0.020722383681
0.020725689046
0.0207284102437
0.0207286564399
0.0207205621229
0.0206835418848
0.0205511255317
0.0201691227693
0.0194565526525
0.0201688401121
0.0251333509533
0.0278303596203
0.0288726466383
0.0292007275819
0.0292798065012
0.0292876657784
0.0292809832518
0.0292754919504
0.0292733385614
0.0292737480037
0.0292766465173
0.0292827221843
0.0292897896351
0.0292820824342
0.0292029805651
0.0288745804036
0.0278318292465
0.0251344382875
0.0201690245526
0.0205509437334
0.0278306804067
0.032258430966
0.0341719830766
0.0348482730196
0.0350359440852
0.0350648362685
0.0350576139125
0.0350508610608
0.0350491676857
0.0350496521097
0.0350522527449
0.0350597597369
0.0350675289674
0.0350388769115
0.0348511487108
0.0341743824028
0.032260198007
0.0278317141382
0.0205510624186
0.0206832560079
0.0288732789218
0.0341720974072
0.0366030120891
0.0375071508775
0.0377598014786
0.0377899967659
0.0377713942345
0.0377583886696
0.0377555616326
0.037756142477
0.0377600234148
0.0377739195673
0.0377931581559
0.0377632843579
0.0375104648392
0.0366058265629
0.0341740823792
0.0288743721763
0.0206833351605
0.0207201716773
0.029200957993
0.0348486249646
0.0375071440512
0.0385015167588
0.0387599635389
0.0387990828049
0.038799354788
0.0387921825872
0.0387894258857
0.0387897549502
0.0387931281185
0.0388007976213
0.0388008933241
0.0387641076955
0.0385055571611
0.0375104679389
0.0348509373414
0.0292021832476
0.0207202355518
0.0207281740173
0.0292803010224
0.0350361025315
0.0377596693007
0.0387597963282
0.0390687221023
0.0391325279334
0.0391233681362
0.039110009093
0.0391051490661
0.0391055528675
0.0391111922694
0.0391252025938
0.0391347092015
0.0390710424719
0.038764643698
0.0377637648929
0.035038957041
0.0292818795166
0.0207282798288
0.0207278924124
0.0292878733424
0.0350646508945
0.0377894245461
0.0387989124585
0.0391323127382
0.0391814118175
0.0391576060954
0.0391359484454
0.0391280360541
0.0391285765604
0.0391375416351
0.0391600699896
0.0391843086989
0.0391350964635
0.0388013415385
0.0377943938152
0.0350682145833
0.029289913779
0.0207280982609
0.0207251378182
0.0292808655187
0.0350568990468
0.0377700681585
0.0387988356719
0.039122698057
0.0391570728189
0.039120693119
0.0390910209206
0.0390795533174
0.0390803092791
0.0390931705269
0.0391239107981
0.0391607399602
0.039126175368
0.0388017215634
0.0377760382101
0.0350612070406
0.0292833905223
0.0207254335716
0.0207218475893
0.0292749022669
0.0350494977549
0.0377563150393
0.0387912109713
0.039108792173
0.0391347090831
0.0390901834628
0.0390540225336
0.0390385939816
0.0390396180678
0.0390567903937
0.0390941488646
0.0391390291582
0.0391128208635
0.038794566711
0.0377631065247
0.0350544148089
0.0292777923641
0.0207222359023
0.0207193629376
0.0292722790321
0.0350472126087
0.0377527364913
0.0387880368966
0.0391033980547
0.0391260946397
0.0390777851036
0.039037459551
0.0390184208514
0.0390197511702
0.039040746502
0.0390822597099
0.03913081386
0.0391077308636
0.0387916244023
0.0377599642517
0.0350524754186
0.0292753898751
0.0207198173588
0.0207193303724
0.0292722822174
0.0350472252107
0.037752736182
0.038788033213
0.0391033886943
0.0391260733776
0.0390777458245
0.0390374045345
0.0390183575466
0.0390196875585
0.0390407051881
0.0390822293964
0.039130792233
0.0391077092027
0.0387915948496
0.0377599220602
0.0350524067146
0.0292753346113
0.0207197218529
0.0207217636
0.0292749140485
0.0350495322514
0.0377563236854
0.0387912136663
0.0391087799615
0.0391346759363
0.0390901275726
0.0390539446522
0.0390385234855
0.0390395535071
0.0390567489189
0.0390941007069
0.0391389785362
0.0391127573036
0.0387944857736
0.0377629504664
0.0350542611339
0.0292776426215
0.0207220115723
0.0207250223165
0.0292808781643
0.0350569443898
0.0377700852936
0.0387988317887
0.0391226764254
0.0391570251481
0.0391206204663
0.0390909425496
0.0390794974282
0.039080253653
0.0390931097815
0.0391238276917
0.0391606454085
0.0391260639329
0.0388015732471
0.0377757536004
0.0350609332741
0.0292831232564
0.0207251286693
0.0207277843615
0.0292879227475
0.0350647536701
0.0377894677365
0.0387989192221
0.0391322930913
0.0391813614805
0.0391575238003
0.0391358607261
0.0391279740071
0.0391285113438
0.0391374629959
0.0391599654089
0.0391841865528
0.0391349446136
0.0388011396938
0.0377940172424
0.0350678666959
0.0292895784925
0.0207277481423
0.0207280678144
0.0292803662156
0.0350362439979
0.0377597854607
0.0387598513226
0.0390687242684
0.0391324982156
0.039123311564
0.039109942709
0.0391050918742
0.0391054903151
0.0391111159177
0.0391250965252
0.0391345706307
0.0390708501995
0.038764205278
0.0377633148765
0.0350385259935
0.0292814618028
0.0207279281334
0.0207200859102
0.029201091491
0.0348488839681
0.0375073339459
0.0385015722811
0.0387599106683
0.0387990570956
0.0387992945453
0.0387921002192
0.0387893347659
0.0387896510763
0.0387930155411
0.0388006521142
0.0388007112179
0.0387636662891
0.0385050626065
0.0375099617972
0.0348504216126
0.0292016783912
0.020719872879
0.0206831725263
0.0288734038158
0.0341723912495
0.0366032832376
0.0375072777067
0.0377597835473
0.0377898700929
0.0377711811596
0.0377581125243
0.0377552587253
0.0377558109136
0.0377596810131
0.0377735406942
0.0377927467386
0.0377628202209
0.0375099453724
0.0366052538196
0.0341734271625
0.0288736755388
0.0206829491277
0.0205508831632
0.0278308767704
0.0322587567673
0.0341722731721
0.0348483796215
0.0350359492634
0.0350647149779
0.0350574294332
0.0350506244815
0.0350488998218
0.0350493532467
0.0350519340135
0.0350594018257
0.0350671226072
0.035038414865
0.0348506225056
0.0341737582261
0.0322595124874
0.027831009554
0.0205507041723
0.0201689208012
0.0251338011519
0.0278307618738
0.0288729418557
0.0292008241474
0.0292797861617
0.0292875912131
0.0292808278505
0.029275300274
0.0292731047051
0.029273487484
0.0292763813612
0.029282445047
0.0292894728616
0.0292817254225
0.0292025505408
0.0288741113509
0.027831365591
0.0251337975365
0.0201687612962
0.019456503829
0.0201689224918
0.0205508049601
0.020683010917
0.0207198204923
0.0207277815184
0.0207274556778
0.0207246959819
0.0207214911819
0.0207192178549
0.0207194800795
0.020722081468
0.0207253916833
0.0207281130509
0.0207283597584
0.0207202746279
0.0206832726562
0.0205508871472
0.0201688775055
0.0194564026711
0.0201571696146
0.0250449409895
0.0277122148632
0.0287457613184
0.0290736285117
0.0291565372491
0.0291680025788
0.0291630900515
0.0291571969685
0.0291540611112
0.0291543579805
0.0291580034899
0.0291642314498
0.0291692979524
0.0291578510381
0.0290748103795
0.0287466700417
0.0277127689031
0.0250452537892
0.0201572187316
0.0250448316511
0.025802308204
0.0276887836495
0.0285096390128
0.0287908492401
0.0288693158713
0.0288849342731
0.0288850159593
0.0288830692476
0.0288820136109
0.0288821068233
0.0288833342454
0.0288854150343
0.0288854188544
0.0288698286748
0.0287913273433
0.0285100021991
0.0276890212542
0.0258025996546
0.0250451745064
0.0277123684652
0.0276887763184
0.0295309330961
0.0304056183279
0.0307312660553
0.0308307195026
0.030853119259
0.0308545758111
0.0308527423331
0.0308516952381
0.0308517766843
0.0308529773095
0.0308549369698
0.0308535667614
0.0308311956036
0.0307317019421
0.0304059358785
0.029531132357
0.0276890293454
0.0277125832287
0.0287461358973
0.0285097183476
0.0304056883098
0.0313422876
0.0317060176363
0.0318220707708
0.0318499961898
0.0318529786324
0.0318516133389
0.0318507924836
0.0318508699081
0.0318518354776
0.0318533194617
0.0318504187181
0.0318225371488
0.031706429218
0.0313425680859
0.0304058374211
0.0285099229421
0.028746248985
0.0290741438765
0.0287909639505
0.0307313976843
0.0317060708937
0.0320907245891
0.0322155381151
0.0322500055653
0.0322583996615
0.0322592548448
0.0322589047421
0.0322589339946
0.0322593469507
0.0322585384942
0.0322501911108
0.0322159886579
0.0320911619102
0.0317063640175
0.0307315450401
0.0287911628467
0.0290742360955
0.0291570712944
0.0288694450436
0.030830852564
0.0318221321386
0.0322155529056
0.0323529379771
0.0323953657028
0.0324056605186
0.0324068143289
0.0324063886996
0.0324064176232
0.0324069006597
0.0324057868936
0.032395505588
0.03235310654
0.0322160029153
0.031822495868
0.0308310642284
0.0288697101355
0.0291572700131
0.0291684683927
0.0288850154499
0.0308532062585
0.0318500167115
0.0322500522838
0.0323953773706
0.0324397834097
0.0324498555982
0.0324502820137
0.032449364122
0.0324494048172
0.0324504011243
0.032450021708
0.0324399546963
0.0323955068638
0.0322501682924
0.0318504562985
0.0308535220106
0.0288853893278
0.0291688683932
0.0291633932669
0.0288850188473
0.0308545800256
0.0318529146079
0.0322584274124
0.0324056615855
0.0324498429368
0.0324587902092
0.0324579676133
0.0324562819098
0.0324563336121
0.0324581181589
0.0324590042906
0.0324500615477
0.0324058229707
0.0322585484212
0.031853472651
0.0308550134989
0.0288855080382
0.0291640123516
0.0291572395726
0.0288829698222
0.0308526457034
0.031851452889
0.0322592539102
0.0324067840799
0.0324502403047
0.0324579385061
0.0324557275709
0.032453192239
0.0324532696953
0.0324559092551
0.0324581708904
0.0324504919554
0.0324069797486
0.032259404537
0.0318521125515
0.0308531755653
0.0288835528428
0.0291580640438
0.0291537658994
0.028881804753
0.0308515005587
0.0318505355953
0.0322588657635
0.0324063319263
0.0324492906821
0.0324562206474
0.0324531561826
0.0324499690063
0.0324500472233
0.0324533691258
0.0324564670666
0.0324495528621
0.0324065393794
0.0322590342104
0.0318512484849
0.0308520817702
0.0288824393935
0.0291547209681
0.0291537519819
0.02888180564
0.0308515023409
0.0318505368006
0.0322588679892
0.0324063332059
0.0324492908299
0.0324562224397
0.0324531673794
0.0324499856458
0.0324500630218
0.0324533775735
0.032456463501
0.0324495463325
0.03240653366
0.0322590295234
0.0318512389869
0.0308520691487
0.0288824234312
0.0291546732544
0.0291572042815
0.0288829731579
0.0308526513745
0.031851457849
0.0322592625394
0.0324067946085
0.0324502561254
0.0324579579269
0.0324557583144
0.0324532288272
0.032453308531
0.0324559288632
0.0324581714737
0.0324504855455
0.0324069690216
0.0322593893054
0.0318520827298
0.0308531394873
0.0288835069865
0.0291579341502
0.0291633398717
0.0288850253065
0.0308545893885
0.0318529221445
0.0322584385359
0.0324056782526
0.0324498661262
0.0324588175257
0.0324580010666
0.0324563168194
0.0324563703532
0.0324581393247
0.0324590093547
0.0324500567301
0.032405809199
0.0322585239823
0.0318534195584
0.0308549510747
0.0288854329037
0.0291638131741
0.0291684233022
0.0288850309058
0.0308532235207
0.0318500288481
0.032250065602
0.0323953965898
0.0324398091203
0.0324498852864
0.0324503124017
0.0324493897451
0.0324494294929
0.0324504177131
0.032450027414
0.0324399488801
0.0323954891875
0.0322501310696
0.0318503826264
0.0308534369198
0.0288852910954
0.0291686197264
0.0291570431058
0.0288694705945
0.0308308782765
0.0318221496905
0.0322155608039
0.032352951086
0.0323953835134
0.0324056794482
0.0324068309574
0.0324064008189
0.0324064266533
0.0324069040706
0.0324057823228
0.0323954899171
0.0323530710639
0.0322159220361
0.0318223953683
0.0308309509796
0.0288695855644
0.0291569988656
0.029074148059
0.0287910112831
0.030731437375
0.0317060908926
0.0320907223933
0.0322155228948
0.0322499985672
0.032258392863
0.0322592445939
0.0322588904808
0.0322589161888
0.0322593239974
0.0322585064355
0.0322501443777
0.0322158962526
0.032091045022
0.0317062285779
0.0307313920253
0.0287909974109
0.0290739131561
0.0287461849753
0.0285097873467
0.0304057358747
0.0313423060356
0.0317060035311
0.0318220325392
0.0318499429912
0.0318529143274
0.0318515397844
0.0318507130682
0.0318507846282
0.0318517447789
0.0318532187246
0.0318503049355
0.0318224031646
0.0317062724694
0.0313423841455
0.0304056218013
0.0285096829111
0.0287458525252
0.0277124890856
0.0276888875415
0.0295309968171
0.0304056390225
0.0307312424887
0.0308306677313
0.0308530474202
0.0308544906541
0.0308526474999
0.0308515934762
0.0308516681738
0.0308528624113
0.0308548119873
0.0308534276204
0.0308310362322
0.030731512562
0.0304057046915
0.0295308534523
0.027688711489
0.027712147936
0.0250450783018
0.025802490367
0.0276888753048
0.0285096791412
0.0287908388169
0.0288692764041
0.0288848757293
0.0288849402666
0.0288829840214
0.0288819190127
0.0288820041353
0.0288832259471
0.0288852998569
0.0288852913426
0.0288696791024
0.0287911384818
0.028509755222
0.0276886941102
0.0258021742382
0.025044725052
0.0201571280176
0.0250450426721
0.0277122616564
0.0287457749685
0.0290735776988
0.0291564490848
0.029167875571
0.0291629152365
0.0291569914909
0.0291538261039
0.029154101731
0.0291577470468
0.0291639758008
0.029169038244
0.0291575701324
0.0290744818074
0.0287462733038
0.027712278446
0.0250446731406
0.0201570230821
0.0205323787602
0.0276834438836
0.0320473953377
0.0339348836985
0.034607236991
0.0348022301264
0.0348409708678
0.0348390826653
0.0348318952985
0.0348278889486
0.0348281744879
0.034832720073
0.0348403219408
0.0348424429105
0.0348037528959
0.0346086261558
0.033935918023
0.0320479453465
0.0276836657353
0.0205324762115
0.0276832865718
0.0276698879831
0.0295160541612
0.0303939789489
0.03072413937
0.0308291769875
0.0308569745212
0.0308624194612
0.0308627841042
0.0308625703069
0.0308626240569
0.0308629388445
0.0308626524602
0.0308572515697
0.0308294557891
0.0307243689824
0.030394104094
0.0295160912228
0.0276700486905
0.0276836486013
0.0320474857562
0.0295159449002
0.0306356226826
0.0312459842979
0.0314910575074
0.0315746181742
0.0315987083087
0.0316040277923
0.0316045625778
0.0316043867783
0.0316044148483
0.0316046441376
0.0316041540392
0.0315988638435
0.0315747772726
0.0314911847144
0.0312460482935
0.030635658164
0.0295161583589
0.032047665027
0.0339353059474
0.0303939143561
0.0312459939576
0.0317507244333
0.031958551454
0.0320317338656
0.0320542297907
0.0320599784142
0.0320609663287
0.0320609716867
0.0320609869888
0.032061011439
0.0320600487896
0.0320543182786
0.0320318259334
0.0319586154592
0.0317507355937
0.0312459919648
0.0303941025164
0.0339352776673
0.0346078727787
0.0307241252853
0.0314910922621
0.0319585710642
0.0321513522829
0.0322200500412
0.0322425624682
0.0322493792569
0.0322510321936
0.0322512416341
0.0322512426111
0.0322510353556
0.0322493822859
0.0322425726363
0.0322200864192
0.0321513766578
0.0319585516846
0.0314910693286
0.0307243045783
0.0346077797949
0.0348028958057
0.0308291741155
0.0315746580598
0.0320317601981
0.0322200599597
0.032288697191
0.0323123783151
0.0323200402854
0.0323220837992
0.0323223783388
0.0323223710589
0.032322063228
0.0323200002596
0.0323123278997
0.0322886591489
0.0322200516354
0.0320317349151
0.0315746466118
0.0308293953572
0.034802946698
0.034841520452
0.0308569463069
0.0315987338359
0.0320542497666
0.0322425815011
0.0323123971274
0.0323369657757
0.0323450741451
0.0323472480277
0.032347497877
0.0323474846986
0.0323472124475
0.0323450017306
0.0323368661357
0.0323122994256
0.0322425163886
0.0320542301869
0.0315987548243
0.0308572394953
0.0348418192973
0.0348394044925
0.0308623433238
0.0316040251739
0.0320599837918
0.0322494096382
0.0323200895896
0.0323451139638
0.0323533817355
0.0323554850583
0.0323555537974
0.0323555383086
0.0323554378278
0.0323532813897
0.0323449722089
0.0323199468462
0.0322493165727
0.0320599802399
0.0316040848001
0.0308627152018
0.0348400052903
0.034831903804
0.0308626468946
0.0316045266258
0.0320609559594
0.0322510727084
0.0323221604167
0.0323473279376
0.0323555332823
0.0323573767601
0.0323571419092
0.0323571280704
0.0323573222169
0.0323554039648
0.0323471526167
0.0323219865335
0.0322509626903
0.0320609645854
0.0316046175915
0.030863083956
0.0348327722084
0.0348275439199
0.030862365958
0.0316043177631
0.0320609455111
0.0322512876515
0.0323224733828
0.0323476055486
0.0323556382796
0.0323571800244
0.0323566787923
0.0323566601769
0.0323571119973
0.0323554785908
0.0323473997722
0.0323222764683
0.0322511659381
0.0320609581112
0.0316044240595
0.0308628387586
0.034828574875
0.0348275364921
0.0308623675862
0.0316043190004
0.0320609463517
0.0322512876478
0.0323224714424
0.0323476042596
0.0323556425994
0.0323571933751
0.032356696372
0.0323566741823
0.0323571183586
0.0323554762684
0.0323473943234
0.0323222716376
0.0322511629132
0.0320609547299
0.0316044189139
0.0308628292479
0.034828535132
0.0348318902758
0.0308626527325
0.0316045302753
0.0320609590263
0.0322510752698
0.0323221617338
0.0323473333001
0.0323555471397
0.0323574052327
0.0323571768377
0.032357157765
0.0323573349828
0.0323554018219
0.0323471457118
0.0323219785984
0.0322509558742
0.0320609548434
0.0316046025509
0.0308630575122
0.0348326595677
0.0348393943657
0.0308623539127
0.031604030835
0.0320599879639
0.032249413998
0.0323200941695
0.0323451210487
0.0323533938146
0.0323555055995
0.0323555760555
0.0323555612054
0.03235544904
0.0323532809948
0.0323449660247
0.0323199386165
0.0322493061045
0.03205996289
0.0316040596466
0.0308626750484
0.0348398316314
0.0348415155662
0.0308569602211
0.0315987402222
0.0320542516369
0.0322425825456
0.0323123994663
0.0323369698644
0.0323450805035
0.0323472546973
0.0323474994309
0.0323474878687
0.0323472119864
0.0323449957274
0.0323368560314
0.032312285764
0.0322424967088
0.0320542015253
0.0315987181823
0.0308571882748
0.0348416012064
0.0348029123581
0.0308291925674
0.0315746613802
0.0320317516862
0.032220045059
0.032288681574
0.0323123639891
0.0323200253955
0.0323220655353
0.0323223553283
0.0323223474173
0.0323220375363
0.0323199732772
0.0323122982622
0.0322886237054
0.0322200069062
0.0320316846255
0.0315745911166
0.0308293278371
0.0348026849805
0.0346079471273
0.030724153629
0.0314910861806
0.0319585401969
0.0321513059864
0.0322199970353
0.0322425082302
0.0322493233286
0.0322509731643
0.0322511794809
0.0322511791013
0.0322509701218
0.0322493151456
0.0322425015815
0.0322200069198
0.032151291506
0.0319584646161
0.0314909804007
0.0307242072988
0.0346074648254
0.03393543636
0.0303939509936
0.0312459720615
0.0317506633759
0.0319584660457
0.0320316355499
0.0320541250892
0.0320598694667
0.0320608535897
0.0320608559297
0.032060869076
0.0320608914827
0.0320599259881
0.0320541913085
0.0320316932483
0.0319584783901
0.0317505956911
0.0312458468143
0.0303939418385
0.0339348440266
0.0320476730208
0.0295159977587
0.0306355932908
0.031245906484
0.0314909503711
0.0315744950356
0.0315985758914
0.0316038892068
0.0316044196416
0.0316042403862
0.0316042652891
0.0316044914638
0.0316039976811
0.0315987027374
0.0315746085743
0.0314910048998
0.0312458523079
0.030635435017
0.0295158907604
0.0320470955926
0.0276835166123
0.0276699608997
0.0295160368925
0.0303939215004
0.0307240577445
0.0308290838661
0.0308568700814
0.0308623066896
0.0308626673523
0.03086244959
0.0308624979371
0.030862806399
0.0308625140749
0.0308571089667
0.030829298733
0.0307241793737
0.0303938611388
0.0295157603526
0.0276695978539
0.0276829785349
0.0205323414695
0.0276834595705
0.0320473395805
0.0339347813822
0.0346070701529
0.034802031782
0.034840711924
0.0348387814255
0.0348315699501
0.0348275517887
0.034827821624
0.0348323505377
0.0348399416738
0.0348420657491
0.0348033505535
0.0346081333815
0.0339352941058
0.0320471644799
0.0276827971257
0.0205323252595
0.0206647243307
0.0287067991741
0.0339207829013
0.0363194631109
0.0372317284163
0.0375174635892
0.0375838379075
0.0375885606276
0.0375826317647
0.0375789220757
0.0375792215055
0.0375835095525
0.0375898992299
0.0375854661116
0.0375191462294
0.0372332609071
0.0363205716917
0.0339213214682
0.02870690375
0.0206648340039
0.0287066296514
0.0284807845007
0.0303827290468
0.0313230557555
0.0316933167423
0.0318184661079
0.0318550098062
0.0318639880294
0.0318656912688
0.0318659067047
0.0318659461133
0.0318658057481
0.0318641591694
0.0318552098693
0.0318186520117
0.0316934398356
0.0313230690716
0.0303826656361
0.0284808730619
0.0287069183864
0.0339208267521
0.0303825703409
0.0312410441835
0.0317483382625
0.0319579576894
0.0320329045681
0.0320569254066
0.0320637489647
0.0320653562238
0.0320656194629
0.032065629
0.0320653841502
0.0320637924173
0.0320569779806
0.0320329503027
0.0319579734097
0.0317483081901
0.0312410199545
0.0303827774078
0.0339210039231
0.0363198848499
0.0313229204885
0.0317483160181
0.0320614198324
0.0321900541139
0.0322361472744
0.0322520737047
0.0322574650667
0.0322591080779
0.0322594711114
0.0322594649414
0.0322590908491
0.0322574351082
0.0322520353139
0.0322361082005
0.0321900021961
0.0320613441856
0.0317482722291
0.0313231243723
0.036319827506
0.0372324019971
0.0316932288995
0.031957942969
0.0321900526184
0.0322802631524
0.0323110544011
0.0323223768155
0.032327116327
0.0323290156425
0.0323295514534
0.0323295355323
0.0323289684028
0.0323270375513
0.0323222754497
0.0323109435267
0.0322801495126
0.032189940286
0.0319578796552
0.0316934314933
0.0372322821692
0.0375181515751
0.0318183863815
0.0320328904353
0.0322361464722
0.032311061135
0.0323354530017
0.0323452050791
0.0323502805183
0.0323528642424
0.0323537161488
0.0323536964092
0.0323528074792
0.0323501797108
0.0323450711067
0.0323352912758
0.0323108894136
0.0322360033581
0.0320328285226
0.0318186391369
0.037518238091
0.0375843378784
0.0318549032389
0.0320569033494
0.0322520838907
0.0323224080599
0.0323452274546
0.0323552825309
0.0323615703346
0.0323653582381
0.0323666577342
0.0323666413348
0.0323653088512
0.0323614627226
0.0323551320638
0.0323450303649
0.032322174532
0.0322519011189
0.0320568585542
0.0318552392032
0.0375848024688
0.0375887428107
0.0318638383118
0.0320637148152
0.0322574978021
0.032327184176
0.0323503397485
0.032361612593
0.0323697556307
0.0323751276684
0.0323768168044
0.0323768165533
0.0323751096301
0.0323696522775
0.0323614451236
0.0323501122108
0.0323268988019
0.0322572755385
0.0320636890736
0.0318642604063
0.0375896521359
0.0375824431585
0.031865493228
0.032065311284
0.032259161979
0.0323291199915
0.0323529684222
0.0323654547683
0.0323751871134
0.0323817953745
0.0323835065528
0.0323835280865
0.0323818214482
0.0323750925472
0.0323652662945
0.0323527059171
0.0323287947081
0.0322589122708
0.0320652971886
0.031865979099
0.0375837265212
0.0375783123019
0.0318656523901
0.0320655642855
0.0322595387404
0.032329683987
0.0323538550645
0.0323667864414
0.0323768953944
0.0323835033288
0.0323849151038
0.0323849399912
0.0323835303054
0.0323767734918
0.0323665604012
0.0323535553838
0.03232933102
0.0322592733677
0.0320655531264
0.0318661725463
0.0375798164028
0.03757830979
0.0318656553371
0.0320655652053
0.0322595380705
0.0323296804981
0.0323538486165
0.0323667854535
0.0323769038274
0.0323835235243
0.0323849374138
0.0323849551196
0.032383536293
0.0323767675309
0.0323665504575
0.0323535455523
0.0323293262387
0.0322592709609
0.0320655500814
0.0318661658051
0.0375797742023
0.0375824308281
0.0318655026716
0.0320653140705
0.0322591613953
0.0323291152334
0.0323529614216
0.0323654580481
0.0323752060716
0.032381837906
0.0323835604754
0.0323835705433
0.0323818419116
0.0323750878209
0.0323652525177
0.0323526899838
0.0323287860042
0.0322589069063
0.0320652891543
0.0318659620514
0.0375836075871
0.0375887271975
0.0318638530405
0.0320637182408
0.0322574968153
0.032327179524
0.0323503344747
0.0323616135351
0.0323697688263
0.0323751576122
0.0323768547119
0.0323768573033
0.0323751327672
0.032369654031
0.0323614346491
0.0323500979164
0.0323268885343
0.032257266475
0.0320636758948
0.0318642361695
0.0375894667637
0.0375843159988
0.0318549173264
0.0320569030661
0.0322520767449
0.0323223967197
0.0323452166464
0.0323552741512
0.0323615683149
0.0323653625255
0.0323666611496
0.0323666511314
0.0323653114111
0.0323614535547
0.0323551152794
0.032345011207
0.032322155712
0.0322518822912
0.0320568370766
0.031855210594
0.0375845889509
0.0375181418056
0.0318183981231
0.0320328784744
0.0322361188586
0.0323110245932
0.0323354145852
0.0323451669216
0.0323502407694
0.0323528220537
0.0323536706698
0.0323536537839
0.0323527612578
0.0323501328477
0.0323450248714
0.0323352449215
0.0323108438718
0.0322359608594
0.032032788846
0.0318185953636
0.037517954083
0.0372324668178
0.0316932414463
0.031957908059
0.0321899871848
0.0322801808786
0.032310965109
0.0323222856167
0.0323270224207
0.0323289185774
0.0323294524546
0.032329437338
0.0323288684196
0.0323269380731
0.0323221772337
0.0323108464133
0.0322800562573
0.0321898559964
0.0319578061508
0.0316933601884
0.0372319547006
0.0363199939987
0.0313229265082
0.0317482499786
0.0320613088292
0.0321899186726
0.0322360007951
0.0322519231248
0.0322573123212
0.0322589532014
0.0322593146618
0.0322593080899
0.0322589330084
0.0322572770332
0.0322518773619
0.032235951062
0.0321898501702
0.0320612035783
0.031748143167
0.0313229919983
0.036319383225
0.0339209557059
0.0303825706037
0.0312409580212
0.0317482039087
0.0319577984215
0.0320327336397
0.0320567487218
0.0320635690835
0.0320651743911
0.0320654356808
0.0320654438401
0.0320651975975
0.0320636043549
0.0320567886992
0.0320327590766
0.0319577807134
0.0317481135501
0.0312408126744
0.0303825325745
0.0339204142976
0.0287067312191
0.028480773992
0.0303826492287
0.0313229508836
0.031693202837
0.0318183497913
0.0318548868794
0.0318638623721
0.0318655677341
0.0318657812074
0.031865817789
0.03186567276
0.0318640188616
0.0318550669523
0.0318184954896
0.0316932529918
0.0313228336406
0.0303823461771
0.0284804346155
0.0287062601132
0.0206646714087
0.0287066385248
0.0339205786065
0.036319210212
0.0372314163039
0.0375171008432
0.0375833948047
0.0375880630397
0.0375821230167
0.0375783913202
0.0375786841591
0.0375829671681
0.0375893386416
0.037584935807
0.037518591942
0.0372326195341
0.0363198106511
0.0339204328697
0.0287059930618
0.0206647526017
0.0207064797208
0.0290495428619
0.034612963498
0.0372543650377
0.0382955613998
0.0386375522364
0.0387256382272
0.038738788896
0.0387363986017
0.0387342032599
0.038734551894
0.0387374191837
0.0387403463001
0.0387275802107
0.0386395395252
0.0382973205327
0.0372556177822
0.0346136071155
0.0290497274595
0.0207066208528
0.0290493619418
0.0287647801288
0.0307110201123
0.0316889389293
0.0320822111696
0.0322189328151
0.0322605658654
0.0322715878611
0.0322739955594
0.0322743924161
0.0322744271762
0.0322740980477
0.0322717432504
0.0322607522297
0.0322190967076
0.0320822964015
0.0316889071156
0.0307109245042
0.0287648689118
0.0290497717359
0.0346129686463
0.0307108327238
0.0314865015609
0.0319568177504
0.0321514517809
0.0322219151336
0.0322455265791
0.0322529317903
0.0322550151822
0.032255470265
0.0322554700903
0.0322550138559
0.0322529242198
0.0322455127148
0.0322218977199
0.0321514158486
0.0319567481481
0.031486462839
0.0307110705322
0.0346133087702
0.0372547447147
0.0316887603812
0.0319567787119
0.032189865954
0.0322803441027
0.0323111869263
0.0323225222875
0.0323272962706
0.0323292967635
0.0323299159296
0.0323298999616
0.0323292490023
0.0323272158037
0.0323224161889
0.0323110600435
0.0322802096997
0.0321897465956
0.0319567258169
0.0316890140479
0.0372549198414
0.038296200871
0.0320820706933
0.0321514096306
0.0322803314672
0.0323189684881
0.0323277227997
0.0323318321223
0.0323355875725
0.032338318502
0.0323394319894
0.0323394142901
0.0323382656909
0.0323355045752
0.0323317366236
0.0323276009905
0.0323187922984
0.0322801493052
0.0321513387907
0.0320823475403
0.0382964081261
0.0386380859774
0.0322187754528
0.0322218665868
0.0323111718744
0.0323276971214
0.0323267088423
0.0323287050954
0.032334158362
0.0323393213543
0.0323414936436
0.0323414903148
0.0323393043085
0.032334111766
0.0323286838398
0.0323266920564
0.0323275714571
0.0323109497852
0.0322217913487
0.032219155785
0.0386387601665
0.0387258009338
0.0322603556259
0.0322454736102
0.0323225181645
0.0323317707567
0.0323286479558
0.0323328815199
0.0323433148109
0.0323532586966
0.0323569263815
0.0323569642042
0.0323533325701
0.032343316989
0.032332922138
0.0323287412633
0.0323317254594
0.032322272984
0.0322453987535
0.0322608869728
0.0387272468542
0.0387384059537
0.0322713154673
0.0322528854785
0.0323273193903
0.0323355252185
0.0323340999735
0.0323433398094
0.032361404401
0.0323782379717
0.0323830493661
0.0323831801585
0.0323785267475
0.0323615043384
0.0323434042179
0.0323342364813
0.0323355151139
0.0323270459806
0.0322528077706
0.032271985056
0.0387406807895
0.0387355031054
0.0322736700316
0.0322549776836
0.0323293551412
0.0323382956949
0.032339320006
0.0323533786908
0.0323783461194
0.0324014066
0.0324059212345
0.0324061751766
0.0324020144328
0.0323786018318
0.0323534608201
0.0323394409839
0.0323382600794
0.0323290493028
0.0322548954524
0.0322744274214
0.0387383703665
0.0387327463903
0.0322740157806
0.0322554363313
0.0323300027441
0.0323394469939
0.0323415183431
0.0323570179616
0.0323829987012
0.0324056024189
0.0324086526961
0.0324089374255
0.0324063409928
0.0323833091538
0.0323570818515
0.0323415958553
0.0323393723141
0.0323296717556
0.0322553486138
0.0322748125429
0.0387359508702
0.0387327418297
0.0322740199264
0.0322554365039
0.0323300006436
0.0323394424967
0.0323415141512
0.0323570213888
0.0323830065814
0.0324056185724
0.032408662755
0.0324089341489
0.0324063365019
0.0323832878653
0.0323570612805
0.0323415786783
0.0323393636517
0.0323296683231
0.0322553461733
0.0322748091261
0.0387359075865
0.0387354946651
0.032273685507
0.0322549785225
0.0323293513717
0.0323382908406
0.0323393182658
0.032353389205
0.0323783710154
0.0324014624984
0.0324059987519
0.0324062317714
0.0324020505557
0.0323785816794