/*--------------------------------*- C++ -*----------------------------------*\
| =========                 |                                                 |
| \\      /  F ield         | OpenFOAM: The Open Source CFD Toolbox           |
|  \\    /   O peration     | Version:  3.0.1                                 |
|   \\  /    A nd           | Web:      www.OpenFOAM.org                      |
|    \\/     M anipulation  |                                                 |
\*---------------------------------------------------------------------------*/
FoamFile
{
    version     2.0;
    format      ascii;
    class       volScalarField;
    location    "4.5";
    object      ddt0(k);
}
// * * * * * * * * * * * * * * * * * * * * * * * * * * * * * * * * * * * * * //

dimensions      [0 2 -3 0 0 0 0];

internalField   nonuniform List<scalar> 
7968
(
-0.00026845053608
-0.000288644510548
-0.000303756232027
-0.000312592027654
-0.000317373299745
-0.000319864294689
-0.000321084089071
-0.000321853229977
-0.00032241078361
-0.000322846506888
-0.000322984858309
-0.000322685650593
-0.000322193600364
-0.000321458705255
-0.000320246137472
-0.000317741658946
-0.000312916536226
-0.000304005903629
-0.000288800989965
-0.000268500925825
-0.000288634730194
-0.000387965124007
-0.000454594480945
-0.000494996698297
-0.000519042540908
-0.000532631502647
-0.000539669238413
-0.000543345431498
-0.00054534698831
-0.000546362070389
-0.0005465081949
-0.000545726190005
-0.000543901188346
-0.000540351279406
-0.000533402078025
-0.00051988306439
-0.00049583210869
-0.000455324917716
-0.000388460893533
-0.000288814423709
-0.00030375442169
-0.000454641167699
-0.000555782858144
-0.000617658861287
-0.000654810202053
-0.000675874873311
-0.000686838888661
-0.000692330863345
-0.000695126906603
-0.00069646982531
-0.00069662180044
-0.000695521397417
-0.000692922267827
-0.000687578164675
-0.000676742693691
-0.000655774659578
-0.000618661959353
-0.000556690855262
-0.000455271848866
-0.000304021244102
-0.000312589915471
-0.000495064161716
-0.000617661196269
-0.000692382427479
-0.000736466308524
-0.000760382748343
-0.000772128475678
-0.000777462504895
-0.000779519962672
-0.000780657716513
-0.000780811391177
-0.000779893495689
-0.000778038194428
-0.000772838377774
-0.000761235572866
-0.000737442748975
-0.000693431590208
-0.000618648961928
-0.000495775063183
-0.000312926224591
-0.000317368435359
-0.00051905657502
-0.000654764418939
-0.000736400216595
-0.000782762670417
-0.000806061542119
-0.000817487215957
-0.000824734139111
-0.000828175084707
-0.000829684348673
-0.000829877280464
-0.000828645230946
-0.000825389437988
-0.00081823500563
-0.0008069071857
-0.000783743606498
-0.000737485468499
-0.000655808737354
-0.000519835335534
-0.000317764583338
-0.000319846587123
-0.000532603055253
-0.000675751314389
-0.000760237349085
-0.000805982808981
-0.000832323595683
-0.000847179035403
-0.000854161119686
-0.000857344249017
-0.000858817063117
-0.000859053490755
-0.000857903937392
-0.000854885700339
-0.000847967845846
-0.000833155765179
-0.000806976575582
-0.00076136369581
-0.000676853908923
-0.000533452301656
-0.000320293985917
-0.000321048853408
-0.000539559397216
-0.000686599281548
-0.000771856205087
-0.000817413717981
-0.000847124979217
-0.000861766911209
-0.00086793934463
-0.000870628515912
-0.000871996740798
-0.000872292058346
-0.000871309547857
-0.000868780075322
-0.000862647477876
-0.000848018048895
-0.000818302310122
-0.000773058573843
-0.000687780648864
-0.000540461568134
-0.000321527628413
-0.000321793882594
-0.000543126006815
-0.000691943738793
-0.000777026477278
-0.00082456362066
-0.000854014620037
-0.000867841143432
-0.000873217649407
-0.000875477770115
-0.000876709736002
-0.000877074455953
-0.000876305836768
-0.000874223402577
-0.000868855573876
-0.000855010485705
-0.000825520259899
-0.000778340334701
-0.000693220277304
-0.000544095753287
-0.000322290897598
-0.00032231538137
-0.000544994969426
-0.000694555845844
-0.000778858414394
-0.000827828156966
-0.0008570290697
-0.000870338862398
-0.000875249601071
-0.0008771140296
-0.000878391422063
-0.000878846514047
-0.000878136756019
-0.000876433455773
-0.000871497186614
-0.000858133837461
-0.000828879968088
-0.000780291587018
-0.000695934873159
-0.000546028304231
-0.000322823902224
-0.000322685430727
-0.000545873504993
-0.000695730171803
-0.000779829341823
-0.000829147948701
-0.000858267420727
-0.00087140793701
-0.00087609761025
-0.000877928057249
-0.000879384089995
-0.00087992425451
-0.000879102271555
-0.000877424524589
-0.000872667360427
-0.00085944724706
-0.000830259330589
-0.000781321688924
-0.000697173092904
-0.000546948249368
-0.000323206660953
-0.000322716413609
-0.000545897447109
-0.000695739063934
-0.000779815511461
-0.000829142789933
-0.000858252254769
-0.000871378949739
-0.000876052069783
-0.000877867028197
-0.000879312398655
-0.000879852967707
-0.000879039320919
-0.000877376623917
-0.000872637533179
-0.000859432492902
-0.000830253983992
-0.000781305356219
-0.000697180254109
-0.000546973594287
-0.00032324285367
-0.000322375711586
-0.000545054682647
-0.000694577849985
-0.000778817297943
-0.000827814124623
-0.000856989210507
-0.000870263659867
-0.00087513341209
-0.000876960645886
-0.000878218684627
-0.000878670762365
-0.000877975334322
-0.000876310292847
-0.00087141678619
-0.000858090208364
-0.000828859538882
-0.000780233878788
-0.000695944452895
-0.000546083798312
-0.000322890666162
-0.00032187389246
-0.000543221292022
-0.00069199304113
-0.000776988335797
-0.000824567367215
-0.000853980744395
-0.000867762485267
-0.00087309325172
-0.000875310424484
-0.000876525481996
-0.000876889043104
-0.000876135812272
-0.000874094972347
-0.000868768553599
-0.000854965908731
-0.000825509092818
-0.000778270099048
-0.00069324159176
-0.000544175931711
-0.000322376145142
-0.00032114088467
-0.000539692040839
-0.00068669054774
-0.000771852354838
-0.000817447957327
-0.000847120580617
-0.000861712759669
-0.000867842376228
-0.000870497219453
-0.000871851173371
-0.00087214870882
-0.000871182177423
-0.000868683531507
-0.000862584069511
-0.000847995569932
-0.000818308922132
-0.000772999697863
-0.000687828206333
-0.000540569280719
-0.000321623254721
-0.000319941039207
-0.000532777399879
-0.000675899936194
-0.000760295763893
-0.000805964385397
-0.000832360959999
-0.000847169289126
-0.000854108400208
-0.000857253875188
-0.000858714478924
-0.000858953048087
-0.000857817441687
-0.000854831937069
-0.00084794513086
-0.000833163991533
-0.000806893000757
-0.000761356626546
-0.000676954413874
-0.000533591246861
-0.000320390869032
-0.000317458665177
-0.000519261071691
-0.000654973094907
-0.000736536929924
-0.000782807493074
-0.000806063453659
-0.000817534790664
-0.000824737922911
-0.000828117269969
-0.000829625195653
-0.000829819983459
-0.00082859234298
-0.000825389071898
-0.000818261709915
-0.000806843851412
-0.000783720086045
-0.000737563434377
-0.000655978478659
-0.000520022276143
-0.00031785908812
-0.000312669260388
-0.000495283889317
-0.000617914708465
-0.000692592590849
-0.000736596569645
-0.00076044739005
-0.000772135422017
-0.000777419248396
-0.000779384590013
-0.000780541486077
-0.000780696551636
-0.000779766500363
-0.000777982488844
-0.000772807230207
-0.000761249749359
-0.00073752596374
-0.000693605230872
-0.000618879104379
-0.000495986643712
-0.000313007292076
-0.000303813071717
-0.000454850212165
-0.000556043292009
-0.000617908634914
-0.000655014738966
-0.000676027740492
-0.000686941302096
-0.000692393319036
-0.000695150214522
-0.000696488543479
-0.000696639757271
-0.000695539417091
-0.000692970485221
-0.000687653086756
-0.000676862786526
-0.000655952946332
-0.000618890346363
-0.000556943809702
-0.000455482298061
-0.000304081857567
-0.000288673291633
-0.000388115993865
-0.000454792637705
-0.000495205846915
-0.00051924577253
-0.000532811545071
-0.000539822132902
-0.000543477275307
-0.000545466694226
-0.000546479485037
-0.000546627455582
-0.000545845971929
-0.00054402958446
-0.000540494606973
-0.000533570954876
-0.000520069094328
-0.000496034692114
-0.000455524118967
-0.000388610017996
-0.000288850172289
-0.000268459339595
-0.000288684779753
-0.000303819950913
-0.000312672767433
-0.00031746918111
-0.000319973060325
-0.000321198831995
-0.000321972795219
-0.000322535564971
-0.000322975668576
-0.000323119697461
-0.000322819580826
-0.000322324219369
-0.000321583457024
-0.000320364655851
-0.000317847087306
-0.000313005240453
-0.000304077082037
-0.000288845390054
-0.000268508804112
-0.000287629983196
-0.000385339692174
-0.00045042653702
-0.000489087416387
-0.000511413240112
-0.000523580014141
-0.000529573815798
-0.000532295607154
-0.000533477632325
-0.000533992579058
-0.000534123219265
-0.000533815077272
-0.000532774242983
-0.000530131991599
-0.000524165979524
-0.000511981951589
-0.000489583392941
-0.00045079512036
-0.000385546353651
-0.000287726673702
-0.000385275955345
-0.000769137400613
-0.000951924212026
-0.00105986515253
-0.00112378579649
-0.00115955071414
-0.00117761856919
-0.0011857964886
-0.00118910386684
-0.00119031107534
-0.00119049781194
-0.00118959538592
-0.00118651733663
-0.00117849359887
-0.00116052978502
-0.00112484717141
-0.00106091752446
-0.000952822532711
-0.00076967012932
-0.00038561582151
-0.000450376142148
-0.000952036853062
-0.00119208963801
-0.00133762988668
-0.00142662064328
-0.00147850527785
-0.00150646329815
-0.00152016697776
-0.00152616567111
-0.00152865434176
-0.00152887541849
-0.00152674895752
-0.00152101787105
-0.00150747529356
-0.00147962846774
-0.00142781416317
-0.00133881993449
-0.00119312746191
-0.000952689864127
-0.000450858391513
-0.000489057362401
-0.00106001830326
-0.00133767185209
-0.00150814720215
-0.00161326325351
-0.00167462937323
-0.00170799347725
-0.001723851707
-0.00172832548411
-0.00173107957153
-0.00173133824317
-0.00172900224557
-0.00172481640835
-0.0017090855191
-0.00167580401043
-0.00161447132015
-0.00150934318607
-0.00133873089585
-0.00106071127734
-0.000489628943655
-0.000511391030422
-0.00112391452642
-0.00142663425219
-0.00161323764844
-0.00172743217691
-0.0017916839238
-0.00182826785617
-0.00184506007696
-0.00185231001613
-0.0018554567247
-0.00185578108622
-0.00185313832148
-0.00184621930801
-0.00182957613531
-0.00179299434198
-0.00172868026027
-0.00161443045968
-0.00142769277118
-0.00112462753006
-0.000512025638828
-0.000523545702414
-0.00115960832442
-0.00147843996371
-0.00167452870118
-0.0017916244
-0.00185962395833
-0.00189382032982
-0.00190968435383
-0.00191701080742
-0.00192029732079
-0.00192073062124
-0.00191809477471
-0.0019111260173
-0.00189542020345
-0.00186124537269
-0.00179297828192
-0.00167576264058
-0.00147952261947
-0.00116034797372
-0.000524228893363
-0.000529506984307
-0.00117756464862
-0.00150626076311
-0.00170772787538
-0.00182793676334
-0.00189355089092
-0.00192594433439
-0.00194079477693
-0.00194786493766
-0.00195123858714
-0.00195179286753
-0.0019492449647
-0.00194259254076
-0.00192789476167
-0.00189558234294
-0.00182970442692
-0.00170909859197
-0.00150741804862
-0.00117836688458
-0.000530228553923
-0.000532172771382
-0.00118558717287
-0.00151977140594
-0.00172336906524
-0.00184442304423
-0.00190909155638
-0.00194044647636
-0.00195468621165
-0.00196176080626
-0.00196495772251
-0.00196560727532
-0.00196337330175
-0.0019568777683
-0.0019427981735
-0.00191148995771
-0.0018465089353
-0.00172491420391
-0.00152104307951
-0.00118647549947
-0.000532927296687
-0.000533271906423
-0.00118870069084
-0.00152552437538
-0.00172766627785
-0.0018512796016
-0.00191596739037
-0.00194699353564
-0.00196114418643
-0.00196742331241
-0.00197092605119
-0.0019717114506
-0.00196939497218
-0.00196367524055
-0.00194970002034
-0.00191868480546
-0.00185362091369
-0.00172919735492
-0.00152691195836
-0.00118968434882
-0.000534055652682
-0.000533685839463
-0.00118971351768
-0.00152776819775
-0.00173015025036
-0.00185401508148
-0.00191870037386
-0.00194967524082
-0.00196349522779
-0.00196996559325
-0.00197397821739
-0.00197486490623
-0.00197218943845
-0.00196632924131
-0.00195260226001
-0.00192162215694
-0.00185650549257
-0.00173174335812
-0.00152923017252
-0.00119075864673
-0.000534490779005
-0.000533714626928
-0.0011897303783
-0.00152777331369
-0.00173014136828
-0.00185396200409
-0.00191860974686
-0.00194955253434
-0.00196333875361
-0.00196978343656
-0.00197377914783
-0.00197466244011
-0.00197199924179
-0.0019661633515
-0.00195247258047
-0.00192152836427
-0.00185644476652
-0.00173172510051
-0.00152922619897
-0.00119077018184
-0.000534522930488
-0.000533346769995
-0.00118874569598
-0.00152553726916
-0.00172763593229
-0.00185113142045
-0.00191572290126
-0.00194666096907
-0.00196072152003
-0.00196692784644
-0.0019703924534
-0.00197117202534
-0.00196887944902
-0.00196323257282
-0.00194934700142
-0.00191842214181
-0.00185344481858
-0.00172913399053
-0.00152689174268
-0.00118970652136
-0.0005341333481
-0.0005322857744
-0.00118566961765
-0.001519807672
-0.00172330877839
-0.00184422838897
-0.00190877056238
-0.00194000842253
-0.00195413823901
-0.00196110102291
-0.00196425316307
-0.00196489753301
-0.00196270176134
-0.00195631326622
-0.0019423294126
-0.00191113005402
-0.00184626081048
-0.00172479193871
-0.00152101832271
-0.001186513211
-0.000533037734703
-0.00052964918488
-0.00117769679621
-0.00150634557051
-0.0017076919351
-0.00182776203863
-0.00189322505477
-0.00192548444572
-0.00194022082994
-0.001947195752
-0.00195052542418
-0.00195108106494
-0.0019485745933
-0.00194200701763
-0.00192740068402
-0.00189519734085
-0.00182944648976
-0.0017089665577
-0.0015074127241
-0.00117843246619
-0.000530362457397
-0.000523708082714
-0.00115980204624
-0.00147860179632
-0.00167457576971
-0.00179157490681
-0.0018593656854
-0.00189340122676
-0.00190914732182
-0.00191637148596
-0.00191961324446
-0.00192004730601
-0.0019174526259
-0.00191056655392
-0.00189495034218
-0.00186090681308
-0.0017928389999
-0.00167569311518
-0.00147957732404
-0.00116046211878
-0.000524380592074
-0.000511564476645
-0.00112418237275
-0.00142688167549
-0.00161337015711
-0.00172743226522
-0.00179156994535
-0.00182795101516
-0.00184461595338
-0.00185175319646
-0.00185486994043
-0.00185519374846
-0.00185257546759
-0.00184574181165
-0.00182919202316
-0.00179279737909
-0.00172855822837
-0.00161443956625
-0.0014278327389
-0.00112481562636
-0.000512189588452
-0.000489224683513
-0.00106033028405
-0.0013379875367
-0.00150836178279
-0.00161333939494
-0.00167456491343
-0.00170778272736
-0.00172354862629
-0.00172794137152
-0.00173068599809
-0.00173094619979
-0.00172861865561
-0.00172448659454
-0.00170880478975
-0.00167564121916
-0.0016144334386
-0.00150944765671
-0.00133895119756
-0.0010609503047
-0.000489786910367
-0.000450516441656
-0.000952345920403
-0.0011924276807
-0.00133789903378
-0.00142677462234
-0.00147853347135
-0.00150637337883
-0.00151998925716
-0.00152591739642
-0.00152839154915
-0.00152860951255
-0.00152648798597
-0.00152080318903
-0.00150732045441
-0.00147957128455
-0.00142787465176
-0.00133899999988
-0.00119338975576
-0.00095293676311
-0.000450990316364
-0.000385369026332
-0.000769370955172
-0.000952204239202
-0.00106011467555
-0.0011239653942
-0.00115964626054
-0.00117763627174
-0.00118575459812
-0.00118902308432
-0.00119021949432
-0.00119040354996
-0.00118950306541
-0.00118644856315
-0.00117846490114
-0.00116056472569
-0.00112496090025
-0.00106110319837
-0.000953044149602
-0.000769845615387
-0.000385696968422
-0.000287652388351
-0.000385435730776
-0.000450573623121
-0.000489260805679
-0.000511596605904
-0.000523762791195
-0.000529749083081
-0.000532465668188
-0.000533647816659
-0.000534167661099
-0.000534301866045
-0.00053399230892
-0.00053295123946
-0.000530309976007
-0.000524348294868
-0.000512163992536
-0.00048975463666
-0.000450939040499
-0.000385637970516
-0.000287751773187
-0.00030088626037
-0.000445938071977
-0.000542581550829
-0.00060098018855
-0.00063559102178
-0.000655040349101
-0.000664946853595
-0.000669382971697
-0.000671042095253
-0.000671538123424
-0.000671663459614
-0.000671383861458
-0.000669890459976
-0.000665560205915
-0.000655697950288
-0.000636233625919
-0.000601540432376
-0.000542994700202
-0.000446170061414
-0.000301019881997
-0.000445826478819
-0.00094121936803
-0.00117795544828
-0.00132058621829
-0.00140707635134
-0.00145696668996
-0.00148333259129
-0.00149582674042
-0.00150108729025
-0.00150292850144
-0.00150313792964
-0.00150164727919
-0.00149663329654
-0.00148428535441
-0.00145799930309
-0.00140815836626
-0.00132164668833
-0.00117886965929
-0.000941755730916
-0.000446296761017
-0.000542475625507
-0.00117809540278
-0.00148022804491
-0.0016664490079
-0.0017831401095
-0.00185330953651
-0.00189251824112
-0.00191256269223
-0.00192246622606
-0.0019264112179
-0.00192669508534
-0.00192322756216
-0.00191363836018
-0.00189373481461
-0.00185457049106
-0.00178437843107
-0.00166760436314
-0.00148119566946
-0.00117867868904
-0.000543123941358
-0.000600899109234
-0.00132077586208
-0.00166649986588
-0.00188204494239
-0.00201879504306
-0.00210180920568
-0.00214831785583
-0.00217081152409
-0.0021847856506
-0.00219006819016
-0.00219043681667
-0.00218578449914
-0.00217222543927
-0.00214984871705
-0.00210331185995
-0.00202017205286
-0.00188324791647
-0.00166745814672
-0.00132133185547
-0.000601646572891
-0.000635514458228
-0.00140723105858
-0.00178315072937
-0.00201875982702
-0.00216827925935
-0.002258307947
-0.00230761612074
-0.00233403429588
-0.00234818028299
-0.00235365162332
-0.00235413714754
-0.00234951278393
-0.00233789206133
-0.00231217408157
-0.00226032036136
-0.00216993330214
-0.00202008428532
-0.00178415297498
-0.00140779166295
-0.000636333980947
-0.000654938579198
-0.00145701686135
-0.00185320094248
-0.00210165323298
-0.00225813987222
-0.00234815230587
-0.00239692360018
-0.00242756587349
-0.00244431620836
-0.00244987883109
-0.00245055527656
-0.00244625051846
-0.00243769182414
-0.00241429119656
-0.00235800870474
-0.00226034108328
-0.0021032038768
-0.00185432710337
-0.0014576348804
-0.000655818673187
-0.000664790659539
-0.00148321675029
-0.00189220924217
-0.00214792186252
-0.0023070603451
-0.0023911396003
-0.00243981988468
-0.00247476103411
-0.00249410766645
-0.00249978283551
-0.00250065955581
-0.0024967094334
-0.00249168765204
-0.00247431022516
-0.00241862316559
-0.0023124119074
-0.00214981466359
-0.00189353235376
-0.00148395826841
-0.000665723782403
-0.000669146354165
-0.00149549387144
-0.00191198473475
-0.00217010244379
-0.00233012086384
-0.00240988947587
-0.00245909832971
-0.00249579829023
-0.00251633715715
-0.00252209919943
-0.00252311011958
-0.00251936816155
-0.00251659308998
-0.00250349565714
-0.00245102676509
-0.00234060729039
-0.00217236323789
-0.00191353887235
-0.00149638228635
-0.000670118519918
-0.000670705089758
-0.00150049422136
-0.00192152952341
-0.00218350348931
-0.00234133904493
-0.00241969885087
-0.00246862494045
-0.00250540561344
-0.0025260866134
-0.00253192530559
-0.002533050062
-0.00252948293252
-0.00252757956626
-0.0025158836154
-0.00246481981039
-0.00235437018443
-0.00218627181674
-0.00192332525469
-0.00150152916692
-0.000671701290282
-0.000671092600676
-0.00150207225776
-0.00192510278848
-0.00218826954285
-0.00234612092538
-0.00242429056532
-0.00247319085643
-0.00250983568153
-0.00253051744519
-0.00253647035477
-0.00253765090105
-0.00253413860929
-0.00253230619774
-0.0025206629921
-0.00246981297494
-0.00235946479286
-0.00219127383593
-0.0019270467949
-0.00150320237405
-0.00067210289374
-0.000671116225523
-0.00150207032537
-0.00192508948176
-0.00218823341581
-0.00234605171608
-0.0024241887942
-0.00247308814571
-0.00250971968938
-0.00253038792933
-0.00253632728833
-0.00253749477857
-0.00253399887148
-0.00253217621167
-0.00252053898457
-0.00246970794936
-0.00235938679879
-0.0021912270171
-0.00192702374387
-0.00150319456336
-0.00067213073955
-0.000670773931103
-0.00150049183522
-0.00192149368251
-0.00218340461051
-0.00234114810328
-0.00241942775116
-0.00246832120505
-0.00250504761179
-0.00252566737025
-0.00253146176571
-0.0025325947223
-0.00252905877512
-0.0025272048872
-0.00251552231867
-0.00246451064155
-0.0023541401953
-0.00218613387863
-0.00192325134086
-0.00150149774558
-0.000671772763884
-0.000669258130386
-0.00149550710652
-0.00191194748149
-0.00216998270946
-0.00232956332958
-0.00240846097373
-0.00245678861494
-0.00249295499759
-0.00251327390105
-0.00251897926756
-0.00251998907351
-0.00251630697217
-0.00251371606756
-0.00250106753197
-0.00244949260043
-0.00233997668171
-0.00217217042126
-0.00191342458946
-0.00149633380004
-0.000670224365808
-0.000664938322537
-0.00148326524928
-0.00189218991462
-0.00214777042748
-0.00230638840695
-0.00238861734173
-0.00243492182699
-0.00246847659362
-0.00248737256288
-0.00249299177704
-0.00249386715237
-0.00248996699777
-0.0024853402719
-0.00246927673596
-0.00241599533024
-0.00231163652376
-0.00214954409478
-0.00189339350427
-0.001483910727
-0.000665855845429
-0.000655114266744
-0.00145712232541
-0.00185323609995
-0.00210154111934
-0.00225785052099
-0.00234664985214
-0.00239287228665
-0.00242155388423
-0.00243769271864
-0.00244318350255
-0.00244385907113
-0.0024396232776
-0.00243161947154
-0.00241014906498
-0.00235640025811
-0.00225991431363
-0.00210293616477
-0.00185421290109
-0.00145762123203
-0.000655973157262
-0.000635709257768
-0.00140741638695
-0.00178325960704
-0.00201871226917
-0.00216805739727
-0.00225787887237
-0.00230663516213
-0.00233227642706
-0.00234602696853
-0.0023514322176
-0.00235190904903
-0.00234733019189
-0.00233607524791
-0.00231110384945
-0.00225976402986
-0.00216954205685
-0.0020198646374
-0.0017841027192
-0.00140785041033
-0.000636506643425
-0.000601095789165
-0.00132102668984
-0.00166668103692
-0.00188206618343
-0.00201862968742
-0.00210145104307
-0.00214778068356
-0.00217017426495
-0.00218404519308
-0.0021892639078
-0.00218962042628
-0.00218500588611
-0.00217152923739
-0.00214922391079
-0.00210281975434
-0.00201984457497
-0.00188310415333
-0.0016674872704
-0.00132146219127
-0.000601821514784
-0.000542652753274
-0.00117837992989
-0.00148046049342
-0.00166653684488
-0.00178304920958
-0.00185303702396
-0.00189208645042
-0.0019120340904
-0.00192187335365
-0.0019257748983
-0.00192604838442
-0.00192260061642
-0.00191305223811
-0.00189321253371
-0.00185417273005
-0.00178414357511
-0.00166754631669
-0.00148129564088
-0.00117885539825
-0.000543281120267
-0.000445954511405
-0.000941461388558
-0.00117818205969
-0.00132070654916
-0.00140705866519
-0.00145680560677
-0.00148304800812
-0.00149545913221
-0.00150067283775
-0.00150248477995
-0.00150268779596
-0.0015012091889
-0.00149622133362
-0.00148392593907
-0.00145773725184
-0.00140802777714
-0.0013216535116
-0.00117899147538
-0.000941905344564
-0.000446404887069
-0.000300916413703
-0.000446079935333
-0.000542775325237
-0.000601188932724
-0.000635794560463
-0.000655226889559
-0.000665112143615
-0.000669534461371
-0.000671190761924
-0.000671686665343
-0.000671815269774
-0.000671538452666
-0.000670046641053
-0.000665722210758
-0.000655874006967
-0.000636423430075
-0.00060173412379
-0.000543173156871
-0.000446294800698
-0.000301059055208
-0.000306600294337
-0.000477168748114
-0.000591824041934
-0.000662200630612
-0.000704567486645
-0.000728693853751
-0.000741053716483
-0.000746408567704
-0.00074805718112
-0.000748284340305
-0.000748370353757
-0.000748307607135
-0.000746803440094
-0.000741554538984
-0.000729243041424
-0.000705102547051
-0.000662658495473
-0.000592152996406
-0.000477362757151
-0.000306772248979
-0.000476993538958
-0.00103421854242
-0.00130388295495
-0.00146898905637
-0.0015708887878
-0.00163089063424
-0.00166342686126
-0.00167928627339
-0.00168581995929
-0.00168790564805
-0.00168808496971
-0.00168630801915
-0.00167998761476
-0.00166421590242
-0.00163166079737
-0.00157160763943
-0.0014696554269
-0.00130447005917
-0.0010345278283
-0.000477590650061
-0.000591641069864
-0.0013040416562
-0.0016450627057
-0.00185879658263
-0.00199537075358
-0.00207938951569
-0.00212747409533
-0.00215330055852
-0.00216558828864
-0.00217038426791
-0.0021707172905
-0.00216649852269
-0.00215459355839
-0.00212890255079
-0.00208071751696
-0.00199648796362
-0.00185966498226
-0.00164564806718
-0.00130421259138
-0.000592398516186
-0.00066203377779
-0.00146918574412
-0.00185882825451
-0.00210547925559
-0.00226519085144
-0.0023623875647
-0.00241625269854
-0.00245275303219
-0.00247129542546
-0.00247777865864
-0.00247835890926
-0.00247293737177
-0.00245990603043
-0.00242891315145
-0.00236910659065
-0.00226685554439
-0.00210665596573
-0.00185948835165
-0.00146924505659
-0.000662883055105
-0.000704384720683
-0.0015709954321
-0.00199530179875
-0.00226509948363
-0.0024350810312
-0.00253356886369
-0.00259400556147
-0.00264022711376
-0.00266664796643
-0.00267394514662
-0.00267493671253
-0.00266960177004
-0.0026629749949
-0.00263986178523
-0.00257129596988
-0.0024486414094
-0.00226677026984
-0.0019962268341
-0.00157113161848
-0.000705328630687
-0.000728454354047
-0.00163079707151
-0.00207909432807
-0.00236204947364
-0.0025258811162
-0.00261894935939
-0.00268566612763
-0.00274625238415
-0.00278152201972
-0.00278906758134
-0.00279046473693
-0.00278584763313
-0.00278905087788
-0.00278077658477
-0.00271498474387
-0.0025770784819
-0.00236906700281
-0.00208045809743
-0.001631179712
-0.000729493551808
-0.000740722687369
-0.00166303982425
-0.0021268233431
-0.00241002605964
-0.00256447932163
-0.00265252900742
-0.00272426342115
-0.00279649787366
-0.00283809222195
-0.00284514613811
-0.00284678629417
-0.00284320729652
-0.00285576967645
-0.00286449516104
-0.00280741924834
-0.00266273395532
-0.00243320293284
-0.00212873945321
-0.0016637757164
-0.00074184237042
-0.00074596900805
-0.00167855002842
-0.00215218119406
-0.00243397820202
-0.00258084563715
-0.00266391296381
-0.00273824572596
-0.00281532286767
-0.00285931048229
-0.002865625246
-0.00286733480691
-0.00286460831553
-0.00288278497733
-0.00290217079581
-0.00285500454575
-0.00270927713027
-0.00247365242011
-0.00215462089289
-0.0016796126036
-0.000747122942496
-0.000747514003895
-0.0016847224687
-0.00216393690709
-0.00244607881078
-0.00259074941435
-0.00267196604891
-0.00274589538078
-0.0028230773156
-0.0028667980658
-0.00287243234321
-0.00287413448153
-0.00287207826352
-0.00289253904164
-0.00291591201045
-0.00287298579445
-0.00272868405593
-0.00249151516678
-0.00216679584318
-0.00168602611436
-0.000748654590539
-0.000747649229295
-0.00168649296111
-0.00216821966469
-0.00245168841497
-0.00259662098138
-0.00267760615038
-0.00275110065354
-0.00282762245245
-0.00287073598532
-0.00287594399217
-0.00287763053293
-0.00287600617221
-0.00289710077499
-0.0029212852499
-0.00287919118706
-0.00273514951652
-0.00249755429454
-0.00217131616413
-0.00168792547653
-0.000748769457584
-0.000747649679943
-0.0016864397605
-0.00216815826291
-0.00245161205796
-0.00259653287128
-0.00267752734818
-0.00275102826781
-0.00282756211906
-0.00287068415417
-0.00287589142701
-0.0028775682859
-0.00287593941082
-0.0028970247522
-0.00292119771194
-0.00287909230315
-0.00273504016876
-0.0024974575321
-0.00217124221179
-0.00168786701051
-0.000748775653735
-0.000747525919759
-0.00168458176848
-0.00216376629401
-0.00244585997512
-0.00259048836467
-0.00267169810211
-0.00274562749209
-0.00282282705227
-0.00286655028399
-0.00287216917324
-0.00287385769734
-0.00287179836811
-0.00289225133392
-0.00291560221765
-0.00287266358635
-0.00272834953515
-0.00249122705136
-0.00216657449387
-0.00168584805138
-0.000748669482921
-0.000745999212372
-0.00167834898591
-0.00215193071951
-0.00243296792353
-0.00257790868402
-0.00265860504068
-0.00273080271363
-0.0028065901358
-0.00285014697843
-0.00285645099347
-0.00285814934182
-0.00285543811175
-0.00287377685983
-0.00289409066572
-0.00284909306626
-0.00270604432508
-0.00247251281256
-0.0021542674473
-0.00167932779697
-0.000747145921718
-0.000740771079062
-0.00166280733336
-0.00212653006791
-0.00240819319103
-0.00255824216237
-0.00263998244673
-0.00270570099369
-0.00277424304626
-0.002814623987
-0.00282165006549
-0.00282329015713
-0.00281975805403
-0.00283292974964
-0.00284457348512
-0.00279375097105
-0.00265603953947
-0.00243119893275
-0.00212828714683
-0.00166340728893
-0.000741870752808
-0.000728519897269
-0.00163056249642
-0.00207878993642
-0.00236096614025
-0.00252052202847
-0.00260577857515
-0.00266458622337
-0.00271985455878
-0.00275343982868
-0.00276090529369
-0.00276230277454
-0.00275777348223
-0.0027621237427
-0.00275860045638
-0.002701048618
-0.00257139823172
-0.00236777580611
-0.00207995158626
-0.00163077127638
-0.000729530282333
-0.000704467553793
-0.00157080421594
-0.00199501566921
-0.00226465743344
-0.0024328976459
-0.00252613346786
-0.00258006853541
-0.00262198870768
-0.00264695164397
-0.00265414702212
-0.00265513500758
-0.00264989031987
-0.00264449978972
-0.00262549475534
-0.00256355598928
-0.00244623835923
-0.00226610943248
-0.00199572520315
-0.00157075148986
-0.000705377642032
-0.000662131639271
-0.00146907719132
-0.00185859439257
-0.00210506069572
-0.00226456370854
-0.00236090512576
-0.00241239680634
-0.0024465101217
-0.00246419259698
-0.00247058147527
-0.00247114803324
-0.00246578878446
-0.00245356577381
-0.00242490786574
-0.00236743253859
-0.0022660187415
-0.00210601748003
-0.00185903971442
-0.00146895107887
-0.000662943510354
-0.000591749397045
-0.00130404313916
-0.00164490597256
-0.00185842044061
-0.00199476378417
-0.00207856081612
-0.00212643826876
-0.00215210909293
-0.00216429178901
-0.00216902114532
-0.0021693398504
-0.0021651545314
-0.00215331839587
-0.00212773500677
-0.00207970937644
-0.00199567829646
-0.00185907694469
-0.00164528879269
-0.0013040429046
-0.000592469880978
-0.000477092061336
-0.00103427511054
-0.00130378783229
-0.00146866839461
-0.00157034505661
-0.00163014138538
-0.0016625008411
-0.00167822576922
-0.00168466975802
-0.00168670118881
-0.00168687058863
-0.00168512164513
-0.00167885799973
-0.0016631720529
-0.00163074934609
-0.00157087949858
-0.00146914697626
-0.00130419936033
-0.00103445257572
-0.000477665692672
-0.000306626629154
-0.000477310091382
-0.000591977497802
-0.000662330224201
-0.000704661504778
-0.0007287433854
-0.000741053259088
-0.000746363969916
-0.000747982045441
-0.000748191093473
-0.000748279561406
-0.000748234880343
-0.000746757201088