/*--------------------------------*- C++ -*----------------------------------*\
| =========                 |                                                 |
| \\      /  F ield         | OpenFOAM: The Open Source CFD Toolbox           |
|  \\    /   O peration     | Version:  3.0.1                                 |
|   \\  /    A nd           | Web:      www.OpenFOAM.org                      |
|    \\/     M anipulation  |                                                 |
\*---------------------------------------------------------------------------*/
FoamFile
{
    version     2.0;
    format      ascii;
    class       surfaceScalarField;
    location    "4.5";
    object      meshPhiCN_0;
}
// * * * * * * * * * * * * * * * * * * * * * * * * * * * * * * * * * * * * * //

dimensions      [0 3 -1 0 0 0 0];

internalField   nonuniform List<scalar> 
22672
(
0
0
0
0
0
0
0
0
0
0
0
0
0
0
0
0
0
0
0
0
0
0
0
0
0
0
0
0
0
0
0
0
0
0
0
0
0
0
0
0
0
0
0
0
0
0
0
0
0
0
0
0
0
0
0
0
0
0
0
0
0
0
0
0
0
0
0
0
0
0
0
0
0
0
0
0
0
0
0
0
0
0
0
0
0
0
0
0
0
0
0
0
0
0
0
0
0
0
0
0
0
0
0
0
0
0
0
0
0
0
0
0
0
0
0
0
0
0
0
0
0
0
0
0
0
0
0
0
0
0
0
0
0
0
0
0
0
0
0
0
0
0
0
0
0
0
0
0
0
0
0
0
0
0
0
0
0
0
0
0
0
0
0
0
0
0
0
0
0
0
0
0
0
0
0
0
0
0
0
0
0
0
0
0
0
0
0
0
0
0
0
0
0
0
0
0
0
0
0
0
0
0
0
0
0
0
0
0
0
0
0
0
0
0
0
0
0
0
0
0
0
0
0
0
0
0
0
0
0
0
0
0
0
0
0
0
0
0
0
0
0
0
0
0
0
0
0
0
0
0
0
0
0
0
0
0
0
0
0
0
0
0
0
0
0
0
0
0
0
0
0
0
0
0
0
0
0
0
0
0
0
0
0
0
0
0
0
0
0
0
0
0
0
0
0
0
0
0
0
0
0
0
0
0
0
0
0
0
0
0
0
0
0
0
0
0
0
0
0
0
0
0
0
0
0
0
0
0
0
0
0
0
0
0
0
0
0
0
0
0
0
0
0
0
0
0
0
0
0
0
0
0
0
0
0
0
0
0
0
0
0
0
0
0
0
0
0
0
0
0
0
0
0
0
0
0
0
0
0
0
0
0
0
0
0
0
0
0
0
0
0
0
0
0
0
0
0
0
0
0
0
0
0
0
0
0
0
0
0
0
0
0
0
0
0
0
0
0
0
0
0
0
0
0
0
0
0
0
0
0
0
0
0
0
0
0
0
0
0
0
0
0
0
0
0
0
0
0
0
0
0
0
0
0
0
0
0
0
0
0
0
0
0
0
0
0
0
0
0
0
0
0
0
0
0
0
0
0
0
0
0
0
0
0
0
0
0
0
0
0
0
0
0
0
0
0
0
0
0
0
0
0
0
0
0
0
0
0
0
0
0
0
0
0
0
0
0
0
0
0
0
0
0
0
0
0
0
0
0
0
0
0
0
0
0
0
0
0
0
0
0
0
0
0
0
0
0
0
0
0
0
0
0
0
0
0
0
0
0
0
0
0
0
0
0
0
0
0
0
0
0
0
0
0
0
0
0
0
0
0
0
0
0
0
0
0
0
0
0
0
0
0
0
0
0
0
0
0
0
0
0
0
0
0
0
0
0
0
0
0
0
0
0
0
0
0
0
0
0
0
0
0
0
0
0
0
0
0
0
0
0
0
0
0
0
0
0
0
0
0
0
0
0
0
0
0
0
0
0
0
0
0
0
0
0
0
0
0
0
0
0
0
0
0
0
0
0
0
0
0
0
0
0
0
0
0
0
0
0
0
0
0
0
0
0
0
0
0
0
0
0
0
0
0
0
0
0
0
0
0
0
0
0
0
0
0
0
0
0
0
0
0
0
0
0
0
0
0
0
0
0
0
0
0
0
0
0
0
0
0
0
0
0
0
0
0
0
0
0
0
0
0
0
0
0
0
0
0
0
0
0
0
0
0
0
0
0
0
0
0
0
0
0
0
0
0
0
0
0
0
0
0
0
0
0
0
0
0
0
0
0
0
0
0
0
0
0
0
0
0
0
0
0
0
0
0
0
0
0
0
0
0
0
0
0
0
0
0
0
0
0
0
0
0
0
0
0
0
0
0
0
0
0
0
0
0
0
0
0
0
0
0
0
0
0
0
0
0
0
0
0
0
0
0
0
0
0
0
0
0
0
0
0
0
0
0
0
0
0
0
0
0
0
0
0
0
0
0
0
0
0
0
0
0
0
0
0
0
0
0
0
0
0
0
0
0
0
0
0
0
0
0
0
0
0
0
0
0
0
0
0
0
0
0
0
0
0
0
0
0
0
0
0
0
0
0
0
0
0
0
0
0
0
0
0
0
0
0
0
0
0
0
0
0
0
0
0
0
0
0
0
0
0
0
0
0
0
0
0
0
0
0
0
0
0
0
0
0
0
0
0
0
0
0
0
0
0
0
0
0
0
0
0
0
0
0
0
0
0
0
0
0
0
0
0
0
0
0
0
0
0
0
0
0
0
0
0
0
0
0
0
0
0
0
0
0
0
0
0
0
0
0
0
0
0
0
0
0
0
0
0
0
0
0
0
0
0
0
0
0
0
0
0
0
0
0
0
0
0
0
0
0
0
0
0
0
0
0
0
0
0
0
0
0
0
0
0
0
0
0
0
0
0
0
0
0
0
0
0
0
0
0
0
0
0
0
0
0
0
0
0
0
0
0
0
0
0
0
0
0
0
0
0
0
0
0
0
0
0
0
0
0
0
0
0
0
0
0
0
0
0
0
0
0
0
0
0
0
0
0
0
0
0
0
0
0
0
0
0
0
0
0
0
0
0
0
0
0
0
0
0
0
0
0
0
0
0
0
0
0
0
0
0
0
0
0
0
0
0
0
0
0
0
0
0
0
0
0
0
0
0
0
0
0
0
0
0
0
0
0
0
0
0
0
0
0
0
0
0
0
0
0
0
0
0
0
0
0
0
0
0
0
0
0
0
0
0
0
0
0
0
0
0
0
0
0
0
0
0
0
0
0
0
0
0
0
0
0
0
0
0
0
0
0
0
0
0
0
0
0
0
0
0
0
0
0
0
0
0
0
0
0
0
0
0
0
0
0
0
0
0
0
0
0
0
0
0
0
0
0
0
0
0
0
0
0
0
0
0
0
0
0
0
0
0
0
0
0
0
0
0
0
0
0
0
0
0
0
0
0
0
0
0
0
0
0
0
0
0
0
0
0
0
0
0
0
0
0
0
0
0
0
0
0
0
0
0
0
0
0
0
0
0
0
0
0
0
0
0
0
0
0
0
0
0
0
0
0
0
0
0
0
0
0
0
0
0
0
0
0
0
0
0
0
0
0
0
0
0
0
0
0
0
0
0
0
0
0
0
0
0
0
0
0
0
0
0
0
0
0
0
0
0
0
0
0
0
0
0
0
0
0
0
0
0
0
0
0
0
0
0
0
0
0
0
0
0
0
0
0
0
0
0
0
0
0
0
0
0
0
0
0
0
0
0
0
0
0
0
0
0
0
0
0
0
0
0
0
0
0
0
0
0
0
0
0
0
0
0
0
0
0
0
0
0
0
0
0
0
0
0
0
0
0
0
0
0
0
0
0
0
0
0
0
0
0
0
0
0
0
0
0
0
0
0
0
0
0
0
0
0
0
0
0
0
0
0
0
0
0
0
0
0
0
0
0
0
0
0
0
0
0
0
0
0
0
0
0
0
0
0
0
0
0
0
0
0
0
0
0
0
0
0
0
0
0
0
0
0
0
0
0
0
0
0
0
0
0
0
0
0
0
0
0
0
0
0
0
0
0
0
0
0
0
0
0
0
0
0
0
0
0
0
0
0
0
0
0
0
0
0
0
0
0
0
0
0
0
0
0
0
0
0
0
0
0
0
0
0
0
0
0
0
0
0
0
0
0
0
0
0
0
0
0
0
0
0
0
0
0
0
0
0
0
0
0
0
0
0
0
0
0
0
0
0
0
0
0
0
0
0
0
0
0
0
0
0
0
0
0
0
0
0
0
0
0
0
0
0
0
0
0
0
0
0
0
0
0
0
0
0
0
0
0
0
0
0
0
0
0
0
0
0
0
0
0
0
0
0
0
0
0
0
0
0
0
0
0
0
0
0
0
0
0
0
0
0
0
0
0
0
0
0
0
0
0
0
0
0
0
0
0
0
0
0
0
0
0
0
0
0
0
0
0
0
0
0
0
0
0
0
0
0
0
0
0
0
0
0
0
0
0
0
0
0
0
0
0
0
0
0
0
0
0
0
0
0
0
0
0
0
0
0
0
0
0
0
0
0
0
0
0
0
0
0
0
0
0
0
0
0
0
0
0
0
0
0
0
0
0
0
0
0
0
0
0
0
0
0
0
0
0
0
0
0
0
0
0
0
0
0
0
0
0
0
0
0
0
0
0
0
0
0
0
0
0
0
0
0
0
0
0
0
0
0
0
0
0
0
0
0
0
0
0
0
0
0
0
0
0
0
0
0
0
0
0
0
0
0
0
0
0
0
0
0
0
0
0
0
0
0
0
0
0
0
0
0
0
0
0
0
0
0
0
0
0
0
0
0
0
0
0
0
0
0
0
0
0
0
0
0
0
0
0
0
0
0
0
0
0
0
0
0
0
0
0
0
0
0
0
0
0
0
0
0
0
0
0
0
0
0
0
0
0
0
0
0
0
0
0
0
0
0
0
0
0
0
0
0
0
0
0
0
0
0
0
0
0
0
0
0
0
0
0
0
0
0
0
0
0
0
0
0
0
0
0
0
0
0
0
0
0
0
0
0
0
0
0
0
0
0
0
0
0
0
0
0
0
0
0
0
0
0
0
0
0
0
0
0
0
0
0
0
0
0
0
0
0
0
0
0
0
0
0
0
0
0
0
0
0
0
0
0
0
0
0
0
0
0
0
0
0
0
0
0
0
0
0
0
0
0
0
0
0
0
0
0
0
0
0
0
0
0
0
0
0
0
0
0
0
0
0
0
0
0
0
0
0
0
0
0
0
0
0
0
0
0
0
0
0
0
0
0
0
0
0
0
0
0
0
0
0
0
0
0
0
0
0
0
0
0
0
0
0
0
0
0
0
0
0
0
0
0
0
0
0
0
0
0
0
0
0
0
0
0
0
0
0
0
0
0
0
0
0
0
0
0
0
0
0
0
0
0
0
0
0
0
0
0
0
0
0
0
0
0
0
0
0
0
0
0
0
0
0
0
0
0
0
0
0
0
0
0
0
0
0
0
0
0
0
0
0
0
0
0
0
0
0
0
0
0
0
0
0
0
0
0
0
0
0
0
0
0
0
0
0
0
0
0
0
0
0
0
0
0
0
0
0
0
0
0
0
0
0
0
0
0
0
0
0
0
0
0
0
0
0
0
0
0
0
0
0
0
0
0
0
0
0
0
0
0
0
0
0
0
0
0
0
0
0
0
0
0
0
0
0
0
0
0
0
0
0
0
0
0
0
0
0
0
0
0
0
0
0
0
0
0
0
0
0
0
0
0
0
0
0
0
0
0
0
0
0
0
0
0
0
0
0
0
0
0
0
0
0
0
0
0
0
0
0
0
0
0
0
0
0
0
0
0
0
0
0
0
0
0
0
0
0
0
0
0
0
0
0
0
0
0
0
0
0
0
0
0
0
0
0
0
0
0
0
0
0
0
0
0
0
0
0
0
0
0
0
0
0
0
0
0
0
0
0
0
0
0
0
0
0
0
0
0
0
0
0
0
0
0
0
0
0
0
0
0
0
0
0
0
0
0
0
0
0
0
0
0
0
0
0
0
0
0
0
0
0
0
0
0
0
0
0
0
0
0
0
0
0
0
0
0
0
0
0
0
0
0
0
0
0
0
0
0
0
0
0
0
0
0
0
0
0
0
0
0
0
0
0
0
0
0
0
0
0
0
0
0
0
0
0
0
0
0
0
0
0
0
0
0
0
0
0
0
0
0
0
0
0
0
0
0
0
0
0
0
0
0
0
0
0
0
0
0
0
0
0
0
0
0
0
0
0
0
0
0
0
0
0
0
0
0
0
0
0
0
0
0
0
0
0
0
0
0
0
0
0
0
0
2.19733024591e-08
-3.17211271586e-09
7.62383673801e-10
3.94538861622e-08
-8.8643128325e-09
1.97627466404e-09
3.94542179703e-08
-1.13802275097e-08
2.27289364272e-09
3.94545498088e-08
-1.13738463978e-08
1.9632595864e-09
3.94548816561e-08
-1.13674639139e-08
1.6536241769e-09
3.94552134733e-08
-1.13610801004e-08
1.34398740594e-09
2.19739200417e-08
-8.83887248785e-09
8.40138118068e-10
0
-3.16046895746e-09
2.45175799114e-10
0
0
0
0
0
0
0
0
0
0
0
0
0
0
0
0
0
0
0
0
0
0
0
0
0
0
0
0
0
0
0
0
6.22504532114e-08
-8.99412811809e-09
2.39786317181e-09
1.86028962514e-07
-3.26905202815e-08
8.83801763068e-09
2.49075894951e-07
-5.39370807869e-08
1.40769033528e-08
2.49086971758e-07
-6.04679695887e-08
1.43028259721e-08
2.49098048555e-07
-6.04365753433e-08
1.23504178059e-08
2.49109125448e-07
-6.04051426322e-08
1.03979725901e-08
2.49120202157e-07
-6.03736715252e-08
8.44549032188e-09
1.86067683654e-07
-5.37685627318e-08
5.80871359921e-09
6.225705857e-08
-3.25335913841e-08
2.5226566724e-09
0
-8.94696409457e-09
4.45732651254e-10
0
0
0
0
0
0
0
0
0
0
0
0
0
0
0
0
0
0
0
0
0
0
0
0
0
0
2.1969493694e-08
-3.17566936593e-09
9.29581005915e-10
2.26278642166e-07
-2.68889034631e-08
9.63750845075e-09
4.83016537151e-07
-6.98022346121e-08
2.53969117743e-08
5.92740269365e-07
-1.0137028876e-07
3.48066417602e-08
5.92792395843e-07
-1.10540493198e-07
3.39343558142e-08
5.92844522269e-07
-1.1048778195e-07
2.92878736065e-08
5.92896648701e-07
-1.10434942268e-07
2.4641301413e-08
5.92948775199e-07
-1.10381974235e-07
1.99946392985e-08
4.83226640987e-07
-1.01048745663e-07
1.42042021145e-08
2.26343714279e-07
-6.94316089295e-08
7.01555865904e-09
2.19705216028e-08
-2.67218164447e-08
1.6968799356e-09
0
-3.15684983826e-09
6.74288063279e-11
0
0
0
0
0
0
0
0
0
0
0
0
0
0
0
0
0
0
0
0
0
0
0
6.14114927733e-08
-5.70238738221e-09
2.59467736499e-09
3.73556798253e-07
-3.60054832455e-08
1.69493207786e-08
7.0195829264e-07
-8.56613270206e-08
3.85407884488e-08
8.36741334719e-07
-1.20830762549e-07
4.96787471562e-08
8.36837839918e-07
-1.30917723517e-07
4.7730658155e-08
8.36934345059e-07
-1.30857548225e-07
4.11643325494e-08
8.37030850258e-07
-1.30797192838e-07
3.4597955259e-08
8.37127355535e-07
-1.30736657381e-07
2.80315263026e-08
7.02366733933e-07
-1.20447652921e-07
2.01133522155e-08
3.73712491074e-07
-8.5194306657e-08
1.04455523243e-08
6.14170679823e-08
-3.57705270136e-08
2.87082658264e-09
0
-5.66754792217e-09
1.8545755469e-10
0
0
0
0
0
0
0
0
0
0
0
0
0
0
0
0
0
0
0
0
0
0
0
7.8880068964e-08
-5.70238324057e-09
3.32520534917e-09
4.19046343002e-07
-3.6005394301e-08
1.93852045468e-08
7.65973121069e-07
-8.56614177798e-08
4.23634308957e-08
9.07218524364e-07
-1.20831623252e-07
5.38405710659e-08
9.07329334728e-07
-1.30919068395e-07
5.15403902304e-08
9.0744014509e-07
-1.30858889739e-07
4.44155710581e-08
9.07550955571e-07
-1.30798530997e-07
3.72907518774e-08
9.07661765963e-07
-1.30737992176e-07
3.01659327358e-08
7.66447167921e-07
-1.20449076575e-07
2.1657183261e-08
4.19235515136e-07
-8.51953919264e-08
1.13494708425e-08
7.8888446052e-08
-3.57708494081e-08
3.20485349891e-09
0
-5.6675588513e-09
2.30790666527e-10
0
0
0
0
0
0
0
0
0
0
0
0
0
0
0
0
0
0
0
0
0
0
0
7.88736590003e-08
-5.70237910093e-09
3.31534126046e-09
4.19014115682e-07
-3.60053053465e-08
1.93212719936e-08
7.65917563565e-07
-8.5661508581e-08
4.22112261879e-08
9.07154269824e-07
-1.20832483946e-07
5.36301141568e-08
9.07264990189e-07
-1.30920413314e-07
5.13154290515e-08
9.07375710521e-07
-1.30860231208e-07
4.41906098821e-08
9.07486430942e-07
-1.30799869079e-07
3.70657907134e-08
9.07597151315e-07
-1.30739326977e-07
2.99409715379e-08
7.66391225202e-07
-1.20450500248e-07
2.14525845706e-08
4.19203134112e-07
-8.5196477197e-08
1.12074642257e-08
7.88820292753e-08
-3.57711717189e-08
3.14512271917e-09
0
-5.66756979445e-09
2.21080954645e-10
0
0
0
0
0
0
0
0
0
0
0
0
0
0
0
0
0
0
0
0
0
0
0
7.88672489841e-08
-5.70237489925e-09
3.30547723586e-09
4.18981886937e-07
-3.60052163943e-08
1.92573408482e-08
7.65862001242e-07
-8.56615993999e-08
4.20590248335e-08
9.07090008647e-07
-1.20833344682e-07
5.34196591719e-08
9.07200638957e-07
-1.30921758082e-07
5.10904678797e-08
9.07311269315e-07
-1.30861572695e-07
4.39656487403e-08
9.07421899638e-07
-1.30801207303e-07
3.68408295673e-08
9.07532529963e-07
-1.30740661755e-07
2.97160103989e-08
7.66335277689e-07
-1.20451923836e-07
2.1247984005e-08
4.19170751613e-07
-8.51975624452e-08
1.10654542691e-08
7.88756125254e-08
-3.57714941157e-08
3.08539055396e-09
0
-5.66758067325e-09
2.11371148321e-10
0
0
0
0
0
0
0
0
0
0
0
0
0
0
0
0
0
0
0
0
0
0
0
7.88608388887e-08
-5.70237077868e-09
3.29561328291e-09
4.18949656771e-07
-3.60051274448e-08
1.91934111475e-08
7.65806434169e-07
-8.5661690099e-08
4.19068268861e-08
9.07025740692e-07
-1.20834205317e-07
5.32092061445e-08
9.07136280946e-07
-1.30923102971e-07
5.08655066959e-08
9.07246821296e-07
-1.30862914194e-07
4.37406875481e-08
9.07357361586e-07
-1.30802545396e-07
3.66158683871e-08
9.07467901869e-07
-1.30741996477e-07
2.9491049225e-08
7.66279325475e-07
-1.20453347479e-07
2.10433815089e-08
4.19138367785e-07
-8.51986477808e-08
1.09234410059e-08
7.88691956767e-08
-3.57718164875e-08
3.02565699458e-09
0
-5.66759168258e-09
2.01661298104e-10
0
0
0
0
0
0
0
0
0
0
0
0
0
0
0
0
0
0
0
0
0
0
0
6.13863836366e-08
-3.17566161433e-09
2.55863808024e-09
3.73390412476e-07
-2.68885374222e-08
1.66801914378e-08
7.01635898926e-07
-6.98024180938e-08
3.7867019313e-08
8.36350990413e-07
-1.01373825277e-07
4.87248924813e-08
8.36443177977e-07
-1.10546246506e-07
4.66985530621e-08
8.36535365585e-07
-1.10493520827e-07
4.01239173436e-08
8.36627553195e-07
-1.10440666836e-07
3.35493332771e-08
8.36719740811e-07
-1.10387684387e-07
2.69748008856e-08
7.0202473156e-07
-1.01054861059e-07
1.91494979913e-08
3.73536426273e-07
-6.9436138244e-08
9.78712130853e-09
6.13912228743e-08
-2.67229902729e-08
2.60945967759e-09
0
-3.15687019806e-09
1.49365827202e-10
0
0
0
0
0
0
0
0
0
0
0
0
0
0
0
0
0
0
0
0
0
0
0
2.19580175009e-08
0
9.13232116196e-10
2.261271682e-07
-8.99404483773e-09
9.43433997117e-09
4.82655719137e-07
-3.26903381942e-08
2.47995348157e-08
5.92277641734e-07
-5.39382534227e-08
3.38970618773e-08
5.92322643679e-07
-6.04702654984e-08
3.29273091292e-08
5.92367645581e-07
-6.04388656199e-08
2.82663616972e-08
5.92412647607e-07
-6.04074271344e-08
2.36055042126e-08
5.92457649531e-07
-6.03759502968e-08
1.89447366838e-08
4.82834815382e-07
-5.37710426451e-08
1.32546290888e-08
2.26179635472e-07
-3.25351970307e-08
6.40637622114e-09
2.19587190862e-08
-8.94718213248e-09
1.49217648434e-09
0
0
5.09521159572e-11
0
0
0
0
0
0
0
0
0
0
0
0
0
0
0
0
0
0
0
0
0
0
0
0
0
0
6.22042880563e-08
0
2.33577856976e-09
1.85866381748e-07
-3.17209974951e-09
8.58301466117e-09
2.48844634744e-07
-8.8643238775e-09
1.36242782647e-08
2.48852819681e-07
-1.13803292414e-08
1.37804166429e-08
2.48861004702e-07
-1.13739478852e-08
1.18220493309e-08
2.48869189593e-07
-1.1367565122e-08
9.86371910825e-09
2.48877374593e-07
-1.13611809602e-08
7.90542594828e-09
1.85894301144e-07
-8.83898765956e-09
5.33951553927e-09
6.22087886684e-08
-3.16050298209e-09
2.26298534838e-09
0
0
3.83237066664e-10
0
0
0
0
0
0
0
0
0
0
0
0
0
0
0
0
0
0
0
0
0
0
0
0
0
0
0
0
0
0
0
0
2.19545639426e-08
0
7.35058015605e-10
3.94191866405e-08
0
1.89984232323e-09
3.9419412386e-08
0
2.17473524391e-09
3.94196380828e-08
0
1.8648823346e-09
3.94198638131e-08
0
1.55503078195e-09
3.94200894919e-08
0
1.24518061359e-09
2.19549840766e-08
0
7.63437527829e-10
0
0
2.1787552211e-10
0
0
0
0
0
0
0
0
0
0
0
0
0
0
0
0
0
0
0
0
0
0
0
0
0
0
0
0
0
0
0
0
0
0
0
0
0
0
0
0
0
0
0
0
0
0
0
0
0
0
0
0
0
0
0
0
0
0
0
0
0
0
0
0
0
0
0
0
0
0
0
0
0
0
0
0
0
0
0
0
0
0
0
0
0
0
0
0
0
0
0
0
0
0
0
0
0
0
0
0
0
0
0
0
0
0
0
0
0
0
0
0
0
0
0
0
0
0
0
0
0
0
0
0
0
0
0
0
0
0
0
0
0
0
0
0
0
0
0
0
0
0
0
0
0
0
0
0
0
0
0
0
0
0
0
0
0
0
0
0
0
0
0
0
0
0
0
0
0
0
0
0
0
0
0
0
0
0
0
0
0
0
0
0
0
0
0
0
0
0
0
0
0
0
0
0
0
0
0
0
0
0
0
0
0
0
0
0
0
0
0
0
0
0
0
0
0
0
0
0
0
0
0
0
0
0
0
0
0
0
0
0
0
0
0
0
0
0
0
0
0
0
0
0
0
0
0
0
0
0
0
0
0
0
0
0
0
0
0
0
0
0
0
0
0
0
0
0
0
0
0
0
0
0
0
0
0
0
0
0
0
0
0
0
0
0
0
0
0
0
0
0
0
0
0
0
0
0
0
0
0
0
0
0
0
0
0
0
0
0
0
0
0
0
0
0
0
0
0
0
0
0
0
0
0
0
0
0
0
0
0
0
0
0
0
0
0
0
0
0
0
0
0
0
0
0
0
0
0
0
0
0
0
0
0
0
0
0
0
0
0
0
0
0
0
0
0
0
0
0
0
0
0
0
0
0
0
0
0
0
0
0
0
0
0
0
0
0
0
0
0
0
0
0
0
0
0
0
0
0
0
0
0
0
0
0
0
0
0
0
0
0
0
0
0
0
0
0
0
0
0
0
0
0
0
3.96112679204e-08
-5.69429532916e-09
1.5290664208e-09
1.24915884113e-07
-2.36464056862e-08
5.86424440571e-09
1.64732592019e-07
-4.16003567983e-08
9.40253807127e-09
1.64738337706e-07
-4.72845971e-08
9.49496496303e-09
1.64744083429e-07
-4.72595040511e-08
8.20885472125e-09
1.64749829183e-07
-4.72343874327e-08
6.92272096129e-09
1.64755574859e-07
-4.72092473241e-08
5.63656363853e-09
1.24935709328e-07
-4.14722438298e-08
3.90913154921e-09
3.96139262134e-08
-2.35382395673e-08
1.70536115661e-09
0
-5.66593365552e-09
2.91172245541e-10
0
0
0
0
0
0
0
0
0
0
0
0
0
0
0
0
0
0
0
0
0
0
0
0
0
0
9.08803996184e-08
-1.30757373696e-08
3.85571468239e-09
3.59895435913e-07
-5.91692579381e-08
1.77480302063e-08
6.80047336671e-07
-1.2593008662e-07
3.6687594691e-08
8.21761773465e-07
-1.74190110605e-07
4.67973640935e-08
8.21865151031e-07
-1.88659234814e-07
4.49795667228e-08
8.21968528531e-07
-1.88578119326e-07
3.88885115541e-08
8.22071906217e-07
-1.88496674511e-07
3.27971492185e-08
8.22175283748e-07
-1.88414900308e-07
2.67054797323e-08
6.80495150178e-07
-1.73624535978e-07
1.93106301942e-08
3.60089083856e-07
-1.25202085099e-07
1.02086843536e-08
9.08978816617e-08
-5.87509866641e-08
3.0217405638e-09
0
-1.29891016926e-08
3.08512060296e-10
0
0
0
0
0
0
0
0
0
0
0
0
0
0
0
0
0
0
0
0
3.9604152034e-08
-5.70059658738e-09
1.82946312671e-09
4.11096565113e-07
-5.18232960353e-08
1.92926426277e-08
1.09094772727e-06
-1.57198325805e-07
5.72037146585e-08
1.74393952903e-06
-2.8226127493e-07
9.35995778852e-08
2.01173731799e-06
-3.65868531159e-07
1.07821564177e-07
2.01219505555e-06
-3.89290210603e-07
1.01088257517e-07
2.01265279309e-06
-3.89156686518e-07
8.73735511466e-08
2.01311053062e-06
-3.89022063838e-07
7.36580384485e-08
2.01356826818e-06
-3.88886342426e-07
5.99417194315e-08
1.74610856601e-06
-3.64632294554e-07
4.42924942695e-08
1.09224793876e-06
-2.80334193412e-07
2.57247694945e-08
4.11377495922e-07
-1.55832432415e-07
9.46823194608e-09
3.96081340564e-08
-5.13780661985e-08
1.46119836268e-09
0
-5.65942823008e-09
-2.76704907092e-11
0
0
0
0
0
0
0
0
0
0
0
0
0
0
0
0
0
1.64474101474e-07
-1.79821863438e-08
7.59441868103e-09
8.74971371472e-07
-9.79856779342e-08
4.389619357e-08
1.95885653255e-06
-2.51469907711e-07
1.03191148534e-07
2.91445433333e-06
-4.20190907561e-07
1.50802386982e-07
3.28764517878e-06
-5.26693441315e-07
1.66175426861e-07
3.28862630275e-06
-5.55834591257e-07
1.540988204e-07
3.28960742667e-06
-5.55675225317e-07
1.33103682921e-07
3.29058855083e-06
-5.55513903565e-07
1.12107598359e-07
3.2915696748e-06
-5.55350626074e-07
9.1110566736e-08
2.91930055856e-06
-5.24873077777e-07
6.7920612678e-08
1.9622321624e-06
-4.17048489321e-07
4.1166667361e-08
8.76028658895e-07
-2.48993766837e-07
1.68294316086e-08
1.64526994511e-07
-9.70209539848e-08
3.18671109784e-09
0
-1.78374093125e-08
-1.07416660992e-10
0
0
0
0
0
0
0
0
0
0
0
0
0
0
0
0
0
2.89497032248e-07
-2.37163171407e-08
1.33594804387e-08
1.21106547653e-06
-1.18422100254e-07
6.22876522688e-08
2.54140843585e-06
-2.90106614186e-07
1.3247407876e-07
3.65732067952e-06
-4.73978766791e-07
1.85315543361e-07
4.0860556847e-06
-5.88363977602e-07
2.00616309292e-07
4.08739780769e-06
-6.19460372515e-07
1.85147122126e-07
4.08873993065e-06
-6.19294732801e-07
1.59766594535e-07
4.09008205374e-06
-6.19126765095e-07
1.34385643011e-07
4.09142417693e-06
-6.18956469391e-07
1.09004267617e-07
3.66405979882e-06
-5.86319949928e-07
8.14167148884e-08
2.546386922e-06
-4.70338554401e-07
5.0119869249e-08
1.21286850772e-06
-2.87143123962e-07
2.13079996132e-08
2.89636930476e-07
-1.17204875675e-07
4.32911644279e-09
0
-2.35164300864e-08
-1.86432646123e-10
0
0
0
0
0
0
0
0
0
0
0
0
0
0
0
0
0
3.29245899587e-07
-2.37162452902e-08
1.51646120215e-08
1.31256841614e-06
-1.18421370461e-07
6.75561178434e-08
2.70635433132e-06
-2.90105963252e-07
1.40287319555e-07
3.86324510377e-06
-4.73982578205e-07
1.94208682757e-07
4.30611676488e-06
-5.883764778e-07
2.09315998062e-07
4.30754986301e-06
-6.19477759365e-07
1.92878970244e-07
4.30898296107e-06
-6.19312076301e-07
1.66288748918e-07
4.31041605927e-06
-6.19144065162e-07
1.39698527552e-07
4.31184915759e-06
-6.18973726049e-07
1.13108306251e-07
3.8704687137e-06
-5.86339285996e-07
8.43739133621e-08
2.71176436146e-06
-4.7035718282e-07
5.2011694011e-08
1.31459538986e-06
-2.87153866017e-07
2.22125209808e-08
3.29419724663e-07
-1.1720779477e-07
4.51474036761e-09
0
-2.35166188895e-08
-2.38388108426e-10
0
0
0
0
0
0
0
0
0
0
0
0
0
0
0
0
0
3.2922031894e-07
-2.37161733987e-08
1.51225258717e-08
1.31248030903e-06
-1.18420640689e-07
6.73447766634e-08
2.70619691048e-06
-2.90105312295e-07
1.39804870571e-07
3.86304220466e-06
-4.73986389705e-07
1.93488488881e-07
4.30589816508e-06
-5.88388978075e-07
2.08489773142e-07
4.30733009917e-06
-6.19495146269e-07
1.92040321741e-07
4.30876203328e-06
-6.19329419761e-07
1.6545010042e-07
4.31019396749e-06
-6.19161365259e-07
1.38859879095e-07
4.31162590177e-06
-6.18990982828e-07
1.12269657769e-07
3.87025994734e-06
-5.86358622048e-07
8.35958413266e-08
2.71160254603e-06
-4.70375811279e-07
5.13990904516e-08
1.31450563605e-06
-2.87164608044e-07
2.18216829935e-08
3.29394002795e-07
-1.17210713928e-07
4.33830176725e-09
0
-2.35168076979e-08
-2.77799408308e-10
0
0
0
0
0
0
0
0
0
0
0
0
0
0
0
0
0
3.29194737413e-07
-2.3716101524e-08
1.50804405932e-08
1.31239218962e-06
-1.18419910823e-07
6.71334469725e-08
2.70603944869e-06
-2.90104661318e-07
1.39322451616e-07
3.86283923275e-06
-4.7399020112e-07
1.92768330325e-07
4.30567947848e-06
-5.88401478314e-07
2.07663564032e-07
4.30711024857e-06
-6.19512533159e-07
1.91201673256e-07
4.30854101871e-06
-6.19346763254e-07
1.64611451929e-07
4.30997178893e-06
-6.1917866536e-07
1.38021230601e-07
4.3114025591e-06
-6.19008239589e-07
1.11431009266e-07
3.87005110805e-06
-5.8637795806e-07
8.28177535172e-08
2.71144068966e-06
-4.70394439662e-07
5.07864515843e-08
1.31441586986e-06
-2.87175350084e-07
2.14308149848e-08
3.29368279986e-07
-1.17213633025e-07
4.16185174281e-09
0
-2.35169965237e-08
-3.17211541879e-10
0
0
0
0
0
0
0
0
0
0
0
0
0
0
0
0
0
3.29169154999e-07
-2.3716029616e-08
1.5038356214e-08
1.31230405791e-06
-1.18419181054e-07
6.6922128728e-08
2.70588194591e-06
-2.90104010384e-07
1.38840062734e-07
3.86263618791e-06
-4.73994012623e-07
1.9204820703e-07
4.30546070516e-06
-5.88413978498e-07
2.06837370685e-07
4.30689031123e-06
-6.19529920096e-07
1.90363024773e-07
4.30831991737e-06
-6.19364106796e-07
1.63772803473e-07
4.30974952359e-06
-6.19195965487e-07
1.37182582128e-07
4.31117912981e-06
-6.19025496293e-07
1.10592360818e-07
3.86984219588e-06
-5.86397294129e-07
8.20396499168e-08
2.71127879231e-06
-4.70413068177e-07
5.01737774328e-08
1.31432609138e-06
-2.87186092131e-07
2.10399168688e-08
3.29342556368e-07
-1.17216552174e-07
3.9853902495e-09
0
-2.35171853323e-08
-3.56624598247e-10
0
0
0
0
0
0
0
0
0
0
0
0
0
0
0
0
0
2.89372444372e-07
-1.79819382867e-08
1.31820216737e-08
1.21051385136e-06
-9.79823148036e-08
6.1350971498e-08
2.54017806948e-06
-2.51466478457e-07
1.30271369285e-07
3.65545356967e-06
-4.20209390517e-07
1.81955110249e-07
4.08389381718e-06
-5.2675606324e-07
1.9668116164e-07
4.08518238462e-06
-5.55922232147e-07
1.81076470798e-07
4.08647095217e-06
-5.55762647509e-07
1.55627621284e-07
4.08775951986e-06
-5.55601107003e-07
1.30179195675e-07
4.08904808749e-06
-5.55437610853e-07
1.04731193931e-07
3.66192191586e-06
-5.24970293678e-07
7.73930685227e-08
2.54495113806e-06
-4.17140797451e-07
4.69337722961e-08
1.2122362216e-06
-2.49044963493e-07
1.93115509148e-08
2.89502616905e-07
-9.70337713387e-08
3.47455034313e-09
0
-1.78380607874e-08
-3.6023726036e-10
0
0
0
0
0
0
0
0
0
0
0
0
0
0
0
0
0
1.64371543416e-07
-5.70056332353e-09
7.46239407027e-09
8.74295661241e-07
-5.18214260145e-08
4.30180780128e-08
1.95705235669e-06
-1.57195403781e-07
1.00890937683e-07
2.91142989037e-06
-2.82273180986e-07
1.47085972083e-07
3.28402161024e-06
-3.65914372358e-07
1.61661761462e-07
3.28489456799e-06
-3.89355852284e-07
1.49322839097e-07
3.28576752575e-06
-3.89222164433e-07
1.28175077096e-07
3.28664048372e-06
-3.89087377812e-07
1.07028262168e-07
3.2875134415e-06
-3.88951492629e-07
8.58823943631e-08
2.91573745533e-06
-3.64704475411e-07
6.2946598984e-08
1.96004048117e-06
-2.80399317377e-07
3.72565574101e-08
8.75218702401e-07
-1.55863860512e-07
1.44987530435e-08
1.64412997677e-07
-5.13839629063e-08
2.30896280489e-09
0
-5.65951554174e-09
-2.42562388815e-10
0
0
0
0
0
0
0
0
0
0
0
0
0
0
0
0
0
3.95764357393e-08
0
1.79034580528e-09
4.10707394791e-07
-1.30755181471e-08
1.88162292186e-08
1.08967661875e-06
-5.91677401477e-08
5.56225210908e-08
1.74158495064e-06
-1.25932797376e-07
9.0717378373e-08
2.0088308202e-06
-1.74206220781e-07
1.04127293669e-07
2.00920664086e-06
-1.88683832741e-07
9.71150990692e-08
2.00958246158e-06
-1.88602655862e-07
8.32704791848e-08
2.00995828233e-06
-1.88521149583e-07
6.94266656047e-08
2.01033410306e-06
-1.88439313961e-07
5.55836584058e-08
1.74336144778e-06
-1.73651100518e-07
4.01707198774e-08
1.09073058404e-06
-1.25223350436e-07
2.26066978918e-08
4.1092393669e-07
-5.8758530921e-08
7.81183490275e-09
3.95791443391e-08
-1.29896770229e-08
9.72228295283e-10
0
0
-6.72415778009e-11
0
0
0
0
0
0
0
0
0
0
0
0
0
0
0
0
0
0
0
0
9.07964271112e-08
0
3.74288629041e-09
3.59473892874e-07
-5.69424523973e-09
1.71709432523e-08
6.79123846696e-07
-2.36461671874e-08
3.53565232955e-08
8.20569810752e-07
-4.16013323674e-08
4.49013641581e-08
8.20647166973e-07
-4.72867067109e-08
4.28952698462e-08
8.20724523258e-07
-4.72616085304e-08
3.67547366064e-08
8.20801879454e-07
-4.72364865665e-08
3.06145105525e-08
8.20879235697e-07
-4.72113411577e-08
2.44745916665e-08
6.79456392532e-07
-4.14745379335e-08
1.72542019692e-08
3.5961244922e-07
-2.35396209772e-08
8.79890448874e-09
9.08082984302e-08
-5.66606485868e-09
2.42806775045e-09
0
0
1.94597305173e-10
0
0
0
0
0
0
0
0
0
0
0
0
0
0
0
0
0
0
0
0
0
0
0
0
0
0
3.95704649803e-08
0
1.47012559033e-09
1.24773526758e-07
0
5.61786892273e-09
1.64534801096e-07
0
8.96947508054e-09
1.6453869624e-07
0
9.00130815868e-09
1.64542591343e-07
0
7.71140699025e-09
1.64546486387e-07
0
6.42152939799e-09
1.64550381509e-07
0
5.13167533236e-09
1.2478696652e-07
0
3.4665827446e-09
3.95722671055e-08
0
1.45804024014e-09
0
0
2.32272486377e-10
0
0
0
0
0
0
0
0
0
0
0
0
0
0
0
0
0
0
0
0
0
0
0
0
0
0
0
0
0
0
0
0
0
0
0
0
0
0
0
0
0
0
0
0
0
0
0
0
0
0
0
0
0
0
0
0
0
0
0
0
0
0
0
0
0
0
0
0
0
0
0
0
0
0
0
0
0
0
0
0
0
0
0
0
0
0
0
0
0
0
0
0
0
0
0
0
0
0
0
0
0
0
0
0
0
0
0
0
0
0
0
0
0
0
0
0
0
0
0
0
0
0
0
0
0
0
0
0
0
0
0
0
0
0
0
0
0
0
0
0
0
0
0
0
0
0
0
0
0
0
0
0
0
0
0
0
0
0
0
0
0
0
0
0
0
0
0
0
0
0
0
0
0
0
0
0
0
0
0
0
0
0
0
0
0
0
0
0
0
0
0
0
0
0
0
0
0
0
0
0
0
0
0
0
0
0
0
0
0
0
0
0
0
0
0
0
0
0
0
0
0
0
0
0
0
0
0
0
0
0
0
0
0
0
0
0
0
0
0
0
0
0
0
0
0
0
0
0
0
0
0
0
0
0
0
0
0
0
0
0
0
0
0
0
0
0
0
0
0
0
0
0
0
0
0
0
0
0
0
0
0
0
0
0
0
0
0
0
0
0
0
0
0
0
0
0
0
0
0
0
0
0
0
0
3.97693130343e-08
-5.68934587509e-09
1.53397238886e-09
1.25413777998e-07
-2.36255546321e-08
5.88466588849e-09
1.65388862411e-07
-4.15640345788e-08
9.43826620483e-09
1.6539461601e-07
-4.72437021169e-08
9.53542657403e-09
1.65400369529e-07
-4.72186126974e-08
8.24931998249e-09
1.6540612309e-07
-4.71934997823e-08
6.96318984185e-09
1.65411876621e-07
-4.71683633286e-08
5.67703619333e-09
1.25433630215e-07
-4.1436701749e-08
3.94460951946e-09
3.97719748939e-08
-2.35183277711e-08
1.72546783143e-09
0
-5.66108905884e-09
2.96042929567e-10
0
0
0
0
0
0
0
0
0
0
0
0
0
0
0
0
0
0
0
0
0
0
0
2.41186791611e-09
-3.45404886078e-10
1.1149114855e-10
1.65358444416e-07
-2.40286496677e-08
7.12667082305e-09
5.367828412e-07
-9.49110009721e-08
2.62049330014e-08
9.61936150968e-07
-1.91031494684e-07
4.81676462747e-08
1.14056279934e-06
-2.59221766147e-07
5.89186431233e-08
1.14072898239e-06
-2.7877592786e-07
5.61251911775e-08
1.14089516534e-06
-2.78660445639e-07
4.85719053408e-08
1.14106134839e-06
-2.78544422203e-07
4.10180781923e-08
1.14122753135e-06
-2.78427857555e-07
3.34637098318e-08
9.6268741359e-07
-2.58344306174e-07
2.44637294734e-08
5.37165381581e-07
-1.89829515562e-07
1.34750224808e-08
1.65415940717e-07
-9.41830329026e-08
4.43845324516e-09
2.41188251196e-09
-2.38532874001e-08
5.94224588846e-10
0
-3.43035014315e-10
-1.22361497418e-12
0
0
0
0
0
0
0
0
0
0
0
0
0
0
0
0
0
1.67751080225e-07
-2.3695114181e-08
7.75436247324e-09
8.75953943843e-07
-1.25708105243e-07
4.1188901864e-08
1.96660525733e-06
-3.13085474726e-07
9.55311992946e-08
2.92624818461e-06
-5.1076382958e-07
1.40534626206e-07
3.30098216667e-06
-6.32435198114e-07
1.5556017739e-07
3.30188561528e-06
-6.6534575097e-07
1.44590560294e-07
3.30278906383e-06
-6.65141912504e-07
1.25143479459e-07
3.30369251253e-06
-6.64935896738e-07
1.05694455356e-07
3.30459596097e-06
-6.64727703593e-07
8.62434879987e-08
2.9307256825e-06
-6.30110079889e-07
6.4565910139e-08
1.96976617734e-06
-5.06703247521e-07
3.92483470103e-08
8.76989193698e-07
-3.09803901945e-07
1.61323955679e-08
1.67820887454e-07
-1.24401399302e-07
3.1445314369e-09
0
-2.34965234987e-08
-6.38332429303e-11
0
0
0
0
0
0
0
0
0
0
0
0
0
0
3.97586388186e-08
-5.69879625496e-09
1.98456643118e-09
6.62105770044e-07
-7.70142581297e-08
3.08649260803e-08
2.17943967605e-06
-2.82667704547e-07
1.04516738211e-07
4.04290504693e-06
-5.81578539989e-07
1.92168843678e-07
5.50309671641e-06
-8.60412696487e-07
2.52907909236e-07
6.0506141616e-06
-1.02347808481e-06
2.67342879949e-07
6.05287621537e-06
-1.06643770305e-06
2.45683409246e-07
6.05513826906e-06
-1.066199946e-06
2.12564547532e-07
6.05740032277e-06
-1.06595760283e-06
1.79442470661e-07
6.05966237643e-06
-1.06571067352e-06
1.46317178703e-07
5.51479270803e-06
-1.01949791436e-06
1.10799064204e-07
4.0524876626e-06
-8.52480336377e-07
7.08303688578e-08
2.18391471248e-06
-5.74196907438e-07
3.27902559421e-08
6.62845421974e-07
-2.78912123005e-07
8.07339900463e-09
3.97632875588e-08
-7.61790856454e-08
-1.7344254129e-10
0
-5.6513297635e-09
-1.82221495659e-10
0
0
0
0
0
0
0
0
0
0
0
1.65112503519e-07
-1.79754654929e-08
8.24112942101e-09
1.33239526477e-06
-1.38129243523e-07
6.26511624452e-08
3.55601817144e-06
-4.20938774717e-07
1.70252572115e-07
5.98405845385e-06
-7.92111494781e-07
2.80218481636e-07
7.80007626907e-06
-1.12196591828e-06
3.49724649198e-07
8.46876603844e-06
-1.31034050865e-06
3.61292295225e-07
8.47244653585e-06
-1.35927828197e-06
3.30019588283e-07
8.4761270333e-06
-1.3590444206e-06
2.85305702285e-07
8.47980753088e-06
-1.35880386194e-06
2.40588757994e-07
8.48348802842e-06
-1.35855660596e-06
1.9586875541e-07
7.8195098177e-06
-1.3050937749e-06
1.49041185087e-07
6.0011521888e-06
-1.11077895572e-06
9.77675704723e-08
3.56538629601e-06
-7.80981258327e-07
4.81176741915e-08
1.33470847201e-06
-4.14574703559e-07
1.34227729819e-08
1.65174240363e-07
-1.3637822557e-07
-2.60495083443e-10
0
-1.78121346422e-08
-7.46308339448e-10
0
0
0
0
0
0
0
0
0
0
0
2.90617630289e-07
-2.37068125635e-08
1.45025051563e-08
1.80929012849e-06
-1.6380618416e-07
8.54180969113e-08
4.40849666906e-06
-4.74869733546e-07
2.10538116206e-07
7.12952226905e-06
-8.70856054102e-07
3.31261446894e-07
9.12626314766e-06
-1.21793443817e-06
4.04201884963e-07
9.85559791596e-06
-1.41470469077e-06
4.13318012501e-07
9.86007006247e-06
-1.4655943409e-06
3.76356197525e-07
9.86454220922e-06
-1.46536674763e-06
3.24989549048e-07
9.86901435603e-06
-1.46513163013e-06
2.73621649773e-07
9.87348650296e-06
-1.4648889884e-06
2.22252499714e-07
9.15009357765e-06
-1.40900688584e-06
1.69150984278e-07
7.15112246825e-06
-1.20553241412e-06
1.11998636409e-07
4.42112138522e-06
-8.58263430083e-07
5.64414448549e-08
1.81292411516e-06
-4.67415144329e-07
1.64991553922e-08
2.90780868217e-07
-1.61623007663e-07
-4.28402627283e-10
0
-2.3483262543e-08
-1.30695957458e-09
0
0
0
0
0
0
0
0
0
0
0
3.30519851188e-07
-2.37067409443e-08
1.64666772001e-08
1.94725546426e-06
-1.63804110196e-07
9.18469665181e-08
4.6425275932e-06
-4.74862366348e-07
2.21084007244e-07
7.43741743239e-06
-8.70849420334e-07
3.44076375747e-07
9.47898693916e-06
-1.21794458979e-06