/*--------------------------------*- C++ -*----------------------------------*\
| =========                 |                                                 |
| \\      /  F ield         | OpenFOAM: The Open Source CFD Toolbox           |
|  \\    /   O peration     | Version:  3.0.1                                 |
|   \\  /    A nd           | Web:      www.OpenFOAM.org                      |
|    \\/     M anipulation  |                                                 |
\*---------------------------------------------------------------------------*/
FoamFile
{
    version     2.0;
    format      ascii;
    class       volScalarField;
    location    "4.5";
    object      nut;
}
// * * * * * * * * * * * * * * * * * * * * * * * * * * * * * * * * * * * * * //

dimensions      [0 2 -1 0 0 0 0];

internalField   nonuniform List<scalar> 
7968
(
0.000145066978399
0.000154777767185
0.000161965451158
0.000166282926879
0.000168668232155
0.000169770183473
0.000170072032855
0.000169913398685
0.000169586705523
0.000169295364719
0.000169290128727
0.000169577910233
0.000169905824044
0.000170069267875
0.000169775152338
0.00016868309824
0.000166306402492
0.000161993466496
0.000154802090657
0.000145080001844
0.000154783470991
0.000187835140348
0.000206631096734
0.000216755063619
0.000221850297315
0.000223865017373
0.000224161041236
0.000223647505578
0.000223012091652
0.000222614993614
0.000222600732294
0.000222974804016
0.000223599413206
0.000224115429478
0.00022383099413
0.000221833192936
0.000216753674333
0.000206644269275
0.00018785407866
0.000154795820057
0.000161985289767
0.000206644189297
0.000230703410925
0.000243472137874
0.000249887899383
0.000252460782727
0.0002528761807
0.000252339022142
0.000251672013782
0.000251268617521
0.000251244789933
0.000251609637592
0.000252258004836
0.000252797881734
0.000252396714573
0.00024984126443
0.000243442326645
0.000230689835717
0.000206642770215
0.000161987785326
0.000166307982637
0.000216777633945
0.000243480554661
0.000257408145409
0.000264158537398
0.000266599733913
0.000266721974174
0.000265912175629
0.000265097833697
0.000264657118819
0.000264622419771
0.00026500700183
0.000265793961705
0.000266612346253
0.000266510780937
0.000264086718482
0.000257349147893
0.00024343632975
0.000216747984732
0.000166291817631
0.000168697018124
0.000221870074688
0.00024989597617
0.00026415595973
0.000270568775062
0.000272449656439
0.000273390582213
0.000273446007334
0.000273079371818
0.000272778978209
0.000272746343014
0.000272996920986
0.000273344044633
0.000273296088095
0.000272354588825
0.000270489779118
0.000264080360995
0.000249826924353
0.000221813291525
0.000168660014227
0.000169799946447
0.00022388099181
0.000252458740974
0.000266578305259
0.000272424537168
0.000276005603846
0.000277506719304
0.000277621327954
0.000277209972919
0.000276855969788
0.000276815547011
0.000277109936377
0.000277502875226
0.000277405982953
0.00027592955483
0.000272363283564
0.000266508973068
0.000252382336695
0.000223812392862
0.000169747748921
0.000170099068403
0.000224166329572
0.000252854965658
0.000266669088448
0.000273358387557
0.000277488917472
0.00027895652937
0.000278843089474
0.000278200691778
0.000277702448122
0.000277651271958
0.000278075647361
0.00027869869135
0.000278841719871
0.000277413739687
0.000273308293112
0.000266621850154
0.000252786574951
0.000224095437889
0.000170040346548
0.000169934683138
0.00022364033091
0.000252300814775
0.000265834876742
0.000273400528829
0.000277591298298
0.000278832051159
0.000278370093917
0.000277398084375
0.000276692379371
0.000276629982347
0.000277247062563
0.000278196017147
0.000278697004739
0.000277509692918
0.000273355676576
0.000265807153742
0.000252244996294
0.000223575964404
0.000169876019764
0.000169600898294
0.000222996872289
0.000251628927858
0.000265023581872
0.00027303690141
0.00027718727654
0.000278202490449
0.00027741407794
0.000276089464209
0.000275119377123
0.000275046325802
0.000275914794891
0.000277213617075
0.000278045287802
0.000277093732252
0.000272989120382
0.00026499960633
0.000251580276914
0.000222939572009
0.000169544739986
0.0001693017175
0.000222597323923
0.000251231640688
0.000264603506439
0.000272754738215
0.000276858879365
0.000277738532037
0.000276748203325
0.00027516123237
0.000273967092178
0.00027388639637
0.000274971171795
0.000276529726617
0.000277564859394
0.000276753899259
0.000272700109103
0.000264572629598
0.000251183272207
0.000222542020635
0.000169245048635
0.000169288207728
0.000222584281131
0.000251218263754
0.000264590210038
0.000272742701
0.000276846850428
0.000277725352562
0.000276732381445
0.000275141018312
0.00027394221783
0.000273860888589
0.000274949769481
0.00027651273038
0.000277550518619
0.000276740569431
0.000272686323021
0.000264555981573
0.000251165722535
0.000222524385699
0.000169227057497
0.000169573014878
0.000222960753368
0.000251590568177
0.000264984285765
0.00027300254684
0.000277153354498
0.000278166171715
0.00027737231943
0.000276039414197
0.000275061657639
0.000274987286883
0.000275862230995
0.000277169341551
0.00027800629277
0.000277056533456
0.000272950100509
0.000264951379095
0.000251531176761
0.000222892052724
0.000169507656659
0.000169900527196
0.000223585805926
0.000252240159394
0.000265769051539
0.000273345320539
0.000277536925108
0.000278774381068
0.000278305719922
0.000277326153996
0.000276613882457
0.000276550311825
0.000277172737367
0.000278128832681
0.000278635883715
0.000277450669862
0.000273293615914
0.000265728560636
0.000252169629929
0.000223506160023
0.000169830774794
0.000170064608222
0.000224101876662
0.000252779678531
0.000266583493101
0.00027328485476
0.000277417275919
0.000278881177735
0.000278760908932
0.000278111311947
0.000277608030718
0.000277555796908
0.000277983803507
0.000278613089851
0.000278761780042
0.00027733580738
0.000273225711591
0.000266521205527
0.000252694238386
0.000224013407275
0.000169994336459
0.000169770734137
0.000223817158586
0.000252380070937
0.000266484451864
0.000272316794777
0.000275916471979
0.000277418566042
0.000277526721808
0.000277108971402
0.000276750937
0.000276709314886
0.000277005778053
0.00027740340613
0.000277311289249
0.000275831331388
0.000272241410464
0.000266397856199
0.000252284533852
0.000223728999378
0.000169707431346
0.000168677139723
0.000221814842204
0.000249825225506
0.000264067187043
0.000270457921688
0.00027232148628
0.00027328828479
0.000273337924586
0.0002729657403
0.000272662031656
0.00027262787914
0.000272878920679
0.000273228655305
0.000273183969176
0.000272211333071
0.000270361366753
0.000263972079338
0.00024973552839
0.000221739042438
0.000168630130744
0.000166299476835
0.000216739815395
0.000243428058878
0.000257336654677
0.000264063340705
0.000266480169246
0.00026658009405
0.000265753257941
0.000264934567801
0.000264491484611
0.000264454215396
0.000264835759959
0.00026562131148
0.00026645356082
0.000266372337664
0.000263970769968
0.000257255747071
0.000243361973627
0.000216690850935
0.000166274281473
0.000161985889948
0.000206627307264
0.000230674825878
0.000243425388183
0.000249818226629
0.000252367844925
0.000252762305159
0.000252208496975
0.000251529817224
0.000251118786461
0.000251091482658
0.000251457567867
0.000252111892704
0.000252665013771
0.000252282781567
0.000249748717431
0.000243372671141
0.000230640020058
0.000206607482185
0.000161981296707
0.000154791095507
0.000187837543377
0.00020662696553
0.00021673597928
0.000221810513693
0.000223804414389
0.000224082333161
0.000223553279996
0.000222905390181
0.000222499668552
0.000222481684795
0.000222857998327
0.000223489773221
0.000224018286485
0.000223750278277
0.000221771266007
0.00021671481884
0.000206621476756
0.00018784115641
0.000154798739389
0.000145071637704
0.000154785718935
0.000161972920026
0.000166285206142
0.000168660912563
0.00016975130711
0.000170042495329
0.000169873848076
0.00016953817834
0.000169238982493
0.000169229835649
0.000169520946165
0.000169855136464
0.000170027512394
0.000169744080789
0.000168664203384
0.000166298867369
0.00016199286516
0.000154804252865
0.000145082126774
0.000153540136653
0.000182251419394
0.000200172699476
0.000210584774954
0.000216430809612
0.000219380408681
0.000220540310601
0.000220710129995
0.000220497635384
0.000220288332392
0.000220277065139
0.000220468171486
0.000220670773786
0.000220499290418
0.000219343500528
0.000216401481791
0.00021056414013
0.000200160603452
0.000182248006657
0.000153556711715
0.000182259554201
0.000594376130773
0.000770719905135
0.000856215363562
0.000896104412791
0.000910556809427
0.000911639937048
0.000906908702516
0.000901483970299
0.00089811232281
0.000897915670725
0.000900946966316
0.000906138943602
0.000910751163881
0.000909617843466
0.000895142853507
0.000855264595103
0.000769837666392
0.000593710195477
0.000182228834316
0.000200191756516
0.00077080206941
0.00104089430123
0.0011799756957
0.0012511715931
0.0012832240039
0.00129316319345
0.00129249969538
0.00128877393769
0.00128597440511
0.0012856851732
0.00128798729862
0.00129137989575
0.00129190813545
0.00128194941299
0.00124990587102
0.00117874107662
0.00103976322659
0.000769973192914
0.000200138299253
0.000210611055189
0.000856364391218
0.00118006759736
0.00135088067479
0.00144041161352
0.0014822664903
0.00149601937774
0.00149653189984
0.00149397313281
0.00149204470761
0.00149169044479
0.00149300806948
0.00149507597748
0.00149446954835
0.00148080194064
0.00143898939667
0.00134947966755
0.00117876330713
0.00085541624811
0.000210537692929
0.000216460883831
0.000896279180291
0.00125130171361
0.00144044374241
0.00153902359511
0.00158339241933
0.00159038430639
0.00158235279841
0.00157355986217
0.0015684985264
0.0015678618347
0.00157187968776
0.00158018787693
0.00158835385856
0.00158183817949
0.00153754090238
0.00143896452902
0.00124989766622
0.00089527078531
0.000216370126834
0.000219409079486
0.000910692465645
0.00128331085851
0.00148222242842
0.00158331971475
0.00161213198812
0.00160507262429
0.00158785536043
0.00157342947666
0.0015656911718
0.0015648006604
0.00157109838545
0.00158498783192
0.0016026029267
0.00161030132397
0.00158184991278
0.00148077091576
0.00128191068548
0.000909709873819
0.000219308503745
0.000220562650841
0.000911710628843
0.00129315795323
0.00149581404238
0.00158990886241
0.00160472170914
0.0015864199534
0.00156109701861
0.00154163544042
0.00153148740065
0.00153035502193
0.00153866325543
0.00155748742412
0.00158351080591
0.00160273204193
0.00158848533292
0.00149444064387
0.00129183019453
0.000910804883368
0.00022046169507
0.000220724077814
0.000906938423726
0.00129245108261
0.00149628971766
0.00158173445
0.00158732509012
0.00156093357377
0.00152927985629
0.00150596689601
0.00149411385744
0.00149279935623
0.00150248726313
0.00152493841872
0.00155746935891
0.00158508550243
0.00158025948546
0.00149493159838
0.00129118343964
0.00090610453144
0.000220628533351
0.000220504154054
0.000901534920554
0.0012887965636
0.00149398618262
0.00157320051065
0.00157327550361
0.00154202420816
0.00150661220804
0.00148092089282
0.00146744353888
0.00146599782608
0.00147705683278
0.00150173800003
0.00153800524281
0.0015706911554
0.00157153860959
0.00149254488012
0.00128753534404
0.000900737256544
0.000220414913724
0.000220290170684
0.000898238726223
0.00128613854835
0.00149229808884
0.00156865009805
0.00156631633581
0.00153289582394
0.00149589339808
0.00146860256972
0.00145430111075
0.0014527992117
0.00146454481404
0.0014906910511
0.00152851013907
0.00156344518032
0.00156680956555
0.00149078668124
0.00128485894846
0.000897446741603
0.000220203401342
0.000220277932409
0.00089813687751
0.00128601052719
0.00149217832303
0.00156852413665
0.00156619586735
0.00153277373949
0.00149575968479
0.00146844599513
0.00145412722584
0.00145261843353
0.00146437361497
0.00149054409743
0.00152837539272
0.00156331007999
0.00156667047514
0.00149065980202
0.00128471942396
0.000897336769687
0.000220187720987
0.000220470839239
0.000901235143606
0.00128841916808
0.00149362730488
0.00157281160772
0.00157289307985
0.00154164453968
0.00150621962569
0.00148048848865
0.00146697469317
0.00146550792941
0.00147658656254
0.00150131639298
0.00153759958537
0.00157027673394
0.00157111505773
0.00149216488742
0.00128712755201
0.000900417698471
0.000220373252541
0.00022067547651
0.000906449179451
0.00129183357113
0.00149565856062
0.00158104700128
0.00158661022161
0.00156020135324
0.00152851695289
0.00150519825816
0.00149331427974
0.00149198192653
0.00150168992086
0.00152415656368
0.00155671872117
0.00158433709151
0.00157952332697
0.00149425574734
0.00129052160745
0.000905588888958
0.00022056906103
0.000220506633409
0.000911062796019
0.00129234399672
0.0014949625051
0.00158897021333
0.00160366712866
0.00158527291371
0.00155988739409
0.00154038838708
0.00153021808427
0.00152907135203
0.00153739079832
0.00155625502629
0.00158233690884
0.0016016327351
0.00158748649668
0.00149353006179
0.00129095939794
0.000910123746555
0.00022039365479
0.0002193537563
0.000909940756358
0.00128238072987
0.00148125835073
0.00158241294373
0.0016109113581
0.00160363114313
0.00158629868954
0.00157182107439
0.0015640575043
0.00156315208667
0.0015694549716
0.00158338647698
0.0016011089676
0.00160902195528
0.00158088668464
0.00147973236931
0.00128090634599
0.000908912492384
0.000219240576287
0.000216413378781
0.000895487776054
0.00125034725899
0.00143943473693
0.00153797930865
0.00158238007012
0.00158890231083
0.00158071791446
0.00157189208103
0.0015668026968
0.00156615239927
0.00157017314218
0.00157849085389
0.00158679771634
0.0015807634859
0.00153641344809
0.00143785778998
0.00124884684163
0.000894412961696
0.00021630971188
0.000210576516107
0.000855625366881
0.001179195428
0.00134994111025
0.00143939586356
0.00148116865536
0.00149479034527
0.00149527079799
0.00149291210746
0.00149099371525
0.00149063012199
0.00149191848038
0.00149375447677
0.0014931626726
0.00147961404984
0.00143786693212
0.00134842177761
0.00117777543383
0.000854592599367
0.000210490220416
0.000200171963876
0.000770201406842
0.00104020822247
0.00117922251341
0.00125033238742
0.00128229545284
0.00129215267569
0.00129144089021
0.00128770402859
0.00128488358103
0.00128458178686
0.00128688033716
0.00129025922663
0.00129081718155
0.00128092468031
0.0012489553519
0.00117786645685
0.00103895684739
0.000769278802233
0.000200106299998
0.000182254709976
0.000594024381048
0.000770338346571
0.00085578731156
0.000895611733349
0.000910002199248
0.000911036777643
0.000906270542305
0.000900821262722
0.000897431490264
0.000897226277677
0.000900259561733
0.00090546015801
0.00091009501149
0.000908998575663
0.000894572278669
0.000854746894574
0.00076936198532
0.000593275274508
0.00018221402457
0.000153545158164
0.000182236866512
0.000200149104829
0.000210552285566
0.0002163869503
0.000219323824824
0.000220471628703
0.000220630280299
0.000220407816012
0.000220191038293
0.000220176792294
0.000220370451832
0.000220579263922
0.000220417082977
0.000219272661948
0.000216343283945
0.000210517888176
0.000200124057528
0.000182222651295
0.000153559137524
0.000159831639761
0.000198191679449
0.000221336691926
0.000234782943151
0.000242484584743
0.000246577390521
0.000248433992503
0.000249034552649
0.000249088675692
0.000249017302085
0.000249000608839
0.000249042883491
0.000248968738631
0.000248357642167
0.000246497981619
0.000242407387339
0.000234711811532
0.000221275705961
0.000198150576713
0.000159851313932
0.000198203909977
0.000743912659154
0.000995811167565
0.00112097996921
0.00118124874892
0.00120516256913
0.00120970369034
0.00120566213547
0.00119993780272
0.0011961535757
0.00119580281628
0.00119896606266
0.00120424401434
0.00120801428402
0.00120331365999
0.00117929654282
0.00111900434955
0.000993952241217
0.000742486147831
0.000198122174639
0.000221359623361
0.000995932020188
0.00141283182305
0.00163877017523
0.00175956638752
0.00181800813865
0.00184037442633
0.00184463787158
0.00184207385579
0.00183905267609
0.00183850753766
0.00184058582996
0.00184253624499
0.00183796149262
0.00181549083115
0.00175701980212
0.0016362463199
0.00141048057556
0.000994175441893
0.000221240966588
0.000234814438592
0.00112121819922
0.00163893107191
0.00193132648806
0.00209358993124
0.00217625344705
0.00221097616653
0.00222207339486
0.0022223288883
0.00221992503843
0.00221917629301
0.00222031751391
0.00221940091942
0.00220798683342
0.00217331297839
0.00209074397233
0.00192853645367
0.00163631287904
0.00111926617342
0.00023467202209
0.000242521087896
0.00118155281947
0.00175982778993
0.00209368789996
0.00228071666775
0.00237577166394
0.00241111801266
0.00241747074334
0.00241359195337
0.00240918424165
0.00240811160863
0.00241070088445
0.00241349659782
0.0024070388265
0.0023722637713
0.00227759227975
0.00209070884345
0.00175703971008
0.00117950286215
0.000242360438035
0.000246613074378
0.00120545226626
0.00181826498713
0.00217631908577
0.00237571432974
0.00246644636914
0.00249391061942
0.00249156982052
0.00248110637367
0.00247329560504
0.00247183585531
0.00247712962828
0.0024858735164
0.00248790606951
0.00246167399282
0.00237220925964
0.00217321228622
0.0018154218218
0.00120343209941
0.000246443634615
0.000248462883214
0.0012099397846
0.00184057276176
0.00221098557436
0.00241102444202
0.00249424999512
0.00251090570951
0.00249800112778
0.00247986465841
0.00246811866859
0.00246629853933
0.00247482874298
0.00249047872039
0.00250251617174
0.0024874110692
0.00240679089159
0.00220773378733
0.00183774284815
0.00120801538645
0.000248295890276
0.00024905435125
0.00120587899331
0.00184485259782
0.00222225940305
0.00241781783149
0.00249301062314
0.00249944263877
0.00247693198966
0.00245178090451
0.00243637304878
0.0024342700799
0.00244586305054
0.00246784483543
0.00248902010569
0.00248417111514
0.00241258294258
0.0022187428572
0.0018420101581
0.00120403754184
0.000248897154356
0.000249100849435
0.00120022073213
0.00184243160564
0.00222277820095
0.00241474875444
0.00248397136797
0.00248322101197
0.00245390791701
0.00242358669707
0.00240541889869
0.00240310907862
0.00241700491338
0.00244367063282
0.00247140009785
0.00247385722803
0.00240870096899
0.00221895485784
0.0018395301834
0.00119841429027
0.000248954789655
0.00024902615446
0.0011965856868
0.00183969643621
0.00222090181417
0.0024112945494
0.00247759993256
0.00247331026784
0.00244053427893
0.0024075175083
0.00238790140806
0.0023854798757
0.00240057263938
0.00242968835866
0.00246076457185
0.00246684903038
0.00240481510537
0.00221686703787
0.00183673317139
0.00119477887723
0.000248885796868
0.000249012327286
0.00119641486789
0.00183947582435
0.00222069373638
0.00241111009871
0.00247743756165
0.00247314838335
0.00244035073091
0.00240730722238
0.00238767067687
0.00238524094873
0.00240034600415
0.0024294908407
0.00246059138146
0.00246667413737
0.00240461811209
0.00221664585393
0.00183649977183
0.00119459957387
0.000248868420435
0.000249060824428
0.0011997125218
0.00184178083985
0.00222216444366
0.00241419291852
0.00248347730595
0.00248274864042
0.002453408094
0.00242304448502
0.00240483753576
0.00240250533968
0.00241642160304
0.00244314041803
0.00247090641719
0.00247333752285
0.00240811350387
0.00221830697135
0.00183884786816
0.00119788888936
0.000248906306069
0.000248992474044
0.0012050430427
0.00184379624924
0.00222127314441
0.00241688443747
0.00249217874182
0.0024986871261
0.00247618952768
0.00245101794379
0.00243558018645
0.00243345580608
0.00244506258792
0.00246707762479
0.00248824739906
0.00248331017008
0.00241160559144
0.00221771599749
0.00184091341634
0.00120318442746
0.000248824331729
0.000248387257908
0.00120881860196
0.00183916650376
0.00220961123637
0.00240971228022
0.00249305198939
0.0025098366412
0.00249699482922
0.00247886046864
0.00246709386938
0.00246525432625
0.00247378540236
0.00248943594848
0.00250141232621
0.00248616477315
0.00240541614181
0.00220629723579
0.00183628281997
0.00120687302159
0.000248207917761
0.000246533397719
0.00120413019586
0.00181663039793
0.0021746912257
0.00237412062704
0.00246487111674
0.00249241293233
0.00249014020543
0.00247967246648
0.00247183515479
0.00247035529854
0.00247564725782
0.00248438423073
0.0024863434687
0.00246002540249
0.00237053139072
0.00217149654718
0.00181370778577
0.00120207120887
0.000246350350904
0.000242446408847
0.00118014043898
0.00175812343859
0.00209196925479
0.00227899439502
0.00237399868249
0.00240926367329
0.00241559972632
0.00241165963339
0.00240720601183
0.00240611490284
0.00240871836615
0.00241155394218
0.00240509800903
0.00237039292027
0.00227576136692
0.002088868962
0.00175522052115
0.00117802004862
0.000242270951487
0.000234751872465
0.00111986464764
0.00163733057934
0.00192968756261
0.00209190776026
0.00217450178547
0.00220917490847
0.00222034427251
0.00222037725863
0.00221789883527
0.00221713073088
0.00221831180248
0.00221759937886
0.00220608695451
0.0021714439793
0.0020889244168
0.00192674467533
0.0016345635704
0.00111780985198
0.000234593726064
0.000221313558232
0.00099478793416
0.00141151372797
0.00163739273385
0.00175811221537
0.00181646451612
0.00183875516217
0.00184296711212
0.00184031685603
0.00183724065174
0.00183667624463
0.0018387744742
0.00184078392827
0.0018362398579
0.00181382488223
0.00175542199988
0.00163470825776
0.00140900030394
0.000992908270617
0.000221179219071
0.000198178827819
0.000743180852177
0.000995006033341
0.00112012040268
0.00118031575363
0.0012041616701
0.00120865255077
0.00120457345865
0.00119880932259
0.00119499513858
0.00119463257576
0.00119780440185
0.0012031039289
0.00120689952769
0.0012022349773
0.00117826599541
0.00111802829564
0.000993019580826
0.000741643307555
0.000198083610878
0.000159836495511
0.000198152179507
0.000221280710591
0.000234715357301
0.000242404119784
0.000246483084289
0.000248326627844
0.000248915605811
0.000248959450483
0.000248880667649
0.00024886086158
0.000248905158242
0.00024883682258
0.000248235037162
0.000246387318368
0.000242310023842
0.000234627283192
0.000221203329631
0.000198097102141
0.000159853821605
0.000164078031069
0.000208795980743
0.000235151623948
0.000250486907205
0.000259441161107
0.000264410803959
0.000266901573142
0.000267965551741
0.000268339801954
0.000268438369529
0.00026841840349
0.000268283210029
0.000267880917154
0.000266797384851
0.00026429454915
0.00025932061712
0.000250370052843
0.000235046750162
0.000208719849274
0.000164104229542
0.00020881521217
0.00083956585646
0.00113642863401
0.00128635599396
0.00136110993123
0.00139363123115
0.00140340411042
0.00140273934661
0.00139919312936
0.0013965123134
0.0013960170935
0.00139779529031
0.00140065267075
0.00140085517437
0.00139077252475
0.00135804818791
0.00128324303293
0.00113350181102
0.000837298506392
0.00020867939563
0.000235182553358
0.00113657392826
0.00164171713243
0.00192201617254
0.00207649559181
0.00215547564179
0.00219009986723
0.00220120425351
0.00220210191981
0.00220047579058
0.00219967835739
0.00219989733895
0.00219803987302
0.00218645727439
0.00215164826479
0.00207261524167
0.00191816577065
0.00163810011502
0.00113379078043
0.000234996256995
0.000250527901329
0.00128668178518
0.00192225341202
0.00229163181298
0.00250338299433
0.00261709070217
0.00267090136001
0.00269112356991
0.00269504106076
0.00269398921747
0.0026928525475
0.00269190848109
0.00268648668785
0.00266564104836
0.00261220107146
0.00249896639813
0.00228735837043
0.00191821087463
0.00128353182302
0.000250310481903
0.000259489441319
0.00136158248294
0.00207693602658
0.00250358467318
0.00275190114759
0.00288598727799
0.00294589794257
0.00296518841048
0.00296681808907
0.00296404579472
0.00296243817371
0.0029622753346
0.0029580892941
0.00293728691058
0.00287805142006
0.00274607335739
0.00249884804427
0.00207251869129
0.0013581753625
0.000259247883179
0.000264460075696
0.00139417458723
0.00215602186816
0.00261745209893
0.00288674690411
0.00302543873484
0.00308172187216
0.00309391229541
0.0030891721417
0.00308273432054
0.00308064544625
0.0030830570444
0.00308387418946
0.00306860061291
0.00301227021551
0.00287731442376
0.00261181710022
0.00215131826025
0.00139067794475
0.000264207465693
0.000266943567264
0.00140395825009
0.00219069995582
0.00267199258868
0.00294899106422
0.00308472042594
0.00313162345851
0.00313289124233
0.00311956284919
0.00310858800841
0.00310616102741
0.00311228232967
0.0031204136539
0.00311436190516
0.00306591433632
0.00293442377148
0.00266441503299
0.00218578054243
0.00140048956143
0.000266696695922
0.000267995662861
0.00140332515481
0.00220192856494
0.00269352713168
0.00297120895053
0.00310065515295
0.00313688387844
0.00312713757621
0.00310532785526
0.00308996291452
0.00308735742601
0.00309735851111
0.00311300478476
0.00311667276699
0.003077663744
0.00295243548129
0.00268370846839
0.00219679401676
0.00139990889206
0.000267767168452
0.000268358483353
0.00139989846358
0.00220313448251
0.00269861309821
0.00297512182735
0.00309897929871
0.00312701104515
0.00310889910206
0.00308052496187
0.00306173647147
0.00305898684266
0.00307201904057
0.00309361114818
0.00310499023952
0.00307369620562
0.00295415951813
0.00268755262784
0.00219779666598
0.00139651311895
0.000268151611665
0.000268451357942
0.0013974268843
0.0022019826027
0.00269853514022
0.00297404764072
0.00309489070886
0.00311867532807
0.00309616296579
0.00306432827619
0.00304371253042
0.00304087496284
0.00305551448885
0.00308027746543
0.00309577906665
0.00306861407226
0.00295224475211
0.00268700690886
0.00219650808918
0.00139404219295
0.000268256879214
0.000268435772402
0.00139718788186
0.00220169875322
0.00269829583047
0.00297387297291
0.00309476394631
0.00311854289932
0.00309598182735
0.00306410245426
0.00304345999463
0.0030406162246
0.00305527804266
0.0030800896136
0.00309564130405
0.00306848318013
0.00295207031288
0.00268676223106
0.002196211446
0.0013937872615
0.000268237075722
0.00026831136575
0.00139917390168
0.00220228684908
0.00269790081073
0.00297460523846
0.00309863205615
0.00312671019422
0.00310853082078
0.00308008311627
0.00306124174309
0.00305847308018
0.003071547076
0.00309322783549
0.00310468129119
0.00307334619203
0.00295364687564
0.00268682703741
0.00219692104851
0.00139576026115
0.000268094872642
0.000267920369926
0.00140212269369
0.00220053815408
0.00269238331302
0.00297040673199
0.00310018650002
0.00313659223678
0.00312684965152
0.00310499102938
0.00308957725697
0.00308695265574
0.00309699227781
0.00311270574278
0.00311638057593
0.0030771974517
0.0029516362035
0.00268254491944
0.00219537453573
0.00139868571045
0.000267679658195
0.000266848761681
0.00140234474281
0.00218884934443
0.00267048116609
0.00294791750845
0.00308418141214
0.00313147384432
0.00313290825445
0.00311959837083
0.00310859382239
0.00310614609934
0.00311227407342
0.00312039315192
0.00311418988378
0.00306535875382
0.00293333400857
0.00266287166232
0.00218389365312
0.00139885750958
0.000266588000362
0.000264357206893
0.00139227599352
0.00215384901327
0.00261550446293
0.00288526525904
0.00302459340258
0.00308146742931
0.00309399586207
0.0030893488372
0.00308290194028
0.00308078910868
0.00308317430788
0.00308388727387
0.00306828509378
0.00301137437172
0.00287578211978
0.00260980787449
0.0021490772333
0.00138873824041
0.000264088857735
0.0002593895833
0.00135956589277
0.00207464864041
0.00250143060235
0.00274997842332
0.00288448205851
0.00294494452678
0.00296458940572
0.0029663154732
0.00296352965699
0.00296189983135
0.00296171202489
0.00295740678753
0.00293624936142
0.00287646557098
0.00274406346163
0.00249658436791
0.00207011299441
0.00135607412136
0.000259130450872
0.000250439611199
0.00128474029437
0.00192006141991
0.00228949041645
0.00250127609901
0.00261502645459
0.00266909974439
0.00268936427237
0.00269326200645
0.00269216298061
0.00269100310481
0.00269006467895
0.00268463619692
0.00266374502133
0.00261002733905
0.002496724738
0.00228505582652
0.00191584671041
0.00128145575688
0.000250203020572
0.000235111188652
0.00113490092424
0.00163983381181
0.00192008658328
0.00207449033598
0.00215337126108
0.00218791564018
0.00219891836758
0.00219972775867
0.00219803859456
0.00219721458964
0.00219745009249
0.00219564845411
0.00218415206685
0.0021494045094
0.00207044609399
0.00191604646838
0.00163601269716
0.0011319484132
0.000234905523078
0.000208767950598
0.000838427524296
0.00113516628692
0.00128499206801
0.0013596177648
0.00139202027585
0.0014017036383
0.00140097014461
0.00139736429138
0.00139463708016
0.00139412038024
0.00139590883323
0.00139879763065
0.00139905903525
0.00138905298422
0.0013564257972
0.0012817239474
0.00113206481859
0.000836006418505
0.000208615741639
0.000164084912673
0.000208730094465
0.000235064476512
0.000250385281268
0.000259323250027
0.000264275848684
0.000266751311634
0.00026780285092
0.00026816685155
0.000268258293675
0.000268234603819
0.000268100129263
0.00026770243271
0.000266628636435
0.000264139790902
0.000259182185494
0.000250247578318
0.000234939402335
0.000208637351058
0.000164108465788
0.000167386340661
0.000217419079106
0.00024619546981
0.000262979662177
0.000272997827325
0.000278809723535
0.000281975667367
0.000283559099902
0.00028429827931
0.000284588821155
0.000284571968661
0.000284249228787
0.000283484515203
0.000281877809964
0.000278690471037
0.000272866870279
0.000262851109835
0.000246079415574
0.000217331011136
0.000167420388389
0.000217449383901
0.000922912677642
0.00125472403738
0.00142515923256
0.0015140913863
0.00155705641452
0.00157471388695
0.00157988031226
0.00158037597863
0.00157981022887
0.00157922868072
0.00157870540039
0.00157734248384
0.00157152718645
0.00155337923807
0.00151008684894
0.00142108494688
0.00125092379837
0.000919936733527
0.000217272977921
0.000246239984485
0.00125490160196
0.00182500216461
0.00214424782503
0.00232417198194
0.00242047435341
0.00246689190713
0.00248517134458
0.00249031329448
0.00249065821409
0.00248960826368
0.00248739140076
0.00248067712891
0.0024614447328
0.00241519573538
0.0023191757327
0.00213935143804
0.00182041219428
0.00125124363835
0.000246006562561
0.000263036821151
0.00142560541886
0.00214459464461
0.00256485215977
0.0028097699957
0.00294489918653
0.0030115892822
0.00303757106128
0.00304427722411
0.00304413722447
0.00304244712632
0.00303947942932
0.00302989819494
0.00300195192609
0.00293555221952
0.00280234607824
0.00255914328626
0.00213928325494
0.00142128750006
0.000262762986239
0.000273065400885
0.00151481358655