/*--------------------------------*- C++ -*----------------------------------*\
| =========                 |                                                 |
| \\      /  F ield         | OpenFOAM: The Open Source CFD Toolbox           |
|  \\    /   O peration     | Version:  3.0.1                                 |
|   \\  /    A nd           | Web:      www.OpenFOAM.org                      |
|    \\/     M anipulation  |                                                 |
\*---------------------------------------------------------------------------*/
FoamFile
{
    version     2.0;
    format      ascii;
    class       volScalarField;
    location    "4.5";
    object      rAU;
}
// * * * * * * * * * * * * * * * * * * * * * * * * * * * * * * * * * * * * * //

dimensions      [-1 3 1 0 0 0 0];

internalField   nonuniform List<scalar> 
7968
(
1.0520098367e-05
1.05119774563e-05
1.05111613784e-05
1.05121372926e-05
1.05128662305e-05
1.05035235029e-05
1.04984058835e-05
1.05046287458e-05
1.0506815373e-05
1.05075634474e-05
1.05075775352e-05
1.05068617051e-05
1.05047437122e-05
1.04987763647e-05
1.05036269111e-05
1.05126708701e-05
1.05121188239e-05
1.05111459333e-05
1.05119426571e-05
1.0520082446e-05
1.05119647038e-05
1.04907366735e-05
1.0483670716e-05
1.04810079207e-05
1.04784113036e-05
1.04741798129e-05
1.04715254171e-05
1.04726324305e-05
1.04739625126e-05
1.04745780166e-05
1.04745962059e-05
1.04740144351e-05
1.04727080415e-05
1.04715539769e-05
1.0474107631e-05
1.04783468483e-05
1.04810115949e-05
1.04836772106e-05
1.04907292274e-05
1.05119640529e-05
1.05111304311e-05
1.04836661662e-05
1.04726832103e-05
1.04679035597e-05
1.04644287625e-05
1.04614794474e-05
1.04600986462e-05
1.04607289679e-05
1.04616134148e-05
1.04619162687e-05
1.04619474085e-05
1.04616865421e-05
1.04608009346e-05
1.04601227814e-05
1.04614586895e-05
1.04644213048e-05
1.04679327544e-05
1.04727238927e-05
1.04836937508e-05
1.05111435377e-05
1.05121185448e-05
1.04809958778e-05
1.04678994321e-05
1.04626102592e-05
1.04591387306e-05
1.04569680048e-05
1.04571817358e-05
1.04591391238e-05
1.04611631977e-05
1.04622419513e-05
1.04622696271e-05
1.04612242003e-05
1.0459199387e-05
1.04572093492e-05
1.04569616458e-05
1.04591512885e-05
1.04626643155e-05
1.0467969141e-05
1.04810596332e-05
1.05121676732e-05
1.05128788075e-05
1.04784282265e-05
1.0464426314e-05
1.04591362914e-05
1.04555327574e-05
1.04524054109e-05
1.04498798155e-05
1.04501208262e-05
1.04509822821e-05
1.04513539355e-05
1.04513794122e-05
1.04510275908e-05
1.04501315198e-05
1.04498442165e-05
1.0452384081e-05
1.04555397858e-05
1.04591613984e-05
1.04644668284e-05
1.04784520368e-05
1.05128629281e-05
1.05035246422e-05
1.0474212178e-05
1.04614882323e-05
1.04569642964e-05
1.04523886204e-05
1.0443971568e-05
1.04386153117e-05
1.04373827958e-05
1.04369012102e-05
1.04363533833e-05
1.04363712429e-05
1.0436928013e-05
1.04373772677e-05
1.04385839999e-05
1.04439365582e-05
1.04523630897e-05
1.04569526995e-05
1.04614581518e-05
1.04741186593e-05
1.05035213531e-05
1.04983946657e-05
1.04715574867e-05
1.04601190091e-05
1.04571801718e-05
1.04498057158e-05
1.04385579031e-05
1.04326718054e-05
1.04322851679e-05
1.04325327406e-05
1.04323998697e-05
1.04324126902e-05
1.04325284197e-05
1.0432227499e-05
1.04326546145e-05
1.04385876998e-05
1.04498183245e-05
1.04571712796e-05
1.04600755384e-05
1.04714747968e-05
1.04984395748e-05
1.05046427713e-05
1.04726567352e-05
1.046075921e-05
1.04591490354e-05
1.04500314578e-05
1.04373120388e-05
1.04323068347e-05
1.04342970564e-05
1.04390792866e-05
1.0444315881e-05
1.04444776591e-05
1.04397171219e-05
1.0434191401e-05
1.04322484365e-05
1.04373962921e-05
1.04501104844e-05
1.04591500585e-05
1.04607379675e-05
1.04726369274e-05
1.05046271431e-05
1.05068343258e-05
1.04739905341e-05
1.04616547515e-05
1.04611866745e-05
1.0450890834e-05
1.04368439405e-05
1.04326268782e-05
1.04391504364e-05
1.04514706984e-05
1.04547400697e-05
1.04548384339e-05
1.04516749276e-05
1.04397547626e-05
1.04325411771e-05
1.0436962629e-05
1.04510204115e-05
1.04611869407e-05
1.0461628153e-05
1.04739749233e-05
1.05068066905e-05
1.05075836116e-05
1.04746045575e-05
1.04619484509e-05
1.04622664324e-05
1.04512481415e-05
1.0436285026e-05
1.04325198945e-05
1.04443203367e-05
1.04547172946e-05
1.04580505337e-05
1.04581452642e-05
1.04549020514e-05
1.04446281804e-05
1.04324269468e-05
1.04364279267e-05
1.04513995493e-05
1.04622618607e-05
1.0461908364e-05
1.04745840472e-05
1.05075510771e-05
1.05075964258e-05
1.04746175131e-05
1.04619635047e-05
1.04622822183e-05
1.04512592959e-05
1.04362880835e-05
1.04325227559e-05
1.0444352069e-05
1.04547438258e-05
1.0458078615e-05
1.04581738031e-05
1.04549301554e-05
1.04446649313e-05
1.043243218e-05
1.04364326928e-05
1.04514111919e-05
1.04622787037e-05
1.04619232759e-05
1.04746006363e-05
1.0507567067e-05
1.05068786403e-05
1.04740311084e-05
1.04616980358e-05
1.0461235464e-05
1.04509267698e-05
1.04368603812e-05
1.04326498871e-05
1.04393261385e-05
1.04515773367e-05
1.04548499963e-05
1.04549496542e-05
1.0451784736e-05
1.04399426837e-05
1.0432569555e-05
1.04369845764e-05
1.04510579399e-05
1.04612386743e-05
1.04616737433e-05
1.04740255325e-05
1.05068612756e-05
1.05047542414e-05
1.04727229275e-05
1.04608183252e-05
1.04592234402e-05
1.0450087837e-05
1.04373449898e-05
1.04323544733e-05
1.04343873126e-05
1.04395161712e-05
1.04446700095e-05
1.04448346247e-05
1.04401559576e-05
1.04342868026e-05
1.0432306273e-05
1.04374381066e-05
1.0450169437e-05
1.04592286691e-05
1.04608037335e-05
1.04727198464e-05
1.05047622895e-05
1.04987647582e-05
1.04715837252e-05
1.04601501146e-05
1.0457242434e-05
1.04498431967e-05
1.04385630545e-05
1.04326910142e-05
1.04323618922e-05
1.04326638998e-05
1.04325563331e-05
1.04325717334e-05
1.04326671337e-05
1.04323161714e-05
1.04326897135e-05
1.04386030556e-05
1.04498566787e-05
1.04572363823e-05
1.04601113996e-05
1.04715165144e-05
1.04988760777e-05
1.05036535741e-05
1.04741495177e-05
1.04614826394e-05
1.04569846837e-05
1.04524076965e-05
1.04439034373e-05
1.04385180148e-05
1.04372956864e-05
1.04368203923e-05
1.0436265445e-05
1.04362858074e-05
1.04368540755e-05
1.04373000639e-05
1.04384972141e-05
1.04438724361e-05
1.04523805335e-05
1.04569718398e-05
1.04614538173e-05
1.04740564897e-05
1.05036531344e-05
1.05127227539e-05
1.04783828511e-05
1.04644326399e-05
1.04591604848e-05
1.04555552467e-05
1.04523735676e-05
1.0449761343e-05
1.0449983932e-05
1.04508251935e-05
1.04511793826e-05
1.04512057667e-05
1.04508727212e-05
1.04499975428e-05
1.04497263821e-05
1.04523502442e-05
1.04555594146e-05
1.04591858995e-05
1.04644800061e-05
1.04784051198e-05
1.05126625811e-05
1.05121293237e-05
1.04810110982e-05
1.04679317243e-05
1.04626625955e-05
1.04591760079e-05
1.04569745194e-05
1.04571881993e-05
1.04591532462e-05
1.04611834742e-05
1.04622701636e-05
1.04622993809e-05
1.04612484523e-05
1.04592188942e-05
1.04572193239e-05
1.04569664402e-05
1.04591896093e-05
1.04627277376e-05
1.04680157287e-05
1.04810874414e-05
1.05121851418e-05
1.05111445602e-05
1.04836825477e-05
1.04727181512e-05
1.04679641564e-05
1.04644861169e-05
1.04614975377e-05
1.04601005263e-05
1.04607504217e-05
1.04616424733e-05
1.04619320475e-05
1.04619644929e-05
1.04617207522e-05
1.04608307382e-05
1.04601301698e-05
1.04614756683e-05
1.04644870803e-05
1.04680113023e-05
1.04727729881e-05
1.04837236479e-05
1.05111621064e-05
1.05119631281e-05
1.04907499614e-05
1.04836989452e-05
1.04810677969e-05
1.04784808201e-05
1.04741852586e-05
1.04715032737e-05
1.04726490591e-05
1.04739974251e-05
1.04746191377e-05
1.04746411036e-05
1.04740604963e-05
1.0472743418e-05
1.0471548802e-05
1.04741122244e-05
1.0478421135e-05
1.04810840878e-05
1.04837190957e-05
1.04907541927e-05
1.05119691275e-05
1.05201002061e-05
1.05119853539e-05
1.05111766244e-05
1.05121748507e-05
1.05129154733e-05
1.05034996149e-05
1.04983436046e-05
1.05046134931e-05
1.05068152799e-05
1.05075686298e-05
1.05075867914e-05
1.05068744452e-05
1.05047563186e-05
1.04987955818e-05
1.05036346682e-05
1.05126945837e-05
1.05121658804e-05
1.05111676073e-05
1.05119622948e-05
1.05200964687e-05
1.05152485029e-05
1.04962610432e-05
1.0488700222e-05
1.04866583537e-05
1.04846764922e-05
1.04780775499e-05
1.04751722464e-05
1.04789694118e-05
1.0481329131e-05
1.04823443395e-05
1.04823692945e-05
1.0481403237e-05
1.04791015185e-05
1.04753551713e-05
1.04780277304e-05
1.04845426133e-05
1.04866990868e-05
1.04887486388e-05
1.04963118685e-05
1.05152677889e-05
1.04962598752e-05
1.04069131389e-05
1.03600372239e-05
1.03384251625e-05
1.03274194473e-05
1.03214754791e-05
1.03196712443e-05
1.03212384562e-05
1.03234170603e-05
1.03247195104e-05
1.03247785333e-05
1.03235778514e-05
1.03214631162e-05
1.03198821691e-05
1.03216224126e-05
1.03275771429e-05
1.03386468144e-05
1.03602779802e-05
1.04071019837e-05
1.04963001529e-05
1.04886909885e-05
1.03600242839e-05
1.02876737963e-05
1.02511413258e-05
1.02321138185e-05
1.022278317e-05
1.02194575902e-05
1.02195551843e-05
1.02206631748e-05
1.02213241296e-05
1.0221320388e-05
1.0220790115e-05
1.02197849341e-05
1.02197022781e-05
1.02230038613e-05
1.02323325522e-05
1.02513897616e-05
1.02879493492e-05
1.03602450207e-05
1.04887527385e-05
1.04866389041e-05
1.03383961567e-05
1.02511177244e-05
1.02062276714e-05
1.01837713474e-05
1.01736050598e-05
1.01697098999e-05
1.01693815934e-05
1.01703923811e-05
1.0171260684e-05
1.01713571218e-05
1.01706452058e-05
1.01697188495e-05
1.01700480711e-05
1.0173911279e-05
1.01840292445e-05
1.02064688166e-05
1.02513909251e-05
1.03386291598e-05
1.04867254891e-05
1.04846945186e-05
1.03273945474e-05
1.02320846391e-05
1.01837594511e-05
1.01597993204e-05
1.01485621877e-05
1.01448562144e-05
1.01452370602e-05
1.01468493896e-05
1.01480622877e-05
1.01481977579e-05
1.01471878112e-05
1.01456412472e-05
1.0145234094e-05
1.01489119051e-05
1.01601328319e-05
1.01840408267e-05
1.0232339531e-05
1.03275782141e-05
1.04846469367e-05
1.04780981568e-05
1.03214634363e-05
1.02227688517e-05
1.01735912719e-05
1.01485893599e-05
1.01384438687e-05
1.01368464606e-05
1.01387895119e-05
1.01413926182e-05
1.01431109649e-05
1.01432893852e-05
1.01418256168e-05
1.01392484862e-05
1.01372131485e-05
1.01387334459e-05
1.01489018928e-05
1.01739309875e-05
1.02229930915e-05
1.03215795758e-05
1.04780049278e-05
1.04751575843e-05
1.03196621856e-05
1.0219462777e-05
1.01697239306e-05
1.01449411897e-05
1.0136943704e-05
1.01371623051e-05
1.01403796238e-05
1.01438539442e-05
1.01459732346e-05
1.01461893917e-05
1.01443635295e-05
1.01408845809e-05
1.01375211042e-05
1.01371583475e-05
1.01451967544e-05
1.01700550752e-05
1.02196815785e-05
1.03197913804e-05
1.0475179781e-05
1.04789666648e-05
1.03212333613e-05
1.02195698518e-05
1.01694043692e-05
1.01453584588e-05
1.0138960877e-05
1.01404634442e-05
1.01448292625e-05
1.01520529565e-05
1.01593907663e-05
1.01597949658e-05
1.01533048168e-05
1.01453903596e-05
1.01408582273e-05
1.01391653414e-05
1.0145607937e-05
1.0169748809e-05
1.02198005248e-05
1.03213970892e-05
1.04789991178e-05
1.04813318626e-05
1.03234097057e-05
1.02206694179e-05
1.01703842587e-05
1.01469444253e-05
1.01415548997e-05
1.01439463893e-05
1.01520425779e-05
1.01670017453e-05
1.01726202969e-05
1.01729738534e-05
1.01679170144e-05
1.01534252718e-05
1.01443943088e-05
1.01418104278e-05
1.01472339173e-05
1.01707519434e-05
1.02208698323e-05
1.03235734763e-05
1.04813569388e-05
1.04823446802e-05
1.0324695154e-05
1.02213582889e-05
1.01711978783e-05
1.01480680815e-05
1.01431488295e-05
1.01459133099e-05
1.01591130164e-05
1.01723925317e-05
1.01779178504e-05
1.01782741666e-05
1.01732917826e-05
1.01602661994e-05
1.01464205156e-05
1.0143450912e-05
1.01483916182e-05
1.01715810611e-05
1.02214168615e-05
1.03248540573e-05
1.04823650079e-05
1.04823639994e-05
1.03247313183e-05
1.02213700752e-05
1.01712344977e-05
1.01481031483e-05
1.0143182322e-05
1.01459444159e-05
1.01591743295e-05
1.01724494194e-05
1.01779787211e-05
1.01783367851e-05
1.01733519492e-05
1.0160333955e-05
1.01464543044e-05
1.01434857386e-05
1.01484283693e-05
1.01716208268e-05
1.02214209105e-05
1.03248923365e-05
1.04823866381e-05
1.0481394326e-05
1.03235141198e-05
1.02207501492e-05
1.01704918794e-05
1.01470482682e-05
1.01416591466e-05
1.01440506103e-05
1.01522943527e-05
1.01672012182e-05
1.0172820194e-05
1.01731759206e-05
1.01681228846e-05
1.01536912889e-05
1.01445002785e-05
1.01419165871e-05
1.01473425361e-05
1.0170867846e-05
1.02209509993e-05
1.03236847642e-05
1.04814264517e-05
1.04790885869e-05
1.0321394406e-05
1.0219714762e-05
1.01695748196e-05
1.01455257898e-05
1.01391398477e-05
1.01406562479e-05
1.01450347194e-05
1.01526005953e-05
1.01598553201e-05
1.01602628922e-05
1.01538558775e-05
1.01455997486e-05
1.01410540751e-05
1.01393489409e-05
1.01457837375e-05
1.01699316311e-05
1.02199544051e-05
1.03215687323e-05
1.0479134909e-05
1.04753352897e-05
1.03198239404e-05
1.0219633035e-05
1.01699309423e-05
1.01451468185e-05
1.01371765896e-05
1.01374221553e-05
1.01406647219e-05
1.01441534356e-05
1.01462833477e-05
1.01465009653e-05
1.01446669795e-05
1.0141173734e-05
1.01377880037e-05
1.01373992929e-05
1.01454124555e-05
1.01702764233e-05
1.02198658553e-05
1.03199637257e-05
1.04753829646e-05
1.04780482909e-05
1.03215849341e-05
1.02229437342e-05
1.01738021951e-05
1.01488189242e-05
1.01386883772e-05
1.01371425234e-05
1.0139118759e-05
1.01417389327e-05
1.01434663758e-05
1.01436464067e-05
1.01421763577e-05
1.01395843276e-05
1.01375175129e-05
1.01389861756e-05
1.01491428431e-05
1.01741588784e-05
1.02231840703e-05
1.03217046557e-05
1.04779384516e-05
1.04845689079e-05
1.03275285262e-05
1.02322657245e-05
1.01839510474e-05
1.01600178835e-05
1.01488134148e-05
1.01451279932e-05
1.01455399036e-05
1.01471634799e-05
1.01483840786e-05
1.01485219978e-05
1.01475088319e-05
1.01459544984e-05
1.01455178233e-05
1.01491765927e-05
1.01603686386e-05
1.01842587225e-05
1.02325407322e-05
1.03277170701e-05
1.04844895357e-05
1.04866863592e-05
1.03385674183e-05
1.02513043547e-05
1.02064004536e-05
1.01839586597e-05
1.01738180809e-05
1.0169942231e-05
1.01696211456e-05
1.01706260478e-05
1.01714962414e-05
1.01715964939e-05
1.01708896944e-05
1.01699753451e-05
1.01703007186e-05
1.01741466745e-05
1.01842456856e-05
1.020667142e-05
1.0251605247e-05
1.03388187785e-05
1.04867761392e-05
1.04887400771e-05
1.03601894484e-05
1.02878474104e-05
1.02513092677e-05
1.02322726525e-05
1.02229327244e-05
1.02196141078e-05
1.02197274643e-05
1.02208089237e-05
1.02213592181e-05
1.0221332274e-05
1.02209352819e-05
1.02199692035e-05
1.02198743745e-05
1.02231719007e-05
1.02325149351e-05
1.02515863289e-05
1.02881543195e-05
1.03604370129e-05
1.04888074987e-05
1.0496303971e-05
1.04070248844e-05
1.03601563785e-05
1.03385566489e-05
1.03275405918e-05
1.03215601736e-05
1.03197506653e-05
1.03213478244e-05
1.032354428e-05
1.03248553215e-05
1.03249186183e-05
1.03237172742e-05
1.03215887762e-05
1.03199756932e-05
1.03217144072e-05
1.03277077182e-05
1.03387977397e-05
1.03604233832e-05
1.04072373904e-05
1.04963494803e-05
1.05152727819e-05
1.04962857917e-05
1.04887325788e-05
1.04867134159e-05
1.04847133098e-05
1.04780450809e-05
1.0475127663e-05
1.04789685176e-05
1.04813462789e-05
1.04823685528e-05
1.04823968034e-05
1.04814309199e-05
1.04791198251e-05
1.04753399492e-05
1.04779834787e-05
1.04845529863e-05
1.0486760471e-05
1.04887909123e-05
1.0496344957e-05
1.05152977324e-05
1.05132833131e-05
1.04895906128e-05
1.04789415473e-05
1.04749824222e-05
1.04704455045e-05
1.04633571605e-05
1.04604715995e-05
1.04626188436e-05
1.04642675195e-05
1.04649542123e-05
1.04649923933e-05
1.04643847868e-05
1.04628173666e-05
1.04607012411e-05
1.04633527982e-05
1.04703730035e-05
1.04750990283e-05
1.04790958444e-05
1.04897438892e-05
1.05133839022e-05
1.04895818618e-05
1.03665314713e-05
1.02985759383e-05
1.02656751232e-05
1.02485631132e-05
1.02397263283e-05
1.02364993606e-05
1.02370300275e-05
1.02387064423e-05
1.0239852837e-05
1.0239949825e-05
1.02389734963e-05
1.02374146517e-05
1.0236912202e-05
1.0240106175e-05
1.0248934708e-05
1.02660905263e-05
1.02990336118e-05
1.03669442941e-05
1.04897336619e-05
1.04789230405e-05
1.02985444133e-05
1.01890442634e-05
1.01319139907e-05
1.01025365856e-05
1.00886016244e-05
1.0083188232e-05
1.00821120935e-05
1.00829436994e-05
1.00838863399e-05
1.00839304611e-05
1.00832025269e-05
1.00825372198e-05
1.00836933642e-05
1.00891293051e-05
1.01030610759e-05
1.01324189984e-05
1.01895341278e-05
1.02989784019e-05
1.04790867898e-05
1.0474942863e-05
1.02656084807e-05
1.01318750546e-05
1.00598827697e-05
1.00218659482e-05
1.00022111821e-05
9.99258179549e-06
9.98910588243e-06
9.98866942851e-06
9.98915726258e-06
9.98932418297e-06
9.9891051151e-06
9.98964381589e-06
9.99312483104e-06
1.00028232492e-05
1.00225219605e-05
1.00604898355e-05
1.01323990628e-05
1.02660448322e-05
1.04751400101e-05
1.04704185593e-05
1.02484552736e-05
1.01024750218e-05
1.00218326532e-05
9.97670076452e-06
9.95363757521e-06
9.9453286408e-06
9.94338872345e-06
9.94384084381e-06
9.94478410558e-06
9.94501213204e-06
9.94439660407e-06
9.9438368991e-06
9.94561949554e-06
9.95411216833e-06
9.97735026254e-06
1.00225441295e-05
1.01030613169e-05
1.0248918801e-05
1.04704576816e-05
1.0463296254e-05
1.02395847701e-05
1.00885365243e-05
1.00021553678e-05
9.95370942059e-06
9.93355452501e-06
9.9276224746e-06
9.92730366231e-06
9.92888655448e-06
9.93055883323e-06
9.93086959273e-06
9.9295730432e-06
9.92731690552e-06
9.9267928416e-06
9.93308075909e-06
9.95408794101e-06
1.00028738295e-05
1.00891607568e-05
1.02401109624e-05
1.04633518296e-05
1.04603373539e-05
1.02363450113e-05
1.00831254382e-05
9.99257708253e-06
9.94568061255e-06
9.92832847063e-06
9.92492849523e-06
9.92656997043e-06
9.92962245131e-06
9.93219018675e-06
9.93260094972e-06
9.93049319835e-06
9.92616461169e-06
9.92272205914e-06
9.92629196567e-06
9.94543830623e-06
9.99318127822e-06
1.00837577309e-05
1.02369344524e-05
1.04606440447e-05
1.04624875966e-05
1.02368848214e-05
1.00820370792e-05
9.98918164149e-06
9.94414571344e-06
9.92911255476e-06
9.92798820627e-06
9.93175740925e-06
9.93642354972e-06
9.94010522806e-06
9.94063111657e-06
9.93755409925e-06
9.93126065126e-06
9.92513272299e-06
9.92603205605e-06
9.94340433455e-06
9.98971861063e-06
1.00826757755e-05
1.02375015841e-05
1.04628549335e-05
1.0464159969e-05
1.02385702621e-05
1.00828369991e-05
9.98873476784e-06
9.94476675646e-06
9.93122692064e-06
9.9318350092e-06
9.93726710471e-06
9.94358693014e-06
9.94794063225e-06
9.94852404068e-06
9.94488165082e-06
9.93700633704e-06
9.92897850015e-06
9.92797738183e-06
9.9439430604e-06
9.9892989948e-06
1.0083464704e-05
1.02391636908e-05
1.04644991628e-05
1.04648642696e-05
1.02397034178e-05
1.00837766641e-05
9.9891154846e-06
9.9455470221e-06
9.93268399713e-06
9.93412412535e-06
9.94060828159e-06
9.94756879119e-06
9.95226740176e-06
9.95289453587e-06
9.94895108054e-06
9.94050253751e-06
9.93143310793e-06
9.92956239283e-06
9.94480810903e-06
9.98972762349e-06
1.00842881463e-05
1.02402714109e-05
1.04651756681e-05
1.0464903201e-05
1.02397672651e-05
1.00838056932e-05
9.98916606209e-06
9.94559164875e-06
9.93272031017e-06
9.93415175044e-06
9.94063730795e-06
9.947598663e-06
9.95229795255e-06
9.95292774487e-06
9.94897977544e-06
9.94053401239e-06
9.93146801134e-06
9.92960370132e-06
9.94485532723e-06
9.98978116441e-06
1.00843110129e-05
1.02403384029e-05
1.04652202324e-05
1.0464281204e-05
1.02387522328e-05
1.00829660769e-05
9.98887966292e-06
9.94490284334e-06
9.93135694805e-06
9.93196225951e-06
9.93740394561e-06
9.94373444936e-06
9.94808776257e-06
9.94866285585e-06
9.9450186463e-06
9.93714195322e-06
9.92911087108e-06
9.92811671667e-06
9.94408573855e-06
9.98945062767e-06
1.00835949745e-05
1.02393577118e-05
1.04646344191e-05
1.04626930049e-05
1.02371661263e-05
1.00822597094e-05
9.9894138945e-06
9.94440584881e-06
9.92944935906e-06
9.92841364588e-06
9.93222901154e-06
9.93693651791e-06
9.94061691565e-06
9.94113687144e-06
9.93805917652e-06
9.93173860307e-06
9.92557031615e-06
9.92638579832e-06
9.94367479972e-06
9.98995871631e-06
1.00829046713e-05
1.02377990439e-05
1.04630795922e-05
1.04605662901e-05
1.02366650922e-05
1.00834181149e-05
9.99288669659e-06
9.9460514356e-06
9.92886836344e-06
9.92569055213e-06
9.92747305674e-06
9.93056576218e-06
9.93313597294e-06
9.9335430053e-06
9.93143128855e-06
9.92706892726e-06
9.92350760069e-06
9.92685602262e-06
9.94582416646e-06
9.99350115993e-06
1.00840626775e-05
1.02372714397e-05
1.04608992745e-05
1.04632993196e-05
1.02398888309e-05
1.00888769346e-05
1.00025236258e-05
9.95411394589e-06
9.93411345634e-06
9.92842487439e-06
9.92829344104e-06
9.92993825609e-06
9.93161646503e-06
9.93192599387e-06
9.93062178905e-06
9.92831088931e-06
9.92761408424e-06
9.93365625004e-06
9.95450894406e-06
1.00032571786e-05
1.00895205082e-05
1.02404258925e-05
1.0463344278e-05
1.04703481604e-05
1.02487395688e-05
1.01028255227e-05
1.00222190964e-05
9.97708332777e-06
9.95410186472e-06
9.94591149817e-06
9.94406744652e-06
9.94457239793e-06
9.94552804154e-06
9.94575801256e-06
9.94513320405e-06
9.94452562752e-06
9.94621828039e-06
9.95459439799e-06
9.97775250165e-06
1.0022960274e-05
1.01034404894e-05
1.02492146072e-05
1.04703611693e-05
1.0475026779e-05
1.02658976281e-05
1.01322002732e-05
1.0060227541e-05
1.00222407427e-05
1.00025866799e-05
9.99296297006e-06
9.9895236946e-06
9.98913236362e-06
9.989643179e-06
9.98981486029e-06
9.98958059099e-06
9.99007695883e-06
9.99352493976e-06
1.00032211396e-05
1.00229308808e-05
1.00608745476e-05
1.01327592349e-05
1.02663533345e-05
1.04752240543e-05
1.04790258562e-05
1.02988290078e-05
1.01893225971e-05
1.01321809274e-05
1.01028223992e-05
1.00889120835e-05
1.00835067267e-05
1.00824295488e-05
1.00832488269e-05
1.00841048606e-05
1.00841281182e-05
1.00835092675e-05
1.00828670483e-05
1.00840311424e-05
1.00894670711e-05
1.0103380407e-05
1.01327229679e-05
1.01898491221e-05
1.02992883388e-05
1.04791941563e-05
1.04896758714e-05
1.03667474208e-05
1.02987800337e-05
1.02658651831e-05
1.02487381706e-05
1.02399013057e-05
1.02366998461e-05
1.02372739214e-05
1.02389800091e-05
1.02401455414e-05
1.02402497963e-05
1.02392698472e-05
1.02376867797e-05
1.02371406046e-05
1.02403032356e-05
1.024912749e-05
1.02663034504e-05
1.02992649238e-05
1.03671851431e-05
1.04898358229e-05
1.05133629412e-05
1.04896588103e-05
1.04790125791e-05
1.04750753049e-05
1.0470476784e-05
1.04633226067e-05
1.04604809788e-05
1.04627040009e-05
1.0464391821e-05
1.04650984918e-05
1.04651440411e-05
1.04645303756e-05
1.04629348167e-05
1.0460745143e-05
1.04633146389e-05
1.04703855132e-05
1.04751966167e-05
1.04791734404e-05
1.04898249328e-05
1.05134625222e-05
1.05074596065e-05
1.04808394365e-05
1.04636594531e-05
1.04580348035e-05
1.0453192611e-05
1.0447628701e-05
1.04448232776e-05
1.04449334926e-05
1.04451227072e-05
1.04450684926e-05
1.04450782448e-05
1.04451664572e-05
1.04450268857e-05
1.04449049054e-05
1.04475247059e-05
1.04530921607e-05
1.04581297932e-05
1.04638257827e-05
1.04811750554e-05
1.05078312911e-05
1.04808344226e-05
1.03380997374e-05
1.02544989838e-05
1.02159596769e-05
1.01964389153e-05
1.01870510366e-05
1.0183351516e-05
1.01826834714e-05
1.01833085403e-05
1.01839643133e-05
1.01840681827e-05
1.01835969874e-05
1.01831001896e-05
1.01838347494e-05
1.01875624476e-05
1.01969753518e-05
1.02165011877e-05
1.02550104375e-05
1.03386066892e-05
1.04811297691e-05
1.04636445678e-05
1.0254445243e-05
1.0132389339e-05
1.00647495201e-05
1.0028494413e-05
1.00101636712e-05
1.00017727019e-05
9.99849195687e-06
9.99778528581e-06
9.99803485516e-06
9.99821228803e-06
9.99827162483e-06
9.99914254751e-06
1.00024951349e-05
1.00110146269e-05
1.002943469e-05
1.00656778581e-05
1.01332078498e-05
1.02550267401e-05
1.04638434996e-05
1.045800277e-05
1.02158549589e-05
1.0064682843e-05
9.975890336e-06
9.92532736279e-06
9.89736175801e-06
9.88351429556e-06
9.87732086381e-06
9.87516268225e-06
9.8749401757e-06
9.8751848036e-06
9.87574247376e-06
9.87749562946e-06
9.88309978286e-06
9.89745105129e-06
9.92615440342e-06
9.97699046292e-06
1.00656920648e-05
1.02165501461e-05
1.04582254149e-05
1.04531875108e-05
1.01962918015e-05
1.00283696685e-05
9.92529294097e-06
9.86511715872e-06
9.83403061385e-06
9.81993907206e-06
9.81359066375e-06
9.8112925301e-06
9.81139532634e-06
9.81181156523e-06
9.81211657142e-06
9.81235252586e-06
9.81593609579e-06
9.83054558544e-06
9.86422477702e-06
9.92616876774e-06
1.00294994139e-05
1.01970833201e-05
1.0453187579e-05
1.04475919806e-05
1.01868826804e-05
1.00100167349e-05
9.89757494954e-06
9.83504700902e-06
9.80554455026e-06
9.79221247312e-06
9.78486646956e-06
9.78307290146e-06
9.78423917131e-06
9.78495065969e-06
9.78439166249e-06
9.7820248384e-06
9.78314756902e-06
9.79550763925e-06
9.82976852321e-06
9.89729467748e-06
1.00111232599e-05
1.01877235409e-05
1.04475656716e-05
1.04447020137e-05
1.01831766274e-05
1.00017261165e-05
9.88464791464e-06
9.82356541435e-06
9.79610466859e-06
9.7836388055e-06
9.77864541212e-06
9.77837026867e-06
9.78083235291e-06
9.78190494403e-06
9.78043001909e-06
9.77425715046e-06
9.76961449466e-06
9.78000130616e-06
9.81310502442e-06
9.88231735533e-06
1.00025773483e-05
1.01840385308e-05
1.04449837046e-05
1.04447974747e-05
1.01824964257e-05
9.99859061342e-06
9.87978322335e-06
9.8204584019e-06
9.79452295821e-06
9.78561885804e-06
9.78333068835e-06
9.78489341257e-06
9.78857968514e-06
9.78991112404e-06
9.78761506649e-06
9.77853533384e-06
9.76869670328e-06
9.77453728508e-06
9.80692842659e-06
9.87579580348e-06
9.99920048948e-06
1.0183376959e-05
1.04451943062e-05
1.04449906187e-05
1.01830845899e-05
9.99787425229e-06
9.87817403937e-06
9.81980477289e-06
9.79562518846e-06
9.78910647173e-06
9.78879744302e-06
9.79210237159e-06
9.7970590927e-06
9.79858056672e-06
9.79528369361e-06
9.78442563739e-06
9.77191912784e-06
9.77460117197e-06
9.80551462938e-06
9.87376155491e-06
9.99845573098e-06
1.01839801926e-05
1.04453872894e-05
1.04449480617e-05
1.01836903497e-05
9.99801207095e-06
9.87780155505e-06
9.81970328601e-06
9.79636559583e-06
9.79083702656e-06
9.79159486263e-06
9.796022366e-06
9.80179960007e-06
9.80349307862e-06
9.79949986647e-06
9.78755767657e-06
9.77407241355e-06
9.77561388481e-06
9.80553758857e-06
9.87346915562e-06
9.99862919064e-06
1.01845903697e-05
1.04453275968e-05
1.04449660746e-05
1.01837393548e-05
9.99807602034e-06
9.87785014372e-06
9.81972723826e-06
9.79634665435e-06
9.79076784074e-06
9.79150032937e-06
9.79590151543e-06
9.80165031585e-06
9.80335388815e-06
9.79938047521e-06
9.78747143382e-06
9.77403151665e-06
9.77562404501e-06
9.80556823034e-06
9.87352245246e-06
9.99869452944e-06
1.01846439883e-05
1.04453492585e-05
1.04450519287e-05
1.01832291262e-05
9.99806009853e-06
9.87832069397e-06
9.81990963735e-06
9.79566147547e-06
9.7890353101e-06
9.78867240919e-06
9.79194064017e-06
9.79686381956e-06
9.79837510674e-06
9.79511854704e-06
9.78432775362e-06
9.77193912346e-06
9.77471982631e-06
9.80565295129e-06
9.87392297376e-06
9.9986435517e-06
1.01841363962e-05
1.04454586298e-05
1.04449022643e-05
1.01827245617e-05
9.99889740645e-06
9.88010869188e-06
9.82094796212e-06
9.79522038286e-06
9.78651429481e-06
9.78432724419e-06
9.78590465241e-06
9.78956284874e-06
9.79088696677e-06
9.78860753996e-06
9.77960097197e-06
9.76974944835e-06
9.77538964941e-06
9.80748238231e-06
9.87613762794e-06
9.99950762956e-06
1.01836172032e-05
1.04453137218e-05
1.04447889784e-05
1.01834667284e-05
1.00021481281e-05
9.88515693802e-06
9.82451551704e-06
9.79769031936e-06
9.78594476455e-06
9.78139426142e-06
9.78125402326e-06
9.78370163219e-06
9.78475917739e-06
9.78329469911e-06
9.77707904333e-06
9.7720756627e-06
9.78177383277e-06
9.81413585861e-06
9.88283970671e-06
1.00030014211e-05
1.01843403065e-05
1.0445095062e-05
1.04475178489e-05
1.01872132334e-05
1.00105197075e-05
9.89811998944e-06
9.83602751362e-06
9.80736030636e-06
9.79486472896e-06
9.78816892455e-06
9.78656712737e-06
9.78771996636e-06
9.78841698212e-06
9.78785590446e-06
9.78535634003e-06
9.78594309171e-06
9.79743706e-06
9.83078668403e-06
9.89784982091e-06
1.00116362024e-05
1.01880697358e-05
1.04474900156e-05
1.04531064707e-05
1.01966402488e-05
1.00289012051e-05
9.92583025767e-06
9.86580293788e-06
9.83530305816e-06
9.82190758509e-06
9.8160236116e-06
9.81389474688e-06
9.81400343877e-06
9.81440849871e-06
9.81469117256e-06
9.81479887566e-06
9.81795932304e-06
9.8318485544e-06
9.8649308064e-06
9.92672353271e-06
1.00300560189e-05
1.01974573786e-05
1.04530881433e-05
1.04580614633e-05
1.02161896835e-05
1.00651838651e-05
9.97641334578e-06
9.92585043264e-06
9.89798635281e-06
9.88439932403e-06
9.87847610035e-06
9.876426244e-06
9.87621956689e-06
9.87646347059e-06
9.87700555518e-06
9.87865490097e-06
9.8840027498e-06
9.89809373881e-06
9.9267025667e-06
9.97755091748e-06
1.00662381671e-05
1.02169236471e-05
1.04582903759e-05
1.04637386979e-05
1.02547387045e-05
1.01327954736e-05
1.00651968398e-05
1.00289662491e-05
1.00106550488e-05
1.00022902591e-05
9.99903735087e-06
9.99833847011e-06
9.99859151613e-06
9.9987731243e-06
9.99883448851e-06
9.99970064804e-06
1.00030321785e-05
1.00115356073e-05
1.00299452616e-05
1.00661746482e-05
1.01336698721e-05
1.02553632491e-05
1.04639498922e-05
1.04810150415e-05
1.03383611989e-05
1.02547656374e-05
1.02162509753e-05
1.01967595981e-05
1.01873957257e-05
1.01837147155e-05
1.01830590998e-05
1.01836977743e-05
1.0184365936e-05
1.018447528e-05
1.01840013997e-05
1.0183498039e-05
1.01842221065e-05
1.01879365201e-05
1.01973318665e-05
1.02168361112e-05
1.02553224651e-05
1.03388881178e-05
1.04813071681e-05
1.0507670157e-05
1.04809826993e-05
1.04637692058e-05
1.04581720136e-05
1.04532551518e-05
1.04476131469e-05
1.04448779232e-05
1.04450687503e-05
1.0445290359e-05
1.04452520589e-05
1.04452673389e-05
1.04453493859e-05
1.04451856099e-05
1.04449871247e-05
1.04475101008e-05
1.04531448766e-05
1.04582809527e-05
1.04639498394e-05
1.04813155051e-05
1.05080423005e-05
1.04940182339e-05
1.04656327141e-05
1.04560727231e-05
1.04501320477e-05
1.04456464106e-05
1.04414472193e-05
1.04379651678e-05
1.04355725458e-05
1.04335920244e-05
1.04321291613e-05
1.04320429049e-05
1.04334145676e-05
1.04354027203e-05
1.04377601357e-05
1.04411895487e-05
1.04454758748e-05
1.04500895582e-05
1.0456109662e-05
1.04660397314e-05
1.04945996982e-05
1.0465694222e-05
1.03072788956e-05
1.02276560327e-05
1.01854389143e-05
1.01630816779e-05
1.01518878758e-05
1.01469160911e-05
1.01450998302e-05