/*--------------------------------*- C++ -*----------------------------------*\
| =========                 |                                                 |
| \\      /  F ield         | OpenFOAM: The Open Source CFD Toolbox           |
|  \\    /   O peration     | Version:  3.0.1                                 |
|   \\  /    A nd           | Web:      www.OpenFOAM.org                      |
|    \\/     M anipulation  |                                                 |
\*---------------------------------------------------------------------------*/
FoamFile
{
    version     2.0;
    format      ascii;
    class       volScalarField;
    location    "0.25";
    object      alpha.water;
}
// * * * * * * * * * * * * * * * * * * * * * * * * * * * * * * * * * * * * * //

dimensions      [0 0 0 0 0 0 0];

internalField   nonuniform List<scalar> 
1935
(
1
1
1
1
1
1
1
1
1
1
1
1
1
1
1
1
1
1
1
1
1
1
1
1
1
1
1
1
1
1
1
1
1
1
1
1
1
1
1
1
0.935515
0.668437
0.67247
0.970362
1
1
1
1
1
1
1
1
1
1
1
1
1
1
1
1
1
1
1
1
1
1
1
1
1
1
1
1
1
1
1
1
1
1
1
1
1
1
1
1
0.999618
0.911848
0.675347
0.822521
1
1
1
1
1
1
1
1
1
1
1
1
1
1
1
1
1
1
1
1
1
1
1
1
1
1
1
1
1
1
1
1
1
1
1
1
1
1
1
1
1
0.999988
0.812868
0.810687
1
1
1
1
1
1
1
1
1
1
1
1
1
1
1
1
1
1
1
1
1
1
1
1
1
1
1
1
1
1
1
1
1
1
1
1
1
1
1
1
1
1
0.996998
0.970074
1
1
1
1
1
1
1
1
1
1
1
1
1
1
1
1
1
1
1
1
1
1
1
1
1
1
1
1
1
1
1
1
1
1
1
1
1
1
1
1
1
1
0.999998
0.999978
1
1
1
1
1
1
1
1
1
1
1
1
1
1
1
1
1
1
1
1
1
1
1
1
1
1
1
1
1
1
1
1
1
1
1
1
1
1
1
1
1
1
1
0.999999
1
1
1
1
1
1
1
1
1
1
1
1
1
1
1
1
1
1
1
1
1
1
1
1
1
1
1
1
1
1
1
1
1
1
1
1
1
1
1
1
1
1
1
1
1
1
1
1
1
1
1
1
1
1
1
1
1
1
1
1
1
1
1
1
1
1
1
1
1
1
1
1
1
1
1
1
1
1
1
1
1
1
1
1
1
1
1
1
1
1
1
1
1
1
1
1
1
1
1
1
1
1
1
1
1
1
1
1
1
1
1
1
1
1
1
1
1
1
1
1
1
1
1
1
1
1
1
1
1
1
1
1
1
1
1
1
1
1
1
1
1
1
1
1
1
1
1
1
1
1
1
1
1
1
1
1
1
1
1
1
1
1
1
1
1
1
1
1
1
1
1
1
1
1
1
1
1
1
1
1
1
1
1
1
1
1
1
1
1
1
1
1
1
1
1
1
1
1
1
1
1
1
1
1
1
1
1
1
1
1
1
1
1
1
1
1
1
1
1
1
1
1
1
1
1
1
1
1
1
1
1
1
1
1
1
1
1
1
1
1
1
1
1
1
1
1
1
1
1
1
1
1
1
1
1
1
1
1
1
1
1
1
1
1
1
1
1
1
1
1
1
1
1
1
1
1
1
1
1
1
1
1
1
1
1
1
1
1
1
1
1
1
1
1
1
1
1
1
1
1
1
1
1
1
1
1
1
1
1
1
1
1
1
1
1
1
1
1
1
1
1
1
1
1
1
1
1
1
1
1
1
1
1
1
1
1
1
1
1
1
1
1
1
1
1
1
1
1
1
1
1
1
1
1
1
1
1
1
1
1
1
1
1
1
1
1
1
1
1
1
1
1
1
1
1
1
1
1
1
1
1
1
1
1
1
1
1
1
1
1
1
1
1
1
1
1
1
1
1
1
1
1
1
1
1
1
1
1
1
1
1
1
1
1
1
1
1
1
1
1
1
1
1
1
1
1
1
1
1
1
1
1
1
1
1
1
1
1
1
1
1
1
1
1
1
1
1
1
1
1
1
1
1
1
1
1
1
1
1
1
1
1
1
1
1
1
1
1
1
1
1
1
1
1
1
0.999999
0.999999
1
1
1
1
1
1
1
1
1
1
1
1
1
1
1
1
1
1
1
1
1
1
1
1
1
1
1
1
1
1
1
1
1
1
0.999999
0.999999
0.999998
1
1
0.999998
0.999999
1
0.999976
1
1
1
1
1
1
1
1
1
1
1
1
1
1
1
1
1
1
1
1
1
1
1
1
1
1
1
1
1
1
1
1
1
0.999999
0.999998
0.999998
0.99999
0.999973
0.999942
0.999912
0.999905
0.995302
0.9881
0.98488
0.992484
1
1
1
1
1
1
1
1
1
1
1
1
1
1
1
1
1
1
1
1
1
1
1
1
1
1
1
1
1
0.999999
0.999998
0.999995
0.999992
0.999973
0.999903
0.999709
0.982176
0.911493
0.775143
0.62562
0.499036
0.413106
0.38678
0.409658
0.471084
0.577529
0.72896
0.938626
1
1
1
1
1
1
1
1
1
1
1
1
1
1
1
1
1
1
1
1
1
1
0.999999
0.999999
0.999996
0.999992
0.99998
0.999957
0.999808
0.998955
0.930868
0.711989
0.419956
0.185363
0.00216606
0.000282663
0.000496342
0.000693448
0.000741214
0.000715887
0.00138863
0.0086246
0.0371323
0.124047
0.284775
0.540394
0.927891
1.00001
1
1
1
1
1
1
1
1
1
1
1
1
1
1
1
1
0.999999
0.999999
0.999998
0.999994
0.999987
0.999977
0.999935
0.999725
0.996161
0.889998
0.608438
0.222279
0.000141675
1.9318e-05
2.67412e-05
9.52252e-05
0.000232695
0.000537413
0.000988611
0.000994739
0.000739905
0.000572168
0.00012024
8.57225e-05
0.000174611
0.000398483
0.00984039
0.116588
0.334124
1
1
1
1
1
1
1
1
1
1
1
1
1
0.999999
0.999999
0.999997
0.999994
0.999989
0.999976
0.999964
0.999894
0.999612
0.987525
0.855899
0.544175
0.140021
8.38579e-05
-3.11448e-05
-1.84282e-06
9.19654e-08
1.75243e-05
8.48505e-05
0.000299255
0.00227276
0.00252109
0.00249664
0.00248624
0.00110561
1.62143e-05
1.14309e-05
4.63721e-06
2.97116e-05
8.44051e-05
0.000280312
0.000736465
1
1
1
1
1
1
1
0.999999
0.999999
0.999999
0.999999
0.999998
0.999996
0.999992
0.999989
0.999977
0.999958
0.99993
0.999788
0.999407
0.966505
0.798841
0.472422
0.100547
4.59654e-05
-1.74258e-05
-5.62791e-08
-4.13641e-07
-1.03771e-07
1.69119e-08
9.19653e-08
0.00133653
0.00254501
0.00253469
0.0025369
0.00252105
0.00115087
4.06961e-05
6.38692e-07
1.15467e-06
2.14803e-06
5.83417e-06
1.06011e-05
1.76389e-05
6.37383e-05
1
0.999999
0.999997
0.999998
0.999998
0.999997
0.999996
0.999995
0.999993
0.99999
0.999988
0.99998
0.999961
0.999939
0.99992
0.999795
0.999511
0.988292
0.906096
0.685186
0.364909
0.0522996
9.0949e-06
-1.32984e-05
-2.76516e-08
-2.32773e-07
-1.19674e-06
-5.28842e-07
-6.19878e-08
-1.99176e-10
0.00046217
0.00253633
0.0025398
0.00253726
0.00205275
0.000109731
1.96581e-06
6.28291e-07
9.65023e-08
7.51088e-08
1.86518e-07
5.6466e-07
1.49507e-06
4.71178e-06
1.29604e-05
0.999999
0.999991
0.999979
0.999984
0.999983
0.999977
0.999968
0.999954
0.999929
0.999937
0.99991
0.999822
0.999651
0.999364
0.982746
0.909674
0.74846
0.478111
0.213362
3.81612e-05
7.9722e-07
-5.08408e-06
-8.751e-09
-8.15125e-08
-1.5583e-06
-4.75003e-07
-8.03964e-08
4.98865e-08
5.27585e-14
6.45239e-09
0.00189361
0.0025398
0.0025398
0.00237125
0.000202105
1.96546e-06
2.49162e-07
1.00314e-07
2.32913e-08
7.46268e-09
1.41364e-08
4.73875e-08
1.51076e-07
4.92324e-07
1.34733e-06
0.99999
0.999826
0.999837
0.999869
0.999845
0.999787
0.999701
0.999579
0.999408
0.996401
0.976029
0.923204
0.823627
0.666798
0.436346
0.222694
0.043568
1.22001e-06
-2.91102e-05
-1.50541e-06
-3.43641e-10
-7.97315e-09
-4.88375e-07
-1.24853e-07
-9.26282e-09
5.42933e-08
1.10426e-07
1.10721e-07
6.4517e-09
0.000186219
0.00250128
0.00252089
0.00254301
0.000754548
4.25116e-06
4.33732e-07
7.72374e-08
2.20918e-08
1.37437e-08
3.51244e-09
1.94463e-09
4.044e-09
1.25529e-08
4.3724e-08
1.33402e-07
0.999825
0.916955
0.947255
0.953948
0.93517
0.89938
0.848531
0.778389
0.684679
0.557549
0.396112
0.245564
0.119443
0.0160453
6.44135e-09
-2.41849e-08
-2.81799e-07
-1.09279e-09
-4.24958e-10
-3.01088e-09
7.37008e-10
3.57175e-10
6.1006e-09
1.98515e-08
2.54171e-08
4.71989e-08
8.42421e-08
1.15772e-07
7.10433e-08
1.02258e-07
0.00197252
0.00250386
0.00168308
5.88821e-05
1.03076e-06
2.11928e-07
3.14098e-08
7.27921e-09
3.80954e-09
2.47837e-09
1.25759e-09
1.05737e-09
1.40945e-09
3.63908e-09
1.1026e-08
0.832594
0.261683
0.30592
0.3167
0.270048
0.206536
0.144826
0.0875016
0.0367487
-5.12245e-10
-5.19047e-13
9.91263e-16
-2.49057e-12
-7.43519e-10
-2.78292e-12
-1.19192e-16
-8.94257e-11
-1.05778e-12
-3.20539e-10
7.38924e-10
9.57665e-09
2.29827e-08
3.16759e-08
2.90489e-08
3.56901e-08
5.96199e-08
9.5214e-08
1.29339e-07
1.22398e-07
1.34846e-07
0.000496225
0.00193211
0.000587897
3.68382e-06
6.11378e-07
1.02977e-07
1.67688e-08
4.19254e-09
2.03836e-09
1.54384e-09
1.14375e-09
8.93482e-10
6.75061e-10
6.59817e-10
1.02606e-09
0.118332
1.2251e-13
2.11865e-15
3.93002e-17
9.80229e-19
3.31819e-20
5.22246e-22
-2.21444e-11
-5.25253e-11
-7.15252e-11
-8.86877e-11
-1.31868e-10
-1.78987e-10
-2.45813e-10
-3.15278e-10
-3.8097e-10
-3.92038e-10
3.47635e-13
6.63596e-13
3.60478e-09
1.86862e-08
2.63778e-08
2.93383e-08
3.4147e-08
7.2173e-08
1.31352e-07
1.37236e-07
1.52483e-07
1.42364e-07
1.8188e-07
0.000115309
0.000108704
0.00014227
3.44196e-05
2.23286e-07
4.6999e-08
9.81128e-09
2.86902e-09
1.55349e-09
1.11663e-09
9.69723e-10
8.78818e-10
6.42037e-10
4.79075e-10
3.12462e-10
-1.19468e-12
-9.44527e-13
-5.79872e-12
-2.13765e-11
-4.39788e-11
-8.48579e-11
-1.29515e-10
-1.77937e-10
-2.35695e-10
-2.7957e-10
-3.28293e-10
-3.90717e-10
-4.65476e-10
-5.40813e-10
-6.0277e-10
-6.24532e-10
-5.2849e-10
-7.55094e-12
1.35578e-09
1.648e-08
3.26298e-08
2.9557e-08
3.00827e-08
4.04228e-08
2.02997e-07
6.56946e-07
3.64827e-06
5.62277e-06
6.51823e-06
5.53014e-06
5.68118e-06
1.08086e-05
0.000100822
4.07241e-05
2.94438e-07
6.67708e-08
1.2593e-08
3.13768e-09
1.42818e-09
8.57084e-10
6.64798e-10
6.24134e-10
5.65796e-10
4.72953e-10
2.73812e-10
-1.94942e-12
-2.63009e-12
-1.35239e-11
-4.9804e-11
-1.12951e-10
-1.84872e-10
-2.55659e-10
-3.14813e-10
-3.56611e-10
-3.85653e-10
-4.22652e-10
-4.75074e-10
-5.31224e-10
-5.72322e-10
-5.86093e-10
-5.51231e-10
-3.57749e-10
-6.00046e-12
1.19882e-08
9.20796e-08
9.54143e-08
6.00821e-08
4.06217e-08
8.29076e-08
1.71752e-06
0.000147464
0.000540187
0.000529512
0.000225999
7.09788e-06
6.61141e-06
2.96266e-05
0.000199656
8.87499e-05
1.01659e-06
1.2753e-07
2.29917e-08
4.97975e-09
1.76037e-09
8.44081e-10
4.97387e-10
3.78946e-10
3.0649e-10
2.56108e-10
2.0979e-10
-5.01645e-13
-3.06757e-12
-1.67833e-11
-6.45358e-11
-1.43838e-10
-2.31133e-10
-3.07089e-10
-3.58967e-10
-3.85696e-10
-3.99044e-10
-4.20516e-10
-4.52987e-10
-4.74348e-10
-4.62178e-10
-4.21762e-10
-3.53353e-10
-1.06151e-10
-4.81042e-11
5.4761e-08
4.30855e-07
2.75156e-07
2.38749e-07
1.148e-07
1.99287e-05
0.000357637
0.000982496
0.000968136
0.00097109
0.000798897
7.22707e-05
8.9844e-06
0.000117377
0.000204319
0.000155036
1.07594e-05
1.45062e-07
3.4744e-08
7.96544e-09
2.38822e-09
1.05562e-09
5.11878e-10
3.36757e-10
2.24992e-10
1.44307e-10
1.17571e-10
-4.66642e-13
-2.94109e-12
-1.67744e-11
-6.77757e-11
-1.49359e-10
-2.33071e-10
-2.98178e-10
-3.34844e-10
-3.46521e-10
-3.5006e-10
-3.64262e-10
-3.79119e-10
-3.5747e-10
-2.83427e-10
-2.01339e-10
-1.50058e-10
-1.70724e-11
-3.12343e-10
3.35425e-07
2.17864e-06
8.1819e-06
8.64408e-07
6.704e-07
0.000621279
0.000974408
0.000967614
0.000968704
0.000968793
0.000968704
0.000329564
1.72368e-05
0.000169534
0.000205729
0.00018044
1.61317e-05
1.64759e-07
3.78373e-08
8.46716e-09
2.42578e-09
1.06684e-09
4.98439e-10
3.09649e-10
1.93402e-10
1.1039e-10
9.40274e-11
-4.17025e-13
-2.43894e-12
-1.48111e-11
-6.18782e-11
-1.35168e-10
-2.04913e-10
-2.53163e-10
-2.74307e-10
-2.75967e-10
-2.76786e-10
-2.9032e-10
-2.85027e-10
-2.11059e-10
-7.63984e-11
6.35419e-12
-4.46096e-12
2.06424e-12
-5.54734e-09
7.12211e-05
0.000192172
8.03849e-05
1.72994e-06
4.69723e-05
0.00096729
0.000969283
0.000972215
0.000967703
0.000970689
0.000837516
0.00019187
4.91655e-05
0.000205686
0.000205686
0.000142433
6.81563e-06
6.71603e-08
1.27242e-08
2.16426e-09
7.57664e-10
3.64655e-10
2.18483e-10
1.63196e-10
1.0838e-10
7.25514e-11
7.59671e-11
-3.4751e-13
-1.86063e-12
-1.20073e-11
-5.09765e-11
-1.09888e-10
-1.61844e-10
-1.93544e-10
-2.03276e-10
-2.00969e-10
-2.03813e-10
-2.16644e-10
-1.82679e-10
-5.39291e-11
1.00429e-10
2.50834e-10
6.80026e-11
2.06629e-12
2.17365e-05
0.000382882
0.00042769
0.000134507
5.43601e-06
2.56005e-05
0.000946609
0.000966746
0.000970629
0.000762213
0.000479162
0.000129802
0.000120128
0.000188242
0.000203393
0.000152563
1.25299e-05
2.67797e-09
3.59868e-10
3.16704e-10
8.77077e-11
4.9247e-11
6.35144e-11
7.11858e-11
5.65208e-11
4.88483e-11
5.12834e-11
5.2916e-11
-2.61632e-13
-1.33962e-12
-9.07963e-12
-3.85144e-11
-8.15003e-11
-1.16671e-10
-1.35362e-10
-1.38592e-10
-1.36633e-10
-1.42699e-10
-1.51764e-10
-8.16838e-11
6.05965e-11
6.09654e-10
5.59674e-10
1.01861e-10
6.54717e-12
0.000182365
0.00042757
0.000429065
0.000115973
9.73877e-06
1.89162e-05
0.000760191
0.000963798
0.0003595
0.000233918
0.000232353
0.000240787
0.000296792
0.000130427
9.05907e-06
3.23673e-08
2.65538e-09
2.57366e-10
7.84745e-11
6.02805e-11
3.912e-11
2.38337e-11
2.23191e-11
2.39154e-11
2.83416e-11
3.54111e-11
4.03846e-11
4.18991e-11
-1.78081e-13
-9.18124e-13
-6.43571e-12
-2.6848e-11
-5.55622e-11
-7.7341e-11
-8.7296e-11
-8.78972e-11
-8.81207e-11
-9.59399e-11
-9.78463e-11
5.46607e-13
5.0066e-10
8.84873e-10
6.44176e-10
7.66052e-11
5.29917e-12
0.000190311
0.000429065
0.000429772
0.000175091
5.67114e-05
0.000266708
0.0007744
0.00095849
0.00033319
0.000232353
0.000371037
0.00039198
0.00037017
5.14099e-05
8.22555e-09
4.11102e-10
-3.33263e-13
5.90751e-12
1.33071e-11
1.19407e-11
1.48271e-11
1.40707e-11
1.76846e-11
2.00122e-11
2.40963e-11
3.93712e-11
6.1456e-11
5.08089e-11
-1.10466e-13
-5.99649e-13
-4.27379e-12
-1.72984e-11
-3.49089e-11
-4.72826e-11
-5.21462e-11
-5.23277e-11
-5.45555e-11
-6.16898e-11
-5.52738e-11
9.97308e-11
7.99642e-10
9.17548e-10
5.69871e-10
5.18688e-11
6.26456e-13
1.20236e-05
0.000396593
0.00042918
0.00042961
0.000391786
0.00065104
0.000648307
0.000624871
0.000629302
0.000492198
0.000362245
0.000265175
1.91268e-05
-1.5999e-11
-1.03769e-10
-2.96597e-11
3.59992e-12
3.76007e-12
5.90199e-12
7.2754e-12
9.8218e-12
1.17905e-11
1.42535e-11
1.76082e-11
2.68659e-11
5.42376e-11
1.3109e-10
2.11943e-10
-6.30633e-14
-3.72124e-13
-2.64907e-12
-1.02877e-11
-2.01972e-11
-2.66599e-11
-2.89297e-11
-2.94766e-11
-3.2563e-11
-3.71435e-11
-2.41981e-11
2.42885e-10
8.72656e-10
9.17662e-10
4.13994e-10
3.88887e-11
2.33511e-13
9.71131e-13
7.30451e-05
0.000421031
0.000428659
0.00040601
0.000307199
0.000174013
0.000126388
0.000105526
1.47365e-12
1.5325e-12
1.71561e-12
2.1734e-12
2.52761e-12
2.52996e-12
3.18544e-12
3.18342e-12
3.3617e-12
4.63808e-12
6.14698e-12
8.12888e-12
1.06699e-11
1.37593e-11
2.75105e-11
5.8613e-11
1.18873e-10
2.59503e-10
4.2875e-10
-3.34398e-14
-2.17919e-13
-1.52287e-12
-5.62501e-12
-1.07224e-11
-1.38335e-11
-1.49294e-11
-1.57984e-11
-1.85871e-11
-2.0063e-11
-4.70396e-12
2.71468e-10
8.67508e-10
8.97216e-10
3.2701e-10
3.35761e-11
7.85382e-14
2.10764e-13
6.16296e-14
3.49861e-05
0.000182746
1.92635e-05
2.77283e-13
9.4944e-14
9.4944e-14
1.36147e-13
1.47365e-12
1.78657e-12
6.37512e-12
7.26515e-12
6.64068e-12
5.79101e-12
4.99747e-12
4.45076e-12
4.39849e-12
5.05131e-12
6.57911e-12
9.07527e-12
1.20655e-11
2.44907e-11
6.16564e-11
1.25991e-10
2.37498e-10
4.65719e-10
6.4122e-10
-1.65749e-14
-1.19171e-13
-8.04997e-13
-2.80966e-12
-5.19187e-12
-6.57943e-12
-7.17017e-12
-8.05022e-12
-9.89629e-12
-8.92378e-12
3.95574e-12
2.20239e-10
7.05212e-10
6.87982e-10
2.79117e-10
3.21867e-11
-2.05687e-12
-2.68375e-12
-3.29528e-11
-3.1704e-11
-7.27051e-11
-8.88119e-11
-8.06634e-16
1.40629e-13
3.19703e-13
1.82435e-12
4.35657e-12
6.3877e-12
7.55518e-12
8.65244e-12
6.88923e-12
5.40552e-12
4.2093e-12
3.57033e-12
3.7948e-12
4.98305e-12
7.20789e-12
1.04594e-11
1.71092e-11
4.5112e-11
1.1363e-10
2.26342e-10
3.96195e-10
5.85902e-10
8.04923e-10
-7.687e-15
-6.00139e-14
-3.869e-13
-1.2703e-12
-2.27355e-12
-2.8517e-12
-3.19816e-12
-3.8482e-12
-4.68429e-12
-2.49177e-12
8.45725e-12
1.05536e-10
3.90066e-10
4.8688e-10
2.49618e-10
3.61311e-11
7.25971e-12
-1.32898e-11
-8.03563e-11
-1.53631e-10
-2.34326e-10
-1.85392e-10
-1.89234e-14
6.25707e-13
1.19323e-12
2.46801e-12
3.8884e-12
4.63496e-12
5.10633e-12
3.62168e-12
3.41977e-12
2.67078e-12
2.17322e-12
2.26056e-12
3.25011e-12
5.19047e-12
8.13108e-12
1.21133e-11
2.94721e-11
7.55219e-11
1.81795e-10
3.56669e-10
4.99575e-10
6.17166e-10
7.09179e-10
-3.31144e-15
-2.73319e-14
-1.66548e-13
-5.13234e-13
-8.90172e-13
-1.11692e-12
-1.31281e-12
-1.66626e-12
-1.78473e-12
5.15613e-13
8.49814e-12
4.26369e-11
1.61086e-10
2.73435e-10
2.06186e-10
4.28366e-11
1.41543e-11
-1.24143e-11
-9.33635e-11
-2.14633e-10
)
;

boundaryField
{
    leftWall
    {
        type            zeroGradient;
    }
    rightWall
    {
        type            zeroGradient;
    }
    lowerWall
    {
        type            zeroGradient;
    }
    atmosphere
    {
        type            inletOutlet;
        inletValue      nonuniform 0();
        value           nonuniform 0();
    }
    defaultFaces
    {
        type            empty;
    }
    procBoundary0to1
    {
        type            processor;
        value           nonuniform List<scalar> 
44
(
0.995529
0.995548
0.944601
0.993348
0.999926
0.999988
1
1
1
1
1
1
1
1
1
1
1
1
1
1
1
1.00004
0.746405
0.0515435
0.000214453
1.7818e-05
3.86224e-06
3.93093e-07
3.44641e-08
2.69042e-09
3.21309e-10
1.51626e-10
1.40955e-10
1.08787e-10
1.01015e-10
7.38848e-11
4.62405e-11
4.17655e-11
4.17783e-11
2.01154e-10
7.07722e-10
1.31286e-09
1.40553e-09
1.39131e-09
)
;
    }
    procBoundary0to2
    {
        type            processor;
        value           nonuniform List<scalar> 
46
(
-3.1076e-10
-2.40568e-10
-1.23665e-12
6.52558e-13
1.08403e-12
1.86724e-12
2.54988e-12
2.80752e-12
2.75973e-12
2.20855e-12
1.6654e-12
1.28535e-12
1.25719e-12
1.82561e-12
3.33075e-12
5.80669e-12
9.15108e-12
1.67957e-11
4.99797e-11
1.16178e-10
2.73987e-10
4.43528e-10
4.696e-10
5.02382e-10
6.79226e-10
-1.30126e-15
-1.09973e-14
-6.29134e-14
-1.82023e-13
-3.068e-13
-3.89836e-13
-4.82909e-13
-6.03867e-13
-3.7844e-13
1.41985e-12
6.32591e-12
1.78702e-11
6.54979e-11
1.21416e-10
1.30783e-10
4.27151e-11
2.00555e-11
4.13745e-12
-4.84809e-11
-3.1076e-10
-1.40313e-10
)
;
    }
}


// ************************************************************************* //
