/*--------------------------------*- C++ -*----------------------------------*\
| =========                 |                                                 |
| \\      /  F ield         | OpenFOAM: The Open Source CFD Toolbox           |
|  \\    /   O peration     | Version:  3.0.1                                 |
|   \\  /    A nd           | Web:      www.OpenFOAM.org                      |
|    \\/     M anipulation  |                                                 |
\*---------------------------------------------------------------------------*/
FoamFile
{
    version     2.0;
    format      ascii;
    class       surfaceScalarField;
    location    "0.25";
    object      alphaPhi;
}
// * * * * * * * * * * * * * * * * * * * * * * * * * * * * * * * * * * * * * //

dimensions      [0 3 -1 0 0 0 0];

internalField   nonuniform List<scalar> 
3781
(
-6.27965e-08
6.27965e-08
1.72825e-06
-1.79105e-06
4.35518e-06
-2.62693e-06
7.06402e-06
-2.70884e-06
9.5053e-06
-2.44128e-06
1.16223e-05
-2.11704e-06
1.34959e-05
-1.87356e-06
1.52363e-05
-1.74037e-06
1.69318e-05
-1.69556e-06
1.86352e-05
-1.70341e-06
2.03685e-05
-1.73327e-06
2.2134e-05
-1.76554e-06
2.39246e-05
-1.79058e-06
2.57299e-05
-1.80523e-06
2.75394e-05
-1.80955e-06
2.93441e-05
-1.80471e-06
3.11358e-05
-1.79172e-06
3.29069e-05
-1.77101e-06
3.46492e-05
-1.7423e-06
3.63539e-05
-1.70475e-06
3.8011e-05
-1.65705e-06
3.96085e-05
-1.59756e-06
4.11329e-05
-1.52435e-06
4.25681e-05
-1.43522e-06
4.38958e-05
-1.3277e-06
4.50947e-05
-1.19889e-06
4.614e-05
-1.04532e-06
4.70022e-05
-8.62161e-07
4.76409e-05
-6.38763e-07
4.79962e-05
-3.55278e-07
4.79811e-05
1.51305e-08
4.73683e-05
6.1275e-07
4.59908e-05
1.37755e-06
4.36148e-05
2.37602e-06
3.99656e-05
3.64917e-06
3.47537e-05
5.21192e-06
2.77556e-05
6.99809e-06
1.90327e-05
8.72286e-06
9.22367e-06
9.80904e-06
-2.80035e-07
9.5037e-06
-5.10562e-06
6.97081e-06
-9.70703e-06
4.4386e-06
-1.92855e-05
8.01749e-06
2.86621e-06
-3.43761e-08
9.71723e-08
1.77318e-06
-3.5986e-06
4.41082e-06
-5.26458e-06
7.11948e-06
-5.4175e-06
9.55738e-06
-4.87918e-06
1.16751e-05
-4.23477e-06
1.35566e-05
-3.7551e-06
1.53119e-05
-3.49561e-06
1.70267e-05
-3.41036e-06
1.8751e-05
-3.42768e-06
2.05048e-05
-3.48713e-06
2.22898e-05
-3.55051e-06
2.40985e-05
-3.59925e-06
2.59207e-05
-3.62747e-06
2.77467e-05
-3.63552e-06
2.95677e-05
-3.62572e-06
3.1376e-05
-3.60004e-06
3.31642e-05
-3.55923e-06
3.49246e-05
-3.50269e-06
3.66485e-05
-3.42867e-06
3.8326e-05
-3.33456e-06
3.99455e-05
-3.21706e-06
4.14936e-05
-3.07237e-06
4.29545e-05
-2.89614e-06
4.43103e-05
-2.68349e-06
4.55402e-05
-2.42883e-06
4.66204e-05
-2.1255e-06
4.75233e-05
-1.7651e-06
4.82214e-05
-1.33684e-06
4.86954e-05
-8.29253e-07
4.89521e-05
-2.41646e-07
4.90793e-05
4.85635e-07
4.90852e-05
1.37163e-06
4.89294e-05
2.53176e-06
4.84827e-05
4.09594e-06
4.74419e-05
6.25269e-06
4.52574e-05
9.18261e-06
4.11921e-05
1.27882e-05
3.44015e-05
1.65996e-05
2.44113e-05
1.94939e-05
1.13853e-05
2.00551e-05
-8.52872e-07
1.88716e-05
-8.31721e-06
1.45913e-05
6.12956e-06
7.41888e-09
8.97532e-08
1.8271e-06
-5.41828e-06
4.45642e-06
-7.8939e-06
7.13218e-06
-8.09325e-06
9.52948e-06
-7.27648e-06
1.16153e-05
-6.32059e-06
1.34812e-05
-5.62098e-06
1.52362e-05
-5.25064e-06
1.6961e-05
-5.13512e-06
1.86995e-05
-5.16618e-06
2.04676e-05
-5.25523e-06
2.22646e-05
-5.34755e-06
2.40827e-05
-5.41735e-06
2.59123e-05
-5.45701e-06
2.77443e-05
-5.46756e-06
2.95711e-05
-5.45251e-06
3.13857e-05
-5.41462e-06
3.31812e-05
-5.35478e-06
3.49504e-05
-5.27188e-06
3.66849e-05
-5.16317e-06
3.8375e-05
-5.02466e-06
4.00094e-05
-4.85142e-06
4.15748e-05
-4.63776e-06
4.30559e-05
-4.37726e-06
4.44351e-05
-4.06274e-06
4.56924e-05
-3.68608e-06
4.68049e-05
-3.23803e-06
4.77476e-05
-2.70776e-06
4.84936e-05
-2.08284e-06
4.90123e-05
-1.34803e-06
4.92564e-05
-4.85692e-07
4.92093e-05
5.3274e-07
4.8842e-05
1.7389e-06
4.81891e-05
3.18468e-06
4.73395e-05
4.94555e-06
4.64528e-05
7.13939e-06
4.56826e-05
9.95282e-06
4.48721e-05
1.35986e-05
4.32977e-05
1.8174e-05
3.95595e-05
2.3232e-05
3.231e-05
2.73046e-05
2.21666e-05
2.90159e-05
1.21728e-05
2.71036e-05
1.27706e-05
5.33037e-08
3.64492e-08
1.90389e-06
-7.26887e-06
4.52213e-06
-1.05121e-05
7.1509e-06
-1.0722e-05
9.49164e-06
-9.61722e-06
1.15349e-05
-8.36385e-06
1.3382e-05
-7.46808e-06
1.51398e-05
-7.00842e-06
1.68808e-05
-6.87611e-06
1.86407e-05
-6.92612e-06
2.04297e-05
-7.04424e-06
2.22444e-05
-7.16228e-06
2.40766e-05
-7.24951e-06
2.59174e-05
-7.29785e-06
2.77594e-05
-7.30948e-06
2.95959e-05
-7.28906e-06
3.14212e-05
-7.2399e-06
3.32291e-05
-7.16272e-06
3.50129e-05
-7.05569e-06
3.67647e-05
-6.91492e-06
3.84751e-05
-6.73501e-06
4.0133e-05
-6.50936e-06
4.17257e-05
-6.23043e-06
4.32382e-05
-5.88978e-06
4.46535e-05
-5.47804e-06
4.59522e-05
-4.98477e-06
4.71125e-05
-4.39833e-06
4.81102e-05
-3.70554e-06
4.89189e-05
-2.89146e-06
4.95091e-05
-1.93827e-06
4.9849e-05
-8.25544e-07
4.99078e-05
4.73902e-07
4.96516e-05
1.99505e-06
4.90578e-05
3.77846e-06
4.81304e-05
5.87294e-06
4.69414e-05
8.32842e-06
4.56915e-05
1.12027e-05
4.46984e-05
1.45917e-05
4.42092e-05
1.86633e-05
4.38754e-05
2.35658e-05
4.23663e-05
2.88136e-05
3.86457e-05
3.27366e-05
3.30636e-05
3.30229e-05
2.4486e-05
1.16822e-07
-8.03727e-08
2.00127e-06
-9.15332e-06
4.60091e-06
-1.31118e-05
7.16804e-06
-1.32892e-05
9.43839e-06
-1.18876e-05
1.14312e-05
-1.03567e-05
1.32583e-05
-9.29518e-06
1.5022e-05
-8.7721e-06
1.67842e-05
-8.63826e-06
1.85704e-05
-8.71235e-06
2.03842e-05
-8.85809e-06
2.22196e-05
-8.99764e-06
2.40681e-05
-9.09802e-06
2.59223e-05
-9.15208e-06
2.77764e-05
-9.16354e-06
2.96254e-05
-9.13807e-06
3.14647e-05
-9.07916e-06
3.3289e-05
-8.98703e-06
3.50922e-05
-8.85888e-06
3.68668e-05
-8.68955e-06
3.86039e-05
-8.47216e-06
4.0293e-05
-8.19846e-06
4.19217e-05
-7.85912e-06
4.34757e-05
-7.44371e-06
4.49384e-05
-6.94076e-06
4.62912e-05
-6.33763e-06
4.75133e-05
-5.62042e-06
4.85816e-05
-4.77378e-06
4.94707e-05
-3.78061e-06
5.01541e-05
-2.62165e-06
5.06036e-05
-1.27501e-06
5.07919e-05
2.85556e-07
5.0696e-05
2.09101e-06
5.02971e-05
4.17737e-06
4.95861e-05
6.58391e-06
4.85691e-05
9.34545e-06
4.72932e-05
1.24786e-05
4.59144e-05
1.59705e-05
4.47768e-05
1.98009e-05
4.43085e-05
2.40342e-05
4.43727e-05
2.87494e-05
4.37732e-05
3.3336e-05
4.08587e-05
3.59375e-05
3.24877e-05
1.98855e-07
-2.79228e-07
2.11685e-06
-1.10713e-05
4.68835e-06
-1.56833e-05
7.18056e-06
-1.57814e-05
9.37051e-06
-1.40775e-05
1.13093e-05
-1.22955e-05
1.31179e-05
-1.11038e-05
1.48916e-05
-1.05457e-05
1.6679e-05
-1.04257e-05
1.84947e-05
-1.0528e-05
2.03353e-05
-1.06987e-05
2.21925e-05
-1.08549e-05
2.40584e-05
-1.09639e-05
2.59274e-05
-1.1021e-05
2.77954e-05
-1.10316e-05
2.96593e-05
-1.1002e-05
3.15157e-05
-1.09356e-05
3.33603e-05
-1.08316e-05
3.51875e-05
-1.06861e-05
3.69904e-05
-1.04925e-05
3.87607e-05
-1.02424e-05
4.04883e-05
-9.92608e-06
4.21615e-05
-9.53228e-06
4.37665e-05
-9.04871e-06
4.52876e-05
-8.46185e-06
4.67069e-05
-7.75692e-06
4.80043e-05
-6.91786e-06
4.91578e-05
-5.92725e-06
5.01434e-05
-4.76623e-06
5.0936e-05
-3.4143e-06
5.15101e-05
-1.84907e-06
5.18412e-05
-4.55097e-08
5.19087e-05
2.02351e-06
5.16975e-05
4.38853e-06
5.12018e-05
7.0796e-06
5.04244e-05
1.01228e-05
4.93734e-05
1.35296e-05
4.80672e-05
1.72767e-05
4.65867e-05
2.12814e-05
4.51979e-05
2.54231e-05
4.42638e-05
2.96834e-05
4.35322e-05
3.40677e-05
4.14261e-05
3.80435e-05
3.92284e-05
2.93099e-07
-5.72327e-07
2.24635e-06
-1.30246e-05
4.77993e-06
-1.82169e-05
7.18596e-06
-1.81874e-05
9.28946e-06
-1.6181e-05
1.11744e-05
-1.41804e-05
1.29684e-05
-1.28979e-05
1.47562e-05
-1.23336e-05
1.65718e-05
-1.22414e-05
1.84179e-05
-1.23741e-05
2.02853e-05
-1.25661e-05
2.21639e-05
-1.27335e-05
2.4047e-05
-1.28471e-05
2.59312e-05
-1.29052e-05
2.78146e-05
-1.2915e-05
2.96957e-05
-1.28831e-05
3.15722e-05
-1.2812e-05
3.34406e-05
-1.27e-05
3.52961e-05
-1.25416e-05
3.71325e-05
-1.23288e-05
3.89418e-05
-1.20518e-05
4.07149e-05
-1.16992e-05
4.24406e-05
-1.12579e-05
4.41059e-05
-1.0714e-05
4.56958e-05
-1.00518e-05
4.71932e-05
-9.25435e-06
4.85789e-05
-8.30353e-06
4.98316e-05
-7.1799e-06
5.09283e-05
-5.86296e-06
5.18451e-05
-4.33113e-06
5.25579e-05
-2.56187e-06
5.30439e-05
-5.31434e-07
5.32829e-05
1.78442e-06
5.32602e-05
4.41123e-06
5.29668e-05
7.37301e-06
5.24011e-05
1.06885e-05
5.15647e-05
1.43661e-05
5.04477e-05
1.83936e-05
4.90114e-05
2.27177e-05
4.72218e-05
2.72126e-05
4.51838e-05
3.17214e-05
4.30215e-05
3.623e-05
4.01027e-05
4.09623e-05
4.54832e-05
3.97086e-07
-9.69413e-07
2.38591e-06
-1.50134e-05
4.87186e-06
-2.07028e-05
7.18292e-06
-2.04984e-05
9.19782e-06
-1.81959e-05
1.10324e-05
-1.60149e-05
1.28171e-05
-1.46826e-05
1.46229e-05
-1.41395e-05
1.64679e-05
-1.40863e-05
1.83435e-05
-1.42497e-05
2.02356e-05
-1.44582e-05
2.21338e-05
-1.46317e-05
2.40332e-05
-1.47465e-05
2.59328e-05
-1.48047e-05
2.78326e-05
-1.48148e-05
2.97328e-05
-1.47832e-05
3.1632e-05
-1.47113e-05
3.35276e-05
-1.45956e-05
3.54154e-05
-1.44294e-05
3.72899e-05
-1.42033e-05
3.91439e-05
-1.39058e-05
4.09689e-05
-1.35242e-05
4.27547e-05
-1.30437e-05
4.4489e-05
-1.24484e-05
4.61578e-05
-1.17206e-05
4.77446e-05
-1.08412e-05
4.92309e-05
-9.78983e-06
5.05961e-05
-8.54507e-06
5.18179e-05
-7.08473e-06
5.28729e-05
-5.38617e-06
5.37378e-05
-3.42673e-06
5.439e-05
-1.18372e-06
5.48094e-05
1.36509e-06
5.49801e-05
4.2405e-06
5.48894e-05
7.46376e-06
5.45285e-05
1.10493e-05
5.3889e-05
1.50057e-05
5.29524e-05
1.93302e-05
5.16655e-05
2.40047e-05
4.98981e-05
2.898e-05
4.74674e-05
3.41521e-05
4.42606e-05
3.94368e-05
4.00972e-05
4.51257e-05
5.20289e-05
5.0875e-07
-1.47816e-06
2.53212e-06
-1.70368e-05
4.96123e-06
-2.31319e-05
7.17124e-06
-2.27085e-05
9.09892e-06
-2.01236e-05
1.08892e-05
-1.78052e-05
1.26705e-05
-1.64639e-05
1.44972e-05
-1.59661e-05
1.63708e-05
-1.59599e-05
1.82731e-05
-1.6152e-05
2.01866e-05
-1.63717e-05
2.21018e-05
-1.65469e-05
2.40162e-05
-1.66609e-05
2.59309e-05
-1.67194e-05
2.78481e-05
-1.67321e-05
2.97691e-05
-1.67042e-05
3.16934e-05
-1.66356e-05
3.3619e-05
-1.65213e-05
3.55427e-05
-1.6353e-05
3.74594e-05
-1.612e-05
3.93631e-05
-1.58095e-05
4.1246e-05
-1.54072e-05
4.3099e-05
-1.48967e-05
4.49108e-05
-1.42602e-05
4.6668e-05
-1.34778e-05
4.8355e-05
-1.25282e-05
4.9954e-05
-1.13887e-05
5.14446e-05
-1.00357e-05
5.2805e-05
-8.44513e-06
5.40119e-05
-6.59307e-06
5.50417e-05
-4.45654e-06
5.58718e-05
-2.01377e-06
5.64806e-05
7.56255e-07
5.68516e-05
3.86954e-06
5.69692e-05
7.34617e-06
5.68199e-05
1.11986e-05
5.63877e-05
1.54379e-05
5.56458e-05
2.00721e-05
5.45422e-05
2.51083e-05
5.29591e-05
3.05631e-05
5.06536e-05
3.64576e-05
4.72599e-05
4.28305e-05
4.25105e-05
4.98751e-05
5.89059e-05
6.26238e-07
-2.1044e-06
2.68195e-06
-1.90925e-05
5.04586e-06
-2.54958e-05
7.15153e-06
-2.48141e-05
8.99644e-06
-2.19685e-05
1.07502e-05
-1.9559e-05
1.25338e-05
-1.82475e-05
1.43827e-05
-1.7815e-05
1.62826e-05
-1.78598e-05
1.82074e-05
-1.80767e-05
2.01381e-05
-1.83025e-05
2.20672e-05
-1.8476e-05
2.39947e-05
-1.85884e-05
2.59244e-05
-1.8649e-05
2.78596e-05
-1.86673e-05
2.98027e-05
-1.86473e-05
3.1754e-05
-1.85869e-05
3.37122e-05
-1.84795e-05
3.56746e-05
-1.83154e-05
3.76372e-05
-1.80827e-05
3.95951e-05
-1.77673e-05
4.15415e-05
-1.73536e-05
4.34683e-05
-1.68235e-05
4.53653e-05
-1.61572e-05
4.72201e-05
-1.53326e-05
4.90179e-05
-1.4326e-05
5.07412e-05
-1.3112e-05
5.23702e-05
-1.16647e-05
5.38827e-05
-9.95768e-06
5.52551e-05
-7.96544e-06
5.64628e-05
-5.66429e-06
5.74822e-05
-3.03314e-06
5.82913e-05
-5.28278e-08
5.8871e-05
3.2898e-06
5.92056e-05
7.01165e-06
5.92791e-05
1.1125e-05
5.90736e-05
1.56434e-05
5.85617e-05
2.0584e-05
5.76964e-05
2.59736e-05
5.63883e-05
3.18712e-05
5.44663e-05
3.83796e-05
5.15479e-05
4.57489e-05
4.72557e-05
5.41673e-05
6.55535e-05
7.62148e-07
-2.86655e-06
2.88475e-06
-2.12151e-05
5.21695e-06
-2.7828e-05
7.25258e-06
-2.68498e-05
9.05249e-06
-2.37684e-05
1.08089e-05
-2.13154e-05
1.26319e-05
-2.00705e-05
1.45364e-05
-1.97195e-05
1.64933e-05
-1.98166e-05
1.84702e-05
-2.00536e-05
2.04484e-05
-2.02807e-05
2.2423e-05
-2.04506e-05
2.43971e-05
-2.05625e-05
2.63761e-05
-2.06281e-05
2.83651e-05
-2.06563e-05
3.03668e-05
-2.0649e-05
3.23821e-05
-2.06022e-05
3.44106e-05
-2.05079e-05
3.64504e-05
-2.03552e-05
3.84986e-05
-2.01308e-05
4.05511e-05
-1.98199e-05
4.26026e-05
-1.9405e-05
4.46459e-05
-1.88669e-05
4.66721e-05
-1.81833e-05
4.86694e-05
-1.733e-05
5.06237e-05
-1.62803e-05
5.25177e-05
-1.5006e-05
5.43313e-05
-1.34783e-05
5.60413e-05
-1.16678e-05
5.76226e-05
-9.54672e-06
5.90487e-05
-7.09043e-06
6.02939e-05
-4.2783e-06
6.13348e-05
-1.09368e-06
6.21495e-05
2.47506e-06
6.27236e-05
6.43756e-06
6.30403e-05
1.08083e-05
6.3084e-05
1.55997e-05
6.28338e-05
2.08342e-05
6.22584e-05
2.6549e-05
6.13024e-05
3.28272e-05
5.9888e-05
3.97939e-05
5.78075e-05
4.78294e-05
5.4847e-05
5.71277e-05
6.95171e-05
8.99431e-07
-3.76598e-06
3.06827e-06
-2.33839e-05
5.34005e-06
-3.00998e-05
7.28619e-06
-2.87959e-05
9.03201e-06
-2.55142e-05
1.07843e-05
-2.30676e-05
1.26355e-05
-2.19217e-05
1.45787e-05
-2.16627e-05
1.65716e-05
-2.18096e-05
1.85788e-05
-2.20608e-05
2.05836e-05
-2.22855e-05
2.25846e-05
-2.24516e-05
2.45876e-05
-2.25654e-05
2.65997e-05
-2.26402e-05
2.86266e-05
-2.26832e-05
3.06717e-05
-2.2694e-05
3.27364e-05
-2.2667e-05
3.4821e-05
-2.25925e-05
3.69246e-05
-2.24588e-05
3.90457e-05
-2.22519e-05
4.11816e-05
-2.19557e-05
4.33284e-05
-2.15518e-05
4.54803e-05
-2.10188e-05
4.76297e-05
-2.03327e-05
4.97662e-05
-1.94664e-05
5.18762e-05
-1.83902e-05
5.39429e-05
-1.70728e-05
5.59459e-05
-1.54813e-05
5.78612e-05
-1.3583e-05
5.96613e-05
-1.13468e-05
6.13174e-05
-8.74652e-06
6.28012e-05
-5.76213e-06
6.40874e-05
-2.3799e-06
6.51511e-05
1.41136e-06
6.59806e-05
5.60807e-06
6.65597e-05
1.02293e-05
6.6878e-05
1.52814e-05
6.69261e-05
2.0786e-05
6.66964e-05
2.67788e-05
6.61819e-05
3.33417e-05
6.53902e-05
4.05857e-05
6.43824e-05
4.88372e-05
6.32572e-05
5.8253e-05
6.98093e-05
1.04166e-06
-4.80764e-06
3.25261e-06
-2.55949e-05
5.45681e-06
-3.2304e-05
7.31467e-06
-3.06537e-05
9.01498e-06
-2.72145e-05
1.07712e-05
-2.48239e-05
1.26533e-05
-2.38038e-05
1.46321e-05
-2.36415e-05
1.66552e-05
-2.38327e-05
1.86868e-05
-2.40923e-05
2.07138e-05
-2.43126e-05
2.27386e-05
-2.44764e-05
2.47694e-05
-2.45962e-05
2.68144e-05
-2.46852e-05
2.88795e-05
-2.47483e-05
3.09686e-05
-2.47831e-05
3.30838e-05
-2.47821e-05
3.52261e-05
-2.47349e-05
3.7396e-05
-2.46288e-05
3.95934e-05
-2.44493e-05
4.18171e-05
-2.41794e-05
4.40649e-05
-2.37996e-05
4.63328e-05
-2.32868e-05
4.86148e-05
-2.26147e-05
5.09018e-05
-2.17534e-05
5.31815e-05
-2.067e-05
5.54379e-05
-1.93291e-05
5.76504e-05
-1.76938e-05
5.97932e-05
-1.57258e-05
6.18358e-05
-1.33894e-05
6.37456e-05
-1.06563e-05
6.54903e-05
-7.50691e-06
6.7042e-05
-3.93161e-06
6.83745e-05
7.89179e-08
6.94764e-05
4.50615e-06
7.03343e-05
9.37134e-06
7.09425e-05
1.46733e-05
7.1304e-05
2.04246e-05
7.14346e-05
2.66481e-05
7.13786e-05
3.33976e-05
7.12057e-05
4.07586e-05
7.11351e-05
4.89078e-05
7.13694e-05
5.80187e-05
6.8438e-05
1.18758e-06
-5.99522e-06
3.43548e-06
-2.78428e-05
5.56601e-06
-3.44345e-05
7.33892e-06
-3.24267e-05
9.00334e-06
-2.8879e-05
1.07709e-05
-2.65914e-05
1.26844e-05
-2.57173e-05
1.46941e-05
-2.56512e-05
1.67409e-05
-2.58795e-05
1.87909e-05
-2.61424e-05
2.08361e-05
-2.63577e-05
2.28824e-05
-2.65227e-05
2.49398e-05
-2.66536e-05
2.7017e-05
-2.67624e-05
2.91202e-05
-2.68515e-05
3.12533e-05
-2.69163e-05
3.34192e-05
-2.6948e-05
3.562e-05
-2.69357e-05
3.78577e-05
-2.68664e-05
4.01334e-05
-2.6725e-05
4.24481e-05
-2.64941e-05
4.48015e-05
-2.61529e-05
4.71916e-05
-2.56769e-05
4.96145e-05
-2.50377e-05
5.20637e-05
-2.42026e-05
5.45291e-05
-2.31353e-05
5.69956e-05
-2.17956e-05
5.94425e-05
-2.01407e-05
6.18407e-05
-1.8124e-05
6.41546e-05
-1.57034e-05
6.63459e-05
-1.28476e-05
6.83763e-05
-9.53729e-06
7.02124e-05
-5.76772e-06
7.18346e-05
-1.5433e-06
7.32187e-05
3.12205e-06
7.43627e-05
8.22732e-06
7.52636e-05
1.37724e-05
7.59352e-05
1.97529e-05
7.64104e-05
2.6173e-05
7.67643e-05
3.30437e-05
7.71034e-05
4.04195e-05
7.76517e-05
4.83595e-05
7.86535e-05
5.70168e-05
6.65013e-05
1.336e-06
-7.33122e-06
3.61459e-06
-3.01214e-05
5.66646e-06
-3.64864e-05
7.35968e-06
-3.41199e-05
8.99832e-06
-3.05176e-05
1.07831e-05
-2.83762e-05
1.27268e-05
-2.76611e-05
1.47615e-05
-2.76858e-05
1.68248e-05
-2.79428e-05
1.88877e-05
-2.82053e-05
2.09474e-05
-2.84175e-05
2.30131e-05
-2.85883e-05
2.50957e-05
-2.87363e-05
2.72041e-05
-2.88708e-05
2.93442e-05
-2.89916e-05
3.15204e-05
-2.90925e-05
3.37363e-05
-2.91639e-05
3.59952e-05
-2.91946e-05
3.83005e-05
-2.91717e-05
4.06555e-05
-2.908e-05
4.3063e-05
-2.89017e-05
4.55254e-05
-2.86154e-05
4.80441e-05
-2.81956e-05
5.06189e-05
-2.76124e-05
5.32473e-05
-2.6831e-05
5.59221e-05
-2.58101e-05
5.8628e-05
-2.45015e-05
6.13417e-05
-2.28544e-05
6.40282e-05
-2.08105e-05
6.66456e-05
-1.83208e-05
6.91498e-05
-1.53517e-05
7.14946e-05
-1.18821e-05
7.36405e-05
-7.91363e-06
7.55619e-05
-3.46467e-06
7.72397e-05
1.44418e-06
7.86707e-05
6.79631e-06
7.98561e-05
1.2587e-05
8.08108e-05
1.87982e-05
8.15823e-05
2.54015e-05
8.2271e-05
3.23549e-05
8.30052e-05
3.96853e-05
8.39509e-05
4.74138e-05
8.53758e-05
5.5592e-05
6.42686e-05
1.48569e-06
-8.81692e-06
3.78759e-06
-3.24232e-05
5.75692e-06
-3.84557e-05
7.37743e-06
-3.57404e-05
9.00041e-06
-3.21406e-05
1.08066e-05
-3.01824e-05
1.27773e-05
-2.96318e-05
1.48299e-05
-2.97384e-05
1.69028e-05
-3.00157e-05
1.89736e-05
-3.0276e-05
2.10446e-05
-3.04885e-05
2.31275e-05
-3.06713e-05
2.52336e-05
-3.08424e-05
2.73712e-05
-3.10084e-05
2.95462e-05
-3.11666e-05
3.17634e-05
-3.13096e-05
3.40273e-05
-3.14278e-05
3.63427e-05
-3.151e-05
3.87148e-05
-3.15439e-05
4.11495e-05
-3.15147e-05
4.3653e-05
-3.14051e-05
4.62313e-05
-3.11937e-05
4.88911e-05
-3.08554e-05
5.16381e-05
-3.03594e-05
5.44728e-05
-2.96658e-05
5.73861e-05
-2.87233e-05
6.03547e-05
-2.74701e-05
6.33514e-05
-2.58512e-05
6.63368e-05
-2.37958e-05
6.92701e-05
-2.12542e-05
7.21094e-05
-1.8191e-05
7.47982e-05
-1.45709e-05
7.72869e-05
-1.04024e-05
7.95399e-05
-5.71769e-06
8.15456e-05
-5.61472e-07
8.32752e-05
5.06673e-06
8.4751e-05
1.11112e-05
8.59667e-05
1.75825e-05
8.69674e-05
2.44009e-05
8.78759e-05
3.14463e-05
8.88557e-05
3.87056e-05
9.00595e-05
4.621e-05
9.17114e-05
5.39401e-05
6.19033e-05
1.63534e-06
-1.04523e-05
3.95201e-06
-3.47399e-05
5.83606e-06
-4.03398e-05
7.39229e-06
-3.72966e-05
9.00922e-06
-3.37575e-05
1.0839e-05
-3.20121e-05
1.28318e-05
-3.16246e-05
1.48946e-05
-3.18012e-05
1.69706e-05
-3.20917e-05
1.90446e-05
-3.235e-05
2.11241e-05
-3.2568e-05
2.32218e-05
-3.2769e-05
2.53488e-05
-3.29694e-05
2.75129e-05
-3.31724e-05
2.97199e-05
-3.33737e-05
3.19755e-05
-3.35652e-05
3.42855e-05
-3.37378e-05
3.66568e-05
-3.38814e-05
3.90976e-05
-3.39846e-05
4.16172e-05
-3.40344e-05
4.42262e-05
-3.40141e-05
4.69354e-05
-3.39029e-05
4.97565e-05
-3.36764e-05
5.26961e-05
-3.3299e-05
5.57447e-05
-3.27143e-05
5.88764e-05
-3.18551e-05
6.20529e-05
-3.06467e-05
6.52641e-05
-2.90624e-05
6.84874e-05
-2.70192e-05
7.17094e-05
-2.44762e-05
7.4895e-05
-2.13767e-05
7.79528e-05
-1.76287e-05
8.08202e-05
-1.32697e-05
8.34719e-05
-8.36938e-06
8.58855e-05
-2.9751e-06
8.80132e-05
2.93899e-06
8.9868e-05
9.25634e-06
9.13752e-05
1.60754e-05
9.26082e-05
2.31679e-05
9.37081e-05
3.03464e-05
9.4839e-05
3.75747e-05
9.61449e-05
4.49041e-05
9.77987e-05
5.22862e-05
5.96591e-05
1.7835e-06
-1.22358e-05
4.10519e-06
-3.70616e-05
5.90241e-06
-4.2137e-05
7.40399e-06
-3.87982e-05
9.02342e-06
-3.5377e-05
1.08767e-05
-3.38654e-05
1.2885e-05
-3.36329e-05
1.49503e-05
-3.38666e-05
1.70233e-05
-3.41647e-05
1.90968e-05
-3.44235e-05
2.11819e-05
-3.4653e-05
2.3292e-05
-3.48791e-05
2.54373e-05
-3.51147e-05
2.76254e-05
-3.53605e-05
2.98628e-05
-3.56111e-05
3.21564e-05
-3.58588e-05
3.45145e-05
-3.60958e-05
3.69466e-05
-3.63135e-05
3.94643e-05
-3.65023e-05
4.20803e-05
-3.66503e-05
4.48058e-05
-3.67396e-05
4.76509e-05
-3.67481e-05
5.06203e-05
-3.66458e-05
5.37013e-05
-3.638e-05
5.6849e-05
-3.5862e-05
6.00263e-05
-3.50324e-05
6.32162e-05
-3.38367e-05
6.6515e-05
-3.23615e-05
6.99534e-05
-3.04581e-05
7.35612e-05
-2.80854e-05
7.72314e-05
-2.50486e-05
8.07141e-05
-2.11105e-05
8.39251e-05
-1.64805e-05
8.68695e-05
-1.13138e-05
8.9683e-05
-5.78862e-06
9.23054e-05
3.15256e-07
9.47828e-05
6.77892e-06
9.676e-05
1.40981e-05
9.83753e-05
2.15526e-05
9.9751e-05
2.89707e-05
0.000101043
3.62825e-05
0.000102365
4.3582e-05
0.000103851
5.08005e-05
5.77747e-05
1.92844e-06
-1.41642e-05
4.24422e-06
-3.93774e-05
5.95477e-06
-4.38476e-05
7.41222e-06
-4.02557e-05
9.04105e-06
-3.70058e-05
1.09155e-05
-3.57399e-05
1.29317e-05
-3.56491e-05
1.49922e-05
-3.59271e-05
1.70575e-05
-3.623e-05
1.91279e-05
-3.64939e-05
2.1217e-05
-3.67422e-05
2.33382e-05
-3.70003e-05
2.55013e-05
-3.72778e-05
2.77142e-05
-3.75733e-05
2.99846e-05
-3.78814e-05
3.23212e-05
-3.81955e-05
3.47343e-05
-3.85089e-05
3.72345e-05
-3.88137e-05
3.98324e-05
-3.91002e-05
4.25348e-05
-3.93528e-05
4.5339e-05
-3.95438e-05
4.82349e-05
-3.96439e-05
5.11953e-05
-3.96063e-05
5.41747e-05
-3.93596e-05
5.71182e-05
-3.88057e-05
6.00899e-05
-3.80048e-05
6.32178e-05
-3.6967e-05
6.68407e-05
-3.59864e-05
7.09295e-05
-3.45472e-05
7.54712e-05
-3.26292e-05
8.00572e-05
-2.96358e-05
8.41818e-05
-2.52376e-05
8.77463e-05
-2.00584e-05
9.02926e-05
-1.35194e-05
9.24093e-05
-7.21659e-06
9.52372e-05
-2.16748e-06
9.85829e-05
3.26184e-06
0.000101323
1.1358e-05
0.000103229
1.96468e-05
0.000105005
2.7194e-05
0.000106916
3.43715e-05
0.000108776
4.17228e-05
0.000110472
4.91045e-05
5.60954e-05
2.06797e-06
-1.62322e-05
4.36627e-06
-4.16757e-05
5.9933e-06
-4.54746e-05
7.41774e-06
-4.16801e-05
9.06085e-06
-3.86489e-05
1.09522e-05
-3.76313e-05
1.29691e-05
-3.76659e-05
1.50194e-05
-3.79774e-05
1.70748e-05
-3.82854e-05
1.91422e-05
-3.85613e-05
2.12368e-05
-3.88368e-05
2.33713e-05
-3.91349e-05
2.55553e-05
-3.94617e-05
2.77969e-05
-3.9815e-05
3.01042e-05
-4.01888e-05
3.24851e-05
-4.05764e-05
3.49458e-05
-4.09696e-05
3.74883e-05
-4.13562e-05
4.01069e-05
-4.17188e-05
4.27817e-05
-4.20275e-05
4.54719e-05
-4.22341e-05
4.81374e-05
-4.23095e-05
5.07339e-05
-4.22033e-05
5.32756e-05
-4.19024e-05
5.58789e-05
-4.14115e-05
5.89576e-05
-4.10979e-05
6.28003e-05
-4.08228e-05
6.79074e-05
-4.11006e-05
7.34367e-05
-4.00932e-05
7.66973e-05
-3.41482e-05
7.26851e-05
-2.15019e-05
6.11198e-05
-8.05001e-06
5.01791e-05
-2.0269e-06
4.31271e-05
-4.13091e-07
4.14473e-05
-9.64847e-08
4.43432e-05
-1.12161e-08
5.12103e-05
1.72273e-07
6.2459e-05
6.47916e-07
7.77384e-05
2.63064e-06
9.4583e-05
8.21127e-06
0.000105839
2.08046e-05
0.000112357
3.52053e-05
0.000115087
4.63739e-05
5.38705e-05
2.19938e-06
-1.84315e-05
4.46866e-06
-4.3945e-05
6.02017e-06
-4.70261e-05
7.42335e-06
-4.30833e-05
9.0839e-06
-4.03094e-05
1.09878e-05
-3.95352e-05
1.3e-05
-3.96782e-05
1.50383e-05
-4.00157e-05
1.70853e-05
-4.03324e-05
1.91526e-05
-4.06286e-05
2.12555e-05
-4.09396e-05
2.34047e-05
-4.1284e-05
2.56074e-05
-4.16645e-05
2.78692e-05
-4.20767e-05
3.01918e-05
-4.25114e-05
3.25717e-05
-4.29563e-05
3.49966e-05
-4.33946e-05
3.74415e-05
-4.38011e-05
3.98651e-05
-4.41426e-05
4.22135e-05
-4.43762e-05
4.4429e-05
-4.44504e-05
4.65284e-05
-4.44107e-05
4.86187e-05
-4.42972e-05
5.10455e-05
-4.43504e-05
5.43071e-05
-4.47013e-05
5.93173e-05
-4.61109e-05
6.5008e-05
-4.66233e-05
6.23971e-05
-3.26696e-05
4.23724e-05
-1.0195e-05
2.11404e-05
-2.15073e-06
7.22479e-06
-3.77789e-07
2.24803e-06
-3.81781e-08
4.06408e-07
-6.94234e-08
1.23689e-07
-3.99728e-08
1.08697e-07
-4.79705e-08
1.12205e-07
-3.20259e-08
2.4715e-07
-3.68079e-11
8.61745e-07
8.96391e-08
3.08758e-06
3.7975e-08
9.7515e-06
1.91849e-07
2.7037e-05
3.81887e-07
5.57276e-05
7.2215e-07
9.01529e-05
4.82948e-06
0.000110839
3.02513e-05
5.06592e-05
2.31781e-06
-2.07494e-05
4.54609e-06
-4.61732e-05
6.03662e-06
-4.85166e-05
7.43154e-06
-4.44782e-05
9.11201e-06
-4.19899e-05
1.10249e-05
-4.14481e-05
1.30293e-05
-4.16826e-05
1.50545e-05
-4.20409e-05
1.70923e-05
-4.23702e-05
1.91561e-05
-4.26924e-05
2.12567e-05
-4.30403e-05
2.33983e-05
-4.34256e-05
2.55793e-05
-4.38455e-05
2.7793e-05
-4.42904e-05
3.00223e-05
-4.47408e-05
3.22374e-05
-4.51715e-05
3.43952e-05
-4.55526e-05
3.64433e-05
-4.58498e-05
3.83349e-05
-4.60353e-05
4.00692e-05
-4.61135e-05
4.17448e-05
-4.61313e-05
4.36871e-05
-4.63855e-05
4.64405e-05
-4.70544e-05
5.0949e-05
-4.8863e-05
5.6218e-05
-4.95497e-05
5.05313e-05
-2.9819e-05
2.815e-05
-8.54621e-06
1.24949e-05
-1.63557e-06
2.49824e-06
-2.04016e-07
3.78483e-07
-2.62192e-08
2.84643e-08
-1.19224e-08
2.23954e-08
-7.67686e-09
6.46024e-08
-9.57249e-09
1.27991e-07
-3.37325e-08
1.49963e-07
-1.01289e-07
1.43983e-07
-9.8989e-08
1.17481e-07
-3.84765e-08
1.32754e-07
5.04861e-09
1.60465e-07
-1.57944e-09
3.58279e-07
-1.62371e-09
7.26762e-07
2.02173e-08
1.418e-06
6.66797e-08
6.1222e-06
2.05634e-07
3.21762e-05
6.55173e-07
1.92373e-06
2.41094e-06
-2.31603e-05
4.58425e-06
-4.83466e-05
6.03193e-06
-4.99643e-05
7.43203e-06
-4.58783e-05
9.13254e-06
-4.36904e-05
1.10473e-05
-4.33628e-05
1.30334e-05
-4.36687e-05
1.50307e-05
-4.40382e-05
1.70362e-05
-4.43758e-05
1.90588e-05
-4.47151e-05
2.10969e-05
-4.50784e-05
2.31394e-05
-4.54682e-05
2.51671e-05
-4.58735e-05
2.71529e-05
-4.62765e-05
2.90564e-05
-4.66449e-05
3.08309e-05
-4.69473e-05
3.24435e-05
-4.71678e-05
3.38997e-05
-4.73116e-05
3.53215e-05
-4.74671e-05
3.70016e-05
-4.7834e-05
3.94859e-05
-4.86183e-05
4.37147e-05
-5.06209e-05
4.82469e-05
-4.91392e-05
4.20386e-05
-2.75924e-05
2.13752e-05
-7.41536e-06
1.02178e-05
-1.2858e-06
1.84795e-06
-1.65584e-07
2.31491e-07
-2.12386e-08
2.72828e-08
-4.46025e-10
2.33496e-09
-4.89935e-11
5.9953e-09
-1.31591e-10
2.98207e-08
-6.1424e-09
1.58778e-07
-8.62372e-08
2.95129e-07
-1.38207e-07
3.33645e-07
-1.33274e-07
3.55562e-07
-1.23867e-07
3.46979e-07
-4.27443e-08
1.59156e-08
7.64115e-10
1.36372e-08
2.84747e-10
1.73018e-08
-3.65894e-10
5.12702e-08
7.51959e-10
1.34602e-07
2.28104e-09
3.41086e-07
6.97541e-09
9.83452e-07
4.06692e-08
1.30225e-07
2.46839e-06
-2.56287e-05
4.55958e-06
-5.04378e-05
5.96305e-06
-5.1368e-05
7.37234e-06
-4.72877e-05
9.0809e-06
-4.53991e-05
1.09701e-05
-4.52522e-05
1.28971e-05
-4.55958e-05
1.481e-05
-4.59513e-05
1.67052e-05
-4.62714e-05
1.85808e-05
-4.65912e-05
2.04153e-05
-4.69136e-05
2.21807e-05
-4.72348e-05
2.38473e-05
-4.7542e-05
2.53938e-05
-4.78265e-05
2.68009e-05
-4.80581e-05
2.80986e-05
-4.82531e-05
2.94235e-05
-4.85254e-05
3.10691e-05
-4.89687e-05
3.35768e-05
-4.9976e-05
3.77903e-05
-5.20663e-05
4.10336e-05
-4.54695e-05
3.4102e-05
-2.29773e-05
1.63462e-05
-5.50471e-06
8.76182e-06
-8.85534e-07
1.46633e-06
-1.14905e-07
1.90335e-07
-1.49844e-08
2.45975e-08
1.0131e-10
3.50397e-09
3.71899e-11
5.36547e-11
2.81553e-12
5.57269e-11
-5.07023e-13
1.24506e-08
-1.12926e-08
2.12767e-07
-6.08205e-08
2.74705e-07
-1.4276e-07
3.02174e-07
-1.53592e-07
2.94656e-07
-1.17526e-07
2.19897e-07
-4.82878e-08
1.85053e-08
-1.15256e-08
1.75002e-10
-4.81349e-10
1.17833e-09
-5.32384e-11
1.45198e-09
-3.11892e-11
3.30402e-09
3.12548e-11
8.44454e-09
1.15416e-10
2.27842e-08
3.94402e-10
8.83142e-08
1.89064e-09
3.203e-09
2.54557e-06
-2.81743e-05
4.46826e-06
-5.23609e-05
5.75011e-06
-5.26512e-05
7.13902e-06
-4.86776e-05
8.81317e-06
-4.70742e-05
1.06075e-05
-4.70478e-05
1.23861e-05
-4.73761e-05
1.41064e-05
-4.76741e-05
1.57655e-05
-4.79339e-05
1.7358e-05
-4.81884e-05
1.8855e-05
-4.84161e-05
2.0245e-05
-4.86312e-05
2.15497e-05
-4.88593e-05
2.28581e-05
-4.91751e-05
2.43166e-05
-4.95202e-05
2.62007e-05
-5.01378e-05
2.91701e-05
-5.14978e-05
3.2972e-05
-4.95285e-05
3.36263e-05
-3.66945e-05
2.53888e-05
-1.45581e-05
1.12585e-05
-2.30095e-06
6.47164e-06
-3.31988e-07
1.01271e-06
-4.33723e-08
1.32641e-07
-5.76284e-09
1.76105e-08
1.48452e-10
2.66989e-09
4.14848e-11
-1.53468e-10
5.95852e-12
-6.05937e-11
-5.10545e-12
-5.9124e-12
-3.37e-13
3.33374e-11
-3.4909e-11
1.72358e-07
-2.33422e-08
2.44656e-07
-1.1966e-07
2.73086e-07
-1.60068e-07
2.72038e-07
-1.39877e-07
9.563e-08
-6.89483e-08
1.11343e-08
-4.04826e-09
2.24691e-10
-5.12421e-10
7.79713e-11
-2.53878e-11
6.05339e-11
-1.7809e-12
7.55833e-11
-1.78583e-12
2.29986e-10
-2.10076e-13
6.93382e-10
9.86064e-13
1.9223e-09
4.47106e-12
6.2646e-09
6.85115e-11
1.42934e-10
2.82506e-06
-3.09998e-05
4.44162e-06
-5.39826e-05
5.38168e-06
-5.35981e-05
6.64625e-06
-4.99473e-05
8.20822e-06
-4.86412e-05
9.82164e-06
-4.86677e-05
1.13761e-05
-4.89398e-05
1.28532e-05
-4.91653e-05
1.42727e-05
-4.93781e-05
1.56687e-05
-4.96496e-05
1.70713e-05
-4.98217e-05
1.85696e-05
-5.01298e-05
2.04124e-05
-5.07029e-05
2.29923e-05
-5.17622e-05
2.5897e-05
-4.74066e-05
2.71791e-05
-3.62679e-05
2.43313e-05
-2.08553e-05
1.52353e-05
-4.26927e-06
8.62867e-06
-6.14504e-07
2.673e-06
-6.03901e-08
3.79633e-07
-8.8181e-09
5.01022e-08
-7.99618e-10
6.6872e-09
4.9336e-11
9.6764e-10
1.21039e-11
-2.1405e-10
8.20308e-13
-6.17173e-11
-7.8942e-12
-9.61969e-12
-7.18793e-12
1.04549e-11
-1.50415e-12
1.58695e-11
-1.02575e-12
3.28246e-09
-3.24174e-09
2.23841e-07
-5.40922e-08
2.53261e-07
-1.38564e-07
2.63788e-07
-1.61821e-07
1.12711e-07
-1.38415e-07
3.77265e-09
-6.96184e-09
3.61718e-10
-5.34112e-10
-2.66322e-11
-4.24717e-11
-5.77428e-13
-2.55195e-12
2.03113e-12
-4.82281e-15
2.89095e-12
-1.63096e-13
1.18214e-11
-2.38736e-13
4.53624e-11
-4.19881e-13
1.49041e-10
-1.56096e-12
5.24815e-10
-2.30181e-12
-9.68243e-12
3.58913e-06
-3.45931e-05
4.99971e-06
-5.53879e-05
5.13971e-06
-5.37408e-05
6.08892e-06
-5.08981e-05
7.53746e-06
-5.00897e-05
9.05094e-06
-5.01801e-05
1.05617e-05
-5.04503e-05
1.21354e-05
-5.07419e-05
1.39026e-05
-5.11519e-05
1.59282e-05
-5.05497e-05
1.79225e-05
-4.48643e-05
1.95362e-05
-3.66184e-05
1.99977e-05
-2.70742e-05
1.8076e-05
-1.62748e-05
1.23553e-05
-2.23402e-06
6.44978e-06
-2.36925e-07
4.92643e-06
-2.54499e-08
6.59964e-07
-2.79997e-09
6.94259e-08
-3.24098e-10
1.01403e-08
-8.76047e-12
1.32245e-09
-7.46207e-14
1.24259e-10
-1.43254e-11
-6.93225e-11
-6.34667e-12
-1.71912e-11
-2.58563e-12
-1.23446e-12
-2.93947e-12
1.40075e-11
4.36546e-14
1.42865e-11
-5.24813e-13
2.58384e-11
-7.62711e-13
8.27969e-11
-7.24398e-13
1.79229e-07
-4.13779e-10
2.40123e-07
-1.0035e-07
2.48825e-07
-1.34734e-07
2.17624e-07
-1.20157e-07
6.09187e-09
-2.53451e-08
1.16073e-10
-1.05149e-09
-9.18268e-12
-5.92036e-11
-3.02888e-12
-4.2855e-12
-3.24397e-13
-3.80962e-13
2.60971e-13
-1.17714e-14
2.46623e-13
1.37052e-14
5.10857e-13
-1.13952e-14
2.37288e-12
-2.65577e-14
9.26816e-12
-1.47401e-13
3.65787e-11
-5.27033e-13
-1.93158e-12
5.4037e-06
-3.99915e-05
6.53261e-06
-3.96889e-05
5.53833e-06
-3.98872e-05