/*--------------------------------*- C++ -*----------------------------------*\
| =========                 |                                                 |
| \\      /  F ield         | OpenFOAM: The Open Source CFD Toolbox           |
|  \\    /   O peration     | Version:  3.0.1                                 |
|   \\  /    A nd           | Web:      www.OpenFOAM.org                      |
|    \\/     M anipulation  |                                                 |
\*---------------------------------------------------------------------------*/
FoamFile
{
    version     2.0;
    format      ascii;
    class       surfaceScalarField;
    location    "0.05";
    object      alphaPhi;
}
// * * * * * * * * * * * * * * * * * * * * * * * * * * * * * * * * * * * * * //

dimensions      [0 3 -1 0 0 0 0];

internalField   nonuniform List<scalar> 
15214
(
1.27081e-06
-1.27081e-06
2.6068e-06
-1.33599e-06
3.92698e-06
-1.32019e-06
5.25962e-06
-1.33264e-06
6.61333e-06
-1.35371e-06
7.99376e-06
-1.38043e-06
9.40705e-06
-1.41329e-06
1.086e-05
-1.45298e-06
1.23604e-05
-1.50033e-06
1.39168e-05
-1.55643e-06
1.55394e-05
-1.62263e-06
1.724e-05
-1.70054e-06
1.90322e-05
-1.79219e-06
2.09323e-05
-1.90012e-06
2.29599e-05
-2.02767e-06
2.51392e-05
-2.17928e-06
2.75001e-05
-2.36083e-06
3.00803e-05
-2.58019e-06
3.29275e-05
-2.84721e-06
3.61082e-05
-3.18078e-06
3.96798e-05
-3.5716e-06
4.38162e-05
-4.1363e-06
4.85623e-05
-4.74614e-06
5.40025e-05
-5.4402e-06
5.97145e-05
-5.98039e-06
6.47592e-05
-6.47571e-06
6.14405e-05
-7.34388e-06
2.44923e-05
-5.21035e-06
6.42868e-07
-5.09404e-07
1.40901e-07
2.49274e-07
3.39499e-08
1.45972e-07
-3.82908e-10
5.13688e-08
-2.03844e-09
1.21225e-08
-7.82317e-10
2.35877e-09
-2.05814e-10
4.13094e-10
-4.30631e-11
6.29071e-11
-7.51135e-12
8.53154e-12
-1.10408e-12
1.0598e-12
-1.30475e-13
1.2185e-13
-1.13862e-14
1.29524e-14
7.42874e-16
1.32705e-15
1.0326e-15
2.51905e-16
1.44147e-16
4.6503e-17
2.86041e-17
1.39692e-17
1.27406e-18
1.26803e-18
4.39885e-20
1.27109e-06
-2.54189e-06
2.60662e-06
-2.67153e-06
3.92663e-06
-2.6402e-06
5.25883e-06
-2.66484e-06
6.61176e-06
-2.70665e-06
7.99104e-06
-2.75971e-06
9.40279e-06
-2.82504e-06
1.08538e-05
-2.90399e-06
1.23517e-05
-2.99821e-06
1.3905e-05
-3.10979e-06
1.55237e-05
-3.24132e-06
1.72191e-05
-3.39595e-06
1.90046e-05
-3.57764e-06
2.08959e-05
-3.79143e-06
2.29121e-05
-4.04391e-06
2.50766e-05
-4.34372e-06
2.7418e-05
-4.70226e-06
2.99723e-05
-5.13445e-06
3.27857e-05
-5.66062e-06
3.59158e-05
-6.31095e-06
3.94358e-05
-7.09157e-06
4.34809e-05
-8.18146e-06
4.80424e-05
-9.30758e-06
5.33341e-05
-1.07324e-05
5.94466e-05
-1.28344e-05
5.88405e-05
-1.43147e-05
3.29265e-05
-1.03326e-05
4.50241e-06
-3.59419e-06
3.61279e-07
-8.20664e-07
9.06468e-08
2.09306e-08
4.42697e-08
8.8626e-08
1.71009e-08
7.91299e-08
2.64277e-09
3.20483e-08
-7.53412e-11
7.43526e-09
-1.34557e-10
1.35948e-09
-4.12691e-11
2.05617e-10
-8.70302e-12
2.80146e-11
-1.45219e-12
3.55669e-12
-1.91416e-13
4.23055e-13
-1.68404e-14
4.71328e-14
4.7734e-16
4.97111e-15
3.60496e-16
6.42297e-16
2.23915e-16
1.3525e-16
4.9059e-17
4.49159e-17
2.60566e-18
4.88303e-18
1.9351e-19
1.26616e-06
-3.80806e-06
2.59522e-06
-4.00059e-06
3.90908e-06
-3.95407e-06
5.23488e-06
-3.99064e-06
6.58089e-06
-4.05266e-06
7.9526e-06
-4.13143e-06
9.35602e-06
-4.22845e-06
1.07977e-05
-4.34571e-06
1.22851e-05
-4.48561e-06
1.38265e-05
-4.65116e-06
1.54313e-05
-4.84609e-06
1.71103e-05
-5.07499e-06
1.88763e-05
-5.34359e-06
2.07441e-05
-5.65924e-06
2.27316e-05
-6.03142e-06
2.48604e-05
-6.4725e-06
2.71568e-05
-6.99871e-06
2.96536e-05
-7.63127e-06
3.23927e-05
-8.39964e-06
3.54249e-05
-9.34315e-06
3.88254e-05
-1.04921e-05
4.27103e-05
-1.20664e-05
4.71053e-05
-1.37025e-05
5.25632e-05
-1.61903e-05
5.95137e-05
-2.01141e-05
3.78995e-05
-2.03667e-05
3.79775e-06
-6.25854e-06
9.05049e-07
-1.28081e-06
4.71296e-07
-3.25838e-07
3.30473e-07
-1.29719e-09
1.65986e-07
5.9521e-09
2.23742e-08
3.56538e-08
-7.72737e-09
1.87951e-08
-1.84608e-09
3.08067e-09
-2.99433e-10
4.54226e-10
-5.04033e-11
6.62316e-11
-8.28032e-12
9.79357e-12
-1.22117e-12
1.35071e-12
-1.49567e-13
1.76095e-13
-1.16009e-14
2.24662e-14
1.0311e-15
3.28817e-15
2.98706e-16
6.96787e-16
1.59294e-16
1.46992e-16
3.60548e-17
5.04882e-17
1.80798e-18
5.19223e-18
2.03688e-19
1.25864e-06
-5.0667e-06
2.57822e-06
-5.32018e-06
3.88299e-06
-5.25883e-06
5.19934e-06
-5.30699e-06
6.53521e-06
-5.38853e-06
7.8959e-06
-5.49212e-06
9.28718e-06
-5.61973e-06
1.07154e-05
-5.77392e-06
1.21876e-05
-5.95777e-06
1.37115e-05
-6.17512e-06
1.52961e-05
-6.4307e-06
1.69515e-05
-6.73038e-06
1.86894e-05
-7.08146e-06
2.05234e-05
-7.49325e-06
2.24697e-05
-7.97771e-06
2.45475e-05
-8.55033e-06
2.67801e-05
-9.23131e-06
2.91959e-05
-1.0047e-05
3.18304e-05
-1.10342e-05
3.47276e-05
-1.22403e-05
3.79514e-05
-1.3716e-05
4.15928e-05
-1.57077e-05
4.56408e-05
-1.77505e-05
5.05945e-05
-2.11441e-05
5.268e-05
-2.58088e-05
1.71957e-05
-2.09753e-05
9.40385e-07
-2.93181e-06
1.73909e-07
-5.44996e-07
4.52501e-08
-7.36793e-08
5.06626e-08
5.78776e-10
4.08444e-08
-7.70746e-09
2.30272e-08
-7.1378e-09
2.53803e-09
-5.84343e-10
-6.08493e-10
8.27328e-10
-1.46889e-10
1.28473e-10
-2.31307e-11
1.91889e-11
-3.73307e-12
3.10956e-12
-5.55989e-13
4.90849e-13
-6.57752e-14
7.61486e-14
-5.5292e-16
1.2656e-14
9.95287e-16
2.40302e-15
7.36079e-16
6.73762e-16
1.41199e-16
1.71157e-16
2.26922e-17
4.1684e-17
1.11048e-18
4.18172e-18
1.68528e-19
1.24864e-06
-6.31534e-06
2.55577e-06
-6.62731e-06
3.84856e-06
-6.55162e-06
5.1525e-06
-6.61094e-06
6.47511e-06
-6.71113e-06
7.82141e-06
-6.83843e-06
9.1969e-06
-6.99521e-06
1.06075e-05
-7.18457e-06
1.20599e-05
-7.41016e-06
1.35614e-05
-7.67653e-06
1.51199e-05
-7.98929e-06
1.67449e-05
-8.35534e-06
1.84468e-05
-8.78331e-06
2.02376e-05
-9.28411e-06
2.21316e-05
-9.87166e-06
2.4145e-05
-1.05638e-05
2.62975e-05
-1.13837e-05
2.8612e-05
-1.23616e-05
3.11166e-05
-1.35388e-05
3.38448e-05
-1.49685e-05
3.6843e-05
-1.67142e-05
4.01637e-05
-1.90285e-05
4.37906e-05
-2.13773e-05
4.81559e-05
-2.55094e-05
4.07809e-05
-3.11389e-05
4.27757e-06
-1.7013e-05
3.44369e-07
-1.60548e-06
4.74344e-08
-2.07303e-07
-6.51135e-09
4.15671e-09
3.66138e-09
3.52383e-09
4.46132e-09
-1.00716e-09
2.78889e-09
-1.67976e-09
1.01087e-09
-7.56913e-10
6.88078e-11
-1.00019e-10
-3.00035e-11
1.70362e-11
-7.83614e-12
5.55405e-12
-1.44823e-12
1.04347e-12
-2.0782e-13
1.91028e-13
-1.39041e-14
3.65883e-14
2.24641e-15
7.88454e-15
6.74042e-16
1.50574e-15
4.413e-16
4.90031e-16
9.68954e-17
1.41699e-16
1.37028e-17
3.021e-17
6.79429e-19
3.05967e-18
1.30237e-19
1.23624e-06
-7.55159e-06
2.52807e-06
-7.91914e-06
3.80614e-06
-7.82969e-06
5.09485e-06
-7.89965e-06
6.4012e-06
-8.01749e-06
7.72993e-06
-8.16716e-06
9.08617e-06
-8.35145e-06
1.04755e-05
-8.57387e-06
1.19039e-05
-8.83858e-06
1.33781e-05
-9.1507e-06
1.49053e-05
-9.51652e-06
1.64938e-05
-9.9438e-06
1.81526e-05
-1.04422e-05
1.98922e-05
-1.10237e-05
2.17244e-05
-1.17038e-05
2.36624e-05
-1.25018e-05
2.57215e-05
-1.34428e-05
2.7919e-05
-1.45591e-05
3.02747e-05
-1.58945e-05
3.28099e-05
-1.75037e-05
3.55522e-05
-1.94565e-05
3.85172e-05
-2.19935e-05
4.1663e-05
-2.45231e-05
4.53658e-05
-2.92122e-05
2.99839e-05
-3.31566e-05
1.06749e-06
-1.19626e-05
9.29106e-08
-9.83287e-07
-8.70784e-09
-5.54112e-08
-7.23739e-09
1.14736e-08
-2.2726e-10
2.82838e-09
6.0979e-10
1.53049e-10
3.85628e-10
-1.99143e-10
1.61279e-10
-1.29024e-10
2.76463e-11
-3.15542e-11
-3.15975e-12
-9.26757e-13
-1.8206e-12
1.01203e-12
-3.93372e-13
3.18932e-13
-4.77207e-14
7.82126e-14
2.25334e-15
1.93201e-14
1.92406e-15
4.50272e-15
4.63537e-16
1.08786e-15
2.6838e-16
3.42237e-16
7.29531e-17
1.2126e-16
8.88384e-18
2.20145e-17
4.43603e-19
2.2214e-18
1.01475e-19
1.22157e-06
-8.77316e-06
2.49539e-06
-9.19296e-06
3.75613e-06
-9.09043e-06
5.02693e-06
-9.17046e-06
6.31423e-06
-9.30479e-06
7.62241e-06
-9.47534e-06
8.95621e-06
-9.68524e-06
1.03207e-05
-9.93835e-06
1.17213e-05
-1.02392e-05
1.3164e-05
-1.05934e-05
1.46552e-05
-1.10077e-05
1.62019e-05
-1.14905e-05
1.78118e-05
-1.20521e-05
1.94934e-05
-1.27054e-05
2.12561e-05
-1.34665e-05
2.311e-05
-1.43557e-05
2.50661e-05
-1.53989e-05
2.71358e-05
-1.66288e-05
2.93306e-05
-1.80893e-05
3.16602e-05
-1.98334e-05
3.41347e-05
-2.1931e-05
3.67406e-05
-2.45993e-05
3.94202e-05
-2.72027e-05
4.24891e-05
-3.22812e-05
2.07327e-05
-3.30644e-05
5.80258e-07
-7.73595e-06
1.85364e-08
-6.263e-07
-1.11835e-08
3.88174e-09
-4.39744e-09
1.03809e-08
-4.60481e-10
1.72747e-09
1.09721e-10
1.09957e-10
7.19968e-11
-2.26473e-11
2.59611e-11
-1.80951e-11
4.4022e-12
-5.52694e-12
-4.98443e-13
-3.73392e-13
-3.86794e-13
2.20401e-13
-8.11242e-14
1.03983e-13
-7.69332e-16
3.49208e-14
4.02056e-15
1.01891e-14
1.11616e-15
2.38746e-15
5.21977e-16
6.78693e-16
1.99328e-16
2.7915e-16
4.68836e-17
8.41144e-17
5.55401e-18
1.45459e-17
3.01745e-19
1.55478e-18
8.12701e-20
1.20473e-06
-9.97789e-06
2.45803e-06
-1.04463e-05
3.69902e-06
-1.03314e-05
4.94942e-06
-1.04209e-05
6.21507e-06
-1.05704e-05
7.49996e-06
-1.07602e-05
8.80838e-06
-1.09937e-05
1.01449e-05
-1.12749e-05
1.15144e-05
-1.16087e-05
1.29219e-05
-1.20009e-05
1.43729e-05
-1.24588e-05
1.58734e-05
-1.29909e-05
1.74295e-05
-1.36082e-05
1.90479e-05
-1.43238e-05
2.07354e-05
-1.5154e-05
2.24992e-05
-1.61194e-05
2.43459e-05
-1.72456e-05
2.62817e-05
-1.85645e-05
2.83104e-05
-2.01181e-05
3.04318e-05
-2.19548e-05
3.26417e-05
-2.41408e-05
3.49057e-05
-2.68633e-05
3.71637e-05
-2.94607e-05
3.96835e-05
-3.4801e-05
1.3516e-05
-3.17745e-05
3.71983e-07
-4.79399e-06
-1.41799e-08
-3.53926e-07
-9.43006e-09
1.74398e-08
-2.60117e-09
7.156e-09
-3.21278e-10
1.01276e-09
-1.42114e-12
9.65021e-11
1.41666e-11
-2.69201e-13
5.12111e-12
-3.41305e-12
7.33091e-13
-9.46273e-13
-1.12786e-13
-2.24283e-14
-6.78499e-14
8.38192e-14
-2.64574e-15
4.6741e-14
6.78392e-15
1.79273e-14
2.60247e-15
5.12028e-15
6.92704e-16
1.41422e-15
4.26124e-16
5.42931e-16
1.42523e-16
2.10636e-16
2.87063e-17
5.29054e-17
3.49271e-18
9.06925e-18
2.22116e-19
1.07331e-18
6.98897e-20
1.18586e-06
-1.11637e-05
2.41632e-06
-1.16767e-05
3.63532e-06
-1.15504e-05
4.86305e-06
-1.16486e-05
6.10466e-06
-1.1812e-05
7.36378e-06
-1.20193e-05
8.64423e-06
-1.22741e-05
9.95003e-06
-1.25807e-05
1.12854e-05
-1.2944e-05
1.26546e-05
-1.33701e-05
1.40622e-05
-1.38664e-05
1.55129e-05
-1.44417e-05
1.70115e-05
-1.51068e-05
1.85628e-05
-1.5875e-05
2.01713e-05
-1.67626e-05
2.18413e-05
-1.77894e-05
2.35757e-05
-1.89801e-05
2.53757e-05
-2.03645e-05
2.72392e-05
-2.19816e-05
2.91578e-05
-2.38733e-05
3.1117e-05
-2.61e-05
3.30686e-05
-2.88149e-05
3.49454e-05
-3.13374e-05
3.69195e-05
-3.67751e-05
8.27657e-06
-2.90834e-05
1.52741e-07
-2.86659e-06
-1.74349e-08
-1.68514e-07
-6.43392e-09
1.93279e-08
-1.46998e-09
4.54817e-09
-1.91669e-10
6.00943e-10
-1.86789e-11
7.2125e-11
1.05827e-13
6.4192e-12
7.44901e-13
-5.6908e-14
1.17792e-13
-7.94841e-14
-1.11959e-14
4.80636e-14
3.82553e-15
4.97112e-14
1.01154e-14
2.55547e-14
4.64086e-15
8.99641e-15
1.22216e-15
2.35696e-15
6.23054e-16
8.15232e-16
2.7721e-16
3.6926e-16
8.4161e-17
1.2657e-16
1.63987e-17
2.95526e-17
2.20849e-18
5.29251e-18
1.86472e-19
7.23773e-19
6.86634e-20
1.1651e-06
-1.23288e-05
2.37062e-06
-1.28822e-05
3.56561e-06
-1.27454e-05
4.76859e-06
-1.28516e-05
5.98406e-06
-1.30275e-05
7.21522e-06
-1.32505e-05
8.46543e-06
-1.35243e-05
9.73815e-06
-1.38534e-05
1.10369e-05
-1.42428e-05
1.23653e-05
-1.46985e-05
1.37268e-05
-1.52279e-05
1.51251e-05
-1.584e-05
1.65636e-05
-1.65453e-05
1.80453e-05
-1.73568e-05
1.95728e-05
-1.82901e-05
2.11476e-05
-1.93642e-05
2.27695e-05
-2.0602e-05
2.44358e-05
-2.20308e-05
2.61395e-05
-2.36853e-05
2.78666e-05
-2.56004e-05
2.95967e-05
-2.78302e-05
3.12761e-05
-3.04943e-05
3.28562e-05
-3.29176e-05
3.4051e-05
-3.79699e-05
4.17913e-06
-2.58898e-05
2.65024e-08
-1.75011e-06
-1.58886e-08
-5.94784e-08
-4.21077e-09
1.61683e-08
-7.9217e-10
2.77999e-09
-1.06655e-10
3.50645e-10
-1.46128e-11
4.66712e-11
-1.89398e-12
6.02478e-12
-1.24742e-13
6.35329e-13
6.30527e-15
1.04317e-13
1.37416e-14
5.63192e-14
1.39417e-14
3.26359e-14
7.09787e-15
1.34625e-14
2.2988e-15
4.0788e-15
7.03615e-16
1.28491e-15
4.47483e-16
5.74943e-16
1.68287e-16
2.28758e-16
4.48905e-17
6.65661e-17
8.90558e-18
1.50148e-17
1.38499e-18
2.88083e-18
1.52527e-19
4.75382e-19
6.95391e-20
2.32448e-39
-3.18648e-37
9.22092e-40
-6.31321e-38
1.16611e-40
-4.91776e-39
8.89539e-42
-2.56955e-40
4.92919e-43
-1.00818e-41
2.2361e-44
-3.23233e-43
8.87421e-46
-8.82573e-45
3.20517e-47
-2.06373e-46
1.08029e-48
-3.93209e-48
3.45194e-50
-4.60008e-50
1.07866e-51
3.76791e-54
3.42576e-53
4.2517e-55
1.09747e-54
2.15205e-56
3.51282e-56
8.99174e-58
1.11218e-57
3.41604e-59
3.45076e-59
1.2147e-60
1.04091e-60
4.08421e-62
3.03243e-62
1.30303e-63
8.48518e-64
3.94741e-65
2.26973e-65
1.13469e-66
5.77957e-67
3.09044e-68
1.39541e-68
7.96028e-70
3.18193e-70
1.93479e-71
6.82529e-72
4.4257e-73
1.3713e-73
9.49764e-75
2.56859e-75
1.90541e-76
4.46208e-77
3.55901e-78
7.14604e-79
6.15976e-80
1.04777e-80
9.82291e-82
1.39497e-82
1.43371e-83
1.66972e-84
1.90008e-85
1.77486e-86
2.26443e-87
1.64946e-88
2.3974e-89
1.31302e-90
2.22001e-91
8.70462e-93
1.76171e-93
4.61362e-95
1.16503e-95
1.83234e-97
6.16406e-98
4.84237e-100
2.44542e-100
6.36031e-103
6.45591e-103
8.36809e-106
3.35828e-37
-4.37895e-35
1.33881e-37
-8.72052e-36
1.70275e-38
-6.80488e-37
1.32661e-39
-3.61645e-38
7.56475e-41
-1.4539e-39
3.53704e-42
-4.77521e-41
1.44687e-43
-1.33112e-42
5.38684e-45
-3.15964e-44
1.87333e-46
-6.05322e-46
6.19433e-48
-6.94119e-48
2.01202e-49
1.45054e-51
6.63294e-51
1.61279e-52
2.20228e-52
8.45691e-54
7.29473e-54
3.66086e-55
2.38691e-55
1.43846e-56
7.6461e-57
5.28343e-58
2.37946e-58
1.83338e-59
7.14778e-60
6.03292e-61
2.06156e-61
1.88407e-62
5.68269e-63
5.58106e-64
1.49088e-64
1.56615e-65
3.70817e-66
4.15591e-67
8.71007e-68
1.04051e-68
1.92439e-69
2.45143e-70
3.98221e-71
5.41822e-72
7.68232e-73
1.11951e-73
1.37445e-74
2.15358e-75
2.26698e-76
3.8386e-77
3.42322e-78
6.3041e-79
4.69375e-80
9.47615e-81
5.78614e-82
1.29343e-82
6.33437e-84
1.58753e-84
6.06288e-86
1.73095e-86
4.97065e-88
1.65079e-88
3.39398e-90
1.34926e-90
1.85282e-92
9.19063e-93
7.57945e-95
5.0087e-95
2.06287e-97
2.04686e-97
2.78517e-100
5.56915e-100
7.40675e-103
2.36008e-35
-2.932e-33
9.4505e-36
-5.87871e-34
1.20403e-36
-4.58904e-35
9.52858e-38
-2.47752e-36
5.55949e-39
-1.02141e-37
2.66099e-40
-3.44395e-39
1.11191e-41
-9.82132e-41
4.21549e-43
-2.36715e-42
1.48763e-44
-4.52802e-44
4.97358e-46
-4.75179e-46
1.63688e-47
2.22272e-49
5.45041e-49
2.11418e-50
1.82279e-50
1.08595e-51
6.06721e-52
4.67305e-53
1.99111e-53
1.83164e-54
6.3874e-55
6.71656e-56
1.98834e-56
2.3269e-57
5.96948e-58
7.64274e-59
1.71963e-59
2.38179e-60
4.73207e-61
7.03917e-62
1.2389e-62
1.97039e-63
3.07417e-64
5.21458e-65
7.20224e-66
1.30185e-66
1.58687e-67
3.05809e-68
3.27426e-69
6.73859e-70
6.29762e-71
1.38801e-71
1.12324e-72
2.66159e-73
1.84679e-74
4.72871e-75
2.77976e-76
7.74053e-77
3.79906e-78
1.15971e-78
4.66781e-80
1.57766e-80
5.0931e-82
1.92987e-82
4.85849e-84
2.09707e-84
3.9698e-86
1.99318e-86
2.70141e-88
1.62358e-88
1.4697e-90
1.10214e-90
5.99148e-93
5.9857e-93
1.62499e-95
2.43766e-95
2.18726e-98
6.6097e-98
8.76102e-101
1.10323e-33
-1.27492e-31
4.46184e-34
-2.58163e-32
5.68933e-35
-2.00982e-33
4.56942e-36
-1.09892e-34
2.73193e-37
-4.64409e-36
1.34298e-38
-1.60985e-37
5.75683e-40
-4.70475e-39
2.23295e-41
-1.15102e-40
8.03513e-43
-2.17783e-42
2.72949e-44
-1.89282e-44
9.16757e-46
2.12497e-47
3.10298e-47
1.72936e-48
1.05104e-48
8.68453e-50
3.53181e-50
3.7184e-51
1.16696e-51
1.45638e-52
3.761e-53
5.34164e-54
1.17428e-54
1.85094e-55
3.5317e-56
6.07884e-57
1.01821e-57
1.89359e-58
2.80222e-59
5.59201e-60
7.33331e-61
1.56362e-61
1.8181e-62
4.13256e-63
4.25441e-64
1.03014e-64
9.36007e-66
2.41569e-66
1.92808e-67
5.31317e-68
3.70158e-69
1.09222e-69
6.58899e-71
2.08998e-71
1.08106e-72
3.70503e-73
1.6236e-74
6.05116e-75
2.21389e-76
9.04493e-77
2.71376e-78
1.22752e-78
2.95388e-80
1.49788e-80
2.81089e-82
1.62362e-82
2.291e-84
1.5393e-84
1.55505e-86
1.25068e-86
8.43849e-89
8.46802e-89
3.4311e-91
4.58691e-91
9.28135e-94
1.86309e-93
1.24623e-96
5.03851e-96
6.66182e-99
3.81708e-32
-4.02234e-30
1.57269e-32
-8.2453e-31
2.00447e-33
-6.36889e-32
1.63007e-34
-3.50739e-33
9.99015e-36
-1.51602e-34
5.05809e-37
-5.40493e-36
2.23387e-38
-1.62026e-37
8.90987e-40
-4.01603e-39
3.2871e-41
-7.39372e-41
1.14062e-42
-3.97445e-43
3.93785e-44
1.45112e-45
1.363e-45
1.03304e-46
4.69819e-47
5.07735e-48
1.59957e-48
2.16581e-49
5.33552e-50
8.48682e-51
1.73101e-51
3.11666e-52
5.42864e-53
1.08106e-53
1.63723e-54
3.55229e-55
4.72753e-56
1.10656e-56
1.30186e-57
3.26624e-58
3.40658e-59
9.1248e-60
8.44015e-61
2.40866e-61
1.97286e-62
5.99507e-63
4.3342e-64
1.40339e-64
8.91269e-66
3.08064e-66
1.70775e-67
6.31934e-68
3.03337e-69
1.20647e-69
4.96544e-71
2.13368e-71
7.43937e-73
3.47608e-73
1.01184e-74
5.18239e-75
1.23706e-76
7.01441e-77
1.34288e-78
8.5359e-79
1.27435e-80
9.2266e-81
1.03572e-82
8.72263e-83
7.00994e-85
7.06663e-85
3.79287e-87
4.77059e-87
1.53763e-89
2.57644e-89
4.14706e-92
1.04337e-91
5.55214e-95
2.81329e-94
3.70887e-97
1.02788e-30
-9.75428e-29
4.3712e-31
-2.02139e-29
5.55544e-32
-1.53611e-30
4.55456e-33
-8.44338e-32
2.85812e-34
-3.71543e-33
1.49365e-35
-1.36075e-34
6.8259e-37
-4.18254e-36
2.81505e-38
-1.04513e-37
1.07102e-39
-1.80868e-39
3.83156e-41
7.24707e-44
1.37037e-42
7.59009e-44
4.88025e-44
4.85695e-45
1.71965e-45
2.34451e-46
5.95156e-47
9.98125e-48
2.0088e-48
3.91815e-49
6.57123e-50
1.44206e-50
2.07234e-51
5.01052e-52
6.27233e-53
1.64803e-53
1.81491e-54
5.13514e-55
5.00257e-56
1.51524e-56
1.30912e-57
4.22952e-58
3.24157e-59
1.11506e-59
7.56864e-61
2.7709e-61
1.66022e-62
6.47415e-63
3.40763e-64
1.41811e-64
6.51528e-66
2.90214e-66
1.15452e-67
5.52668e-68
1.88503e-69
9.74787e-70
2.81652e-71
1.5836e-71
3.81986e-73
2.35402e-73
4.65621e-75
3.17654e-75
5.03904e-77
3.85356e-77
4.76683e-79
4.15215e-79
3.86178e-81
3.91263e-81
2.60516e-83
3.15934e-83
1.40488e-85
2.12568e-85
5.67621e-88
1.14413e-87
1.52572e-90
4.61763e-90
2.03577e-93
1.24084e-92
1.63034e-95
2.20095e-29
-1.88603e-27
9.85495e-30
-3.90806e-28
1.24435e-30
-2.88276e-29
1.02154e-31
-1.55869e-30
6.54364e-33
-6.92348e-32
3.53405e-34
-2.59363e-33
1.67863e-35
-8.14668e-35
7.20437e-37
-2.0293e-36
2.8474e-38
-3.04141e-38
1.0718e-39
2.27774e-41
3.99528e-41
3.16753e-42
1.47009e-42
1.87161e-43
5.31038e-44
8.90737e-45
1.87177e-45
3.78977e-46
6.4009e-47
1.49131e-47
2.11308e-48
5.50302e-49
6.70519e-50
1.91575e-50
2.03753e-51
6.30809e-52
5.90932e-53
1.96618e-53
1.63059e-54
5.79966e-55
4.26759e-56
1.61742e-56
1.05606e-57
4.2583e-58
2.46278e-59
1.05631e-59
5.39314e-61
2.46287e-61
1.10466e-62
5.38188e-63
2.10703e-64
1.09851e-64
3.72381e-66
2.08604e-66
6.06259e-68
3.66827e-68
9.03077e-70
5.94052e-70
1.22086e-71
8.80153e-72
1.48319e-73
1.18365e-73
1.59961e-75
1.4309e-75
1.50784e-77
1.53625e-77
1.21713e-79
1.44233e-79
8.18041e-82
1.16031e-81
4.39488e-84
7.77738e-84
1.76896e-86
4.17019e-86
4.7367e-89
1.67662e-88
6.29601e-92
4.4881e-91
5.87434e-94
3.54931e-28
-2.99585e-26
1.80077e-28
-6.03252e-27
2.27022e-29
-4.23884e-28
1.85152e-30
-2.19239e-29
1.20349e-31
-9.65177e-31
6.71073e-33
-3.65173e-32
3.32596e-34
-1.15725e-33
1.49713e-35
-2.79057e-35
6.2085e-37
-2.73473e-37
2.48242e-38
1.19024e-39
9.71913e-40
1.05653e-40
3.71528e-41
5.92137e-42
1.38095e-42
2.79605e-43
4.96965e-44
1.1921e-44
1.72474e-45
4.70929e-46
5.75237e-47
1.74371e-47
1.83797e-48
6.08494e-49
5.60989e-50
2.00635e-50
1.63121e-51
6.25633e-52
4.50648e-53
1.84481e-53
1.1796e-54
5.13982e-55
2.91705e-56
1.35116e-56
6.79354e-58
3.34512e-58
1.4849e-59
7.78123e-60
3.03448e-61
1.69587e-61
5.77264e-63
3.45142e-63
1.01721e-64
6.53357e-65
1.65079e-66
1.14508e-66
2.45063e-68
1.84785e-68
3.30113e-70
2.72776e-70
3.99556e-72
3.65446e-72
4.2926e-74
4.40059e-74
4.03033e-76
4.70568e-76
3.24012e-78
4.39995e-78
2.16873e-80
3.52491e-80
1.16027e-82
2.35277e-82
4.65041e-85
1.2562e-84
1.23993e-87
5.02897e-87
1.64105e-90
1.34041e-89
1.74689e-92
6.36571e-27
-4.09918e-25
2.79093e-27
-7.1947e-26
3.38083e-28
-4.6948e-27
2.6884e-29
-2.22726e-28
1.749e-30
-9.37343e-30
9.9891e-32
-3.46392e-31
5.16064e-33
-1.05589e-32
2.45274e-34
-2.19495e-34
1.08873e-35
8.79786e-38
4.67308e-37
3.83429e-38
1.93483e-38
2.78077e-39
7.71506e-40
1.51065e-40
2.95763e-41
7.11775e-42
1.08818e-42
3.04737e-43
3.83579e-44
1.2096e-44
1.2931e-45
4.49586e-46
4.16135e-47
1.57289e-47
1.27593e-48
5.19323e-49
3.7198e-50
1.61996e-50
1.02884e-51
4.77453e-52
2.69313e-53
1.32868e-53
6.65419e-55
3.48679e-55
1.5473e-56
8.61334e-57
3.37488e-58
1.99837e-58
6.87902e-60
4.34253e-60
1.30476e-61
8.80928e-62
2.29162e-63
1.66179e-63
3.70582e-65
2.90167e-65
5.48066e-67
4.66431e-67
7.35356e-69
6.85746e-69
8.86383e-71
9.1486e-71
9.48228e-73
1.09689e-72
8.86398e-75
1.16775e-74
7.09417e-77
1.08695e-76
4.72678e-79
8.66792e-79
2.51716e-81
5.75875e-81
1.00419e-83
3.06033e-83
2.66487e-86
1.21937e-85
3.51019e-89
3.23466e-88
4.19557e-91
2.51698e-25
-4.93954e-24
4.27788e-26
-5.0612e-25
4.07496e-27
-2.91234e-26
2.98943e-28
-1.29997e-27
1.88871e-29
-5.20375e-29
1.07597e-30
-1.84494e-30
5.64271e-32
-5.15863e-32
2.75308e-33
-6.58321e-34
1.27648e-34
6.5169e-36
5.66418e-36
6.97691e-37
2.40629e-37
4.43114e-38
9.78592e-39
2.31459e-39
3.80808e-40
1.07498e-40
1.41693e-41
4.57691e-42
5.03625e-43
1.81287e-43
1.70796e-44
6.73235e-45
5.51903e-46
2.35404e-46
1.6966e-47
7.7672e-48
4.95289e-49
2.42051e-49
1.37034e-50
7.12424e-51
3.58517e-52
1.97906e-52
8.84726e-54
5.18227e-54
2.05347e-55
1.27692e-55
4.4684e-57
2.95408e-57
9.08268e-59
6.39896e-59
1.71732e-60
1.29363e-60
3.0058e-62
2.4313e-62
4.84262e-64
4.22876e-64
7.13363e-66
6.76977e-66
9.53174e-68
9.91061e-68
1.14398e-69
1.31637e-69
1.21835e-71
1.57115e-71
1.13369e-73
1.6649e-73
9.03094e-76
1.54239e-75
5.98864e-78
1.2241e-77
3.1738e-80
8.09323e-80
1.25998e-82
4.27988e-82
3.32723e-85
1.69688e-84
4.36096e-88
4.47907e-87
5.78094e-90
1.16285e-06
-1.34917e-05
2.36247e-06
-1.40818e-05
3.55233e-06
-1.39353e-05
4.74959e-06
-1.40488e-05
5.9581e-06
-1.4236e-05
7.18068e-06
-1.44731e-05
8.42027e-06
-1.47639e-05
9.67981e-06
-1.51129e-05
1.09622e-05
-1.55252e-05
1.22704e-05
-1.60067e-05
1.36071e-05
-1.65646e-05
1.49748e-05
-1.72077e-05
1.63756e-05
-1.79461e-05
1.78112e-05
-1.87924e-05
1.92822e-05
-1.97611e-05
2.07879e-05
-2.08699e-05
2.23254e-05
-2.21395e-05
2.38889e-05
-2.35942e-05
2.54676e-05
-2.5264e-05
2.7044e-05
-2.71769e-05
2.85929e-05
-2.9379e-05
3.00622e-05
-3.19636e-05
3.14112e-05
-3.42666e-05
2.93734e-05
-3.858e-05
1.85775e-06
-2.20116e-05
-2.06894e-09
-1.15953e-06
-1.20411e-08
-7.84319e-09
-2.70472e-09
1.24337e-08
-4.53823e-10
1.71395e-09
-5.96874e-11
2.03216e-10
-8.84408e-12
2.78618e-11
-1.42251e-12
4.03449e-12
-1.78684e-13
5.61831e-13
-9.57797e-16
1.1049e-13
1.60629e-14
4.33994e-14
9.68636e-15
1.85454e-14
3.5816e-15
6.20912e-15
1.14225e-15
2.02767e-15
7.34359e-16
9.38633e-16
2.58325e-16
3.35204e-16
8.7688e-17
1.17382e-16
2.2034e-17
3.0896e-17
4.6171e-18
6.86919e-18
8.84193e-19
1.38917e-18
1.68651e-19
2.63961e-19
4.91009e-20
4.22378e-20
1.14831e-06
-1.464e-05
2.32914e-06
-1.52627e-05
3.50119e-06
-1.51073e-05
4.67987e-06
-1.52275e-05
5.86842e-06
-1.54246e-05
7.06922e-06
-1.56739e-05
8.28474e-06
-1.59794e-05
9.51739e-06
-1.63456e-05
1.07695e-05
-1.67773e-05
1.20431e-05
-1.72803e-05
1.33403e-05
-1.78617e-05
1.46624e-05
-1.85298e-05
1.60105e-05
-1.92942e-05
1.73847e-05
-2.01666e-05
1.87841e-05
-2.11605e-05
2.02061e-05
-2.22918e-05
2.16456e-05
-2.35791e-05
2.30944e-05
-2.5043e-05
2.45393e-05
-2.67089e-05
2.59608e-05
-2.85983e-05
2.73319e-05
-3.07502e-05
2.86015e-05
-3.32332e-05
2.97351e-05
-3.54002e-05
2.3189e-05
-3.9846e-05
7.1101e-07
-1.85934e-05
-1.2534e-08
-7.89481e-07
-9.00364e-09
1.35933e-08
-1.71468e-09
9.25063e-09
-2.69562e-10
1.08902e-09
-3.40105e-11
1.21835e-10
-4.99836e-12
1.65152e-11
-8.13512e-13
2.46124e-12
-1.02215e-13
3.82534e-13
5.84221e-15
8.19515e-14
1.1128e-14
2.734e-14
4.81277e-15
9.28641e-15
1.48698e-15
2.67396e-15
5.17549e-16
8.79948e-16
3.53928e-16
4.6358e-16
1.41667e-16
1.85369e-16
4.11973e-17
5.42088e-17
9.91429e-18
1.31154e-17
2.17995e-18
2.85395e-18
4.79643e-19
5.8724e-19
1.14507e-19
1.1936e-19
2.61509e-20
3.14673e-20
1.13161e-06
-1.57716e-05
2.29137e-06
-1.64224e-05
3.44336e-06
-1.62593e-05
4.60122e-06
-1.63854e-05
5.76751e-06
-1.65909e-05
6.94422e-06
-1.68506e-05
8.13333e-06
-1.71685e-05
9.33674e-06
-1.7549e-05
1.05561e-05
-1.79967e-05
1.1793e-05
-1.85172e-05
1.30484e-05
-1.91171e-05
1.43229e-05
-1.98043e-05
1.56165e-05
-2.05878e-05
1.69282e-05
-2.14782e-05
1.82555e-05
-2.24878e-05
1.95944e-05
-2.36307e-05
2.09383e-05
-2.4923e-05
2.22772e-05
-2.63819e-05
2.35967e-05
-2.80284e-05
2.48764e-05
-2.9878e-05
2.60894e-05
-3.19632e-05
2.71876e-05
-3.43314e-05
2.81476e-05
-3.63601e-05
2.00771e-05
-3.97954e-05
2.66363e-07
-1.55724e-05
-1.36123e-08
-5.99361e-07
-6.36479e-09
2.46411e-08
-1.09548e-09
6.82924e-09
-1.6779e-10
7.0824e-10
-2.00068e-11
7.43472e-11
-2.80576e-12
9.74749e-12
-4.29656e-13
1.43799e-12
-4.30166e-14
2.33142e-13
8.14503e-15
5.13615e-14
6.06388e-15
1.512e-14
2.13555e-15
4.26652e-15
7.2316e-16
1.37137e-15
4.84808e-16
6.59919e-16
2.08572e-16
2.78321e-16
6.76921e-17
8.89301e-17
1.76511e-17
2.28257e-17
4.09643e-18
5.16977e-18
9.08076e-19
1.09338e-18
2.03249e-19
2.23804e-19
4.83178e-20
4.56537e-20
9.76158e-21
1.3202e-20
1.11284e-06
-1.68845e-05
2.2494e-06
-1.7559e-05
3.37924e-06
-1.73892e-05
4.51417e-06
-1.75203e-05
5.6561e-06
-1.77328e-05
6.8066e-06
-1.80011e-05
7.96721e-06
-1.83291e-05
9.13932e-06
-1.87211e-05
1.0324e-05
-1.91814e-05
1.15222e-05
-1.97153e-05
1.27341e-05
-2.03291e-05
1.39596e-05
-2.10298e-05
1.51978e-05
-2.18259e-05
1.64464e-05
-2.27269e-05
1.77022e-05
-2.37436e-05
1.89598e-05
-2.48884e-05
2.02116e-05
-2.61747e-05
2.14466e-05
-2.76169e-05
2.26498e-05
-2.92316e-05
2.38009e-05
-3.10291e-05
2.48747e-05
-3.30369e-05
2.58273e-05
-3.5284e-05
2.66466e-05
-3.71795e-05
1.73492e-05
-3.94646e-05
1.89219e-07
-1.2973e-05
-1.26408e-08
-4.75949e-07
-4.47109e-09
2.82861e-08
-6.97744e-10
4.92504e-09
-1.06678e-10
4.60871e-10
-1.1931e-11
4.52616e-11
-1.56743e-12
5.67807e-12
-2.17096e-13
8.18448e-13
-1.28022e-14
1.34931e-13
6.52313e-15
2.97309e-14
3.04209e-15
7.92026e-15
1.01736e-15
2.32612e-15
7.07141e-16
1.01765e-15
2.75018e-16
3.83551e-16
1.03735e-16
1.40668e-16
2.92766e-17
3.86298e-17
7.06646e-18
9.03937e-18
1.57728e-18
1.93553e-18
3.42514e-19
3.95173e-19
7.50403e-20
7.89265e-20
1.71276e-20
1.55919e-20
3.0932e-21
4.25265e-21
1.0921e-06
-1.79766e-05
2.2035e-06
-1.86704e-05
3.30925e-06
-1.84949e-05
4.41932e-06
-1.86304e-05
5.53496e-06
-1.88484e-05
6.65736e-06
-1.91235e-05
7.78763e-06
-1.94594e-05
8.92666e-06
-1.98601e-05
1.0075e-05
-2.03298e-05
1.1233e-05
-2.08733e-05
1.24003e-05
-2.14963e-05
1.35759e-05
-2.22055e-05
1.47581e-05
-2.30082e-05
1.59441e-05
-2.39129e-05
1.71296e-05
-2.49291e-05
1.83086e-05
-2.60673e-05
1.94725e-05
-2.73386e-05
2.06101e-05
-2.87545e-05
2.17064e-05
-3.03279e-05
2.27422e-05
-3.20649e-05
2.3694e-05
-3.39887e-05
2.45233e-05
-3.61133e-05
2.52268e-05
-3.7883e-05
1.49121e-05
-3.89098e-05
1.84889e-07
-1.07282e-05
-1.10088e-08
-3.43294e-07
-3.1159e-09
2.68827e-08
-4.39932e-10
3.45192e-09
-6.78971e-11
2.9571e-10
-7.09596e-12
2.73579e-11
-8.62951e-13
3.26588e-12
-1.04065e-13
4.58839e-13
-4.57343e-16
7.64731e-14
4.21796e-15
1.69865e-14
1.52743e-15
4.0652e-15
5.17448e-16
1.23136e-15
3.61316e-16
5.34237e-16
1.64501e-16
2.3465e-16
4.97157e-17
6.84949e-17
1.23208e-17
1.63731e-17
2.7555e-18
3.51364e-18
5.85898e-19
7.09318e-19
1.22625e-19
1.38474e-19
2.58947e-20
2.65707e-20
5.59096e-21
5.01959e-21
9.30875e-22
1.24121e-21
1.06952e-06
-1.90461e-05
2.15397e-06
-1.97548e-05
3.23387e-06
-1.95748e-05
4.3173e-06
-1.97138e-05
5.40493e-06
-1.99361e-05
6.49756e-06
-2.02161e-05
7.59589e-06
-2.05578e-05
8.70036e-06
-2.09646e-05
9.81109e-06
-2.14405e-05
1.09278e-05
-2.199e-05
1.20495e-05
-2.26181e-05
1.31749e-05
-2.33308e-05
1.43014e-05
-2.41347e-05
1.54257e-05
-2.50371e-05
1.65428e-05
-2.60462e-05
1.76461e-05
-2.71706e-05
1.8727e-05
-2.84195e-05
1.9774e-05
-2.98016e-05
2.07728e-05
-3.13268e-05
2.17055e-05
-3.29976e-05
2.25508e-05
-3.4834e-05
2.32753e-05
-3.68378e-05
2.38821e-05
-3.84899e-05
1.27285e-05
-3.81522e-05
1.69268e-07
-8.799e-06
-9.40212e-09
-2.14765e-07
-2.18966e-09
2.24594e-08
-2.8072e-10
2.32339e-09
-4.17007e-11
1.85222e-10
-4.1874e-12
1.63928e-11
-4.71124e-13
1.86823e-12
-4.58672e-14
2.55783e-13
3.23149e-15
4.31626e-14
2.53654e-15
9.71241e-15
8.30581e-16
2.48443e-15
6.05425e-16
9.57157e-16
2.4051e-16
3.64991e-16
8.68283e-17
1.26643e-16
2.2791e-17
3.19419e-17
5.13304e-18
6.89546e-18
1.07114e-18
1.37134e-18
2.157e-19
2.60581e-19
4.29939e-20
4.82791e-20
8.61849e-21
8.81118e-21
1.74272e-21
1.58129e-21
2.75968e-22
3.52868e-22
1.04523e-06
-2.00913e-05
2.10112e-06
-2.08107e-05
3.15357e-06
-2.06273e-05
4.20878e-06
-2.0769e-05
5.26686e-06
-2.09941e-05
6.32826e-06
-2.12775e-05
7.39331e-06
-2.16228e-05
8.46202e-06
-2.20333e-05
9.53407e-06
-2.25126e-05
1.06087e-05
-2.30646e-05
1.16846e-05
-2.3694e-05
1.27597e-05
-2.44059e-05
1.38312e-05
-2.52062e-05
1.48951e-05
-2.6101e-05
1.59461e-05
-2.70972e-05
1.69775e-05
-2.8202e-05
1.79803e-05
-2.94223e-05
1.89437e-05
-3.07649e-05
1.98539e-05
-3.2237e-05
2.06946e-05
-3.38383e-05
2.14469e-05
-3.55863e-05
2.2082e-05
-3.74729e-05
2.26088e-05
-3.90167e-05
1.07653e-05
-3.72114e-05
1.38116e-07
-7.15408e-06
-7.30101e-09
-1.07046e-07
-1.49845e-09
1.74353e-08
-1.8029e-10
1.52258e-09
-2.52153e-11
1.14017e-10
-2.43395e-12
9.67992e-12
-2.5167e-13
1.06573e-12
-1.75087e-14
1.43176e-13
3.29069e-15
2.46567e-14
1.489e-15
5.41464e-15
4.76562e-16
1.44256e-15
3.51406e-16
5.71344e-16
1.52013e-16
2.36758e-16
4.47666e-17
6.68127e-17
1.04249e-17
1.48939e-17
2.16045e-18
2.94588e-18
4.21987e-19
5.46118e-19
8.0172e-20
9.76231e-20
1.50981e-20
1.70892e-20
2.84707e-21
2.94901e-21
5.37339e-22
5.0027e-22
8.23917e-23
1.00397e-22
1.01935e-06
-2.11107e-05
2.04528e-06
-2.18367e-05
3.06885e-06
-2.16508e-05
4.09443e-06
-2.17946e-05
5.12163e-06
-2.20213e-05
6.15058e-06
-2.23065e-05
7.18123e-06
-2.26535e-05
8.21324e-06
-2.30653e-05
9.2459e-06
-2.35452e-05
1.02781e-05
-2.40968e-05
1.1308e-05
-2.47239e-05
1.23333e-05
-2.54312e-05
1.33507e-05
-2.62236e-05
1.4356e-05
-2.71063e-05
1.53436e-05
-2.80849e-05
1.63068e-05
-2.91651e-05
1.72367e-05
-3.03523e-05
1.8123e-05
-3.16512e-05
1.8953e-05
-3.30669e-05
1.97119e-05
-3.45972e-05
2.0383e-05
-3.62575e-05
2.09415e-05
-3.80314e-05