/*--------------------------------*- C++ -*----------------------------------*\
| =========                 |                                                 |
| \\      /  F ield         | OpenFOAM: The Open Source CFD Toolbox           |
|  \\    /   O peration     | Version:  3.0.1                                 |
|   \\  /    A nd           | Web:      www.OpenFOAM.org                      |
|    \\/     M anipulation  |                                                 |
\*---------------------------------------------------------------------------*/
FoamFile
{
    version     2.0;
    format      ascii;
    class       volVectorField;
    location    "4";
    object      ddt0(rho,U);
}
// * * * * * * * * * * * * * * * * * * * * * * * * * * * * * * * * * * * * * //

dimensions      [1 -2 -2 0 0 0 0];

internalField   nonuniform List<vector> 
7968
(
(0.0996952097532 0.0530165709453 -0.141240952199)
(0.320963423765 0.0223980318837 -0.149905573784)
(0.578654301375 0.000382625198486 -0.140239897292)
(0.819649822625 -0.00898274385421 -0.119397262653)
(1.02140919404 -0.00733678884219 -0.0951977096834)
(1.16959337315 0.00267144383339 -0.0706402657914)
(1.26823409417 0.0128863972956 -0.0517566512883)
(1.31198058809 0.0242088320055 -0.0339377002002)
(1.30958405499 0.0364916885865 -0.0130919541845)
(1.26918986939 0.0434961924983 0.00221061385512)
(1.18741402124 0.0459854997393 0.0171139160769)
(1.07387597627 0.0443009295221 0.0311099552046)
(0.940956410099 0.0396972569886 0.0419514710806)
(0.797669102636 0.0322431223171 0.0461837551062)
(0.653211807264 0.0251414772102 0.0458992195676)
(0.51904217599 0.0185124566434 0.0384279088214)
(0.402063628796 0.0180445944542 0.0279656818765)
(0.299385689607 0.0259644742568 0.0174604410124)
(0.207688173484 0.0410717963952 0.0135368542712)
(0.0811369303895 0.0670501600914 0.019419002629)
(0.0698856386356 0.182375159513 -0.1484693182)
(0.301641887878 0.162252307334 -0.275474696313)
(0.59209926674 0.145719495726 -0.311430189322)
(0.856127496215 0.145060823878 -0.299904574383)
(1.06398533802 0.155997552082 -0.269775737086)
(1.21150996736 0.175738825162 -0.233828553252)
(1.30259706761 0.194157180128 -0.201457121637)
(1.34059707154 0.21202356409 -0.170134403045)
(1.3294877968 0.231244792975 -0.142769214627)
(1.27749239086 0.243078003135 -0.121583607087)
(1.18728199549 0.250204487431 -0.106265191365)
(1.06605260883 0.253099512601 -0.0978483403773)
(0.925535138872 0.249860767591 -0.0954514092688)
(0.775863042965 0.23989550875 -0.0984913392601)
(0.627746797749 0.226709028356 -0.104969495854)
(0.493123006079 0.210869652744 -0.115474596657)
(0.379665318084 0.200076917682 -0.124148047452)
(0.289827058515 0.19746106645 -0.122413459514)
(0.223166633463 0.203031332025 -0.0874572998753)
(0.107321267357 0.218708921811 0.00901663869356)
(0.0496852876543 0.351126951171 -0.138596432844)
(0.287598879855 0.36380758423 -0.312375910636)
(0.592319924548 0.36298794968 -0.35390032188)
(0.863936819902 0.368917123102 -0.333214910384)
(1.0722441109 0.382569462602 -0.292062926873)
(1.21964437472 0.404413272673 -0.248137454276)
(1.30984940555 0.426884589031 -0.210051131438)
(1.34998272731 0.447715814433 -0.175866047164)
(1.34088504297 0.475981739377 -0.149030875772)
(1.28803437945 0.495019575785 -0.128161506369)
(1.19678805405 0.506285509733 -0.112742458538)
(1.07405616969 0.510225660822 -0.103965729118)
(0.930945343463 0.505452137201 -0.101444308448)
(0.777737206622 0.493062301868 -0.106363981842)
(0.625494668445 0.475537814951 -0.116986525484)
(0.487284530073 0.45443958908 -0.133047853758)
(0.371938666727 0.436630311183 -0.149256225249)
(0.285347188067 0.424253365248 -0.154367809342)
(0.231646716099 0.415937760622 -0.115402019034)
(0.124622449407 0.401322899381 0.0151595048763)
(0.0409950998347 0.500361913016 -0.118778378153)
(0.288040054988 0.535453747105 -0.303168800323)
(0.59829746978 0.542830609099 -0.335351260629)
(0.873359860288 0.552458782397 -0.302170577981)
(1.08221902588 0.569361127169 -0.251136335952)
(1.23046470622 0.595949814728 -0.200770291559)
(1.31932863399 0.627817921611 -0.158272320931)
(1.36631197981 0.662056896575 -0.116807605448)
(1.36228471294 0.6935003158 -0.0969367519586)
(1.30461482842 0.717879308236 -0.0756937257298)
(1.21094256097 0.73201625082 -0.0594924717238)
(1.08432171333 0.735477523115 -0.0498174861281)
(0.935799491643 0.727652949512 -0.0452126116477)
(0.776797601588 0.710507415544 -0.0534598250258)
(0.618837759386 0.68737097544 -0.0688716204622)
(0.475763614655 0.660575056191 -0.0918636539874)
(0.357684392601 0.636998877325 -0.117680002398)
(0.272851839201 0.61805355123 -0.134326145005)
(0.225585256935 0.602142801116 -0.104259073079)
(0.130067612564 0.564138144664 0.033200104338)
(0.0422582030183 0.61370911973 -0.0969750894768)
(0.298738291991 0.655343571372 -0.276528406954)
(0.611375132559 0.663550506958 -0.297586570813)
(0.889651914974 0.673455954336 -0.254493188311)
(1.10099736441 0.692176781431 -0.195175720814)
(1.25520769245 0.725641624739 -0.137027496348)
(1.35146105756 0.764830543218 -0.0943505140929)
(1.39308756282 0.811096967764 -0.0559159714936)
(1.38329316601 0.844673203298 -0.0263515673062)
(1.32568933875 0.873072829883 -0.00264283244092)
(1.22637819465 0.888941012939 0.0151208719143)
(1.09257307276 0.891282869453 0.0252893008364)
(0.935396193139 0.880783816579 0.0266032117325)
(0.767538389059 0.859604220389 0.0163176352445)
(0.60293757089 0.832028476536 -0.00366447152613)
(0.455140176248 0.801956438385 -0.034782039186)
(0.334831195333 0.775886001856 -0.0699804257435)
(0.252424865798 0.754850236264 -0.0972472285267)
(0.208530886507 0.737308407711 -0.0781336439277)
(0.124751187485 0.690385965348 0.0560692826201)
(0.0513441327706 0.680832361031 -0.0759853225422)
(0.31724870537 0.722767945672 -0.245243147098)
(0.632075825038 0.730541849459 -0.258438809606)
(0.915307205465 0.740679416659 -0.2089903876)
(1.13434513883 0.763636807088 -0.141457319792)
(1.29259489519 0.799868419148 -0.082459611829)
(1.39124038693 0.842056624354 -0.033053327602)
(1.43166048837 0.88957860034 0.00972922362785)
(1.41598962667 0.931091332378 0.0443908782703)
(1.35020319702 0.961354304321 0.0718635739269)
(1.24045281015 0.977313570221 0.0897026517758)
(1.09530615283 0.977924245109 0.0990307182224)
(0.926909932491 0.964399630934 0.0985761417518)
(0.749119158296 0.940673231131 0.0853509900203)
(0.577216505445 0.911746580892 0.0600045757321)
(0.425136964649 0.880841554588 0.0228828237496)
(0.30380986536 0.855188989529 -0.0211006032874)
(0.224979657072 0.834273353504 -0.0566792896746)
(0.184637394904 0.81688520506 -0.0464452585819)
(0.112682441426 0.769197721199 0.0798352761558)
(0.0607030426364 0.70549701231 -0.0616246010194)
(0.334558922946 0.7418800922 -0.218158293962)
(0.653719848647 0.748776470425 -0.226048054711)
(0.945999849079 0.758936892817 -0.172433522056)
(1.17266925274 0.785591701476 -0.104454454721)
(1.33540256469 0.822710292073 -0.0384647178364)
(1.43853365445 0.868520328632 0.0170548690616)
(1.47638438978 0.917174120569 0.0677375736952)
(1.45298302861 0.96042644209 0.108260337277)
(1.37552396609 0.991470404761 0.132067178741)
(1.2521473062 1.00454429015 0.152578473925)
(1.09416839006 1.00129118699 0.163583087078)
(0.913409983987 0.985507301511 0.158580472555)
(0.726375085124 0.959933524692 0.142008353972)
(0.54874756912 0.930452951987 0.11254192357)
(0.393806548793 0.900884680621 0.0701350617783)
(0.273193995836 0.87749713686 0.0216328761039)
(0.198182549173 0.857250941036 -0.0204760009726)
(0.162899110767 0.841327194301 -0.0172458596651)
(0.10141781618 0.802265700719 0.097099613861)
(0.0720565967033 0.689775025193 -0.0478603826139)
(0.352047296331 0.722077140758 -0.19359918207)
(0.675473710928 0.72950264383 -0.199811629878)
(0.978478627956 0.742487025605 -0.142701001264)
(1.21521678681 0.765829024033 -0.0738290443564)
(1.38311903388 0.801544097741 -0.00295684899565)
(1.48840187275 0.844692536912 0.0610385702478)
(1.52317694691 0.890307988074 0.114961833711)
(1.49002346796 0.930495806712 0.152711482707)
(1.39762114156 0.956573367359 0.181330545813)
(1.2589735725 0.96654387185 0.200618732134)
(1.0868475583 0.961768944249 0.210763868456)
(0.896393414551 0.944864432938 0.20898256661)
(0.700925151744 0.921846220255 0.187219381462)
(0.519620801153 0.895462722454 0.154104295898)
(0.364492821289 0.869571120784 0.108334601314)
(0.244483291599 0.847926615481 0.0631547370778)
(0.173539956913 0.832720338052 0.0106915568362)
(0.147259820582 0.819766266509 0.00857996037925)
(0.0934606247508 0.788515816183 0.10486088378)
(0.0852877883616 0.647208008508 -0.0313194065946)
(0.370632529847 0.669361779878 -0.173678460084)
(0.698931216965 0.677297775322 -0.181136777991)
(1.00852972922 0.691465238122 -0.128605929803)
(1.25116087403 0.711034928494 -0.0528350599657)
(1.42585941484 0.741042260427 0.0228915045307)
(1.5329949263 0.776362813399 0.0947613681077)
(1.56468162994 0.813046780738 0.145419296126)
(1.52115828913 0.844187788455 0.190660209666)
(1.41501101719 0.863996346973 0.220463410371)
(1.26257510185 0.870903021777 0.237981014957)
(1.07830493934 0.866797504333 0.244025089218)
(0.878820663036 0.852820209236 0.24022144246)
(0.678586009764 0.83605882259 0.218243220562)
(0.493942107991 0.815984374361 0.182393698946)
(0.337128237446 0.796203884861 0.133904992412)
(0.221802284027 0.778615271062 0.0806599705671)
(0.157950464614 0.768388722527 0.0335960296388)
(0.13452056257 0.757718197558 0.0300884683717)
(0.0846496454412 0.731840249444 0.114182038411)
(0.0918340056684 0.584935607179 -0.0257553598009)
(0.380592623213 0.59334771888 -0.160862041272)
(0.715445536115 0.600481039085 -0.168625248397)
(1.03136164635 0.612018140064 -0.116396026553)
(1.27951346774 0.629067723085 -0.0390336654311)
(1.45686284884 0.650929242627 0.0415156200356)
(1.56624122363 0.675730711179 0.108893394455)
(1.59332567921 0.699339189912 0.165842061402)
(1.54264724199 0.718373521717 0.213220649643)
(1.4264841025 0.730478000473 0.242648922177)
(1.26473964148 0.735639091104 0.257785427576)
(1.07184662817 0.734178791199 0.263070655983)
(0.86735260497 0.729178592597 0.257673062626)
(0.665482406044 0.717913418155 0.23640403326)
(0.478075308289 0.706210360737 0.198866147572)
(0.321543469432 0.695237412776 0.149570016741)
(0.208493714613 0.685468136868 0.0948858054221)
(0.147749433837 0.677345539352 0.0492920005189)
(0.126476935672 0.668341885612 0.0450385467406)
(0.0783747733138 0.650923360763 0.121558289229)
(0.0945167280238 0.499192332814 -0.021288424581)
(0.386571982358 0.498762683409 -0.154759206035)
(0.725557335325 0.505333149044 -0.16277191009)
(1.04475143525 0.515152129129 -0.110446659258)
(1.29556733573 0.526847434101 -0.0322616800042)
(1.47423945019 0.538629917225 0.0499285398424)
(1.58342329926 0.549469574054 0.117526735993)
(1.60720237234 0.558286462938 0.177636646744)
(1.55188547354 0.564241676639 0.226691291237)
(1.43218380448 0.568761916616 0.255662891519)
(1.26681140834 0.572516906114 0.272198418031)
(1.07291622854 0.575068856203 0.273863384533)
(0.863720060911 0.577822349074 0.264070074134)
(0.657709230982 0.576428209879 0.243248805535)
(0.473007277848 0.574930212086 0.206095441881)
(0.317549485724 0.573563991996 0.157121859299)
(0.205396633496 0.570441826055 0.102957593896)
(0.144847657704 0.566866674713 0.0581377661684)
(0.12307032989 0.560221565467 0.0533416919652)
(0.0761094967174 0.551347845421 0.126763543104)
(0.0930502531691 0.404379505861 -0.0180282778366)
(0.389048848526 0.393368863962 -0.15525410102)
(0.72896309383 0.399173574273 -0.162922350552)
(1.04774754745 0.405673774367 -0.110014141496)
(1.29778671556 0.412434927617 -0.0325529588837)
(1.47536369408 0.413511334191 0.0467576663094)
(1.58082088381 0.41062876495 0.119965850842)
(1.60447684939 0.403434656878 0.175643860956)
(1.54981483556 0.396989629144 0.222378139416)
(1.43185859773 0.394058123502 0.251162609069)
(1.26882058065 0.395751426471 0.267448346027)
(1.07610078252 0.40194586678 0.272199519383)
(0.870055813127 0.410228433299 0.266717543462)
(0.665335047715 0.421079737139 0.242035991379)
(0.480666410077 0.430543941363 0.205616281898)
(0.325341154438 0.439401154249 0.157567934893)
(0.213320624576 0.445350222226 0.105839979068)
(0.150628797591 0.445458238911 0.0605918427317)
(0.125644398222 0.441497297783 0.055965974645)
(0.0770502214924 0.440068184378 0.129232802705)
(0.0860422359356 0.304346059404 -0.0227387573425)
(0.383893194279 0.286424510572 -0.162419371115)
(0.724157873061 0.29205443704 -0.168950910037)
(1.04097750211 0.297028973339 -0.112400059035)
(1.28888208883 0.296837488252 -0.0402832855961)
(1.46193116821 0.288019607616 0.035879820253)
(1.5639764275 0.273665786227 0.105943897962)
(1.5873478579 0.254621696477 0.16471705207)
(1.53673977554 0.236761110145 0.206219960109)
(1.42529513041 0.226722176527 0.234168401835)
(1.26943159735 0.226026329838 0.251808219524)
(1.08355318425 0.23434825123 0.260231397201)
(0.881851135502 0.248108931951 0.251888837297)
(0.681611656708 0.266067577783 0.229261553183)
(0.499374143275 0.284759974262 0.194280573302)
(0.346526829686 0.302881566767 0.148504646971)
(0.23169583075 0.317220881031 0.100745731489)
(0.162478207314 0.322652954527 0.0562030651964)
(0.132623478583 0.321884762168 0.0526728701459)
(0.0813626992356 0.323281083684 0.131120995277)
(0.079505884554 0.206725877312 -0.0275581872376)
(0.37721533216 0.186169158255 -0.174478532063)
(0.716679523491 0.191407004788 -0.182065410646)
(1.02724962074 0.195463482542 -0.128963471193)
(1.26892672867 0.188043764435 -0.0577641208358)
(1.43813382004 0.171395483639 0.015101709417)
(1.53713616986 0.148196601117 0.0793989048954)
(1.56090848032 0.121146191265 0.136126922764)
(1.51536446694 0.0974006462604 0.18249488166)
(1.41338105174 0.0809937428097 0.207599541974)
(1.26759923775 0.0774168461594 0.224402801288)
(1.09040061282 0.0844433367423 0.229116576423)
(0.896979360932 0.101239375296 0.222740669055)
(0.703529491991 0.124510651703 0.202618557237)
(0.525388444145 0.150895423728 0.170358598707)
(0.374704118495 0.177348017712 0.128832201641)
(0.258790987449 0.197323242932 0.083128654409)
(0.183364190306 0.209784903516 0.0452899071181)
(0.141662597896 0.213429705417 0.045829524422)
(0.0837924422977 0.223845541328 0.138606524337)
(0.0740527038688 0.126876836556 -0.035314241355)
(0.368690322384 0.102469294456 -0.189771224711)
(0.705993031018 0.105435093552 -0.200582805767)
(1.01019865935 0.105969392232 -0.150989345747)
(1.2455945756 0.0954848212171 -0.0821585190659)
(1.41072706262 0.0735239985164 -0.0156148772958)
(1.50569203931 0.0458372572601 0.0433106714712)
(1.53022285832 0.0140219332214 0.0945873763462)
(1.49002371146 -0.0145885994498 0.134022097093)
(1.39707475724 -0.0335843257215 0.160440271446)
(1.26175646398 -0.0390928667101 0.177357868214)
(1.09527877417 -0.0325656687641 0.184001425648)
(0.911882744805 -0.0152733551996 0.179766483184)
(0.72760342319 0.00931496904569 0.163067813478)
(0.556358508982 0.0424937172974 0.135230850857)
(0.408258199587 0.0748962070001 0.0998132488504)
(0.290448524395 0.10037625603 0.0607079556401)
(0.209340714415 0.117468781146 0.0297071670327)
(0.160899508716 0.125331991762 0.035071568655)
(0.0933305129525 0.149135283366 0.129800429645)
(0.0688661742187 0.0688060244996 -0.0499591628514)
(0.358006274605 0.0439218229324 -0.209039324288)
(0.693255597366 0.044405706244 -0.224770398905)
(0.992448704126 0.0416504631422 -0.180494249279)
(1.22180445967 0.0293699448979 -0.118981456556)
(1.38301845193 0.00409033110809 -0.0562578476035)
(1.47469697641 -0.0257142998312 -0.00344262582843)
(1.49963623047 -0.0582520914953 0.0426597913173)
(1.46370595155 -0.0876306497136 0.0783292863098)
(1.37940592114 -0.107921751707 0.102626038584)
(1.25419081672 -0.113376010252 0.119887502913)
(1.09747393818 -0.107034553972 0.126428727627)
(0.923270794049 -0.0908689224542 0.12497043144)
(0.751049163534 -0.0635909317933 0.1150653631)
(0.58887816111 -0.030083038581 0.0915390466854)
(0.442625532655 0.00418018937065 0.0631678960671)
(0.324102059164 0.0327027201282 0.0337678756872)
(0.236897976047 0.0525282369394 0.0108730956662)
(0.18327918905 0.0622043759367 0.0225536460188)
(0.104445830641 0.0915696872734 0.11582149363)
(0.0698870286145 0.0399541891259 -0.0671508185553)
(0.35216064294 0.0179463498654 -0.226347615606)
(0.684111146593 0.0164595823039 -0.249492638255)
(0.978883241538 0.0107916260387 -0.21327583508)
(1.20433467477 -0.00349651956882 -0.159581941)
(1.36100208702 -0.0282898617446 -0.104335473735)
(1.44974431455 -0.0564272869984 -0.0557244222833)
(1.47446986688 -0.0864725900054 -0.01503965982)
(1.44037482081 -0.112678826401 0.0170515285292)
(1.36294089489 -0.130691082408 0.0383458109709)
(1.24638224388 -0.138222233874 0.0577446085044)
(1.09616946779 -0.134046632929 0.0610357211247)
(0.932469604966 -0.118058892064 0.0647661362593)
(0.768844180525 -0.0908566372944 0.057892951525)
(0.61160486244 -0.0614680699433 0.0437670681756)
(0.470681545663 -0.028550775884 0.0253110245747)
(0.352368699261 -0.000345546754688 0.0057312108773)
(0.259120334029 0.0198616894755 -0.00763326775533)
(0.202366126805 0.0308789333887 0.0126256792613)
(0.112806813709 0.0582628030755 0.100701228575)
(0.0789611101378 0.0350667559745 -0.0835184936459)
(0.353864001046 0.026265673146 -0.23087617065)
(0.679791268638 0.0278181527313 -0.261124352097)
(0.969451096945 0.022536551001 -0.23557866191)
(1.19219706202 0.00924302432857 -0.19103404014)
(1.34629737046 -0.0127352287489 -0.142675679914)
(1.43236706951 -0.0359116533955 -0.0993142591688)
(1.4564049413 -0.0600458147725 -0.0613351312483)
(1.42370636056 -0.0801550844682 -0.0309428922232)
(1.34686251576 -0.0941517487041 -0.00917739290375)
(1.23329737766 -0.102968059907 0.00594934714521)
(1.09196497096 -0.102286080479 0.0132777576457)
(0.936687150508 -0.0894526719764 0.0158708855642)
(0.778684771951 -0.0704530034331 0.0130378792177)
(0.626913838931 -0.0460103050655 0.00571037436758)
(0.489853940096 -0.0191165069705 -0.00450507583802)
(0.372190181896 0.0037279127008 -0.0146008872706)
(0.274378164371 0.0202531002454 -0.0177940793408)
(0.211849857012 0.0321187156518 0.0102940780683)
(0.111697928444 0.0403185141137 0.0896696063229)
(0.095510738095 0.0486066829624 -0.0918093500609)
(0.363591944043 0.0644630356547 -0.198248564919)
(0.677929810876 0.0770570064875 -0.224378908651)
(0.960538556204 0.0754178077562 -0.207597488589)
(1.18157677207 0.0630795128694 -0.173550448779)
(1.3341434663 0.0426507576422 -0.133369394882)
(1.41950849627 0.0234775193835 -0.0964177662787)
(1.44302724768 0.0062672447557 -0.0621626791811)
(1.41028354393 -0.00755511519811 -0.0338606452671)
(1.33401660247 -0.017728883827 -0.0131204355277)
(1.22255513789 -0.0238579585673 0.000812825288642)
(1.08560395907 -0.0240350229467 0.00870542189286)
(0.933967895432 -0.0176555987949 0.0111948739686)
(0.779726537538 -0.0096293738367 0.0116216148732)
(0.632689232232 0.0071285087766 0.0088703505495)
(0.498810178551 0.026952509289 0.0044105040847)
(0.383105028762 0.0431024010091 0.00155247925257)
(0.28538562401 0.0518279368708 0.00486294334276)
(0.208909759405 0.0551101026022 0.0300521064199)
(0.0970004016333 0.0392957951176 0.089931221871)
(0.121533602327 0.027716037473 -0.0872235849147)
(0.378956814113 0.0542370523951 -0.09580417037)
(0.663987473436 0.0731134102734 -0.0850798834941)
(0.924318153892 0.0801307575863 -0.0612470052115)
(1.13792575018 0.0767401587271 -0.0319977265087)
(1.28982410078 0.0660412275502 -0.00138585273037)
(1.38219793356 0.0555832026219 0.0234729335992)
(1.41381922473 0.0460740827963 0.042603111631)
(1.38820409303 0.0373878834539 0.0588238868177)
(1.31943500935 0.0314452875583 0.0737130319446)
(1.21543947903 0.0287133527808 0.0864018945777)
(1.08505226458 0.0290590990655 0.0967632162963)
(0.936712236978 0.0324933261023 0.105370149987)
(0.789193943928 0.0355317827736 0.115803238028)
(0.65083572597 0.043305599859 0.113900771068)
(0.519319974831 0.0516218627889 0.106927738851)
(0.40122993406 0.0559235277865 0.0986574974819)
(0.293310615227 0.0526126234871 0.0922639001435)
(0.196041955451 0.0432166435022 0.0923911859054)
(0.0753976781305 0.0222176644314 0.0977921804571)
(0.147538935121 0.101471042928 -0.513309604118)
(0.413275051511 0.130895675165 -0.542741453067)
(0.673767689424 0.146427444056 -0.52736670416)
(0.90082725822 0.160000958908 -0.479897296913)
(1.08004894061 0.169760857014 -0.419592428723)
(1.20914584607 0.176636766644 -0.35890671259)
(1.29291260007 0.181136778733 -0.303927991218)
(1.33587389843 0.185205427505 -0.252110345433)
(1.33571691378 0.186084801221 -0.199125094854)
(1.29491676285 0.18901107919 -0.151747498809)
(1.21740569842 0.193130078605 -0.107342112919)
(1.10475569818 0.196877423744 -0.0678563555144)
(0.965209976034 0.198674046704 -0.0373635605243)
(0.808129499942 0.197461134808 -0.0199742525289)
(0.645995096614 0.192628670943 -0.0153764544379)
(0.489469089843 0.183428188285 -0.02464336121)
(0.348703758294 0.170965474241 -0.0414238659687)
(0.228941815971 0.154994635409 -0.0565788881736)
(0.131474865233 0.135529176024 -0.0548871262817)
(0.038358947408 0.105423562165 -0.0296728619498)
(0.179171454557 0.274570016275 -0.539930611076)
(0.445193196496 0.304599664452 -0.673128983481)
(0.681914787833 0.309102573921 -0.678157967839)
(0.89194428266 0.312408658485 -0.623503478032)
(1.05358764261 0.313444471161 -0.54777277334)
(1.17429735258 0.315704316909 -0.472488549335)
(1.25851710017 0.321088263534 -0.405628488622)
(1.30809293372 0.331299518354 -0.345873092934)
(1.3217123994 0.340333350489 -0.290736994504)
(1.30004265178 0.352187151103 -0.24126696173)
(1.23962285361 0.363740647592 -0.196191643167)
(1.14123507065 0.372584058283 -0.158287888504)
(1.01197444361 0.377722840038 -0.130546737721)
(0.858640339884 0.37774621966 -0.116244574199)
(0.692704977256 0.373743356192 -0.117042737617)
(0.525520329578 0.366375907339 -0.13219176346)
(0.368396139861 0.356426144682 -0.155559941422)
(0.232335815064 0.343698943809 -0.172552432628)
(0.119382703218 0.327776538954 -0.155603911736)
(0.0203985346465 0.293101874853 -0.0606830920553)
(0.196973958078 0.445523083349 -0.524310875114)
(0.45010227046 0.455208094834 -0.677559503465)
(0.668308030355 0.44340913636 -0.678414975325)
(0.863709661373 0.429525417618 -0.614780346838)
(1.01636653573 0.4175085406 -0.533505004725)
(1.1375523921 0.413299757677 -0.456932688454)
(1.23001453423 0.419073565506 -0.39057406203)
(1.29173224947 0.437580399954 -0.331968587681)
(1.31948834252 0.453372994411 -0.278313887697)
(1.31252442555 0.474333194556 -0.230238015021)
(1.26500836152 0.492757376689 -0.182509164567)
(1.17666009677 0.506765200632 -0.140615201235)
(1.05313749403 0.515167638592 -0.108670152949)
(0.90102468435 0.51720957646 -0.0913949137711)
(0.731800886131 0.515910532777 -0.0919713196134)
(0.557158097779 0.512951364874 -0.109811281283)
(0.38858727242 0.509588542471 -0.139330721639)
(0.239597352379 0.505596488504 -0.165319423136)
(0.114895157994 0.500415751562 -0.154684264076)
(0.00664262981443 0.482772277728 -0.0514315776271)
(0.212060065734 0.580716031475 -0.479295762068)
(0.452799417126 0.574111198016 -0.624187053275)
(0.652486216581 0.547083311569 -0.615273697635)
(0.836997137234 0.520919415836 -0.548085189867)
(0.987611331932 0.503336542273 -0.468730318702)
(1.11573936192 0.50077302736 -0.395616134905)
(1.22327204906 0.51178319216 -0.330545367363)
(1.2939130551 0.536294258037 -0.268823947671)
(1.33011610661 0.567010257988 -0.219642293612)
(1.33600166743 0.597597771775 -0.167212065341)
(1.29454994099 0.621401157392 -0.114338210812)
(1.20970549535 0.636813208108 -0.0669713868165)
(1.08619087185 0.643393765643 -0.0309070373023)
(0.931694434376 0.643542265639 -0.0110553273384)
(0.758436474266 0.640882776604 -0.0112394297863)
(0.577459816382 0.637969669647 -0.0315967220937)
(0.400135770519 0.637401200001 -0.0664516378342)
(0.240934462645 0.639686382364 -0.101590284785)
(0.105563006224 0.644416986127 -0.103441512159)
(-0.00767219442935 0.638983355039 -0.010421448574)
(0.222423134199 0.671021250781 -0.424358517098)
(0.452388957865 0.646095999664 -0.552149505031)
(0.637904336687 0.607511029045 -0.537271416482)
(0.818256225925 0.576127709439 -0.472325547272)
(0.974076899749 0.560627095741 -0.397936358862)
(1.11175511229 0.562577379242 -0.328494182839)
(1.2285239003 0.584474408798 -0.263535977945)
(1.31611302869 0.616525674936 -0.200844509233)
(1.36381933424 0.661611563124 -0.13981478541)
(1.36812180596 0.699057138548 -0.0786434878659)
(1.32440835532 0.725245657325 -0.0192771502522)
(1.23525204736 0.738775525092 0.0325122828176)
(1.1075054852 0.740523262549 0.070522103619)
(0.949505785331 0.735436267856 0.0894351728655)
(0.771457458487 0.728170992395 0.0876172492077)
(0.585161437515 0.723016019171 0.0628295376345)
(0.402225571747 0.722174887924 0.022004391912)
(0.237315546807 0.727828102778 -0.020713974301)
(0.0953887455513 0.740789031094 -0.0340407798141)
(-0.0193890380444 0.749371843946 0.0448879645212)
(0.229105795524 0.716876055141 -0.372038937149)
(0.452245676052 0.681394558571 -0.484449194603)
(0.630139001572 0.63977565038 -0.46870397158)
(0.81338853203 0.611751408879 -0.40798511614)
(0.976345555004 0.601821840602 -0.33850751272)
(1.12791817673 0.614680023204 -0.267197001817)
(1.25941158241 0.649729699651 -0.195625518605)
(1.35503295335 0.69518691205 -0.123377443807)
(1.40464640658 0.743608900161 -0.0502163047981)
(1.40356411609 0.783512992402 0.0206190496537)
(1.35098148562 0.808448830005 0.0862175801905)
(1.25196324645 0.817360875436 0.140271125375)
(1.11561174049 0.812815316993 0.177070355551)
(0.951361984911 0.800209962316 0.191590985309)
(0.76994084265 0.785543214391 0.183225921943)
(0.580382103191 0.775348394108 0.155105890273)
(0.394038837094 0.773032171604 0.106189614183)
(0.227812965108 0.77750682461 0.057044512032)
(0.0841032804706 0.793529175328 0.0356495518025)
(-0.0282814606479 0.810291966151 0.102110750568)
(0.232478104503 0.726559812328 -0.329576817207)
(0.454171937902 0.688327896557 -0.429856162887)
(0.631520182644 0.6515985258 -0.415728127045)
(0.820286337965 0.633070882984 -0.356369372046)
(0.996308288112 0.63213240254 -0.2892137115)
(1.1640305763 0.657583407524 -0.211854820969)
(1.3052521078 0.70066496976 -0.128036291342)
(1.40448638361 0.751657197799 -0.0413621361683)
(1.4506431593 0.802792190512 0.0437622636131)
(1.4383286172 0.84056142751 0.126988241843)
(1.37139888235 0.861679206244 0.196269012341)
(1.25863293825 0.864656548428 0.249395874355)
(1.11143139528 0.853598267294 0.280751768447)
(0.939962919778 0.834452007898 0.287240629552)
(0.755181512802 0.813646117021 0.269597264869)
(0.566435387489 0.798038041905 0.230769776312)
(0.379353546671 0.79916252673 0.175629763954)
(0.213206902658 0.793727894491 0.122737604268)
(0.0724661126584 0.807054183054 0.0963188856226)
(-0.0339154051229 0.822162094665 0.151654531306)
(0.23417767038 0.708434892052 -0.293610171089)
(0.458959830629 0.673275196586 -0.387854697663)
(0.641990298557 0.646576983991 -0.377569277439)
(0.840164279929 0.637239323141 -0.323169425389)
(1.02847436858 0.649909412236 -0.249015642387)
(1.20917909155 0.681519666599 -0.161148149024)
(1.35741238712 0.726800579802 -0.0619857031613)
(1.45721313924 0.776728128236 0.0401057629788)
(1.4950194646 0.823593922271 0.148449275905)
(1.4683912403 0.856683220462 0.239628461026)
(1.38521433701 0.87276223471 0.309371064374)
(1.25723760414 0.871720288771 0.353616716784)
(1.09848707601 0.857124275681 0.374970662187)
(0.920241520131 0.834656087227 0.370661942756)
(0.733673769613 0.810712917348 0.342480608446)
(0.552654473126 0.790541496653 0.29268529439)
(0.360246316428 0.779316322142 0.221310949343)
(0.189826175646 0.778254497913 0.17384173875)
(0.0590184598777 0.787969772846 0.146028081635)
(-0.0398328755092 0.797806945364 0.189831993144)
(0.232325406281 0.660474248685 -0.261376804969)
(0.463291700843 0.63882365703 -0.355829488132)
(0.654271441909 0.626567558112 -0.349627689606)
(0.865761235826 0.627804549476 -0.296266615855)
(1.0670096487 0.6483641546 -0.215160394795)
(1.25516678481 0.680446696692 -0.116599594713)
(1.40758323725 0.721864855792 -0.00528544364897)
(1.50415238618 0.761669948233 0.120004458548)
(1.53314795082 0.798918525031 0.244121497131)
(1.49176395455 0.824248251816 0.341210519876)
(1.39329354577 0.834575398326 0.409651025445)
(1.25160385083 0.833582307216 0.445528452359)
(1.08220465482 0.81974882295 0.455208799463)
(0.897563190086 0.799114124882 0.439315633565)
(0.70812293663 0.776782929707 0.401270933041)
(0.52181358851 0.75587073392 0.345231629051)
(0.341650751285 0.734381598366 0.277765372843)
(0.184968398415 0.737851798932 0.217755859001)
(0.0528736136929 0.741766912684 0.18682929231)
(-0.0407393039164 0.744235031042 0.22375553666)
(0.234380499021 0.590200713587 -0.24120092437)
(0.472679895556 0.58783894702 -0.333066870758)
(0.670739191533 0.591300656766 -0.328129758853)
(0.890605286207 0.604032457792 -0.273476871692)
(1.09900051583 0.626284515518 -0.187043405465)
(1.29222046666 0.654254069283 -0.0823674198639)
(1.44324433933 0.684151272416 0.0447469139982)
(1.53596897362 0.713553225645 0.180021713922)
(1.55861068324 0.738133284274 0.313095421432)
(1.50589602947 0.753436563995 0.412519459585)
(1.3980685147 0.760975112437 0.47875638553)
(1.24737387366 0.756012273171 0.505408783509)
(1.06895482752 0.745264556195 0.512945845162)
(0.879727492555 0.730294681011 0.488313521111)
(0.688753985089 0.714210595754 0.443662758794)
(0.502658084019 0.699107619195 0.383111774037)
(0.327877785406 0.685790171057 0.313612537652)
(0.17752813264 0.678897724286 0.250228948126)
(0.0487507410714 0.673551794436 0.217749882032)
(-0.0403048526309 0.663960313099 0.249438401469)
(0.237308913864 0.506224874588 -0.22700540178)
(0.481756513172 0.521065378793 -0.318564516172)
(0.685481359214 0.539798421281 -0.312390691421)
(0.910334138253 0.561658037285 -0.255255284563)
(1.12212572291 0.583834257578 -0.164685849601)
(1.31444728137 0.6042480806 -0.051927791296)
(1.46514354205 0.619973080236 0.0768770269583)
(1.55594529596 0.633493316056 0.213607247748)
(1.57076827827 0.641955999783 0.349211042055)
(1.51303490916 0.646668955688 0.449301360367)
(1.39566575923 0.64953229427 0.516467985017)
(1.23723652634 0.646240037673 0.55107879462)