/*--------------------------------*- C++ -*----------------------------------*\
| =========                 |                                                 |
| \\      /  F ield         | OpenFOAM: The Open Source CFD Toolbox           |
|  \\    /   O peration     | Version:  3.0.1                                 |
|   \\  /    A nd           | Web:      www.OpenFOAM.org                      |
|    \\/     M anipulation  |                                                 |
\*---------------------------------------------------------------------------*/
FoamFile
{
    version     2.0;
    format      ascii;
    class       volVectorField;
    location    "6.7";
    object      U_0;
}
// * * * * * * * * * * * * * * * * * * * * * * * * * * * * * * * * * * * * * //

dimensions      [0 1 -1 0 0 0 0];

internalField   nonuniform List<vector> 
7968
(
(0.00245800251432 0.00246099802392 -0.00382691179514)
(0.00743961717429 0.00159430795188 -0.00376181057945)
(0.0129469523936 0.00102185753818 -0.00318010271862)
(0.016938464858 0.000709561430533 -0.00219417494321)
(0.0189154323652 0.000794596253679 -0.000907451596263)
(0.0183080087376 0.00103229058455 -0.000271607778556)
(0.0161836616581 0.00145654448813 0.000245719379477)
(0.0125051126732 0.0019892049301 0.000507247762085)
(0.00778587892877 0.00249706854284 0.000539657333275)
(0.00263872734065 0.00280107437175 0.000490510716908)
(-0.00261661350562 0.00280158217289 0.000490750289133)
(-0.00776553587508 0.00249843309727 0.000540172232693)
(-0.0124879728965 0.00199090409352 0.000508016342396)
(-0.0161708239973 0.00145801739063 0.000246733055974)
(-0.018299549275 0.00103343595772 -0.000270934577852)
(-0.018910165378 0.000795975758752 -0.000906552900814)
(-0.0169371140163 0.000710663561763 -0.00219459361803)
(-0.0129465534492 0.00102306242816 -0.00318122225587)
(-0.00743968335018 0.00159565569606 -0.00376365542746)
(-0.00245791555137 0.00246232062831 -0.00382903908349)
(0.00159211368195 0.00744340609547 -0.0037608215573)
(0.00703230757705 0.00703386445957 -0.00709158152431)
(0.0134548711115 0.00690569330015 -0.00782433344456)
(0.0180936014664 0.00719722088685 -0.00721049553799)
(0.0204413960379 0.00797848090994 -0.00592563596475)
(0.0199321608727 0.00888516948375 -0.00486115842172)
(0.0176273229109 0.009779398518 -0.00398405083713)
(0.0136023665491 0.0106403868487 -0.00331179032543)
(0.00845700013378 0.0113376668744 -0.00294106055083)
(0.00286353680612 0.0117282421506 -0.00282027236168)
(-0.00283565702885 0.0117280031372 -0.00281947771047)
(-0.00843072698228 0.0113370566278 -0.00293875423508)
(-0.0135795003884 0.0106395895141 -0.0033082594566)
(-0.0176095580729 0.00977853348136 -0.00398008315569)
(-0.0199196246578 0.00888420462679 -0.00485788564426)
(-0.0204332808034 0.00797906374282 -0.00592210366152)
(-0.0180900885794 0.00719792135423 -0.00720912568472)
(-0.0134534188544 0.0069071678246 -0.00782430431717)
(-0.00703208799335 0.0070362197948 -0.00709277267767)
(-0.00159214061409 0.00744666294291 -0.00376279860136)
(0.00102026151296 0.0129488267086 -0.00317863761299)
(0.00690551615685 0.0134528753156 -0.00782342389263)
(0.0140218034315 0.0140175513603 -0.00873748946571)
(0.0191427470209 0.0149690596789 -0.00792202348153)
(0.0217449043638 0.0163788530192 -0.00642156510832)
(0.0213512854067 0.017844874015 -0.00504238421613)
(0.0189284030524 0.0191237758627 -0.00397773881674)
(0.0146764181247 0.0202919356896 -0.00317412489563)
(0.00917670836206 0.0211923695334 -0.00270344137516)
(0.00311929625425 0.0216787174922 -0.00252238181161)
(-0.0030861007105 0.0216782194274 -0.00252151736989)
(-0.0091455227243 0.0211909704422 -0.0027008498254)
(-0.0146493853286 0.0202898783801 -0.00317004575638)
(-0.0189072122123 0.0191213640429 -0.0039729281863)
(-0.0213358293612 0.0178424294822 -0.00503784603667)
(-0.0217350094734 0.0163781249632 -0.00641714806725)
(-0.0191376269589 0.0149689227982 -0.00791957861779)
(-0.0140194574659 0.0140188076744 -0.00873649496599)
(-0.00690491678894 0.0134557540244 -0.00782379739545)
(-0.00102041386088 0.0129540245047 -0.00318037510322)
(0.000708328922117 0.0169378912435 -0.0021923482503)
(0.00719806525388 0.0180873423088 -0.00720901262171)
(0.0149749871769 0.0191336264414 -0.00792177110138)
(0.0205789940669 0.020567796369 -0.00676922776141)
(0.0234170251184 0.0224114584837 -0.00494228193639)
(0.0230541659908 0.0242332423723 -0.00326561303802)
(0.0204292138781 0.0257484278088 -0.00201837028318)
(0.0158426163004 0.027094582832 -0.00112307968721)
(0.00991238255394 0.0281003075013 -0.00063108077794)
(0.0033706846987 0.0286333307801 -0.000458599453079)
(-0.00333377025272 0.0286326017388 -0.000457748541067)
(-0.00987752432355 0.0280981772195 -0.000628375583229)
(-0.0158121854385 0.0270912652943 -0.00111850499149)
(-0.0204051330148 0.0257442625879 -0.00201290385799)
(-0.0230362893052 0.0242288467433 -0.00326014066634)
(-0.0234054011826 0.0224090107748 -0.0049370929681)
(-0.0205724965484 0.0205663120664 -0.00676591596873)
(-0.0149717901268 0.0191342097717 -0.00791994432921)
(-0.0071970576674 0.0180904137793 -0.00720864124772)
(-0.000708562777162 0.0169449545825 -0.00219392985101)
(0.000794394628548 0.0189086159022 -0.000904656622145)
(0.00798049025374 0.0204289953127 -0.00592398637726)
(0.0163863976807 0.0217300992511 -0.00642206178682)
(0.0224244681427 0.0234002663223 -0.00494341707328)
(0.025461392412 0.0254425973246 -0.00275249471889)
(0.0250927221627 0.0274869187583 -0.000732076303181)
(0.022210994296 0.0291381684761 0.000845280176557)
(0.0172036062194 0.0305406194693 0.00205367194763)
(0.0107545896978 0.0315720786051 0.00278177782391)
(0.00365528803167 0.0321152822399 0.00306918458104)
(-0.00361580802157 0.0321139796465 0.00307048971346)
(-0.010717424268 0.0315682870045 0.00278579015602)
(-0.0171713936191 0.0305347885669 0.00206003240403)
(-0.0221857013612 0.0291310923898 0.000852454056558)
(-0.0250739568717 0.0274798735506 -0.000725305333965)
(-0.0254490647275 0.0254375025283 -0.00274611838298)
(-0.0224174216984 0.0233964155716 -0.00493889011593)
(-0.0163828405966 0.0217288368153 -0.00641884525928)
(-0.0079793389117 0.0204307306394 -0.00592190732234)
(-0.000795095454429 0.0189155786199 -0.000904900058378)
(0.00103230245647 0.0182986434835 -0.000270125951225)
(0.00888731017767 0.0199170121754 -0.00486188451963)
(0.0178530642467 0.0213337531848 -0.00504546731719)
(0.0242469256129 0.023034882963 -0.00326955340647)
(0.0275063623448 0.0250711293588 -0.00073520511592)
(0.0270401687761 0.0270179009604 0.00171490521714)
(0.0238867819698 0.0285442059729 0.00362061195994)
(0.0184596578675 0.0298007672817 0.00508073660168)
(0.0115147919471 0.030713283222 0.00595611964477)
(0.00390635707799 0.0311835913769 0.00631276701062)
(-0.00386658293272 0.0311817556944 0.00631402112798)
(-0.0114771399403 0.0307079411797 0.00595990420501)
(-0.0184267048091 0.0297923774483 0.00508685262033)
(-0.0238604538917 0.0285338038534 0.00362778121398)
(-0.0270202113548 0.0270072272093 0.00172194575477)
(-0.0274929855179 0.0250625208322 -0.000728254908783)
(-0.024238692535 0.0230276252172 -0.00326464433394)
(-0.0178483227927 0.0213296339042 -0.00504182516797)
(-0.00888501562245 0.0199167480522 -0.00485942933525)
(-0.00103278724181 0.0183047045706 -0.000270179466407)
(0.00145791875428 0.0161720262017 0.000246800875608)
(0.00978352061104 0.0176112315894 -0.00398623596208)
(0.0191340497451 0.0189107567022 -0.00398288178609)
(0.0257636282816 0.0204105777912 -0.00202483733059)
(0.0291590905498 0.0221902965348 0.000838624243964)
(0.0285677368591 0.0238653898725 0.00361682259854)
(0.0251821927726 0.0251598531524 0.00578398998345)
(0.0194109000642 0.0262036785502 0.00746923101246)
(0.0120509615849 0.0268996646088 0.00857864556573)
(0.00407734317612 0.0273144694638 0.00876035397621)
(-0.0040393469344 0.0273122934471 0.00876077767506)
(-0.0120148733946 0.0268929362775 0.00858171788706)
(-0.0193793476353 0.0261929269033 0.00747526310726)
(-0.0251570166629 0.0251464667013 0.00579092652465)
(-0.0285485609186 0.0238511779454 0.00362391327716)
(-0.0291460289453 0.0221777940712 0.000845947699247)
(-0.0257556678018 0.0203996084638 -0.00201987607707)
(-0.0191291341306 0.0189032659414 -0.00397876567689)
(-0.00978091420856 0.017608081391 -0.00398277717902)
(-0.00145862551178 0.0161760551478 0.000247564837905)
(0.00199159113511 0.0124926147104 0.000508412718677)
(0.010646596721 0.0135883928883 -0.00331554495911)
(0.0203043474587 0.0146623628189 -0.00318121847655)
(0.0271112122251 0.0158289178637 -0.00113188178218)
(0.0305628838368 0.0171888611658 0.00204295248643)
(0.0298258766691 0.0184444787476 0.00507212492919)
(0.0262278415507 0.0193954489689 0.00746444483093)
(0.0201546351338 0.0201377085065 0.00917850445986)
(0.0124883879685 0.0206719279143 0.00964582689632)
(0.00419949850169 0.0209550608161 0.00975698994838)
(-0.00416606868001 0.0209526255037 0.00975725396551)
(-0.0124568553338 0.0206644350904 0.00964702624425)
(-0.0201275924963 0.0201257751038 0.00918029009032)
(-0.0262059977752 0.0193793197661 0.00747034459685)
(-0.0298094427065 0.0184267502005 0.00507795852498)
(-0.0305514804594 0.0171720261393 0.00204930594789)
(-0.0271042585529 0.0158138306206 -0.00112771307306)
(-0.0202998141194 0.0146508755169 -0.00317741695738)
(-0.0106439859611 0.0135816654048 -0.00331183989645)
(-0.00199255488237 0.0124933731506 0.000509754118511)
(0.00249942221764 0.00777281500551 0.000542158828617)
(0.0113450253261 0.00844707003527 -0.00294491987853)
(0.02120586979 0.0091692523544 -0.00271095613527)
(0.0281175170904 0.00990717030434 -0.000640131656221)
(0.0315945430854 0.0107502466474 0.00276932437725)
(0.0307387532719 0.0115106402089 0.00594468405821)
(0.0269248206514 0.0120472999049 0.00857170204049)
(0.0206914081522 0.0124834351789 0.00964592228663)
(0.0127730308939 0.0127652582507 0.0100656445171)
(0.00427757082083 0.0129229884198 0.010179357041)
(-0.0042502259214 0.0129206454714 0.0101796619008)
(-0.0127476202217 0.0127579184184 0.0100666113545)
(-0.0206699802576 0.0124710003455 0.00964741789763)
(-0.0269081194427 0.0120302847316 0.00857458012763)
(-0.0307264016838 0.0114912728319 0.00594764209751)
(-0.0315858282714 0.0107308610134 0.0027728344042)
(-0.0281121926492 0.00988950367868 -0.000637893968208)
(-0.0212025339941 0.0091548988621 -0.00270857124974)
(-0.0113431208919 0.00843748472868 -0.00294216562579)
(-0.00250031095906 0.00776997457001 0.000543681153079)
(0.00280324469632 0.00262296091744 0.000494413474918)
(0.0117350312465 0.00285601478685 -0.00282248490764)
(0.0216913112083 0.00311770980398 -0.0025283232437)
(0.0286492073453 0.00337337974758 -0.000465700038278)
(0.0321355787608 0.00366107480615 0.00305883248884)
(0.031206861447 0.0039133115766 0.0063018602073)
(0.0273359000525 0.00408434500118 0.00876197237598)
(0.0209720711687 0.00420515540316 0.00975942875493)
(0.012930927949 0.00428030950665 0.0101804246299)
(0.00432302896025 0.00432388953637 0.0102885690226)
(-0.00430143190419 0.00432182309488 0.0102888126064)
(-0.0129112703353 0.00427382966122 0.0101811295072)
(-0.0209562127973 0.00419402309397 0.00976028758656)
(-0.0273242901403 0.00406901672512 0.0087624876084)
(-0.0311986504686 0.00389555358337 0.00630110510085)
(-0.032129737208 0.00364267880032 0.00305850116519)
(-0.0286457350368 0.00335633823311 -0.000466052327714)
(-0.0216896533335 0.00310326019903 -0.00252828179065)
(-0.0117343263854 0.00284560948272 -0.00282177710483)
(-0.00280370184868 0.00261778904137 0.000495507767568)
(0.00280412188095 -0.00263709709326 0.000493983077061)
(0.0117327198635 -0.00284299631825 -0.00282030234062)
(0.0216878842474 -0.00308435099891 -0.00252567864305)
(0.0286449231342 -0.00332610435787 -0.000462589051561)
(0.0321295657531 -0.00360320876148 0.00306347353876)
(0.0311994627249 -0.00385194749061 0.00630608271969)
(0.0273284023675 -0.0040249536172 0.00876276408914)
(0.0209652033645 -0.00415424561293 0.00975947172783)
(0.0129259817629 -0.00424154246469 0.0101801259965)
(0.00432024432558 -0.00429540418947 0.0102879854931)
(-0.00430253079211 -0.00429685889895 0.0102881034181)
(-0.0129102451295 -0.00424622903936 0.0101804729517)
(-0.0209531825547 -0.00416251130572 0.00975976458118)
(-0.0273202221063 -0.00403621850271 0.00876218511153)
(-0.0311942468978 -0.00386482549685 0.00630228326583)
(-0.0321258796225 -0.00361677451332 0.00305988976576)
(-0.0286429170176 -0.00333890891771 -0.000465328215843)
(-0.0216876042039 -0.00309550691332 -0.00252797611354)
(-0.0117330443301 -0.00285149116286 -0.00282181305024)
(-0.00280424115014 -0.00264217485386 0.000494284742952)
(0.00250137228799 -0.00778899267544 0.000540997738904)
(0.0113389260959 -0.00843711285908 -0.00293929015412)
(0.0211965648471 -0.00914133888877 -0.00270392355089)
(0.0281056482614 -0.00986647553242 -0.000631648414375)
(0.0315776201213 -0.0107002515658 0.00278197133064)
(0.0307176804629 -0.0114565996625 0.00595574284947)
(0.0269019760186 -0.0119942807563 0.00857839197706)
(0.0206700802748 -0.0124374654669 0.00964695874372)
(0.0127572170231 -0.0127298192005 0.0100647867305)
(0.00426847842506 -0.0128957048977 0.0101775861281)
(-0.0042534789538 -0.0128963135109 0.010177622714)
(-0.012744183393 -0.0127318472718 0.0100647820636)
(-0.0206606079696 -0.0124413347913 0.00964618658977)
(-0.0268958845583 -0.0119996023076 0.00857502779338)
(-0.0307137231296 -0.0114622336105 0.00595068970253)
(-0.0315748559328 -0.0107062123457 0.00277678127246)
(-0.0281042193229 -0.00987222512195 -0.00063572910787)
(-0.0211967296924 -0.0091464609131 -0.00270759018038)
(-0.0113395102234 -0.00844117780644 -0.00294219323611)
(-0.00250141891342 -0.00779160657754 0.000540351709695)
(0.00199308321389 -0.0125111435573 0.000506585887246)
(0.0106385461252 -0.0135837170886 -0.00330871688883)
(0.0202914256174 -0.0146433919603 -0.00317211082842)
(0.0270940232086 -0.0157991218533 -0.00112030978637)
(0.0305381304043 -0.017151742903 0.00205960315515)
(0.0297943733743 -0.0184023462467 0.00508657376818)
(0.0261930103415 -0.0193530970621 0.00747458766983)
(0.0201219303309 -0.0201002153849 0.00917992151683)
(0.0124631853347 -0.0206421703293 0.00964444211443)
(0.00418448488846 -0.0209299254994 0.00975542856406)
(-0.00417141792273 -0.0209296956626 0.00975528669258)
(-0.0124515468636 -0.0206415562189 0.00964405701147)
(-0.0201129669827 -0.0200995420442 0.00917865368719)
(-0.0261868466951 -0.0193519634058 0.00747168849481)
(-0.029790065992 -0.0184003806541 0.00508246155494)
(-0.0305349991989 -0.0171495420036 0.00205538850681)
(-0.027092303263 -0.0157971083838 -0.00112394193672)
(-0.0202911473565 -0.0146415444037 -0.00317547930951)
(-0.0106386619379 -0.0135819939758 -0.00331149868241)
(-0.00199326127512 -0.0125098815557 0.000505449581646)
(0.00145847550991 -0.0161910361675 0.000244591346569)
(0.00977540760765 -0.0176117049236 -0.00398012342961)
(0.0191197758008 -0.018900678692 -0.00397381982619)
(0.025743432707 -0.0203921220447 -0.00201316147056)
(0.0291301827751 -0.0221666280971 0.000854717992069)
(0.0285305164679 -0.023836165265 0.00363093788764)
(0.0251406964515 -0.025129366634 0.00579390772014)
(0.0193705905175 -0.0261756847437 0.00747238870675)
(0.0120191941943 -0.0268763638784 0.00857458504661)
(0.00405762097379 -0.02729364003 0.00876024794554)
(-0.00404552411631 -0.027292871976 0.00875988593029)
(-0.0120078005804 -0.0268740785397 0.00857426267956)
(-0.0193606714467 -0.026171951164 0.00747196492542)
(-0.0251328017631 -0.0251239242261 0.00579299777044)
(-0.0285244509142 -0.0238290072453 0.00362952447973)
(-0.0291257776992 -0.0221588224549 0.000853511956643)
(-0.0257409326133 -0.0203845437174 -0.00201460327)
(-0.0191186162557 -0.0188935738415 -0.00397554153272)
(-0.00977477012849 -0.0176052379657 -0.00398151649403)
(-0.00145860443849 -0.0161863157536 0.000243772735235)
(0.00103214106241 -0.0183159554316 -0.000272766003865)
(0.00887959470913 -0.019920710708 -0.00485742850037)
(0.0178382660381 -0.0213299506871 -0.00503780034766)
(0.0242249547426 -0.023025050462 -0.00325926756396)
(0.0274759573059 -0.0250577629236 -0.000721978066876)
(0.0270012815794 -0.0269992970168 0.00172671793274)
(0.0238433183878 -0.0285237297992 0.00362897034681)
(0.0184169718823 -0.0297811500291 0.00508302551896)
(0.011480181865 -0.0306960395027 0.00595183850411)
(0.00388493265247 -0.0311687905211 0.00630334428134)
(-0.00387270976293 -0.0311677491765 0.00630334127366)
(-0.0114679332036 -0.0306930547447 0.00595189423)
(-0.0184052019077 -0.0297762710937 0.00508345975144)
(-0.0238329610301 -0.0285167343756 0.00362988533876)
(-0.0269928401598 -0.0269902857318 0.00172797289527)
(-0.0274698286737 -0.0250479871761 -0.000720245738498)
(-0.0242213305857 -0.0230152336646 -0.00325838407031)
(-0.0178360769146 -0.0213205182109 -0.0050375342218)
(-0.00887824231128 -0.0199120064962 -0.00485710879905)
(-0.00103200573726 -0.0183094684364 -0.000272852722227)
(0.000792969366333 -0.018923734278 -0.000908560246551)
(0.00797206019861 -0.0204338264495 -0.00592142361259)
(0.0163711125354 -0.0217301596597 -0.00641626569954)
(0.0224023596726 -0.0233967241214 -0.00493533148436)
(0.0254314624243 -0.0254368360128 -0.00274253540134)
(0.0250558966322 -0.0274774100796 -0.000722881436937)
(0.0221702150919 -0.0291267245615 0.00085231854353)
(0.0171633272048 -0.0305285604234 0.00205630329033)
(0.0107215205502 -0.0315605397621 0.00277926756779)
(0.00363444317857 -0.0321044125077 0.00306318586255)
(-0.00362179237605 -0.0321034153423 0.00306312162836)
(-0.0107082141168 -0.0315575901924 0.0027794254084)
(-0.0171497217431 -0.0305237142779 0.00205744268444)
(-0.0221576193522 -0.0291199195462 0.00085477286054)
(-0.0250453867676 -0.0274688242438 -0.000719451863032)
(-0.0254238168233 -0.0254276196377 -0.00273851993253)
(-0.0223975139532 -0.0233869382718 -0.0049322740548)
(-0.016367975109 -0.0217205127135 -0.00641402666556)
(-0.0079701165568 -0.0204248557681 -0.00591958980293)
(-0.000792513250933 -0.0189169448895 -0.000908120864837)
(0.000705025107414 -0.0169452273907 -0.00219517728504)
(0.00718770196037 -0.0180903724712 -0.0072075187632)
(0.0149578748496 -0.0191348706757 -0.00791807312865)
(0.0205555889282 -0.0205674972326 -0.00676412280543)
(0.0233868952488 -0.0224100414079 -0.00493637942978)
(0.0230186728314 -0.024228971445 -0.00326098312414)
(0.0203910502094 -0.0257431076926 -0.00201580315581)
(0.0158056267661 -0.0270888336301 -0.00112333530684)
(0.0098822447696 -0.0280947898876 -0.000634258546973)
(0.00335188908442 -0.0286281402937 -0.000463706812596)
(-0.00333878483834 -0.0286274879033 -0.000463794180441)
(-0.00986813221715 -0.0280927764353 -0.000634104158522)
(-0.0157907785296 -0.027085412903 -0.00112212785482)
(-0.0203769068454 -0.0257381901085 -0.00201320125486)
(-0.0230065021403 -0.0242226159492 -0.00325728065523)
(-0.0233775094431 -0.0224031527047 -0.00493178626845)
(-0.0205493241341 -0.0205599578566 -0.00675994399138)
(-0.0149537323933 -0.0191273840356 -0.00791449353272)
(-0.00718524020177 -0.0180834941138 -0.00720446637734)
(-0.000704350387026 -0.0169400776761 -0.00219379093341)
(0.00101559442354 -0.0129508737064 -0.00317985780232)
(0.00689361877538 -0.0134535201803 -0.00782188757807)
(0.0140037689204 -0.0140183425016 -0.00873487188483)
(0.0191196074889 -0.0149697262514 -0.00791868197708)
(0.0217164727101 -0.0163791369876 -0.00641779762038)
(0.0213192912212 -0.017843133127 -0.0050397338878)
(0.018894664892 -0.0191212354644 -0.00397644786943)
(0.0146440258046 -0.0202893319306 -0.00317529979721)
(0.00915050424193 -0.02119029322 -0.00270751978417)
(0.00310323199658 -0.0216772304092 -0.00252872780035)
(-0.0030895811655 -0.0216768538161 -0.00252902570339)
(-0.00913560805334 -0.0211890566375 -0.0027078573897)
(-0.0146280520692 -0.0202870491734 -0.00317465795164)
(-0.0188791072805 -0.0191177981333 -0.00397435031422)
(-0.0213055261491 -0.0178385989166 -0.0050364908149)
(-0.0217053440578 -0.0163744189049 -0.00641340152753)
(-0.0191118705605 -0.0149646144532 -0.00791434448648)
(-0.0139986012513 -0.0140134434949 -0.00873105389461)
(-0.00689063283496 -0.0134492451615 -0.00781874202585)
(-0.00101465595011 -0.0129478719961 -0.00317830555774)
(0.00158639046092 -0.0074413117175 -0.00376046208613)
(0.00701923968088 -0.00703243332706 -0.00708976498594)
(0.0134366195187 -0.00690571517813 -0.00782259912346)
(0.0180716998424 -0.00719802441757 -0.00720856835428)
(0.0204155765059 -0.00797949891426 -0.0059234124824)
(0.0199045781218 -0.00888486102414 -0.00485965411331)
(0.0175989938371 -0.00977853300327 -0.00398316413276)
(0.0135759702317 -0.0106395376057 -0.0033129217919)
(0.00843648849971 -0.0113371955219 -0.00294471341063)
(0.00285172557222 -0.0117281309697 -0.00282615889607)
(-0.00283692635369 -0.0117279972123 -0.00282662207423)
(-0.00842035433449 -0.0113367143592 -0.00294542486769)
(-0.0135586256372 -0.0106385459273 -0.00331277191637)
(-0.0175819296421 -0.00977693635112 -0.0039815785983)
(-0.0198892519623 -0.0088826012704 -0.00485703128194)
(-0.0204025826453 -0.00797746067713 -0.00591948065593)
(-0.0180625369297 -0.00719576612547 -0.00720463871641)
(-0.0134303898223 -0.00690377400935 -0.00781925714212)
(-0.00701560543063 -0.00703095020521 -0.00708717095542)
(-0.00158505237663 -0.00744037673982 -0.00375883733039)
(0.00245281679122 -0.00245891729861 -0.00382539114436)
(0.00742780671271 -0.00159338542444 -0.00376062164004)
(0.0129311051217 -0.00102225761481 -0.00318054457023)
(0.0169211644187 -0.000710976697656 -0.00219567916757)
(0.0188964483283 -0.000797050803492 -0.000909543785068)
(0.018288892769 -0.00103487832325 -0.000274025020042)
(0.0161649072199 -0.00145950738095 0.000243148381617)
(0.0124880243534 -0.00199222650215 0.000504259181498)
(0.00777278985976 -0.00249918146414 0.000536580925944)
(0.00263180912005 -0.00280191691581 0.000487093423377)
(-0.00261548752584 -0.00280182748176 0.000486781749284)
(-0.00775499866873 -0.00249899440062 0.000535720235562)
(-0.0124686991007 -0.00199201048121 0.000503828240805)
(-0.016145627739 -0.00145935333815 0.000243684164637)
(-0.0182713249463 -0.00103475984657 -0.000272892372278)
(-0.0188808885735 -0.000796918345043 -0.000908005013318)
(-0.0169097111949 -0.000711114577128 -0.00219350862713)
(-0.0129232737189 -0.00102249762622 -0.0031788047323)
(-0.00742316299627 -0.00159373834706 -0.00375926931645)
(-0.00245089262308 -0.00245916362654 -0.003823631)
(0.0037875013431 0.00379106796405 -0.0154120402538)
(0.01062038181 0.00483400344023 -0.0157321574782)
(0.0160643342092 0.00563869078038 -0.0140961212045)
(0.0194823179395 0.006391586178 -0.0115670489452)
(0.0207112657938 0.00707453625054 -0.00882048750506)
(0.0196824814051 0.00758478155307 -0.00664729088393)
(0.0169922427006 0.0080086020643 -0.00523398330169)
(0.012893361721 0.00842187079949 -0.00443811161451)
(0.00792264958028 0.00879706471976 -0.00422866172574)
(0.00266331696501 0.0090276764472 -0.00430246564091)
(-0.0026376360669 0.00902734404904 -0.00430115457936)
(-0.00789850240679 0.00879605786312 -0.0042250552337)
(-0.0128723934107 0.00842020414491 -0.00443248070474)
(-0.0169759480846 0.00800640121934 -0.00522707742113)
(-0.0196709723162 0.0075823793526 -0.0066408927902)
(-0.0207034683636 0.00707232853483 -0.00881536013799)
(-0.0194774195094 0.00638979642825 -0.0115642952437)
(-0.0160612620684 0.00563754695062 -0.0140960971109)
(-0.0106186892358 0.0048334842575 -0.0157343088168)
(-0.00378685797989 0.00379106327343 -0.0154148615008)
(0.00483377084654 0.010621812966 -0.0157282241928)
(0.0119195447359 0.0119162606334 -0.0183484969609)
(0.0169736726215 0.0131501970877 -0.0174651076255)
(0.0200450047227 0.0145760196259 -0.0152548929885)
(0.0210098028542 0.0160302232712 -0.0126314567372)
(0.0199722796246 0.0173154045739 -0.0102584525411)
(0.0172508387459 0.0184143736663 -0.00841166125236)
(0.0131521246974 0.0193663523877 -0.00711512445304)
(0.00816269390761 0.0201019129484 -0.0064172545286)
(0.00276821809204 0.0204990996873 -0.00617534959399)
(-0.00273603619967 0.0204979846102 -0.00617354329471)
(-0.00813212216607 0.0200986805178 -0.00641195357006)
(-0.0131247922339 0.0193613339594 -0.00710682970915)
(-0.0172282203335 0.018408204567 -0.00840168691872)
(-0.0199548670775 0.0173090403337 -0.0102486007168)
(-0.0209970438555 0.0160246163828 -0.0126230623029)
(-0.020036276358 0.0145716839399 -0.0152489348675)
(-0.0169681964555 0.013147270539 -0.0174620215064)
(-0.0119165884701 0.0119146109763 -0.0183481361081)
(-0.00483299365349 0.0106217263294 -0.0157308805253)
(0.00564005472951 0.016061978545 -0.014090713096)
(0.0131556296269 0.0169660597054 -0.0174638124432)
(0.0184192108821 0.0184092886134 -0.0164347534638)
(0.0214439476294 0.0202237645722 -0.0138024250273)
(0.0222851766338 0.0221307133425 -0.0106889530899)
(0.0211381833316 0.0238712113644 -0.00777592202506)
(0.0182664534187 0.0253434277485 -0.00540710830944)
(0.0139929674954 0.0265446302154 -0.00365145894188)
(0.00875448846647 0.0274238616883 -0.0025666041558)
(0.00298822173776 0.0278905341626 -0.00208974911504)
(-0.00295159718408 0.0278891769715 -0.00208781014838)
(-0.00871972055856 0.0274199244346 -0.00256077081835)
(-0.0139617480168 0.0265385559679 -0.00364232272263)
(-0.0182401527338 0.0253359899429 -0.00539602981925)
(-0.0211173964669 0.0238636136331 -0.00776457170671)
(-0.022269595145 0.022123951682 -0.0106788799648)
(-0.0214329060586 0.0202184476036 -0.0137946529303)
(-0.0184120756769 0.0184056554167 -0.0164297420092)
(-0.0131514714158 0.0169642037315 -0.0174617066016)
(-0.00563884471603 0.0160629186357 -0.0140923886728)
(0.00639385707359 0.0194745560381 -0.0115601667451)
(0.014582992441 0.0200331465723 -0.015253301445)
(0.0202351974573 0.0214305336662 -0.013802701593)
(0.0233125603557 0.0232982243172 -0.0105627899113)
(0.0240287633064 0.0252591407475 -0.00681103208705)
(0.0226775407432 0.0270757154399 -0.00332319464793)
(0.0195237404238 0.0285994732463 -0.00047294470384)
(0.0149321172346 0.0297904927825 0.00165844504261)
(0.00934866379639 0.0306256196537 0.00300679864615)
(0.00319437427813 0.0310573355171 0.00362158567273)
(-0.00315503405199 0.0310556593985 0.00362373911395)
(-0.00931128167715 0.0306207714664 0.00301322818496)
(-0.0148983732459 0.0297830627848 0.00166855784249)
(-0.019494887526 0.0285904312478 -0.000460617391233)
(-0.0226544264882 0.0270663443971 -0.00331018974306)
(-0.0240112825379 0.0252505812873 -0.00679954139664)
(-0.0232998588866 0.023291368477 -0.0105534143288)
(-0.0202267650871 0.021425751558 -0.0137959833744)
(-0.014577705665 0.0200308195376 -0.0152493736828)
(-0.00639223749465 0.0194764454618 -0.0115601458915)
(0.00707786144777 0.0206969793766 -0.00881474360178)
(0.0160388271381 0.0209941408651 -0.0126316411714)
(0.0221436902867 0.0222693502902 -0.0106913433672)
(0.0252745449543 0.0240129760691 -0.00681326107269)
(0.0258613516118 0.0258452286801 -0.00245306352725)
(0.0242606136038 0.0275482764968 0.00161706580038)
(0.0208153683243 0.0289634360096 0.00490824999174)
(0.0158888058316 0.0300502480924 0.00731479248259)
(0.00993178804317 0.0307912686662 0.0088088363926)
(0.0033898750409 0.0311709510909 0.00948099131824)
(-0.00334948299837 0.0311690564549 0.00948322951048)
(-0.00989344633692 0.0307857499273 0.00881551934061)
(-0.0158542462514 0.0300417094917 0.00732534959205)
(-0.020785832616 0.0289529679608 0.00492115683457)
(-0.0242366573774 0.0275371337285 0.00163067990495)
(-0.0258428839404 0.0258348545117 -0.00244043141832)
(-0.0252608682984 0.024004266575 -0.00680250819053)
(-0.0221344201554 0.0222629979959 -0.0106829641867)
(-0.0160326400081 0.0209907897655 -0.0126257515254)
(-0.00707596894457 0.0206988650661 -0.0088125337819)
(0.00758922626072 0.0196638542144 -0.00664622214172)
(0.0173261140708 0.0199543997353 -0.0102626258397)
(0.0238861479745 0.0211215135055 -0.00778220340736)
(0.0270925716202 0.0226620070906 -0.00332952093336)
(0.0275652139327 0.0242453588498 0.00161299901015)
(0.0257626472192 0.0257472088602 0.00617114087616)
(0.0220441480427 0.0269875297231 0.00981747543148)
(0.0167896942426 0.0279238152274 0.0124385819226)
(0.0104755725663 0.0285631883201 0.0140328976402)
(0.00357085643948 0.0289009527257 0.0147392661369)
(-0.00353099641912 0.0288988630851 0.014741386211)
(-0.0104377981613 0.0285570361205 0.0140392627316)
(-0.0167557288009 0.0279141149114 0.012448755921)
(-0.022015162176 0.026975440084 0.00983014755466)
(-0.0257390879325 0.0257341746076 0.00618493267518)
(-0.0275468452416 0.0242326979678 0.00162638851169)
(-0.027078867499 0.0226507182876 -0.00331752023173)
(-0.0238766267975 0.0211128681243 -0.00777256577413)
(-0.0173193843734 0.0199492099684 -0.010255032121)
(-0.00758702160078 0.0196646216232 -0.00664178505355)
(0.0080148319785 0.0169719788887 -0.00523762830497)
(0.0184279736431 0.0172332035327 -0.00842058254753)
(0.0253610239252 0.0182512240468 -0.0054179178852)
(0.0286183963742 0.0195105843336 -0.000484101850148)
(0.0289818209359 0.0208029951663 0.00489891725549)
(0.0270039237376 0.0220321648664 0.00981214268249)
(0.0230509449174 0.0230385831848 0.0136932882127)
(0.0175305340071 0.0238230073338 0.0164626977897)
(0.0109361907047 0.0243907394753 0.0181569238293)
(0.00372705841391 0.0246666558829 0.0190099430052)
(-0.00368935111206 0.0246643522762 0.0190119993968)
(-0.0109006315143 0.02438395726 0.0181631329368)
(-0.0174988627331 0.0238124056893 0.0164717215048)
(-0.0230240400013 0.023024918429 0.0137045926958)
(-0.026982158545 0.0220170321367 0.00982478842153)
(-0.0289649646566 0.0207877933322 0.00491159489198)
(-0.0286056696668 0.0194963610753 -0.000472581794258)
(-0.0253519672248 0.0182396051923 -0.00540812642966)
(-0.01842133816 0.017225113616 -0.00841200963232)
(-0.00801247250426 0.0169698317146 -0.00523112035846)
(0.00842989368895 0.0128754242297 -0.00444583296563)
(0.0193824088968 0.0131380019354 -0.0071280267105)
(0.0265645393662 0.0139819091225 -0.00366595706365)
(0.0298113913564 0.014923666095 0.00164316596232)
(0.0300704042799 0.0158817437118 0.00730056892362)
(0.027941744724 0.0167835282145 0.0124280642935)
(0.0238365617157 0.0175242886596 0.0164576229706)
(0.01813851605 0.0181315464496 0.0194846233761)
(0.0113081698957 0.0185636486591 0.0214768223231)
(0.0038499354587 0.0187805097477 0.0223475058398)
(-0.00381591897022 0.0187781195896 0.0223492388527)
(-0.0112763531154 0.0185566160107 0.0214821492768)