/*--------------------------------*- C++ -*----------------------------------*\
| =========                 |                                                 |
| \\      /  F ield         | OpenFOAM: The Open Source CFD Toolbox           |
|  \\    /   O peration     | Version:  3.0.1                                 |
|   \\  /    A nd           | Web:      www.OpenFOAM.org                      |
|    \\/     M anipulation  |                                                 |
\*---------------------------------------------------------------------------*/
FoamFile
{
    version     2.0;
    format      ascii;
    class       surfaceScalarField;
    location    "8.6";
    object      meshPhiCN_0;
}
// * * * * * * * * * * * * * * * * * * * * * * * * * * * * * * * * * * * * * //

dimensions      [0 3 -1 0 0 0 0];

internalField   nonuniform List<scalar> 
22672
(
0
0
0
0
0
0
0
0
0
0
0
0
0
0
0
0
0
0
0
0
0
0
0
0
0
0
0
0
0
0
0
0
0
0
0
0
0
0
0
0
0
0
0
0
0
0
0
0
0
0
0
0
0
0
0
0
0
0
0
0
0
0
0
0
0
0
0
0
0
0
0
0
0
0
0
0
0
0
0
0
0
0
0
0
0
0
0
0
0
0
0
0
0
0
0
0
0
0
0
0
0
0
0
0
0
0
0
0
0
0
0
0
0
0
0
0
0
0
0
0
0
0
0
0
0
0
0
0
0
0
0
0
0
0
0
0
0
0
0
0
0
0
0
0
0
0
0
0
0
0
0
0
0
0
0
0
0
0
0
0
0
0
0
0
0
0
0
0
0
0
0
0
0
0
0
0
0
0
0
0
0
0
0
0
0
0
0
0
0
0
0
0
0
0
0
0
0
0
0
0
0
0
0
0
0
0
0
0
0
0
0
0
0
0
0
0
0
0
0
0
0
0
0
0
0
0
0
0
0
0
0
0
0
0
0
0
0
0
0
0
0
0
0
0
0
0
0
0
0
0
0
0
0
0
0
0
0
0
0
0
0
0
0
0
0
0
0
0
0
0
0
0
0
0
0
0
0
0
0
0
0
0
0
0
0
0
0
0
0
0
0
0
0
0
0
0
0
0
0
0
0
0
0
0
0
0
0
0
0
0
0
0
0
0
0
0
0
0
0
0
0
0
0
0
0
0
0
0
0
0
0
0
0
0
0
0
0
0
0
0
0
0
0
0
0
0
0
0
0
0
0
0
0
0
0
0
0
0
0
0
0
0
0
0
0
0
0
0
0
0
0
0
0
0
0
0
0
0
0
0
0
0
0
0
0
0
0
0
0
0
0
0
0
0
0
0
0
0
0
0
0
0
0
0
0
0
0
0
0
0
0
0
0
0
0
0
0
0
0
0
0
0
0
0
0
0
0
0
0
0
0
0
0
0
0
0
0
0
0
0
0
0
0
0
0
0
0
0
0
0
0
0
0
0
0
0
0
0
0
0
0
0
0
0
0
0
0
0
0
0
0
0
0
0
0
0
0
0
0
0
0
0
0
0
0
0
0
0
0
0
0
0
0
0
0
0
0
0
0
0
0
0
0
0
0
0
0
0
0
0
0
0
0
0
0
0
0
0
0
0
0
0
0
0
0
0
0
0
0
0
0
0
0
0
0
0
0
0
0
0
0
0
0
0
0
0
0
0
0
0
0
0
0
0
0
0
0
0
0
0
0
0
0
0
0
0
0
0
0
0
0
0
0
0
0
0
0
0
0
0
0
0
0
0
0
0
0
0
0
0
0
0
0
0
0
0
0
0
0
0
0
0
0
0
0
0
0
0
0
0
0
0
0
0
0
0
0
0
0
0
0
0
0
0
0
0
0
0
0
0
0
0
0
0
0
0
0
0
0
0
0
0
0
0
0
0
0
0
0
0
0
0
0
0
0
0
0
0
0
0
0
0
0
0
0
0
0
0
0
0
0
0
0
0
0
0
0
0
0
0
0
0
0
0
0
0
0
0
0
0
0
0
0
0
0
0
0
0
0
0
0
0
0
0
0
0
0
0
0
0
0
0
0
0
0
0
0
0
0
0
0
0
0
0
0
0
0
0
0
0
0
0
0
0
0
0
0
0
0
0
0
0
0
0
0
0
0
0
0
0
0
0
0
0
0
0
0
0
0
0
0
0
0
0
0
0
0
0
0
0
0
0
0
0
0
0
0
0
0
0
0
0
0
0
0
0
0
0
0
0
0
0
0
0
0
0
0
0
0
0
0
0
0
0
0
0
0
0
0
0
0
0
0
0
0
0
0
0
0
0
0
0
0
0
0
0
0
0
0
0
0
0
0
0
0
0
0
0
0
0
0
0
0
0
0
0
0
0
0
0
0
0
0
0
0
0
0
0
0
0
0
0
0
0
0
0
0
0
0
0
0
0
0
0
0
0
0
0
0
0
0
0
0
0
0
0
0
0
0
0
0
0
0
0
0
0
0
0
0
0
0
0
0
0
0
0
0
0
0
0
0
0
0
0
0
0
0
0
0
0
0
0
0
0
0
0
0
0
0
0
0
0
0
0
0
0
0
0
0
0
0
0
0
0
0
0
0
0
0
0
0
0
0
0
0
0
0
0
0
0
0
0
0
0
0
0
0
0
0
0
0
0
0
0
0
0
0
0
0
0
0
0
0
0
0
0
0
0
0
0
0
0
0
0
0
0
0
0
0
0
0
0
0
0
0
0
0
0
0
0
0
0
0
0
0
0
0
0
0
0
0
0
0
0
0
0
0
0
0
0
0
0
0
0
0
0
0
0
0
0
0
0
0
0
0
0
0
0
0
0
0
0
0
0
0
0
0
0
0
0
0
0
0
0
0
0
0
0
0
0
0
0
0
0
0
0
0
0
0
0
0
0
0
0
0
0
0
0
0
0
0
0
0
0
0
0
0
0
0
0
0
0
0
0
0
0
0
0
0
0
0
0
0
0
0
0
0
0
0
0
0
0
0
0
0
0
0
0
0
0
0
0
0
0
0
0
0
0
0
0
0
0
0
0
0
0
0
0
0
0
0
0
0
0
0
0
0
0
0
0
0
0
0
0
0
0
0
0
0
0
0
0
0
0
0
0
0
0
0
0
0
0
0
0
0
0
0
0
0
0
0
0
0
0
0
0
0
0
0
0
0
0
0
0
0
0
0
0
0
0
0
0
0
0
0
0
0
0
0
0
0
0
0
0
0
0
0
0
0
0
0
0
0
0
0
0
0
0
0
0
0
0
0
0
0
0
0
0
0
0
0
0
0
0
0
0
0
0
0
0
0
0
0
0
0
0
0
0
0
0
0
0
0
0
0
0
0
0
0
0
0
0
0
0
0
0
0
0
0
0
0
0
0
0
0
0
0
0
0
0
0
0
0
0
0
0
0
0
0
0
0
0
0
0
0
0
0
0
0
0
0
0
0
0
0
0
0
0
0
0
0
0
0
0
0
0
0
0
0
0
0
0
0
0
0
0
0
0
0
0
0
0
0
0
0
0
0
0
0
0
0
0
0
0
0
0
0
0
0
0
0
0
0
0
0
0
0
0
0
0
0
0
0
0
0
0
0
0
0
0
0
0
0
0
0
0
0
0
0
0
0
0
0
0
0
0
0
0
0
0
0
0
0
0
0
0
0
0
0
0
0
0
0
0
0
0
0
0
0
0
0
0
0
0
0
0
0
0
0
0
0
0
0
0
0
0
0
0
0
0
0
0
0
0
0
0
0
0
0
0
0
0
0
0
0
0
0
0
0
0
0
0
0
0
0
0
0
0
0
0
0
0
0
0
0
0
0
0
0
0
0
0
0
0
0
0
0
0
0
0
0
0
0
0
0
0
0
0
0
0
0
0
0
0
0
0
0
0
0
0
0
0
0
0
0
0
0
0
0
0
0
0
0
0
0
0
0
0
0
0
0
0
0
0
0
0
0
0
0
0
0
0
0
0
0
0
0
0
0
0
0
0
0
0
0
0
0
0
0
0
0
0
0
0
0
0
0
0
0
0
0
0
0
0
0
0
0
0
0
0
0
0
0
0
0
0
0
0
0
0
0
0
0
0
0
0
0
0
0
0
0
0
0
0
0
0
0
0
0
0
0
0
0
0
0
0
0
0
0
0
0
0
0
0
0
0
0
0
0
0
0
0
0
0
0
0
0
0
0
0
0
0
0
0
0
0
0
0
0
0
0
0
0
0
0
0
0
0
0
0
0
0
0
0
0
0
0
0
0
0
0
0
0
0
0
0
0
0
0
0
0
0
0
0
0
0
0
0
0
0
0
0
0
0
0
0
0
0
0
0
0
0
0
0
0
0
0
0
0
0
0
0
0
0
0
0
0
0
0
0
0
0
0
0
0
0
0
0
0
0
0
0
0
0
0
0
0
0
0
0
0
0
0
0
0
0
0
0
0
0
0
0
0
0
0
0
0
0
0
0
0
0
0
0
0
0
0
0
0
0
0
0
0
0
0
0
0
0
0
0
0
0
0
0
0
0
0
0
0
0
0
0
0
0
0
0
0
0
0
0
0
0
0
0
0
0
0
0
0
0
0
0
0
0
0
0
0
0
0
0
0
0
0
0
0
0
0
0
0
0
0
0
0
0
0
0
0
0
0
0
0
0
0
0
0
0
0
0
0
0
0
0
0
0
0
0
0
0
0
0
0
0
0
0
0
0
0
0
0
0
0
0
0
0
0
0
0
0
0
0
0
0
0
0
0
0
0
0
0
0
0
0
0
0
0
0
0
0
0
0
0
0
0
0
0
0
0
0
0
0
0
0
0
0
0
0
0
0
0
0
0
0
0
0
0
0
0
0
0
0
0
0
0
0
0
0
0
0
0
0
0
0
0
0
0
0
0
0
0
0
0
0
0
0
0
0
0
0
0
0
0
0
0
0
0
0
0
0
0
0
0
0
0
0
0
0
0
0
0
0
0
0
0
0
0
0
0
0
0
0
0
0
0
0
0
0
0
0
0
0
0
0
0
0
0
0
0
0
0
0
0
0
0
0
0
0
0
0
0
0
0
0
0
0
0
0
0
0
0
0
0
0
0
0
0
0
0
0
0
0
0
0
0
0
0
0
0
0
0
0
0
0
0
0
0
0
0
0
0
0
0
0
0
0
0
0
0
0
0
0
0
0
0
0
0
0
0
0
0
0
0
0
0
0
0
0
0
0
0
0
0
0
0
0
0
0
0
0
0
0
0
0
0
0
0
0
0
0
0
0
0
0
0
0
0
0
0
0
0
0
0
0
0
0
0
0
0
0
0
0
0
0
0
0
0
0
0
0
0
0
0
0
0
0
0
0
0
0
0
0
0
0
0
0
0
0
0
0
0
0
0
0
0
0
0
0
0
0
0
0
0
0
0
0
0
0
0
0
0
0
0
0
0
0
0
0
0
0
0
0
0
0
0
0
0
0
0
0
0
0
0
0
0
0
0
0
0
0
0
0
0
0
0
0
0
0
0
0
0
0
0
0
0
0
0
0
0
0
0
0
0
0
0
0
0
0
0
0
0
0
0
0
0
0
0
0
0
0
0
0
0
0
0
0
0
0
0
0
0
0
0
0
0
0
0
0
0
0
0
0
0
0
0
0
0
0
0
0
0
0
0
0
0
0
0
0
0
0
0
0
0
0
0
0
0
0
0
0
0
0
0
0
0
0
0
0
0
0
0
0
0
0
0
0
0
0
0
0
0
0
0
0
0
0
0
0
0
0
0
0
0
0
0
0
0
0
0
0
0
0
0
0
0
0
0
0
0
0
0
0
0
0
0
0
0
0
0
0
0
0
0
0
0
0
0
0
0
0
0
0
0
0
0
0
0
0
0
0
0
0
0
0
0
0
0
0
0
0
0
0
0
0
0
0
0
0
0
0
0
0
0
0
0
0
0
0
0
0
0
0
0
0
0
0
0
0
0
0
0
0
0
0
0
0
0
0
0
0
0
0
0
0
0
0
0
0
0
0
0
0
0
0
0
0
0
0
0
0
0
0
0
0
0
0
0
0
0
0
0
0
0
0
0
0
0
0
0
0
0
0
0
0
0
0
0
0
0
0
0
0
0
0
0
0
0
0
0
0
0
0
0
0
0
0
0
0
0
0
0
0
0
0
0
0
0
0
0
0
0
0
0
0
0
0
0
0
0
0
0
0
0
0
0
0
0
0
0
0
0
0
0
0
0
0
0
0
0
0
0
0
0
0
0
0
0
0
0
0
0
0
0
0
0
0
0
0
0
0
0
0
0
0
0
0
1.19579264396e-08
1.69523881055e-10
-6.70121740941e-10
2.14669354386e-08
4.5442133634e-10
-1.78210880795e-09
2.14665418415e-08
5.4269132729e-10
-2.12982366872e-09
2.14661482795e-08
5.10630093743e-10
-1.95202159183e-09
2.14657546788e-08
4.78568289545e-10
-1.7742188798e-09
2.14653610419e-08
4.46505813065e-10
-1.59641555165e-09
1.19571939414e-08
3.16569260579e-10
-1.12085348082e-09
0
1.06774797727e-10
-3.69074001924e-10
0
0
0
0
0
0
0
0
0
0
0
0
0
0
0
0
0
0
0
0
0
0
0
0
0
0
0
0
0
0
0
0
3.38941662924e-08
5.28683093707e-10
-2.05925496888e-09
1.0122509709e-07
1.92714546889e-09
-7.83370564106e-09
1.35498512581e-07
2.83651141068e-09
-1.277458601e-08
1.3548406115e-07
2.83776304553e-09
-1.34581306502e-08
1.35469609765e-07
2.67120383843e-09
-1.23391279273e-08
1.35455158288e-07
2.50462711252e-09
-1.1220108306e-08
1.35440706878e-07
2.33803287089e-09
-1.01010717762e-08
1.01176000278e-07
1.79225270237e-09
-7.84788867243e-09
3.3886328207e-08
9.00966168315e-10
-3.98796717667e-09
0
2.54027458125e-10
-9.06458737553e-10
0
0
0
0
0
0
0
0
0
0
0
0
0
0
0
0
0
0
0
0
0
0
0
0
0
0
1.19761288179e-08
1.8751446922e-10
-7.75110551213e-10
1.2333698813e-07
1.72224930814e-09
-8.41358170529e-09
2.63445999542e-07
4.32684826118e-09
-2.28665116047e-08
3.23316356738e-07
5.37878641139e-09
-3.19029046913e-08
3.23235145866e-07
5.10149230199e-09
-3.21477137167e-08
3.23153935086e-07
4.80408820708e-09
-2.94847648861e-08
3.23072724198e-07
4.50662552399e-09
-2.68217750122e-08
3.22991513374e-07
4.20910426526e-09
-2.41587441441e-08
2.63123369741e-07
3.19368245726e-09
-1.93507872452e-08
1.23243224702e-07
1.65290463699e-09
-1.11695160526e-08
1.19749086166e-08
6.1167368912e-10
-3.52129887129e-09
0
8.89251870089e-11
-2.75862385935e-10
0
0
0
0
0
0
0
0
0
0
0
0
0
0
0
0
0
0
0
0
0
0
0
3.35068873859e-08
3.43017748542e-10
-2.18073601984e-09
2.04173570909e-07
2.37126309767e-09
-1.50226591694e-08
3.84329138312e-07
5.39436940832e-09
-3.51992274009e-08
4.58277781458e-07
6.42404900061e-09
-4.60701308491e-08
4.58109422424e-07
5.99934415338e-09
-4.56860562211e-08
4.57941063465e-07
5.65053278686e-09
-4.19171717279e-08
4.57772704442e-07
5.30163923729e-09
-3.81482636312e-08
4.57604345408e-07
4.95266361736e-09
-3.43793320224e-08
3.83619328876e-07
3.73003996724e-09
-2.7806917743e-08
2.03907525039e-07
1.91119993025e-09
-1.68655155283e-08
3.3498159663e-08
7.48710294956e-10
-6.08819607112e-09
0
1.53342718413e-10
-7.72580240538e-10
0
0
0
0
0
0
0
0
0
0
0
0
0
0
0
0
0
0
0
0
0
0
0
4.3088177506e-08
3.43024171648e-10
-2.81595339063e-09
2.29483742849e-07
2.37141607431e-09
-1.73461367239e-08
4.20385663481e-07
5.39446121815e-09
-3.90817476667e-08
4.98130833177e-07
6.42336634493e-09
-5.04295362541e-08
4.97928141075e-07
5.99812137684e-09
-4.98413263333e-08
4.97725449016e-07
5.64931288874e-09
-4.57476783294e-08
4.97522756975e-07
5.30042228348e-09
-4.16540303495e-08
4.97320064893e-07
4.95144962126e-09
-3.75603823691e-08
4.1951854714e-07
3.72864548482e-09
-3.04579027656e-08
2.29137713356e-07
1.91003978407e-09
-1.86854455273e-08
4.30728541811e-08
7.4834612916e-10
-6.98785281234e-09
0
1.533301977e-10
-9.99026455678e-10
0
0
0
0
0
0
0
0
0
0
0
0
0
0
0
0
0
0
0
0
0
0
0
4.31204803179e-08
3.43030623067e-10
-2.82603871436e-09
2.29657131331e-07
2.37156901348e-09
-1.74114186696e-08
4.2070591817e-07
5.39455295286e-09
-3.92372390839e-08
4.98511737824e-07
6.42268376467e-09
-5.06448188401e-08
4.98309086843e-07
5.99689854526e-09
-5.00715859384e-08
4.98106435819e-07
5.64809300524e-09
-4.5977937933e-08
4.97903784798e-07
5.29920540502e-09
-4.18842899825e-08
4.97701133802e-07
4.95023564496e-09
-3.77906420028e-08
4.19838977508e-07
3.72725099094e-09
-3.06672460694e-08
2.29311171875e-07
1.90887963431e-09
-1.88305983872e-08
4.31051600864e-08
7.47981878556e-10
-7.04887555987e-09
0
1.53317637794e-10
-1.00895536632e-09
0
0
0
0
0
0
0
0
0
0
0
0
0
0
0
0
0
0
0
0
0
0
0
4.31527830626e-08
3.43037082284e-10
-2.83612397658e-09
2.29830518517e-07
2.37172193528e-09
-1.74766994403e-08
4.21026168696e-07
5.39464473239e-09
-3.93927276297e-08
4.98892636599e-07
6.42200116014e-09
-5.08600997657e-08
4.98690026616e-07
5.99567570495e-09
-5.03018455605e-08
4.98487416683e-07
5.64687318641e-09
-4.62081975863e-08
4.98284806725e-07
5.29798842747e-09
-4.21145496041e-08
4.98082196753e-07
4.94902169704e-09
-3.80209016299e-08
4.20159403711e-07
3.72585651552e-09
-3.08765911006e-08
2.29484629217e-07
1.90771941749e-09
-1.89757542346e-08
4.31374659053e-08
7.47617725946e-10
-7.10989952507e-09
0
1.53305084362e-10
-1.01888430909e-09
0
0
0
0
0
0
0
0
0
0
0
0
0
0
0
0
0
0
0
0
0
0
0
4.31850857846e-08
3.43043459339e-10
-2.84620923465e-09
2.30003904457e-07
2.37187491223e-09
-1.75419790273e-08
4.21346415057e-07
5.39473644218e-09
-3.95482132206e-08
4.992735295e-07
6.4213185682e-09
-5.10753790246e-08
4.99070960586e-07
5.99445292766e-09
-5.05321051991e-08
4.98868391699e-07
5.64565329862e-09
-4.64384572366e-08
4.98665822824e-07
5.29677151271e-09
-4.23448092445e-08
4.98463253903e-07
4.94780759955e-09
-3.82511612562e-08
4.20479825666e-07
3.72446198666e-09
-3.10859377813e-08
2.29658085269e-07
1.90655929778e-09
-1.91209129739e-08
4.31697717781e-08
7.47253506099e-10
-7.17092469712e-09
0
1.53292509624e-10
-1.0288132835e-09
0
0
0
0
0
0
0
0
0
0
0
0
0
0
0
0
0
0
0
0
0
0
0
3.36463103217e-08
1.87526520754e-10
-2.21887173727e-09
2.05255254156e-07
1.72285214129e-09
-1.53221986998e-08
3.86629898981e-07
4.32744270417e-09
-3.59767993313e-08
4.61124438732e-07
5.3760281272e-09
-4.71839761829e-08
4.60947327382e-07
5.09626135022e-09
-4.68796322517e-08
4.60770216005e-07
4.79886982699e-09
-4.30982165413e-08
4.60593104705e-07
4.50141966464e-09
-3.93168243696e-08
4.60415993307e-07
4.20391103104e-09
-3.55354557918e-08
3.85880009194e-07
3.18766493065e-09
-2.88415321664e-08
2.04968915032e-07
1.64802989421e-09
-1.75576006537e-08
3.36359700755e-08
6.10340662193e-10
-6.35804211622e-09
0
8.89018568602e-11
-8.09509412092e-10
0
0
0
0
0
0
0
0
0
0
0
0
0
0
0
0
0
0
0
0
0
0
0
1.20394214981e-08
0
-7.92409143529e-10
1.24391852807e-07
5.28811690407e-10
-8.65046874086e-09
2.66218296486e-07
1.92762379646e-09
-2.36151413189e-08
3.26926091812e-07
2.8356757284e-09
-3.30685286781e-08
3.26829466574e-07
2.83567582582e-09
-3.34171432129e-08
3.2673284127e-07
2.66912161894e-09
-3.07323813286e-08
3.26636216098e-07
2.50254992414e-09
-2.80476604641e-08
3.26539590833e-07
2.33596072617e-09
-2.53629806132e-08
2.65828318845e-07
1.78976798441e-09
-2.04051576243e-08
1.24270396452e-07
8.99196275122e-10
-1.18224696014e-08
1.20374741293e-08
2.53777404719e-10
-3.73399209484e-09
0
0
-2.92724017042e-10
0
0
0
0
0
0
0
0
0
0
0
0
0
0
0
0
0
0
0
0
0
0
0
0
0
0
3.417295492e-08
0
-2.12690202731e-09
1.02361687817e-07
1.6954386823e-10
-8.13400751814e-09
1.37157777563e-07
4.54429540762e-10
-1.33278748939e-08
1.37136955621e-07
5.42598922111e-10
-1.40910582228e-08
1.37116133659e-07
5.10537926265e-10
-1.296306914e-08
1.37095311724e-07
4.78476348283e-10
-1.18350969582e-08
1.37074489815e-07
4.46414071109e-10
-1.07071416786e-08
1.02288742628e-07
3.16446479056e-10
-8.36015173469e-09
3.41604512047e-08
1.06735863094e-10
-4.26261599986e-09
0
0
-9.7088467924e-10
0
0
0
0
0
0
0
0
0
0
0
0
0
0
0
0
0
0
0
0
0
0
0
0
0
0
0
0
0
0
0
0
1.20570020613e-08
0
-6.98532104249e-10
2.16579251427e-08
0
-1.86282450557e-09
2.16572975366e-08
0
-2.23385497328e-09
2.16566698728e-08
0
-2.05572285046e-09
2.16560422874e-08
0
-1.87759134835e-09
2.16554146707e-08
0
-1.69946046174e-09
1.20558339695e-08
0
-1.20026212757e-09
0
0
-3.97118736273e-10
0
0
0
0
0
0
0
0
0
0
0
0
0
0
0
0
0
0
0
0
0
0
0
0
0
0
0
0
0
0
0
0
0
0
0
0
0
0
0
0
0
0
0
0
0
0
0
0
0
0
0
0
0
0
0
0
0
0
0
0
0
0
0
0
0
0
0
0
0
0
0
0
0
0
0
0
0
0
0
0
0
0
0
0
0
0
0
0
0
0
0
0
0
0
0
0
0
0
0
0
0
0
0
0
0
0
0
0
0
0
0
0
0
0
0
0
0
0
0
0
0
0
0
0
0
0
0
0
0
0
0
0
0
0
0
0
0
0
0
0
0
0
0
0
0
0
0
0
0
0
0
0
0
0
0
0
0
0
0
0
0
0
0
0
0
0
0
0
0
0
0
0
0
0
0
0
0
0
0
0
0
0
0
0
0
0
0
0
0
0
0
0
0
0
0
0
0
0
0
0
0
0
0
0
0
0
0
0
0
0
0
0
0
0
0
0
0
0
0
0
0
0
0
0
0
0
0
0
0
0
0
0
0
0
0
0
0
0
0
0
0
0
0
0
0
0
0
0
0
0
0
0
0
0
0
0
0
0
0
0
0
0
0
0
0
0
0
0
0
0
0
0
0
0
0
0
0
0
0
0
0
0
0
0
0
0
0
0
0
0
0
0
0
0
0
0
0
0
0
0
0
0
0
0
0
0
0
0
0
0
0
0
0
0
0
0
0
0
0
0
0
0
0
0
0
0
0
0
0
0
0
0
0
0
0
0
0
0
0
0
0
0
0
0
0
0
0
0
0
0
0
0
0
0
0
0
0
0
0
0
0
0
0
0
0
0
0
0
0
0
0
0
0
0
0
0
0
0
0
0
0
0
0
0
0
0
0
0
0
0
0
0
0
0
0
0
0
0
0
0
0
0
0
0
0
0
0
0
0
0
0
0
0
0
0
0
0
0
0
0
0
0
0
0
0
2.13626346867e-08
3.31793481508e-10
-1.29068558569e-09
6.7314525824e-08
1.39083712234e-09
-5.10852887461e-09
8.87291996313e-08
2.21758547828e-09
-8.38875371031e-09
8.87223902278e-08
2.27253041936e-09
-8.78971863563e-09
8.87155808121e-08
2.14137528363e-09
-8.05252844843e-09
8.87087713751e-08
2.01020944528e-09
-7.31532757869e-09
8.87019619592e-08
1.87903286212e-09
-6.57811593908e-09
6.72910303758e-08
1.44255913639e-09
-5.14623934807e-09
2.13594842591e-08
7.02959791254e-10
-2.60905997731e-09
0
1.74366203885e-10
-5.67077852648e-10
0
0
0
0
0
0
0
0
0
0
0
0
0
0
0
0
0
0
0
0
0
0
0
0
0
0
4.90355673382e-08
8.40731055428e-10
-3.20150838532e-09
1.93935957411e-07
4.16361094019e-09
-1.53633838021e-08
3.66287462708e-07
8.36116090162e-09
-3.26000621818e-08
4.42406021721e-07
9.54542726209e-09
-4.20735424929e-08
4.4226883168e-07
8.7115299298e-09
-4.16154453769e-08
4.42131641605e-07
8.21691165157e-09
-3.81387368039e-08
4.41994451555e-07
7.72214318656e-09
-3.46618881572e-08
4.41857261492e-07
7.22722450467e-09
-3.11848994656e-08
3.65698372074e-07
5.24497546165e-09
-2.5217153661e-08
1.93691931152e-07
2.51280081512e-09
-1.54432746346e-08
4.90148400863e-08
1.0500598286e-09
-6.04761758234e-09
0
3.21327211027e-10
-1.09827202147e-09
0
0
0
0
0
0
0
0
0
0
0
0
0
0
0
0
0
0
0
0
2.1395680417e-08
3.64155750127e-10
-1.47961697042e-09
2.21990166936e-07
3.95739771942e-09
-1.65215587189e-08
5.89727566084e-07
1.27275298583e-08
-5.12108449273e-08
9.42888139466e-07
2.07242072381e-08
-8.52962224432e-08
1.08703989967e-06
2.04983584317e-08
-9.81550390837e-08
1.08636525352e-06
1.73128548582e-08
-9.39821676586e-08
1.08569060735e-06
1.63434024703e-08
-8.6162580029e-08
1.08501596127e-06
1.5373449127e-08
-7.8342624683e-08
1.08434131512e-06
1.44029947297e-08
-7.05223016275e-08
9.3970009206e-07
9.51588151119e-09
-5.77112316044e-08
5.87838741229e-07
2.9750339366e-09
-3.80115481037e-08
2.21604903846e-07
8.85557969431e-10
-1.82799757483e-08
2.13909573321e-08
6.35474905913e-10
-5.17260980202e-09
0
1.42457276736e-10
-4.00189860718e-10
0
0
0
0
0
0
0
0
0
0
0
0
0
0
0
0
0
8.89343784664e-08
1.24555815316e-09
-6.24874862659e-09
4.74507558032e-07
8.28371167558e-09
-3.88422611201e-08
1.06536195665e-06
2.23185011973e-08
-9.52200737459e-08
1.58670868373e-06
3.27507832407e-08
-1.40851485582e-07
1.78888868111e-06
2.99236700164e-08
-1.53643738622e-07
1.78730679398e-06
2.41005377123e-08
-1.44745374866e-07
1.78572490686e-06
2.27636900911e-08
-1.32753317284e-07
1.78414301962e-06
2.14259506677e-08
-1.20760827786e-07
1.78256113259e-06
2.00873193176e-08
-1.08767906416e-07
1.5789037521e-06
1.22912966942e-08
-8.9212449509e-08
1.05995010635e-06
1.86092730457e-09
-6.0220120846e-08
4.72838584755e-07
-8.24708454704e-10
-3.17054385212e-08
8.88605457601e-08
3.5265760409e-10
-1.11225492638e-08
0
3.53814158572e-10
-1.64588082583e-09
0
0
0
0
0
0
0
0
0
0
0
0
0
0
0
0
0
1.56928670568e-07
1.70242344559e-09
-1.11816482141e-08
6.60283436504e-07
1.03705924014e-08
-5.6355516246e-08
1.39199033768e-06
2.65273646551e-08
-1.2496438772e-07
2.00711764439e-06
3.76832445521e-08
-1.76564569907e-07
2.24156691888e-06
3.35790911794e-08
-1.88489845237e-07
2.23921273557e-06
2.66098971141e-08
-1.76381023014e-07
2.23685855224e-06
2.51382400995e-08
-1.6183014363e-07
2.23450436888e-06
2.36655214756e-08
-1.47279070907e-07
2.2321501856e-06
2.2191741273e-08
-1.32727804875e-07
1.99530026008e-06
1.31752769983e-08
-1.08913066202e-07
1.38327063088e-06
1.08363960956e-09
-7.40875495971e-08
6.57137751495e-07
-1.85279931487e-09
-4.02761280913e-08
1.56691670791e-07
4.25861573368e-11
-1.54173830431e-08
0
4.07661147656e-10
-2.88012003149e-09
0
0
0
0
0
0
0
0
0
0
0
0
0
0
0
0
0
1.78805335484e-07
1.70253467542e-09
-1.28212362183e-08
7.17829933316e-07
1.03718964026e-08
-6.1824485716e-08
1.4881480163e-06
2.65299520443e-08
-1.33940147307e-07
2.1295047886e-06
3.76823718649e-08
-1.87315008473e-07
2.37304815258e-06
3.35689247159e-08
-1.99035054196e-07
2.37042771547e-06
2.65940646628e-08
-1.86014632827e-07
2.36780727839e-06
2.51224456404e-08
-1.70736960564e-07
2.3651868413e-06
2.36497649996e-08
-1.55459288303e-07
2.36256640419e-06
2.21760227086e-08
-1.40181616065e-07
2.11629604853e-06
1.31564521362e-08
-1.15103752512e-07
1.4782547578e-06
1.06408925435e-09
-7.84804411251e-08
7.14122622256e-07
-1.86455857197e-09
-4.29970467275e-08
1.78487378397e-07
3.92978900789e-11
-1.68025919786e-08
0
4.07444434443e-10
-3.29684260027e-09
0
0
0
0
0
0
0
0
0
0
0
0
0
0
0
0
0
1.78940662514e-07
1.70264599024e-09
-1.28641780035e-08
7.18383011912e-07
1.03732003797e-08
-6.20394343493e-08
1.48931277217e-06
2.65325395599e-08
-1.34431128076e-07
2.1311898279e-06
3.76814991395e-08
-1.88049963855e-07
2.37493485664e-06
3.3558758202e-08
-1.99880921174e-07
2.37231495038e-06
2.65782322761e-08
-1.86874392161e-07
2.36969504398e-06
2.51066511843e-08
-1.71596719871e-07
2.36707513774e-06
2.36340084532e-08
-1.56319047588e-07
2.36445523141e-06
2.21603042561e-08
-1.41041375334e-07
2.11798376348e-06
1.31376272743e-08
-1.15900862014e-07
1.47942151765e-06
1.04453898539e-09
-7.91064731922e-08
7.14676451833e-07
-1.87631786568e-09
-4.33953066745e-08
1.7862276987e-07
3.60096325461e-11
-1.69822253048e-08
0
4.07227719144e-10
-3.33707853886e-09
0
0
0
0
0
0
0
0
0
0
0
0
0
0
0
0
0
1.79075988766e-07
1.70275723151e-09
-1.29071189754e-08
7.18936079794e-07
1.03745044295e-08
-6.22543729691e-08
1.49047749217e-06
2.65351271192e-08
-1.34922082511e-07
2.13287480347e-06
3.76806264381e-08
-1.88784888262e-07
2.37682148475e-06
3.35485917298e-08
-2.00726774315e-07
2.37420210922e-06
2.65623998228e-08
-1.87734151451e-07
2.37158273371e-06
2.50908567235e-08
-1.72456479153e-07
2.36896335822e-06
2.36182519897e-08
-1.57178806875e-07
2.36634398268e-06
2.21445857416e-08
-1.41901134598e-07
2.11967141462e-06
1.31188024116e-08
-1.16697985348e-07
1.48058824166e-06
1.02498868791e-09
-7.97325361744e-08
7.15230270674e-07
-1.88807715125e-09
-4.37935929333e-08
1.78758160504e-07
3.27213740709e-11
-1.7161868634e-08
0
4.07011057942e-10
-3.37731523781e-09
0
0
0
0
0
0
0
0
0
0
0
0
0
0
0
0
0
1.79211314248e-07
1.70286854925e-09
-1.29500592314e-08
7.19489136968e-07
1.03758085319e-08
-6.24693015962e-08
1.49164217632e-06
2.65377146522e-08
-1.35413010677e-07
2.13455971521e-06
3.76797537261e-08
-1.89519781828e-07
2.37870803689e-06
3.35384251966e-08
-2.01572613603e-07
2.37608919218e-06
2.65465673999e-08
-1.88593910718e-07
2.3734703475e-06
2.50750623209e-08
-1.73316238447e-07
2.37085150281e-06
2.36024955363e-08
-1.58038566191e-07
2.36823265811e-06
2.21288670904e-08
-1.42760893918e-07
2.12135900187e-06
1.30999776232e-08
-1.17495122563e-07
1.48175492985e-06
1.00543837e-09
-8.03586300652e-08
7.15784078825e-07
-1.89983643085e-09
-4.41919055145e-08
1.78893550526e-07
2.9433065978e-11
-1.73415219763e-08
0
4.06794294678e-10
-3.41755269347e-09
0
0
0
0
0
0
0
0
0
0
0
0
0
0
0
0
0
1.57730480872e-07
1.24594213143e-09
-1.13778548579e-08
6.64921994311e-07
8.28961067175e-09
-5.74814079493e-08
1.40406393136e-06
2.23311906206e-08
-1.27777843639e-07
2.02661483933e-06
3.27469022926e-08
-1.81003438676e-07
2.26408280961e-06
2.98728093806e-08
-1.9372433798e-07
2.26162228388e-06
2.402074266e-08
-1.81680418172e-07
2.2591617581e-06
2.26840864535e-08
-1.67026718416e-07
2.25670123239e-06
2.13465383368e-08
-1.52373211968e-07
2.25424070669e-06
2.00080983238e-08
-1.37719898799e-07
2.01425928545e-06
1.21966221904e-08
-1.1345192805e-07
1.39493448164e-06
1.76399023355e-09
-7.7545885918e-08
6.6161373347e-07
-8.80804146939e-10
-4.23612970162e-08
1.57473015668e-07
3.38194371373e-10
-1.62881838826e-08
0
3.53066522476e-10
-3.05653102079e-09
0
0
0
0
0
0
0
0
0
0
0
0
0
0
0
0
0
8.96430780111e-08
3.6420721269e-10
-6.40198099602e-09
4.80702718485e-07
3.96046300725e-09
-4.00358615174e-08
1.08433465521e-06
1.27362095975e-08
-9.87179217054e-08
1.61971644899e-06
2.07227100951e-08
-1.46826065884e-07
1.82780965244e-06
2.04613238447e-08
-1.60940278061e-07
1.82599800042e-06
1.72531127484e-08
-1.52156563427e-07
1.82418634831e-06
1.62838036533e-08
-1.3993480806e-07
1.82237469624e-06
1.53139936216e-08
-1.27713484597e-07
1.82056304417e-06
1.43436825412e-08
-1.15492592984e-07
1.61076669632e-06
9.44549719409e-09
-9.52336075155e-08
1.07809752586e-06
2.90646774759e-09
-6.46561551543e-08
4.78746043167e-07
8.50992325506e-10
-3.41865174733e-08
8.95441513783e-08
6.28769142718e-10
-1.20192186311e-08
0
1.42357052003e-10
-1.7826745267e-09
0
0
0
0
0
0
0
0
0
0
0
0
0
0
0
0
0
2.15552727136e-08
0
-1.52166954852e-09
2.2523968666e-07
8.41070267889e-10
-1.71371268748e-08
6.02219860836e-07
4.16658077629e-09
-5.35803178893e-08
9.67305444414e-07
8.36195268256e-09
-8.9944950243e-08
1.11683924868e-06
9.53263296692e-09
-1.04176456237e-07
1.11598802616e-06
8.68915740302e-09
-1.00194185585e-07
1.11513680364e-06
8.19459276946e-09
-9.21790696943e-08
1.11428558111e-06
7.69987808362e-09
-8.4164321487e-08
1.1134343586e-06
7.20501314877e-09
-7.61499410103e-08
9.63270758061e-07
5.21895502014e-09
-6.27099629598e-08
5.99798654772e-07
2.49021972189e-09
-4.15480885605e-08
2.24714008215e-07
1.04162776651e-09
-2.00433706624e-08
2.15477414015e-08
3.20667071289e-10
-5.67332818206e-09
0
0
-4.40510437565e-10
0
0
0
0
0
0
0
0
0
0
0
0
0
0
0
0
0
0
0
0
4.95658832113e-08
0
-3.32664375466e-09
1.97383970718e-07
3.31870993369e-10
-1.61027127379e-08
3.74547544419e-07
1.39133775657e-09
-3.4487154725e-08
4.53126044159e-07
2.21693101274e-09
-4.48331623503e-08
4.52932311118e-07
2.27061259085e-09
-4.45651586478e-08
4.52738578088e-07
2.13946214992e-09
-4.10139783391e-08
4.52544845005e-07
2.00830083522e-09
-3.74629381297e-08
4.52351112047e-07
1.87712883363e-09
-3.3912038e-08
3.73707727618e-07
1.44024167729e-09
-2.76090247814e-08
1.97019609733e-07
7.01423156043e-10
-1.69967034145e-08
4.95328463655e-08
1.74215723761e-10
-6.6702244697e-09
0
0
-1.21489380274e-09
0
0
0
0
0
0
0
0
0
0
0
0
0
0
0
0
0
0
0
0
0
0
0
0
0
0
2.15863138579e-08
0
-1.35263641572e-09
6.82234541833e-08
0
-5.38186688518e-09
9.00494767198e-08
0
-8.88721124219e-09
9.00386279276e-08
0
-9.35735511304e-09
9.00277790888e-08
0
-8.61445891258e-09
9.00169303592e-08
0
-7.871573404e-09
9.00060814838e-08
0
-7.12869861857e-09
6.81860210879e-08
0
-5.61879821566e-09
2.15812946305e-08
0
-2.86696962044e-09
0
0
-6.27526527252e-10
0
0
0
0
0
0
0
0
0
0
0
0
0
0
0
0
0
0
0
0
0
0
0
0
0
0
0
0
0
0
0
0
0
0
0
0
0
0
0
0
0
0
0
0
0
0
0
0
0
0
0
0
0
0
0
0
0
0
0
0
0
0
0
0
0
0
0
0
0
0
0
0
0
0
0
0
0
0
0
0
0
0
0
0
0
0
0
0
0
0
0
0
0
0
0
0
0
0
0
0
0
0
0
0
0
0
0
0
0
0
0
0
0
0
0
0
0
0
0
0
0
0
0
0
0
0
0
0
0
0
0
0
0
0
0
0
0
0
0
0
0
0
0
0
0
0
0
0
0
0
0
0
0
0
0
0
0
0
0
0
0
0
0
0
0
0
0
0
0
0
0
0
0
0
0
0
0
0
0
0
0
0
0
0
0
0
0
0
0
0
0
0
0
0
0
0
0
0
0
0
0
0
0
0
0
0
0
0
0
0
0
0
0
0
0
0
0
0
0
0
0
0
0
0
0
0
0
0
0
0
0
0
0
0
0
0
0
0
0
0
0
0
0
0
0
0
0
0
0
0
0
0
0
0
0
0
0
0
0
0
0
0
0
0
0
0
0
0
0
0
0
0
0
0
0
0
0
0
0
0
0
0
0
0
0
0
0
0
0
0
0
0
0
0
0
0
0
0
0
0
0
0
0
0
2.1257546696e-08
3.36763533862e-10
-1.28565572753e-09
6.69831985443e-08
1.41133447204e-09
-5.08753190343e-09
8.82923172258e-08
2.25403747854e-09
-8.3520848911e-09
8.8285504203e-08
2.31432414257e-09
-8.74827240122e-09
8.82786912741e-08
2.18316818019e-09
-8.0110813618e-09
8.82718782414e-08
2.05200150049e-09
-7.27387961786e-09
8.82650652567e-08
1.92082409745e-09
-6.53666719487e-09
6.69596907312e-08
1.47955315571e-09
-5.10999855091e-09
2.12543946519e-08
7.24119238436e-10
-2.58858636184e-09
0
1.79410338581e-10
-5.62106564807e-10
0
0
0
0
0
0
0
0
0
0
0
0
0
0
0
0
0
0
0
0
0
0
0
1.29067976206e-09
2.15748707875e-11
-8.86608437823e-11
8.83800383331e-08
1.67550231021e-09
-5.93003108366e-09
2.86407018209e-07
7.18592520097e-09
-2.26430059994e-08
5.12417186837e-07
1.35616433378e-08
-4.25642567988e-08
6.06946631424e-07
1.47061854339e-08
-5.24329921817e-08
6.06749841472e-07
1.30213436987e-08
-5.12370739211e-08
6.06553051471e-07
1.22964922052e-08
-4.69376685947e-08
6.0635626151e-07
1.15713938988e-08
-4.26380164631e-08
6.06159471527e-07
1.08460487604e-08
-3.83381175069e-08
5.11527523029e-07
7.60244926102e-09
-3.11656245676e-08
2.85953934629e-07
3.16739477871e-09
-1.97273055056e-08
8.83119261967e-08
1.30940275824e-09
-8.58247947532e-09
1.29066242006e-09
5.03649785234e-10
-1.96426585024e-09
0
9.74347195085e-12
-2.38542338403e-11
0
0
0
0
0
0
0
0
0
0
0
0
0
0
0
0
0
8.97472352225e-08
1.72241531128e-09
-6.33159781417e-09
4.6825621359e-07
1.126784148e-08
-3.57940577317e-08
1.04974628119e-06
2.94981874882e-08
-8.62199936471e-08
1.55942918024e-06
4.19404836026e-08
-1.27992320606e-07
1.75686252809e-06
3.73802270675e-08
-1.40002955588e-07
1.75569049327e-06
2.96687745797e-08
-1.31974931785e-07
1.75451845842e-06
2.80470515374e-08
-1.20946624422e-07
1.75334642359e-06
2.64243355835e-08
-1.09917430913e-07
1.75217438877e-06
2.48006267621e-08
-9.88873512171e-08
1.55362574045e-06
1.47991709599e-08
-8.10155459027e-08
1.04566384591e-06
1.30140067144e-09
-5.45729952767e-08
4.66934546997e-07
-2.07788689695e-09
-2.86107040619e-08
8.9663947217e-08
4.81137590302e-11
-1.01357299979e-08
0
4.29589033315e-10
-1.62345908928e-09
0
0
0
0
0
0
0
0
0
0
0
0
0
0
2.13071157178e-08
3.85306338977e-10
-1.56905257355e-09
3.5495203857e-07
6.85589527233e-09
-2.62781631254e-08
1.16971628859e-06
3.07930213093e-08
-9.53498481137e-08
2.16942513117e-06
6.3477949702e-08
-1.80978545512e-07
2.94986325701e-06
7.81946688803e-08
-2.37744026276e-07
3.2389019192e-06
6.23569224829e-08
-2.44524413588e-07
3.23565864744e-06
4.57859027034e-08
-2.25814846201e-07
3.23241537566e-06
4.3320890686e-08
-2.07026508164e-07
3.22917210387e-06
4.0853787308e-08
-1.88236703967e-07
3.22592883213e-06
3.83845926263e-08
-1.69445433616e-07
2.93310408464e-06
1.9226494882e-08
-1.38582676621e-07
2.15572464398e-06
-7.33316647195e-09
-9.47827779795e-08
1.16335738589e-06
-1.34490617772e-08
-5.36882646268e-08
3.53927110962e-07
-5.53390004059e-09
-2.327812147e-08
2.13016039152e-08
1.46484285822e-10
-5.98660324274e-09
0
1.31546301994e-10
-3.11774149684e-10
0
0
0
0
0
0
0
0
0
0
0
8.85711570234e-08
1.3124797591e-09
-6.6249917776e-09
7.17877215951e-07
1.40012008907e-08
-5.55884543607e-08
1.92252847073e-06
5.11522201243e-08
-1.61657184773e-07
3.23977741495e-06
9.39859289763e-08
-2.7346397161e-07
4.22224228018e-06
1.08033941174e-07
-3.38205568745e-07
4.57825800993e-06
8.12382399335e-08
-3.36658832206e-07
4.57243375179e-06
5.69424506407e-08
-3.07343787994e-07
4.56660949365e-06
5.39052728763e-08
-2.81881877786e-07
4.56078523546e-06
5.0865041099e-08
-2.56418572967e-07
4.5549609773e-06
4.78217551849e-08
-2.30953873507e-07
4.19150068724e-06
2.08929625241e-08
-1.88406403587e-07
3.21277031019e-06
-1.72931663123e-08
-1.29066653809e-07
1.90777075309e-06
-2.6654261322e-08
-7.51388921283e-08
7.14268995569e-07
-1.37252446023e-08
-3.55217378645e-08
8.84850058229e-08
-1.43179021826e-09
-1.12660251162e-08
0
3.20751156958e-10
-1.28402475879e-09
0
0
0
0
0
0
0
0
0
0
0
1.56297882008e-07
1.79081008784e-09
-1.18523449701e-08
9.80783320734e-07
1.73690917018e-08
-7.78039511939e-08
2.40387913015e-06
5.97802711687e-08
-2.05295943924e-07
3.90019970856e-06
1.06152664577e-07
-3.31505680989e-07
4.99672861971e-06
1.19465164982e-07
-3.99777540636e-07
5.39012543249e-06
8.81729610849e-08
-3.92490042212e-07
5.38233201264e-06
6.08495270841e-08
-3.56628183766e-07
5.37453859273e-06
5.76122973269e-08
-3.27208721893e-07
5.36674517281e-06
5.43716364001e-08
-2.97788689621e-07
5.35895175288e-06
5.1127544366e-08
-2.68368086956e-07
4.9552054681e-06
2.11843332291e-08
-2.18751073642e-07
3.86257720295e-06
-2.16276304845e-08
-1.49864027182e-07
2.38190845542e-06
-3.24635190861e-08
-8.80187916433e-08
9.74475414115e-07
-1.76429916995e-08
-4.29207428842e-08
1.56021371581e-07
-2.45879775032e-09
-1.48472456078e-08
0
3.64888755542e-10
-2.25063361511e-09
0
0
0
0
0
0
0
0
0
0
0
1.78091628751e-07
1.79092109235e-09
-1.35876115794e-08
1.05923424777e-06
1.73722990249e-08
-8.4684127481e-08
2.54349630043e-06
5.97928674323e-08
-2.18394810685e-07
4.09176869116e-06
1.06169624059e-07
-3.48957376634e-07