/*--------------------------------*- C++ -*----------------------------------*\
| =========                 |                                                 |
| \\      /  F ield         | OpenFOAM: The Open Source CFD Toolbox           |
|  \\    /   O peration     | Version:  3.0.1                                 |
|   \\  /    A nd           | Web:      www.OpenFOAM.org                      |
|    \\/     M anipulation  |                                                 |
\*---------------------------------------------------------------------------*/
FoamFile
{
    version     2.0;
    format      ascii;
    class       volScalarField;
    location    "8.6";
    object      p;
}
// * * * * * * * * * * * * * * * * * * * * * * * * * * * * * * * * * * * * * //

dimensions      [1 -1 -2 0 0 0 0];

internalField   nonuniform List<scalar> 
7968
(
4646.63068098
4646.62918231
4646.59756915
4646.55290666
4646.50719929
4646.46698796
4646.43862768
4646.42147014
4646.41023338
4646.39985239
4646.38810315
4646.37489069
4646.36283162
4646.35725221
4646.36404494
4646.38322505
4646.41239496
4646.44358087
4646.46684335
4646.46541855
4646.63140403
4646.64696645
4646.62402314
4646.5831824
4646.53746083
4646.49795659
4646.46921565
4646.45228093
4646.44180724
4646.43181463
4646.41995505
4646.40616569
4646.39312898
4646.38676409
4646.39322254
4646.41268067
4646.44091013
4646.46809896
4646.48275306
4646.46485977
4646.60571164
4646.62998904
4646.6095951
4646.56652293
4646.51582662
4646.4716915
4646.43964239
4646.42021804
4646.4080168
4646.39695574
4646.38471203
4646.37127341
4646.35935311
4646.3551348
4646.36477434
4646.38865927
4646.42167604
4646.45085353
4646.46296882
4646.43667668
4646.56994583
4646.59822114
4646.57555654
4646.52811741
4646.47461188
4646.43185581
4646.4042734
4646.39001318
4646.38146034
4646.37193779
4646.35934192
4646.34372171
4646.32759957
4646.31794081
4646.32299583
4646.34526389
4646.38076561
4646.41384828
4646.42794581
4646.39783034
4646.53500344
4646.56356687
4646.53576038
4646.48540933
4646.43553707
4646.40222004
4646.38620001
4646.38310203
4646.38254023
4646.37694571
4646.36407332
4646.34395175
4646.31921093
4646.29790445
4646.29128246
4646.3041934
4646.33587271
4646.37141327
4646.39023494
4646.35974894
4646.5076146
4646.53637479
4646.50376052
4646.45469651
4646.41432521
4646.39507246
4646.3947798
4646.40670662
4646.41710432
4646.41701195
4646.40390955
4646.3777444
4646.34117953
4646.3041141
4646.28150427
4646.28059027
4646.30306739
4646.33707169
4646.36039266
4646.32971965
4646.49226212
4646.52086083
4646.48484764
4646.44024293
4646.41166827
4646.40834986
4646.4263854
4646.45591656
4646.47952041
4646.48605236
4646.47279579
4646.43967032
4646.38896218
4646.33335709
4646.29202568
4646.27537884
4646.28653544
4646.31613287
4646.34275329
4646.31209757
4646.48856863
4646.51754021
4646.47913678
4646.43986329
4646.42281539
4646.43493121
4646.47083133
4646.51803475
4646.55494948
4646.57110554
4646.55833663
4646.51515823
4646.45031125
4646.37605859
4646.31633238
4646.28429927
4646.28426728
4646.30878626
4646.33782381
4646.30671168
4646.49087111
4646.52066963
4646.4807913
4646.4454535
4646.43678884
4646.46036469
4646.50984438
4646.57041518
4646.62524945
4646.65245907
4646.6403495
4646.58703629
4646.50290869
4646.41413547
4646.3404023
4646.29684805
4646.28858631
4646.30928192
4646.33980754
4646.30788105
4646.49392019
4646.52418369
4646.4836106
4646.45014503
4646.44575494
4646.47523953
4646.53174032
4646.60073361
4646.66635839
4646.698327
4646.68649055
4646.62970184
4646.53511558
4646.43538588
4646.35473548
4646.30528874
4646.29277778
4646.3115963
4646.34282218
4646.31041203
4646.49522866
4646.52552685
4646.48502269
4646.45163487
4646.44731731
4646.47687517
4646.53343996
4646.60245305
4646.66807908
4646.70012995
4646.68829776
4646.63146365
4646.53671882
4646.43717693
4646.3565574
4646.30709068
4646.2945227
4646.31324075
4646.34436153
4646.31190995
4646.49469639
4646.52460945
4646.48493752
4646.44985495
4646.44143623
4646.46526741
4646.5149836
4646.57574215
4646.6307384
4646.65805587
4646.64594166
4646.59255603
4646.50835863
4646.41963701
4646.34586613
4646.30219396
4646.29373078
4646.31411836
4646.34433788
4646.31227887
4646.49467069
4646.52383578
4646.48577443
4646.44696296
4646.43038058
4646.44299293
4646.47938109
4646.52701427
4646.56429387
4646.58067779
4646.56793287
4646.52463347
4646.45960909
4646.38522165
4646.32529952
4646.29296743
4646.29253199
4646.31652264
4646.34507731
4646.31375138
4646.50028344
4646.52908154
4646.49352343
4646.44957452
4646.42170518
4646.41913857
4646.43792257
4646.4681205
4646.49223296
4646.49904924
4646.48585982
4646.45261989
4646.40168094
4646.34575553
4646.3040116
4646.28684235
4646.29736888
4646.32624488
4646.3522595
4646.32137915
4646.51712493
4646.54605486
4646.51395545
4646.46567836
4646.42618693
4646.40786623
4646.40849959
4646.42125921
4646.43229124
4646.43257829
4646.41960122
4646.39333545
4646.35647184
4646.31894543
4646.29574318
4646.29412411
4646.3157979
4646.34894888
4646.37161821
4646.34075238
4646.54548927
4646.57429916
4646.54698248
4646.49744216
4646.44854203
4646.4162612
4646.4012619
4646.39908814
4646.39923653
4646.3940896
4646.3813937
4646.36119771
4646.33613254
4646.31428159
4646.30695109
4646.31902271
4646.34978848
4646.38445505
4646.40267834
4646.37192456
4646.58117469
4646.60960923
4646.58736101
4646.54067559
4646.48813462
4646.44644287
4646.41990417
4646.40661072
4646.39880983
4646.38977719
4646.37739123
4646.36170889
4646.34524883
4646.33498537
4646.33926969
4646.36063264
4646.39520767
4646.4274922
4646.44109136
4646.41083889
4646.61737551
4646.64179545
4646.62171382
4646.5792747
4646.52945157
4646.4863197
4646.45528919
4646.43681356
4646.42536524
4646.41479929
4646.40276909
4646.38926498
4646.37698791
4646.37215542
4646.38101387
4646.40403253
4646.43621946
4646.46473877
4646.4764857
4646.45009696
4646.64342053
4646.65905395
4646.63635842
4646.59602475
4646.5510418
4646.51244347
4646.48465883
4646.46861934
4646.45884186
4646.44930451
4646.43763512
4646.42377432
4646.41038795
4646.40343413
4646.40917156
4646.42787705
4646.45542562
4646.48209862
4646.49647261
4646.47853614
4646.64293317
4646.64159586
4646.61020933
4646.56604356
4646.52105991
4646.48174758
4646.45427218
4646.4379439
4646.42735448
4646.41740353
4646.40583836
4646.3925623
4646.38017789
4646.3740448
4646.38015709
4646.39856088
4646.42709347
4646.45775423
4646.48068634
4646.47906236
4156.99104473
4156.97653356
4156.93546426
4156.88470315
4156.83826741
4156.80130358
4156.77530302
4156.76059579
4156.75141014
4156.7420001
4156.7302461
4156.71612294
4156.70212606
4156.6939816
4156.69808456
4156.71544446
4156.74480483
4156.78178542
4156.81420694
4156.82555976
4156.97864797
4156.97503183
4156.93780718
4156.8914952
4156.85166267
4156.82184759
4156.80211725
4156.79182239
4156.78507512
4156.77668333
4156.7649116
4156.74983795
4156.73346554
4156.72096078
4156.71888119
4156.72929679
4156.75169426
4156.78376639
4156.8118523
4156.81244112
4156.9435228
4156.94394708
4156.90069053
4156.8495085
4156.80758985
4156.77870927
4156.76154121
4156.75347182
4156.74811733
4156.74022894
4156.72814781
4156.71201494
4156.69387043
4156.67901461
4156.67442856
4156.68374497
4156.70802879
4156.74450129
4156.77835831
4156.77484774
4156.90186808
4156.90694509
4156.85865555
4156.80631272
4156.76943168
4156.75004932
4156.74384566
4156.74494448
4156.7452327
4156.73974865
4156.72729703
4156.70803392
4156.68362638
4156.65934455
4156.6437441
4156.64379813
4156.66296673
4156.7001824
4156.73838587
4156.73025302
4156.86654843
4156.87820799
4156.82752023
4156.78008081
4156.75606763
4156.75579137
4156.76894628
4156.78633584
4156.79771223
4156.7974799
4156.78469528
4156.75941784
4156.72299773
4156.68175994
4156.64695216
4156.62842999
4156.63471715
4156.66680641
4156.70682289
4156.6918563
4156.84203036
4156.86046454
4156.81044734
4156.77238402
4156.76751027
4156.78950492
4156.82635732
4156.86451236
4156.89017434
4156.89696304
4156.88408109
4156.85127104
4156.79941522
4156.73624861
4156.67733219
4156.63663294
4156.6245155
4156.64745698
4156.68644718
4156.66444271
4156.82942828
4156.85383724
4156.80615961
4156.77903357
4156.79386936
4156.83984191
4156.90183001
4156.96242905
4157.00417121
4157.01900844
4157.0062553
4156.9652579
4156.89619802
4156.8090683
4156.72411111
4156.65969106
4156.62888014
4156.64102263
4156.67760197
4156.64941537
4156.82843332
4156.85702305
4156.8116276
4156.79389884
4156.82540958
4156.89274924
4156.97757562
4157.05950867
4157.11569999
4157.13407227
4157.12088674
4157.07691262
4156.9928208
4156.88302018
4156.77427559
4156.68851449
4156.64133216
4156.64450838
4156.67900792
4156.64652872
4156.8329072
4156.86377104
4156.81999261
4156.80813443
4156.85122969
4156.93356065
4157.03494721
4157.13155189
4157.18844279
4157.20876169
4157.19567316
4157.14855771
4157.06377604
4156.93946839
4156.81353508
4156.71269903
4156.65401531
4156.65140178
4156.68450595
4156.64968627
4156.83701431
4156.86880755
4156.82585513
4156.8166947
4156.86544397
4156.955151
4157.06470504
4157.16641523
4157.2244489
4157.24744626
4157.23452575
4157.18382184
4157.09564038
4156.96897103
4156.83464975
4156.72636286
4156.66201956
4156.65667148
4156.68897342
4156.65317366
4156.8384014
4156.87021877
4156.8273485
4156.818255
4156.86707346
4156.9568339
4157.06640893
4157.16817301
4157.22624173
4157.2492692
4157.23633926
4157.18559751
4157.09738327
4156.97075226
4156.83649772
4156.72823838
4156.66387198
4156.65843406
4156.69061367
4156.65476696
4156.83695598
4156.86791372
4156.82439598
4156.81277338
4156.85611165
4156.93866374
4157.04021761
4157.1369587
4157.19399013
4157.21436493
4157.20123656
4157.15402637
4157.06921463
4156.94494203
4156.81911685
4156.7182834
4156.65948211
4156.65660758
4156.68933272
4156.65435808
4156.83490516
4156.86367713
4156.81871854
4156.80145258
4156.83344539
4156.90126964
4156.98653758
4157.06888146
4157.12537967
4157.14382667
4157.13057542
4157.08644365
4157.00225076
4156.89238569
4156.78359347
4156.69764844
4156.6501472
4156.65283397
4156.68673747
4156.65400096
4156.83792047
4156.86258971
4156.81549298
4156.78909367
4156.80469894
4156.85147049
4156.91421159
4156.97548357
4157.01775823
4157.03283724
4157.0200609
4156.97885566
4156.90949261
4156.82207657
4156.73680013
4156.67193632
4156.64053508
4156.65193208
4156.68775151
4156.65921345
4156.85209747
4156.87084811
4156.82149244
4156.78434924
4156.78046826
4156.80350503
4156.84135935
4156.88038585
4156.90671579
4156.91387142
4156.9010568
4156.86807101
4156.81584456
4156.75219572
4156.69268191
4156.65128884
4156.63834196
4156.66031096
4156.69844561
4156.67601335
4156.87778963
4156.88980321
4156.8397331
4156.79327263
4156.77036148
4156.7712472
4156.78551049
4156.80386443
4156.81599615
4156.81622464
4156.80359466
4156.77820562
4156.74140798
4156.69961312
4156.66407194
4156.64466536
4156.64992837
4156.68093344
4156.72012617
4156.70469124
4156.91388731
4156.91926829
4156.87148573
4156.82008247
4156.78434582
4156.76614977
4156.76109285
4156.76319163
4156.76428387
4156.75932934
4156.74710125
4156.72776613
4156.70298115
4156.67809448
4156.66165728
4156.66071026
4156.67874573
4156.71489078
4156.7523817
4156.74381778
4156.95600155
4156.95667465
4156.91373718
4156.86334875
4156.82249864
4156.79477564
4156.77873059
4156.77166344
4156.76712201
4156.75978037
4156.74794109
4156.73174485
4156.71321972
4156.69772833
4156.69224798
4156.7005131
4156.72370946
4156.7592714
4156.79259835
4156.78875522
4156.9914483
4156.98792815
4156.95094751
4156.90520594
4156.86626469
4156.83747556
4156.81876856
4156.80939004
4156.80338023
4156.7954823
4156.7839298
4156.76879688
4156.75205834
4156.7389287
4156.73601761
4156.74550872
4156.7670091
4156.79839978
4156.82610422
4156.82652715
4157.00409107
4156.98964799
4156.9487401
4156.89851773
4156.85291416
4156.8169315
4156.79191036
4156.77809109
4156.76960396
4156.76066264
4156.74911676
4156.7349379
4156.72058659
4156.71181331
4156.71510687
4156.73158792
4156.76010815
4156.79646594
4156.8285841
4156.83983268
3667.34345164
3667.31690012
3667.26968648
3667.21466399
3667.1662666
3667.12786939
3667.10075776
3667.08370361
3667.07157185
3667.06004578
3667.047983
3667.03556212
3667.02435142
3667.01867231
3667.02426089
3667.0433652
3667.07487745
3667.11622422
3667.15467368
3667.17768546
3667.31912748
3667.31219864
3667.27463569
3667.23054102
3667.19548403
3667.17045154
3667.15455216
3667.14475742
3667.13622809
3667.12613135
3667.11407217
3667.10037442
3667.08583326
3667.07324014
3667.06801361
3667.07392024
3667.0919624
3667.12185393
3667.14955071
3667.15288323
3667.27791111
3667.28128151
3667.23023036
3667.17397335
3667.13104597
3667.10373107
3667.08895988
3667.08145218
3667.07541217
3667.06646793
3667.05384327
3667.03792964
3667.02034053
3667.00523848
3666.99914727
3667.00748121
3667.03319184
3667.07462498
3667.11603138
3667.10939515
3667.23209582
3667.24680507
3667.18320468
3667.12145054
3667.08241674
3667.06811437
3667.06909774
3667.07465429
3667.07733531
3667.07250645
3667.05926805
3667.03809485
3667.01089725
3666.98257636
3666.96098734
3666.95655595
3666.97850191
3667.02550904
3667.07834862
3667.0607287
3667.19491236
3667.22281378
3667.15106463
3667.0930294
3667.06991725
3667.07600792
3667.00903829
3667.06859526
3667.1683728
3667.1692417
3667.15528424
3667.12706544
3667.158327
3667.11646125
3666.96655697
3666.94152589
3666.94761855
3666.99085332
3667.0514906
3667.0205371
3667.16900312
3667.20981825
3667.13541615
3667.08995274
3667.0869548
3666.86593652
3666.69062353
3667.03664035
3667.35273614
3667.35914201
3667.34393405
3667.30748935
3667.52862959
3667.70382361
3667.30969447
3666.95660462
3666.94221607
3666.97260904
3667.03585921
3666.99172402
3667.1553273
3667.20679197
3667.13327501
3667.10333809
3667.03225431
3666.31290472
3666.1786499
3666.89007867
3667.41832094
3667.43078032
3667.41403568
3667.36784766
3667.79102145
3668.37371614
3668.02185878
3667.09498311
3666.95265866
3666.96779563
3667.03046504
3666.97556804
3667.1521314
3667.21039815
3667.13937432
3667.12239546
3666.88943507
3665.86104398
3665.85538589
3666.75759846
3667.40238156
3667.42189106
3667.40401193
3667.34764286
3667.8726583
3668.67965888
3668.52714127
3667.30065693
3666.96892166
3666.9715423
3667.03207743
3666.97040173
3667.15398346
3667.21555693
3667.14736814
3667.13944311
3666.83248042
3665.75163826
3665.77891508
3666.73381826
3667.41566533
3667.44119179
3667.42282873
3667.35963538
3667.90108839
3668.7601392
3668.6618934
3667.39642423
3666.98356282
3666.97751698
3667.03565096
3666.97077733
3667.1563894
3667.2192107
3667.15277874
3667.1495349
3666.84924602
3665.77628769
3665.81215773
3666.77502391
3667.46359865
3667.4924043
3667.4737109
3667.40679665
3667.94121895
3668.79050012
3668.68369258
3667.41139101
3666.99248074
3666.98203041
3667.03847127
3666.97240796
3667.15790899
3667.22073886
3667.15443264
3667.15129093
3666.85118737
3665.77869075
3665.81491261
3666.77791324
3667.46660541
3667.49552519
3667.47681469
3667.40979342
3667.94391424
3668.79277257
3668.68572186
3667.41352481
3666.99462129
3666.9840501
3667.04026804
3666.97415128
3667.15839095
3667.22001595
3667.15223363
3667.1446474
3666.83824334
3665.75883417
3665.7872518
3666.74265435
3667.42485179
3667.45067353
3667.43223408
3667.36872931
3667.90926341
3668.76698395
3668.66794153
3667.40271524
3666.98981841
3666.98339541
3667.04088194
3666.97583975
3667.15913956
3667.21755469
3667.14721466
3667.13086356
3666.88211417
3665.81401045
3665.76737701
3666.64585526
3667.28413336
3667.30440482
3667.28665928
3667.22998857
3667.75825208
3668.58513921
3668.47641776
3667.29443631
3666.97894184
3666.9808782
3667.04041024
3666.97844155
3667.16447333
3667.21623977
3667.14359341
3667.11462864
3667.02347951
3666.21136281
3665.95634584
3666.59926232
3667.10856486
3667.12222817
3667.10602213
3667.05983957
3667.49638695
3668.14195094
3667.91719853
3667.08804936
3666.96582535
3666.97995837
3667.04137196
3666.98603266
3667.17980629
3667.22105974
3667.14759572
3667.10338517
3667.10135054
3666.82282761
3666.51601968
3666.7606812
3667.04995306
3667.05757469
3667.04302568
3667.00676072
3667.25197166
3667.52698789
3667.26764631
3666.97302201
3666.95777263
3666.98682357
3667.04870524
3667.00399155
3667.20690132
3667.23529467
3667.16440977
3667.10769714
3667.08586283
3667.09302575
3667.00642187
3667.02960037
3667.1136208
3667.11526365
3667.10163079
3667.07335536
3667.12043044
3667.11517466
3666.98556317
3666.95973709
3666.96458474
3667.00628726
3667.06561844
3667.03400347
3667.24482742
3667.26002464
3667.1970664
3667.13656896
3667.09897408
3667.08605319
3667.08815868
3667.09476707
3667.09841382
3667.09426918
3667.08130994
3667.06002721
3667.03238154
3667.00347685
3666.98105807
3666.97540183
3666.99584209
3667.04133672
3667.09313369
3667.07482746
3667.29106013
3667.29489597
3667.24403926
3667.18895789
3667.14741756
3667.12155276
3667.10814386
3667.10183006
3667.09684729
3667.0886178
3667.07630788
3667.0603128
3667.04222124
3667.02640517
3667.01907276
3667.02593423
3667.05012697
3667.09024929
3667.1309643
3667.12371825
3667.33254686
3667.32577835
3667.2884868
3667.24505421
3667.21106954
3667.18725871
3667.17253924
3667.16380908
3667.1561673
3667.14667172
3667.13489021
3667.12114125
3667.10615528
3667.09284013
3667.0865187
3667.09118058
3667.10806405
3667.13706799
3667.16429039
3667.16735294
3667.35713067
3667.33052879
3667.28352018
3667.22918292
3667.18183119
3667.14462872
3667.11871331
3667.10273877
3667.09146649
3667.0805166
3667.06871111
3667.05622472
3667.04456979
3667.0381119
3667.04262647
3667.06050949
3667.09086815
3667.13135906
3667.16943766
3667.19242316
3177.6760948
3177.63832015
3177.58865973
3177.53037171
3177.47725511
3177.43293734
3177.39965574
3177.37543163
3177.35641878
3177.34037207
3177.32749222
3177.31829163
3177.31331468
3177.31492332
3177.32725343
3177.35243066
3177.38912883
3177.43427863
3177.47505628
3177.50932107
3177.64036863
3177.63058965
3177.58871898
3177.53606215
3177.48896759
3177.45065392
3177.42134102
3177.39737394
3177.37635834
3177.35839994
3177.34527506
3177.33767754
3177.33501833
3177.33685537
3177.34590065
3177.36557201
3177.39604603
3177.43487547
3177.46713234
3177.4736308
3177.59684232
3177.59554958
3177.54267312
3177.4751943
3177.41810609
3177.37747957
3177.35272696
3177.3368086
3177.32622414
3177.31387583
3177.30002317
3177.28554452
3177.27287997
3177.26617088
3177.27056361
3177.29257869
3177.33283536
3177.38625614
3177.42961283
3177.42826742
3177.54774796
3177.55220602
3177.48466352
3177.40345553
3177.34850422
3177.16692772
3177.01315025
3177.26844627
3177.46385619
3177.45834176
3177.44292462
3177.41895431
3177.55363857
3177.68318849
3177.41036423
3177.22072983
3177.25844263
3177.32542654
3177.38387884
3177.37643249
3177.50583743
3177.51589482
3177.43837604
3177.35878404
3176.95835093
3176.28338434
3176.35824773
3177.14158963
3177.63146026
3177.63154055
3177.61284142
3177.57701381
3178.01460192
3178.72915487
3178.57106471
3177.63936337
3177.21222023
3177.27645096
3177.34538719
3177.33174375
3177.47419588
3177.48923227
3177.40862778
3177.18674366
3175.80718825
3175.11733154
3175.75242024
3176.86446955
3177.49801062
3177.50065204
3177.47699514
3177.428464
3178.02680993
3179.26550528
3179.9630179
3178.9901021
3177.39308119
3177.2448764
3177.3166382
3177.29744432
3177.45427517
3177.47231927
3177.395572
3176.66009241
3174.56940752
3174.57285996
3175.48302795
3176.66054012
3177.340262
3177.34382753
3177.31406759
3177.25144434
3177.89194442
3179.2863653
3180.47499858
3180.38269137
3177.9765426
3177.22951446
3177.2973455
3177.27515022
3177.44415678
3177.46188965
3177.39354559
3176.10776078
3173.98110409
3174.38400888
3175.32185461
3176.52905636
3177.22948696
3177.23482393
3177.1997049
3177.12337008
3177.76843393
3179.2262029
3180.52635107
3180.9592713
3178.53218181
3177.2256023
3177.28448267
3177.2629281
3177.43987284
3177.45540067
3177.3969775
3175.93447958
3173.86041313
3174.34340748
3175.29840714
3176.51789201
3177.22738772
3177.23560752
3177.19832838
3177.113897
3177.74555686
3179.20408805
3180.5241837
3181.06244783
3178.70754277
3177.22639041
3177.27549014
3177.25676773
3177.43875561
3177.45258186
3177.40034464
3175.9462326
3173.88264937
3174.37621817
3175.34189272
3176.56874538
3177.28289165
3177.29256735
3177.25418848
3177.16576099
3177.78891998
3179.23739524
3180.54839497
3181.07855122
3178.71633059
3177.22799724
3177.27091029
3177.25451123
3177.44044992
3177.45437184
3177.40228922
3175.94864202
3173.88603557
3174.3806128
3175.34734281
3176.5749034
3177.28953395
3177.29947019
3177.26110088
3177.17246043
3177.79498945
3179.24228831
3180.55192806
3181.08103476
3178.71876194
3177.23046369
3177.2730621
3177.25646219
3177.4446842
3177.46040231
3177.40262439
3175.94161712
3173.87043283
3174.35656429
3175.3149209
3176.53675641
3177.2478481
3177.25677492
3177.2193261
3177.13418811
3177.76383764
3179.21873459
3180.53466397
3181.06970777
3178.71458106
3177.23349891
3177.28161096
3177.26235621
3177.4516999
3177.46975411
3177.40252328
3176.0820973
3173.90351421
3174.28486239
3175.21738485
3176.41822039
3177.116133
3177.1231162
3177.08779166
3177.00999919
3177.64708457
3179.09418913
3180.39590034
3180.86282321
3178.50544204
3177.23676192
3177.29404237
3177.27171837
3177.46399629
3177.4825299
3177.40714341
3176.59412978
3174.34200507
3174.24721704
3175.13107775
3176.28226456
3176.94971224
3176.95552402
3176.92626725
3176.86265955
3177.48933019
3178.87004841
3180.08133433
3180.12354602
3177.91101111
3177.24377249
3177.30956833
3177.28645069
3177.48554768
3177.50120591
3177.4221385
3177.16473009
3175.57916349
3174.64520115
3175.17995332
3176.25132741
3176.86738077
3176.87251503
3176.85013031
3176.80166958
3177.38912741
3178.62853187
3179.43512324
3178.74902917
3177.37417813
3177.26122971
3177.33070824
3177.31053832
3177.51830515
3177.52896511
3177.45286675
3177.37518409
3176.89141061
3175.96121798
3175.76908708
3176.4236592
3176.8828652
3176.88552411
3176.86857362
3176.83373124
3177.28689289
3178.11364985
3178.23721004
3177.57463837
3177.23196134
3177.2937506
3177.36048771
3177.34586898
3177.56084918
3177.56583706
3177.49941197
3177.42006609
3177.36704631
3177.15005283
3176.88103704
3177.01928207
3177.17775699
3177.17385836
3177.15947661
3177.13593828
3177.30636968
3177.55164288
3177.39603226
3177.24255319
3177.27806902
3177.34264939
3177.39932392
3177.39101707
3177.61028291
3177.60939423
3177.55730947
3177.49134508
3177.43631305
3177.39771414
3177.37471252
3177.36022073
3177.35131653
3177.34000777
3177.32661454
3177.3121008
3177.29870742
3177.29163176
3177.2938438
3177.31353468
3177.3514273
3177.40287222
3177.44496649
3177.44293097
3177.65391635
3177.6443813
3177.60301884
3177.55149274
3177.50599275
3177.46943233
3177.44184784
3177.41946562
3177.39977721
3177.38277663
3177.37007409
3177.36240355
3177.35905078
3177.35983733
3177.36704786
3177.38472884
3177.41333838
3177.45072171
3177.48213434
3177.48818192
3177.68991294
3177.65211831
3177.60299846
3177.54567885
3177.49397966
3177.45128261
3177.41960206
3177.39680962
3177.37894973
3177.36367171
3177.35112911
3177.34182208
3177.33622963
3177.33678369
3177.347592
3177.37104095
3177.40609837
3177.44997383
3177.48994463
3177.52404912
2688.04184902
2688.00418236
2687.95409723
2687.88637465
2687.8211849
2687.76204366
2687.71457898
2687.6775162
2687.64840507
2687.62613112
2687.6115842
2687.60583827
2687.6096065
2687.62416279
2687.65141228
2687.69162595
2687.74117234
2687.7962473
2687.83803905
2687.87228526
2688.00636061
2687.97393152
2687.92031562
2687.84396084
2687.76887711
2687.70005928
2687.6435947
2687.59732536
2687.55952789
2687.53170356
2687.51648823
2687.51516681
2687.52761081
2687.55288958
2687.58999398
2687.64052137
2687.69919585
2687.76214742
2687.80754969
2687.83696877
2687.96257208
2687.92656523
2687.86140108
2687.76703999
2687.67705752
2687.43756717
2687.23308489
2687.45292013
2687.62414306
2687.60600403
2687.58917441
2687.57467202
2687.73255545
2687.90404648
2687.68072989
2687.54752063
2687.6201796
2687.70100605
2687.75840534
2687.79104865
2687.90420667
2687.85978716
2687.77707476
2687.64365784
2686.90297762
2686.42227944
2686.62965523
2687.28985963
2687.72213951
2687.71499108
2687.69455454
2687.66319533
2688.08763016
2688.80152966
2688.90479311
2688.21866365
2687.51562623
2687.61304649
2687.68924859
2687.729915
2687.85044636
2687.79583326
2687.69861072
2686.89016893
2685.40331614
2685.27832366
2685.9418432
2686.86907163
2687.41677192
2687.41632961
2687.38866347
2687.3372902
2687.88524042
2689.08245582
2690.11022497
2689.96288875
2688.2303793
2687.53159278
2687.62315276
2687.67339369
2687.80469796
2687.73854492
2687.46947855
2685.27343546
2684.35632362
2684.80858775
2685.51469677
2686.48816595
2687.07167481
2687.06747187
2687.02845218
2686.95810665
2687.55061506
2688.95295569
2690.32352165
2691.16904709
2689.95758266
2687.65512675
2687.56394284
2687.6246384
2687.7709854
2687.69381549
2686.88837434
2684.03879134
2684.01795838
2684.51047125
2685.2371485
2686.21246583
2686.79276186
2686.77988437
2686.72743573
2686.63550034
2687.22441781
2688.73202174
2690.34590082
2691.48995313
2691.36923819
2688.1882709
2687.51625151
2687.58770448
2687.74903416
2687.66141446
2686.30025441
2683.60892338
2683.84256043
2684.36507475
2685.11451207
2686.0819739
2686.64823693
2686.62847163
2686.56409598
2686.45033044
2687.00516271
2688.53168491
2690.2629611
2691.57337112
2691.83287572
2688.70725369
2687.47886834
2687.56198932
2687.73651386
2687.64038107
2686.10658583
2683.52387698
2683.81042834
2684.35829248
2685.1316974
2686.09955366
2686.65881801
2686.63779251
2686.57219714
2686.45306731
2686.97281415
2688.47624605
2690.22259575
2691.57192984
2691.89760349
2688.85967005
2687.45210201
2687.54563532
2687.73145262
2687.63052668
2686.1089018
2683.53990696
2683.84368071
2684.40668763
2685.19339658
2686.16484682
2686.72123311
2686.69876952
2686.63415911
2686.51312927
2687.0224997
2688.51503219
2690.25158146
2691.59212572
2691.90708858
2688.85762189
2687.43827788
2687.53815438
2687.73346944
2687.63287096
2686.1115001
2683.54364319
2683.84917711
2684.41483105
2685.20382139
2686.17639234
2686.73335223
2686.71119253
2686.64689222
2686.52569223
2687.03401252
2688.52460029
2690.25860969
2691.59675431
2691.91015821
2688.86072336
2687.44104323
2687.54045645
2687.74189545
2687.64620274
2686.11453523
2683.53513866
2683.82665751
2684.38289415
2685.16388423
2686.13593456
2686.69785105
2686.67744963
2686.61136178
2686.49132194
2687.00792872
2688.50512459
2690.24353858
2691.58557579
2691.90647381
2688.86831126
2687.4597271
2687.55213538
2687.75721257
2687.67014405
2686.27540968
2683.54477144
2683.77144745
2684.29984689
2685.05593835
2686.02485298
2686.5929869
2686.57547307
2686.50877938
2686.3907599
2686.92887719
2688.42601962
2690.13601725
2691.44842627
2691.741671
2688.68262405
2687.49039198
2687.57196173
2687.78129443
2687.7048303
2686.82254166
2683.84478524
2683.76216815
2684.24689617
2684.96540016
2685.92124043
2686.48974652
2686.48002182
2686.42668773
2686.3302449
2686.88779689
2688.34048678
2689.92802233
2691.10765039
2691.12392876
2688.12457374
2687.53039417
2687.600186
2687.81643906
2687.75100566
2687.44681985
2685.03489074
2683.9263712
2684.34655952
2685.02355496
2685.95667653
2686.51673772
2686.51545185
2686.47701234
2686.40442064
2686.96346214
2688.31318282
2689.68225483
2690.61251276
2689.69277488
2687.63738971
2687.57965815
2687.63871309
2687.86308105
2687.80907485
2687.71386166
2686.75764358
2684.96165325
2684.64819154
2685.25766368
2686.1319422
2686.65339468
2686.65632699
2686.63036779
2686.57926367
2687.10437197
2688.28023915
2689.35734755
2689.47076582
2688.10015025
2687.551396
2687.6394071
2687.68813554
2687.91728943
2687.87333802
2687.79227436
2687.6590392
2686.76909056
2685.95278626
2685.89812704
2686.45701921
2686.86382955
2686.86009864
2686.84208327
2686.81208232
2687.23970058
2688.02895273
2688.41256561
2688.08576118
2687.5360448
2687.6319397
2687.7052648
2687.74474738
2687.97584748
2687.94022612
2687.87637137
2687.78408397
2687.69726611
2687.4239052
2687.10584634
2687.20996452
2687.34475549
2687.32886608
2687.31345569
2687.29929116
2687.49252807
2687.78282454
2687.67139723
2687.57179085
2687.64074471
2687.7185541
2687.77383138
2687.80565122
2688.01962409
2687.98756098
2687.93485401
2687.86008244
2687.78733788
2687.7211099
2687.66724783
2687.62328476
2687.58740231
2687.56095637
2687.5464183
2687.54498743
2687.55642371
2687.58036607
2687.61443749
2687.66191594
2687.71774457
2687.77846767
2687.82244786
2687.85124996
2688.05515845
2688.01788476
2687.96854418
2687.90212187
2687.83891245
2687.7821049
2687.73703532
2687.7020626
2687.6746539
2687.65351878
2687.63944909
2687.63342517
2687.63613219
2687.64902401
2687.67393103
2687.71160686
2687.75879504
2687.81206777
2687.85268493
2687.88641427
2198.48177813
2198.44159455
2198.39412715
2198.32306545
2198.25413331
2198.19170657
2198.14188031
2198.10524622
2198.07901066
2198.05887542
2198.04302989
2198.03284993
2198.03201772
2198.04482279
2198.07407867
2198.11805582
2198.17159653
2198.23024654
2198.27150901
2198.30600412
2198.44528469
2198.3695426
2198.30100596
2198.1961301
2198.08956051
2197.98725631
2197.81288
2197.78306939
2197.82084148
2197.78758903
2197.76943769
2197.76879266
2197.86019592
2197.90801338
2197.86761208
2197.95245067
2198.04347234
2198.13482312
2198.19720263
2198.26987909
2198.40318648
2198.30658585
2198.2284245
2198.10367713
2197.60703308
2197.13424791
2197.27946741
2197.60973853
2197.85190853
2197.82723175
2197.80469023
2197.78743481
2198.07485303
2198.50656807
2198.70302312
2198.27001729
2197.944203
2198.05888597
2198.13256668
2198.22477924
2198.34306382
2198.21329082
2198.11534146
2197.2935146
2196.26768799
2195.89558518
2196.30341994
2196.98772996
2197.40685263
2197.4014847
2197.37327126
2197.32632109
2197.75051561
2198.71919081
2199.62980216
2199.53279041
2198.56292845
2197.93583706
2198.03453355
2198.15966425
2198.28808874
2198.12075703
2197.63834378
2195.6359349
2195.03267941
2195.25918931
2195.72535657
2196.46101957
2196.9340323
2196.93972644
2196.89065292
2196.80002096
2197.26914876
2198.4528027
2199.69228575
2200.59423747
2200.14777647
2198.24734474