/*--------------------------------*- C++ -*----------------------------------*\
| =========                 |                                                 |
| \\      /  F ield         | OpenFOAM: The Open Source CFD Toolbox           |
|  \\    /   O peration     | Version:  3.0.1                                 |
|   \\  /    A nd           | Web:      www.OpenFOAM.org                      |
|    \\/     M anipulation  |                                                 |
\*---------------------------------------------------------------------------*/
FoamFile
{
    version     2.0;
    format      ascii;
    class       surfaceScalarField;
    location    "8.6";
    object      phi;
}
// * * * * * * * * * * * * * * * * * * * * * * * * * * * * * * * * * * * * * //

dimensions      [0 3 -1 0 0 0 0];

internalField   nonuniform List<scalar> 
22672
(
4.83220068608e-06
4.46860273182e-06
-9.30082529989e-06
1.18825038697e-05
3.50133923202e-06
-1.05516669038e-05
1.87913652058e-05
3.43851400275e-06
-1.03474011181e-05
2.38155413355e-05
4.14767165026e-06
-9.17187442082e-06
2.59595779195e-05
5.57280628938e-06
-7.71687061013e-06
2.4992536417e-05
7.34590256786e-06
-6.37888986526e-06
2.17214774131e-05
8.72614500761e-06
-5.45511544649e-06
1.63875474359e-05
1.0042648706e-05
-4.70874817717e-06
9.66495779274e-06
1.10402799766e-05
-4.31771912986e-06
2.28554677948e-06
1.15772319288e-05
-4.19784863094e-06
-5.16230946278e-06
1.16117897188e-05
-4.16396002397e-06
-1.20891520664e-05
1.11368105672e-05
-4.20999353316e-06
-1.77588249474e-05
1.01835187059e-05
-4.51387071478e-06
-2.14679326377e-05
8.88704974517e-06
-5.17796653607e-06
-2.28778603529e-05
7.48234362128e-06
-6.07244021324e-06
-2.13676231942e-05
5.79742134348e-06
-7.30768293123e-06
-1.69718985648e-05
4.35732620456e-06
-8.753075769e-06
-1.07080577111e-05
3.65699794705e-06
-9.92086523063e-06
-4.27881362718e-06
3.71018883366e-06
-1.01394629587e-05
4.63836221954e-06
-8.91719812379e-06
3.87937329986e-06
1.11309510908e-05
-1.05417448432e-05
1.20411473208e-05
1.12639895693e-05
-1.5924449579e-05
1.99845385796e-05
1.23353464828e-05
-1.68402501764e-05
2.53783013927e-05
1.4486179128e-05
-1.57322978673e-05
2.74537387574e-05
1.74883197271e-05
-1.39909797916e-05
2.63549043912e-05
2.06779068691e-05
-1.22332002191e-05
2.26157597046e-05
2.32971282018e-05
-1.08318695397e-05
1.69109680844e-05
2.55218172993e-05
-9.77440797116e-06
9.93343513309e-06
2.71594099269e-05
-9.14162721251e-06
2.35259846382e-06
2.80353244046e-05
-8.87728476801e-06
-5.3005694457e-06
2.80952339559e-05
-8.83030395016e-06
-1.24916717574e-05
2.73254820936e-05
-8.9975956907e-06
-1.85338270412e-05
2.57589818382e-05
-9.53333347134e-06
-2.26975275064e-05
2.35611821386e-05
-1.05104569944e-05
-2.43156961861e-05
2.09517685934e-05
-1.18512811516e-05
-2.28359940159e-05
1.78476567723e-05
-1.3529962754e-05
-1.81037780923e-05
1.48621790065e-05
-1.5237094861e-05
-1.08335169625e-05
1.27250055774e-05
-1.63382969841e-05
-3.31345176402e-06
1.16405284386e-05
-1.54504365917e-05
1.14530751974e-05
-1.01281877844e-05
3.82779143989e-06
1.76772186702e-05
-1.0374079894e-05
1.3127585395e-05
1.88250763662e-05
-1.68609031112e-05
2.19825293754e-05
2.08064374349e-05
-1.73260586214e-05
2.77470687583e-05
2.39753041541e-05
-1.52536896707e-05
2.97567195657e-05
2.79683670674e-05
-1.24897253294e-05
2.82926282773e-05
3.20179164238e-05
-9.8759472057e-06
2.40323948692e-05
3.54243163198e-05
-7.86698472763e-06
1.78069684154e-05
3.82403853407e-05
-6.4931717155e-06
1.03840392184e-05
4.029784207e-05
-5.71553224452e-06
2.40264412235e-06
4.14038886019e-05
-5.38719695823e-06
-5.6611255589e-06
4.14899727647e-05
-5.33099536256e-06
-1.33202671201e-05
4.05347021443e-05
-5.55010323501e-06
-1.9903803591e-05
3.85723419782e-05
-6.22984719614e-06
-2.46017389077e-05
3.57849153601e-05
-7.52582057627e-06
-2.65821210472e-05
3.2392331661e-05
-9.4602033121e-06
-2.51666367858e-05
2.84184047275e-05
-1.1986255172e-05
-2.00651424241e-05
2.44507720046e-05
-1.46901119545e-05
-1.18960802258e-05
2.1298936228e-05
-1.67430204302e-05
-3.25325573254e-06
1.93112579988e-05
-1.63135859012e-05
1.81047450487e-05
-9.90494866947e-06
4.53712662557e-06
2.23761267933e-05
-9.23605135088e-06
1.52821358581e-05
2.38770019498e-05
-1.57969526192e-05
2.51582359773e-05
2.6230023948e-05
-1.52997061068e-05
3.13281520879e-05
2.98043472326e-05
-1.19989809173e-05
3.3168050983e-05
3.41692125193e-05
-8.04076879185e-06
3.11403727164e-05
3.85231333134e-05
-4.47756558342e-06
2.61551366879e-05
4.22322596806e-05
-1.82273595328e-06
1.91835923374e-05
4.53103486905e-05
-9.84480264961e-08
1.10774037682e-05
4.75739920959e-05
8.30010362521e-07
2.46169143124e-06
4.88109614718e-05
1.20861301405e-06
-6.25071468591e-06
4.89227555032e-05
1.27959902596e-06
-1.46276264649e-05
4.78780393607e-05
1.03355229427e-06
-2.19912395227e-05
4.57253289192e-05
2.10605693539e-07
-2.7428996619e-05
4.26649133701e-05
-1.44225997956e-06
-2.99642414702e-05
3.89484315822e-05
-4.02087365974e-06
-2.87118255918e-05
3.46541536898e-05
-7.48818427519e-06
-2.32041531967e-05
3.03129935716e-05
-1.13699157633e-05
-1.40225756472e-05
2.67555039669e-05
-1.46381710539e-05
-3.94762568496e-06
2.44028103645e-05
-1.51665331432e-05
2.28479348366e-05
-8.69083789331e-06
5.97204547001e-06
2.42267791224e-05
-7.82270970833e-06
1.82848066276e-05
2.56709829023e-05
-1.41067551051e-05
2.91507362843e-05
2.79583283893e-05
-1.25942493353e-05
3.56911389054e-05
3.13624915279e-05
-8.09856539915e-06
3.73242683856e-05
3.55190365193e-05
-2.98297584914e-06
3.47097429827e-05
3.96159555674e-05
1.52167711355e-06
2.89378949096e-05
4.3152080173e-05
4.85199895774e-06
2.10866697916e-05
4.61222700902e-05
7.03927415065e-06
1.20766560733e-05
4.83484703577e-05
8.23550665328e-06
2.54356099709e-06
4.9601701127e-05
8.74232869243e-06
-7.11018449852e-06
4.97383430039e-05
8.8381340471e-06
-1.64487354553e-05
4.87163458219e-05
8.50022352736e-06
-2.47482320049e-05
4.66155923726e-05
7.40921493423e-06
-3.09996792564e-05
4.36485912627e-05
5.26775339246e-06
-3.41130464209e-05
4.00731599012e-05
1.98862382984e-06
-3.30534886259e-05
3.60020271375e-05
-2.40744715098e-06
-2.7171288259e-05
3.18519569686e-05
-7.42118258682e-06
-1.70064460097e-05
2.84565104259e-05
-1.18658723212e-05
-5.37423718853e-06
2.61656006059e-05
-1.33950283389e-05
2.46676544436e-05
-7.19397815631e-06
7.71558228806e-06
2.30697703865e-05
-6.55858079195e-06
2.14459765203e-05
2.43530146545e-05
-1.24124343187e-05
3.3174502588e-05
2.62684485126e-05
-1.00386575606e-05
4.00201639078e-05
2.90990654385e-05
-4.58225116066e-06
4.13987338635e-05
3.26564713233e-05
1.4839738307e-06
3.81709637396e-05
3.61305324156e-05
6.71316656547e-06
3.16180638687e-05
3.91712670539e-05
1.05336822787e-05
2.29127239304e-05
4.17891265341e-05
1.30384508765e-05
1.30360410245e-05
4.38075427808e-05
1.44175782785e-05
2.6324724683e-06
4.49917990966e-05
1.50134407309e-05
-7.92266426796e-06
4.51450156425e-05
1.51484378342e-05
-1.82029978973e-05
4.42155106362e-05
1.47811467148e-05
-2.74328821669e-05
4.23362944276e-05
1.35091642854e-05
-3.4496398169e-05
3.9718347666e-05
1.09937451519e-05
-3.82048129763e-05
3.661552795e-05
7.16603420518e-06
-3.73737084267e-05
3.31325112529e-05
2.03839827547e-06
-3.11757045251e-05
2.95537383598e-05
-3.89980147073e-06
-2.01477685191e-05
2.67082429692e-05
-9.27969002694e-06
-7.10201367584e-06
2.47751813618e-05
-1.16553630967e-05
2.34506918733e-05
-5.88507124133e-06
9.10551915204e-06
1.96310968337e-05
-5.6668482388e-06
2.4062024696e-05
2.04516720004e-05
-1.10551667047e-05
3.65707394076e-05
2.18294734008e-05
-8.06974739241e-06
4.37171102217e-05
2.39109508918e-05
-1.95827018348e-06
4.49261555852e-05
2.66510456704e-05
4.79635893145e-06
4.12162175261e-05
2.93139221012e-05
1.05265196041e-05
3.40179076487e-05
3.16757191334e-05
1.46938230606e-05
2.45696437919e-05
3.37621914539e-05
1.74751608107e-05
1.39323820053e-05
3.5390378774e-05
1.90543873369e-05
2.73789691961e-06
3.63966471071e-05
1.97896010725e-05
-8.64495905721e-06
3.65516487173e-05
1.99761913462e-05
-1.9765875605e-05
3.57885368101e-05
1.9547864413e-05
-2.98272938641e-05
3.43027929142e-05
1.80948997371e-05
-3.75889726503e-05
3.22227215767e-05
1.52572900836e-05
-4.17808885366e-05
2.97968650108e-05
1.10105673352e-05
-4.10987952901e-05
2.71048983368e-05
5.34550842476e-06
-3.45801471418e-05
2.43199082325e-05
-1.28483224472e-06
-2.27648751446e-05
2.21987578364e-05
-7.30580654195e-06
-8.49658227636e-06
2.07893100094e-05
-1.02824473222e-05
1.99320916117e-05
-4.9780010264e-06
1.04051814444e-05
1.41918757234e-05
-4.96595835928e-06
2.62617743483e-05
1.46419954816e-05
-1.00469156862e-05
3.93500473987e-05
1.54830141715e-05
-6.74181806012e-06
4.67529608028e-05
1.67927797959e-05
-2.84754299861e-07
4.78560793418e-05
1.86147705311e-05
6.93313503374e-06
4.38070007524e-05
2.03784123382e-05
1.2984556958e-05
3.61136483454e-05
2.19506989077e-05
1.74183329123e-05
2.60325146983e-05
2.33514581647e-05
2.04918219354e-05
1.46240205226e-05
2.43730041296e-05
2.24258224248e-05
2.81846450298e-06
2.51002854742e-05
2.31018736056e-05
-9.16609940442e-06
2.52306648393e-05
2.33055090109e-05
-2.11076075996e-05
2.46760514776e-05
2.30539619148e-05
-3.18985402909e-05
2.37882740294e-05
2.13054278792e-05
-4.02214205881e-05
2.24052948717e-05
1.81402905622e-05
-4.47741722092e-05
2.07831515809e-05
1.35664534262e-05
-4.41915287069e-05
1.89894758671e-05
7.53276843856e-06
-3.74018752856e-05
1.71143757067e-05
4.1586597004e-07
-2.49908472454e-05
1.57594683325e-05
-5.97175699931e-06
-9.81276089508e-06
1.48849010553e-05
-9.27370189603e-06
1.44073310581e-05
-4.28801854125e-06
1.13688854488e-05
7.44078286311e-06
-4.61778601273e-06
2.78434421808e-05
7.63720997787e-06
-9.46976599882e-06
4.13295255151e-05
8.02292316638e-06
-6.02599284747e-06
4.89249756996e-05
8.63575798105e-06
5.61561922149e-07
4.99821230428e-05
9.52988233815e-06
8.02771958802e-06
4.57309403969e-05
1.03898793846e-05
1.42396821723e-05
3.76835133751e-05
1.11629973058e-05
1.8835084519e-05
2.70300662162e-05
1.17772467083e-05
2.22276073017e-05
1.52044626779e-05
1.2349944881e-05
2.38486088874e-05
2.85966431818e-06
1.27431371054e-05
2.47018949722e-05
-9.68168824977e-06
1.28100177327e-05
2.49619538953e-05
-2.20452514055e-05
1.25060683219e-05
2.45335090975e-05
-3.34311588011e-05
1.20068027571e-05
2.31673512258e-05
-4.21700825183e-05
1.14240778293e-05
1.97201222725e-05
-4.69532967127e-05
1.06197259912e-05
1.49466272872e-05
-4.64217738898e-05
9.74274547789e-06
8.71519688139e-06
-3.94352573597e-05
8.81739505695e-06
1.31045124952e-06
-2.66121674956e-05
8.17878330835e-06
-5.24242274591e-06
-1.08001591141e-05
7.77418455145e-06
-8.70131563041e-06
7.56471129385e-06
-3.95755715777e-06
1.18650420027e-05
1.092498983e-07
-4.53349813584e-06
2.86491340527e-05
1.09932215308e-07
-9.25680474075e-06
4.23366385994e-05
9.86301554288e-08
-5.76320824049e-06
5.003926047e-05
8.22390720618e-08
8.50890169984e-07
5.10922792864e-05
6.3889528517e-08
8.4129541362e-06
4.6762568497e-05
4.66578552595e-08
1.46728985233e-05
3.85457276337e-05
2.91375589371e-08
1.93506543211e-05
2.76269250539e-05
1.16342523393e-08
2.2684359987e-05
1.55638106233e-05
-2.75523658164e-09
2.44157559604e-05
2.88126339667e-06
-1.36081848363e-08
2.5439235841e-05
-1.00194832371e-05
-1.6906928464e-08
2.57276210099e-05
-2.26876450891e-05
-1.30030658083e-08
2.51871924647e-05
-3.42966948322e-05
-2.23620306271e-09
2.36180587927e-05
-4.32189382507e-05
1.38737086423e-08
2.03324274888e-05
-4.80920678408e-05
3.45424327437e-08
1.54582996548e-05
-4.75683047746e-05
5.84017776157e-08
9.16056931303e-06
-4.04726792242e-05
8.7277214334e-08
1.63447911923e-06
-2.74408093731e-05
1.12883164226e-07
-4.96598761853e-06
-1.13106573776e-05
1.32126704792e-07
-8.48811774311e-06
1.33855352439e-07
-3.87981926708e-06
1.18610978463e-05
-7.22019995707e-06
-4.53163348164e-06
2.86416906659e-05
-7.41476146276e-06
-9.25588591824e-06
4.23275266872e-05
-7.8204795513e-06
-5.76671943603e-06
5.00291858488e-05
-8.46283579393e-06
8.4341211169e-07
5.10808658472e-05
-9.38952503048e-06
8.40171740178e-06
4.6750090781e-05
-1.02793899332e-05
1.46567909525e-05
3.85328330734e-05
-1.108291371e-05
1.93292637056e-05
2.76155053923e-05
-1.17284549602e-05
2.26573621016e-05
1.55559119881e-05
-1.23268883159e-05
2.43836676216e-05
2.87747783195e-06
-1.27404456839e-05
2.54052144413e-05
-1.00186887996e-05
-1.28132988716e-05
2.56925077397e-05
-2.26809649362e-05
-1.25016769478e-05
2.51509088304e-05
-3.42849908761e-05
-1.19811935442e-05
2.35829530487e-05
-4.32036607742e-05
-1.13704193239e-05
2.03029424499e-05
-4.80748387664e-05
-1.0529866006e-05
1.54355723184e-05
-4.75504420303e-05
-9.61112769066e-06
9.1451207684e-06
-4.04554654436e-05
-8.6347364527e-06
1.62702339932e-06
-2.7427033757e-05
-7.95009144392e-06
-4.96547535683e-06
-1.13038596379e-05
-7.51101062374e-06
-8.48006070196e-06
-7.29804162616e-06
-3.87198081532e-06
1.13577405333e-05
-1.39712964711e-05
-4.60662705409e-06
2.78225158361e-05
-1.44170489754e-05
-9.46247195164e-06
4.13038275152e-05
-1.52702425742e-05
-6.03153880706e-06
4.88966723285e-05
-1.65996171106e-05
5.43936324923e-07
4.99502561941e-05
-1.84421718339e-05
7.9990496197e-06
4.56964159375e-05
-2.02229308565e-05
1.41973534681e-05
3.76479970697e-05
-2.18128578825e-05
1.87783222041e-05
2.69973465083e-05
-2.32333411842e-05
2.21554865772e-05
1.51809761274e-05
-2.42726600084e-05
2.37620877366e-05
2.84889365943e-06
-2.50162028533e-05
2.46077866115e-05
-9.67857260966e-06
-2.51503308578e-05
2.48644510651e-05
-2.20243718373e-05
-2.45891693828e-05
2.44332533676e-05
-3.33968772773e-05
-2.36825262762e-05
2.30738098756e-05
-4.21275830131e-05
-2.22814213131e-05
1.96416881205e-05
-4.69056913515e-05
-2.06378372661e-05
1.48860655959e-05
-4.63726595523e-05
-1.88182545162e-05
8.67408278298e-06
-3.93881229523e-05
-1.69098207962e-05
1.29053361263e-06
-2.65745013655e-05
-1.55232761493e-05
-5.24045568303e-06
-1.07814256142e-05
-1.46254540625e-05
-8.6786568233e-06
-1.41464869984e-05
-3.93299886357e-06
1.03898283423e-05
-1.94195874907e-05
-4.94151928398e-06
2.62334102431e-05
-2.02303631427e-05
-1.00302505697e-05
3.93151612344e-05
-2.16099830309e-05
-6.74199859807e-06
4.6714696045e-05
-2.36967487095e-05
-3.02400169458e-07
4.78131542902e-05
-2.64420120211e-05
6.90137320164e-06
4.37600004873e-05
-2.91064316038e-05
1.29366328294e-05
3.60641942053e-05
-3.14700398149e-05
1.73529546342e-05
2.59843343699e-05
-3.35608518956e-05
2.04073284652e-05
1.45876186903e-05
-3.51943186226e-05
2.23183283812e-05
2.80282683521e-06
-3.62040927457e-05
2.29726367044e-05
-9.15933721805e-06
-3.63585160328e-05
2.31703089547e-05
-2.10772626548e-05
-3.55923831746e-05
2.29211063417e-05
-3.18520554479e-05
-3.40986337573e-05
2.11908755787e-05
-4.01632561668e-05
-3.20136535509e-05
1.80434153481e-05
-4.47089359099e-05
-2.95841620764e-05
1.34919913981e-05
-4.41237879983e-05
-2.68855044491e-05
7.48208989025e-06
-3.7336827015e-05
-2.40886976861e-05
3.91901463964e-07
-2.49386799006e-05
-2.19554386651e-05
-5.9660039656e-06
-9.78670170024e-06
-2.05382122866e-05
-9.23924518421e-06
-1.96857764028e-05
-4.24743137925e-06
9.09044721828e-06
-2.28775996635e-05
-5.63241727313e-06
2.403346091e-05
-2.41445617779e-05
-1.10287978419e-05
3.65364341379e-05
-2.60529665625e-05
-8.05997666292e-06
4.36810353669e-05
-2.88757696915e-05
-1.96557448853e-06
4.4886168879e-05
-3.24252686308e-05
4.77811909333e-06
4.11706522323e-05
-3.58884880572e-05
1.04975582619e-05
3.39682351304e-05
-3.89181817413e-05
1.46505342539e-05
2.45219925508e-05
-4.15281155124e-05
1.74134742195e-05
1.3897046419e-05
-4.35413874854e-05
1.8971979563e-05
2.72323605885e-06
-4.47218987012e-05
1.96915811654e-05
-8.63529922741e-06
-4.48715574904e-05
1.987154494e-05
-1.97354095969e-05
-4.39391221953e-05
1.94468229801e-05
-2.97808327169e-05
-4.20581783714e-05
1.80049474154e-05
-3.75315687799e-05
-3.94451402866e-05
1.51822077272e-05
-4.17159844368e-05
-3.6351654326e-05
1.09518959134e-05
-4.10290324329e-05
-3.28771151383e-05
5.30464680935e-06
-3.45110205749e-05
-2.93045194397e-05
-1.30220485235e-06
-2.27088225422e-05
-2.64652631803e-05
-7.29239347401e-06
-8.46922455651e-06
-2.45383440818e-05
-1.02394920584e-05
-2.32280252509e-05
-4.92699517347e-06
7.70164321138e-06
-2.40557169237e-05
-6.5235095443e-06
2.14273125313e-05
-2.54910457809e-05
-1.23791691504e-05
3.31537721213e-05
-2.77626237068e-05
-1.00167893078e-05
3.9999149409e-05
-3.11482513515e-05
-4.57288793922e-06
4.13748975373e-05
-3.52879677987e-05
1.4869512684e-06
3.81402222892e-05
-3.93685865819e-05
6.71476561812e-06
3.15807425817e-05
-4.28868401299e-05
1.05281221527e-05
2.287473955e-05
-4.58423921465e-05
1.30202579101e-05
1.30072863977e-05
-4.805681227e-05
1.43828530603e-05
2.62139027378e-06
-4.93010424543e-05
1.49650145537e-05
-7.91285766083e-06
-4.94317641684e-05
1.50944310791e-05
-1.81762998313e-05
-4.84076587871e-05
1.47319585947e-05
-2.73959813731e-05
-4.63089509343e-05
1.34704379185e-05
-3.44529290885e-05
-4.33505502383e-05
1.09623448902e-05
-3.8155366914e-05
-3.97897423217e-05
7.14051474115e-06
-3.731866747e-05
-3.57347976522e-05
2.02097118946e-06
-3.11201246697e-05
-3.16032188265e-05
-3.89985866272e-06
-2.01020390444e-05
-2.8229183764e-05
-9.25418564038e-06
-7.07585113592e-06
-2.59573845751e-05
-1.16071738702e-05
-2.44676376879e-05
-5.83625848535e-06
5.97732305437e-06
-2.22499904747e-05
-7.78303528204e-06
1.82902321176e-05
-2.37345038665e-05
-1.40694367436e-05
2.91550060004e-05
-2.60669059822e-05
-1.25604793151e-05
3.56935429023e-05
-2.96168000835e-05
-8.06997957279e-06
3.732182114e-05
-3.39602477742e-05
-2.95599489705e-06
3.4700247861e-05
-3.82954947523e-05
1.54847879512e-06
2.89201523438e-05
-4.1986910198e-05
4.88015717537e-06
2.10658599715e-05
-4.50501302059e-05
7.06201746858e-06
1.20607084896e-05
-4.7300174749e-05
8.24849812625e-06
2.53971608617e-06
-4.85260014592e-05
8.74593440458e-06
-7.09955144153e-06
-4.86307037035e-05
8.83819040024e-06
-1.64275815878e-05
-4.75838492906e-05
8.50420549687e-06
-2.47229679275e-05
-4.54335774005e-05
7.41999971967e-06
-3.09731940819e-05
-4.23798839615e-05
5.27954853256e-06
-3.40847079957e-05
-3.8677033827e-05
1.99879452494e-06
-3.30240318571e-05
-3.44020804295e-05
-2.39340580887e-06
-2.71447865331e-05
-3.00863021991e-05
-7.39617804582e-06
-1.69899360867e-05
-2.6559279621e-05
-1.18247759663e-05
-5.37251793078e-06
-2.42327542667e-05
-1.33420755116e-05
-2.26981258167e-05
-7.14204997249e-06
4.54784898622e-06
-1.75930666102e-05
-9.20476136117e-06
1.53041405864e-05
-1.87262110199e-05
-1.57645727901e-05
2.51824250154e-05
-2.06861810281e-05
-1.52589987786e-05
3.13494293377e-05
-2.38292307764e-05
-1.19545652338e-05
3.31818315649e-05
-2.77988810274e-05
-7.99376390557e-06
3.11447280964e-05
-3.18284836247e-05
-4.42990659281e-06
2.61514079246e-05
-3.52177925405e-05
-1.77580045354e-06
1.91771322574e-05
-3.80202714286e-05
-5.55895806766e-08
1.10748076403e-05
-4.0065160243e-05
8.67300963007e-07
2.46834103288e-06
-4.11608449981e-05
1.24129922832e-06
-6.23387838695e-06
-4.12399295886e-05
1.3114335207e-06
-1.46050600241e-05
-4.02820718938e-05
1.06939240566e-06
-2.19693459308e-05
-3.83214736275e-05
2.52170745029e-07
-2.74115078039e-05
-3.55399195436e-05
-1.39781360451e-06
-2.99520859355e-05
-3.21606754775e-05
-3.97579182459e-06
-2.87052634304e-05
-2.82086198166e-05
-7.44029678407e-06
-2.32037374836e-05
-2.42688430568e-05
-1.13190024554e-05
-1.40289775073e-05
-2.11491626013e-05
-1.45848994024e-05
-3.95553293254e-06
-1.91887426891e-05
-1.51174839985e-05
-1.80002318125e-05
-8.65344769927e-06
3.84493181997e-06
-1.10877256576e-05
-1.03502641343e-05
1.31628719894e-05
-1.1209146727e-05
-1.68349956186e-05
2.20241101238e-05
-1.22635097982e-05
-1.72839009275e-05
2.77861123833e-05
-1.43929146038e-05
-1.5198311091e-05
2.9786191763e-05
-1.73744546977e-05
-1.24245002493e-05
2.83108428257e-05
-2.05459138195e-05
-9.80721787618e-06
2.40424079958e-05
-2.31500420277e-05
-7.79931542578e-06
1.78143960589e-05
-2.53627585978e-05
-6.42950336007e-06
1.0393846876e-05
-2.69897822907e-05
-5.6548337848e-06
2.41805868885e-06
-2.78574811514e-05
-5.32758293437e-06
-5.64025333761e-06
-2.79118050878e-05
-5.26982158178e-06
-1.32976467286e-05
-2.71397994325e-05
-5.48488947251e-06
-1.98857729818e-05
-2.55750801189e-05
-6.15827850158e-06
-2.45927359887e-05
-2.33833030354e-05
-7.44966550561e-06
-2.65852748628e-05
-2.07864538134e-05
-9.38169606331e-06
-2.51818100257e-05
-1.77037537641e-05
-1.19083465206e-05
-2.00882646858e-05
-1.47420972096e-05
-1.46203104556e-05
-1.19221067016e-05
-1.26304032097e-05
-1.668494143e-05
-3.27207154212e-06
-1.15657617016e-05
-1.62730454831e-05
-1.13893961412e-05
-9.882929552e-06
3.89683607052e-06
-4.45319298839e-06
-1.05313623549e-05
1.20780519739e-05
-3.48221933279e-06
-1.59081367369e-05
2.0032370051e-05
-3.4108069412e-06
-1.68070144086e-05
2.54280841882e-05
-4.10914023423e-06
-1.56794823911e-05
2.74937317229e-05
-5.5238257006e-06
-1.39162714122e-05
2.63812396362e-05
-7.28663615929e-06
-1.21467820148e-05
2.2633613808e-05
-8.65830440382e-06
-1.07441102565e-05
1.69272016958e-05
-9.96754387811e-06
-9.68880344584e-06
9.95228437492e-06
-1.09595447705e-05
-9.05532367772e-06
2.37617060788e-06
-1.14925594692e-05
-8.78881413348e-06
-5.27361227416e-06
-1.15242997725e-05
-8.73773123723e-06
-1.24656026024e-05
-1.10476442544e-05
-8.90017582824e-06
-1.85158932513e-05
-1.00949027666e-05
-9.42989936967e-06
-2.26934460754e-05
-8.80208759506e-06
-1.04036767162e-05
-2.43299065041e-05
-7.40339364788e-06
-1.17466155421e-05
-2.28646500331e-05
-5.73278296539e-06
-1.3436245635e-05
-1.81373473516e-05
-4.30365884752e-06
-1.51657630656e-05
-1.08650887473e-05
-3.61493312759e-06
-1.62877554317e-05
-3.33392357606e-06
-3.67459205319e-06
-1.54223675409e-05
-4.60230330874e-06
-1.01210400861e-05
4.83202194605e-06
-9.28521152157e-06
1.18987522574e-05
-1.05489461677e-05
1.88188904986e-05
-1.03309417123e-05
2.38467639129e-05
-9.13701037989e-06
2.59847967692e-05
-7.66185585931e-06
2.50096047799e-05
-6.31144244886e-06
2.17354480477e-05
-5.3841472955e-06
1.64038681078e-05
-4.63596525146e-06
9.68601656001e-06
-4.24169648044e-06
2.31306234079e-06
-4.11961053496e-06
-5.12934596785e-06
-4.08189863208e-06
-1.2054725625e-05
-4.12227330968e-06
-1.77292554818e-05
-4.42038279739e-06
-2.14495250837e-05
-5.0818288881e-06
-2.28721762108e-05
-5.9807546582e-06
-2.13764084636e-05
-7.22856473011e-06
-1.69824013801e-05
-8.69768254348e-06
-1.07127722497e-05
-9.88458255005e-06
-4.27536578994e-06
-1.01120216705e-05
-8.87768119556e-06
8.20380544178e-06
7.84064560865e-06
-2.53453023434e-05
1.62559284903e-05
9.64412102982e-06
-2.82479402592e-05
2.25876837098e-05
1.14285891865e-05
-2.81077761182e-05
2.65272020118e-05
1.35136315951e-05
-2.66250556576e-05
2.76789965824e-05
1.5762224507e-05
-2.46309218635e-05
2.61385418706e-05
1.78022499699e-05
-2.26407179965e-05
2.22932580237e-05
1.93906718783e-05
-2.10005366044e-05
1.66384216255e-05
2.06734531584e-05
-1.97273977246e-05
9.78279818883e-06
2.15908869268e-05
-1.90530145219e-05
2.35109300411e-06
2.20807041463e-05
-1.88468782681e-05
-5.15247501785e-06
2.21178753861e-05
-1.87782967652e-05
-1.222028945e-05
2.16908300327e-05
-1.88330373445e-05
-1.82142936937e-05
2.08127741737e-05
-1.93326678993e-05
-2.24882470615e-05
1.9541378035e-05
-2.04454177273e-05
-2.45352738381e-05
1.795122859e-05
-2.1976668126e-05
-2.39782452697e-05
1.5973250425e-05
-2.38379880784e-05
-2.06986688224e-05
1.374890601e-05
-2.57815851187e-05
-1.50453029065e-05
1.1685668575e-05
-2.72599284714e-05
-7.6522921714e-06
9.89456166817e-06
-2.74270674906e-05
8.01841050297e-06
-2.45879240771e-05
1.00925460236e-05
1.54787293764e-05
-2.82724020158e-05
1.78292535187e-05
1.69488002814e-05
-3.0965866258e-05
2.318792101e-05
1.91740729042e-05
-2.99444324517e-05
2.62382959903e-05
2.2094272969e-05
-2.73633461625e-05
2.68793895327e-05
2.53471889146e-05
-2.42170706934e-05
2.5158976533e-05
2.84386588121e-05
-2.11492298282e-05
2.13194710799e-05
3.10220709588e-05
-1.86237972161e-05
1.58919064546e-05
3.30904168582e-05
-1.67638406902e-05
9.41053384854e-06
3.45717207336e-05
-1.56411210227e-05
2.3849716676e-06
3.5377573261e-05
-1.51486228733e-05
-4.71783156487e-06
3.54548550618e-05
-1.50645100155e-05
-1.14218232311e-05
3.47832163298e-05
-1.53860184993e-05
-1.71879370949e-05
3.33859755642e-05
-1.63404479358e-05
-2.14502557606e-05
3.13440762976e-05
-1.80508625781e-05
-2.36805731287e-05
2.87715295658e-05
-2.04412902882e-05
-2.3587542866e-05
2.57240813336e-05
-2.33738497864e-05
-2.11504493592e-05
2.25067703831e-05
-2.6432079969e-05
-1.64437045885e-05
1.96142023785e-05
-2.8973605396e-05
-9.39954857572e-06
1.7388048196e-05
-2.99881125879e-05
1.58472480038e-05
-2.73565976958e-05
1.19085921031e-05
2.14045746341e-05
-2.82085418707e-05
2.00915788492e-05
2.19225320226e-05
-3.0017648281e-05
2.53164648391e-05
2.40268732789e-05
-2.74037728942e-05
2.79945893982e-05
2.70533500662e-05
-2.28909204612e-05
2.8180794614e-05
3.04582614387e-05
-1.77870336069e-05
2.60154418017e-05
3.37313667528e-05
-1.30033340251e-05
2.18257753469e-05
3.65384007119e-05
-9.19368022336e-06
1.61616281353e-05
3.87843153913e-05
-6.52295488215e-06
9.5403143087e-06
4.0412955594e-05
-4.93548395785e-06
2.41267320611e-06
4.13231556353e-05
-4.20516718867e-06
-4.80358211188e-06
4.14336591093e-05
-4.09357112272e-06
-1.16726915007e-05
4.07148175312e-05
-4.61262020198e-06
-1.76951812373e-05
3.92025149237e-05
-6.02392030059e-06
-2.23115230075e-05
3.69911232759e-05
-8.55654799569e-06
-2.49649441768e-05
3.4190970244e-05
-1.22262445368e-05
-2.53057611382e-05
3.09367826317e-05
-1.6858161962e-05
-2.32095981107e-05
2.75576558666e-05
-2.18371851087e-05
-1.86219579039e-05
2.45606726989e-05
-2.62771592339e-05
-1.11440029897e-05
2.24708615413e-05
-2.88743868606e-05
2.19089300565e-05
-2.71106570114e-05
1.4004202924e-05
2.49850773894e-05
-2.68207769919e-05
2.30244162156e-05
2.46416117358e-05
-2.75362675175e-05
2.8347656729e-05
2.63917542824e-05
-2.29878511267e-05
3.06961609644e-05
2.91012727052e-05
-1.63954331699e-05
3.03178609214e-05
3.21692620735e-05
-9.37349688576e-06
2.75309497214e-05
3.51476258996e-05
-3.10694284781e-06
2.28115006129e-05
3.77768506219e-05
1.65823296693e-06
1.6759298585e-05
3.9922034896e-05
4.8160044207e-06
9.84252766901e-06
4.14946226841e-05
6.66508547139e-06
2.45212654783e-06
4.23952112857e-05
7.52693195295e-06
-5.04449553442e-06
4.25372514636e-05
7.67260478262e-06
-1.22503449278e-05
4.18818654996e-05
7.07233233072e-06
-1.8699175655e-05
4.04533816409e-05
5.40855066332e-06
-2.38528267784e-05
3.83423048567e-05
2.36019229481e-06
-2.71129027494e-05
3.56892287449e-05
-2.25907287895e-06
-2.79919386079e-05
3.27015761001e-05
-8.3739597245e-06
-2.61996604855e-05
2.96342605337e-05
-1.52388194114e-05
-2.15013557025e-05
2.69513504221e-05
-2.17271791118e-05
-1.31967960649e-05
2.5221516894e-05
-2.6221778918e-05
2.55431304248e-05
-2.5521856301e-05
1.62557051635e-05
2.58512947553e-05
-2.49446472802e-05
2.6277317852e-05
2.50182719876e-05
-2.45050451488e-05
3.17493372064e-05
2.63207175827e-05
-1.7995251397e-05
3.375340684e-05
2.84716942743e-05
-9.47307893224e-06
3.28018616078e-05
3.09695096221e-05
-8.31703811903e-07
2.94728875747e-05
3.3567293528e-05
6.4309549512e-06
2.4261609682e-05
3.59281928734e-05
1.19119042663e-05
1.77426581133e-05
3.78977615674e-05
1.55824685947e-05
1.0373405479e-05
3.93851652586e-05
1.77141878073e-05
2.51736039031e-06
4.02670376343e-05
1.87265213217e-05
-5.47058039563e-06
4.04383036495e-05
1.89249999947e-05
-1.31941325098e-05
3.98538748629e-05
1.82517472278e-05
-2.0177826422e-05
3.85410636738e-05
1.63052110979e-05
-2.58605964598e-05
3.65995463181e-05
1.26932687415e-05
-2.96382450423e-05
3.41829562083e-05
7.27253264881e-06
-3.10621043372e-05
3.15233782103e-05
1.9459645899e-07
-2.95800502997e-05
2.89997889187e-05
-8.26878222493e-06
-2.47216169349e-05
2.68602541791e-05
-1.6633232146e-05
-1.54207616307e-05
2.55727356462e-05
-2.30471309014e-05
2.63873494761e-05
-2.34589792482e-05
1.82794334989e-05
2.41001355621e-05
-2.30868654483e-05
2.93573882013e-05
2.30814429466e-05
-2.15535727278e-05
3.50103042532e-05
2.39384518032e-05
-1.33093238988e-05
3.67128698691e-05
2.5457786152e-05
-3.2709291467e-06
3.53795654604e-05
2.73969711625e-05
6.38979117088e-06
3.15922734596e-05
2.95177885089e-05
1.45499334967e-05
2.59137267578e-05
3.15141045715e-05
2.06262841692e-05
1.89205487158e-05
3.32301074006e-05
2.46992492017e-05
1.1037000138e-05
3.45721267891e-05
2.71141330015e-05
2.61614354162e-06
3.53956172927e-05
2.83056887915e-05
-5.969065017e-06
3.55852535211e-05
2.85866721758e-05
-1.42932387132e-05
3.50950116787e-05
2.78641641521e-05
-2.18538310803e-05
3.39511616599e-05
2.565964382e-05
-2.80663783438e-05
3.22672004075e-05
2.15386270351e-05
-3.23051264645e-05
3.01990252368e-05
1.53887036617e-05
-3.40611884219e-05
2.79837169434e-05
7.33411083287e-06
-3.28459342811e-05
2.59653692578e-05
-2.08065042854e-06
-2.77878295035e-05
2.44269898886e-05
-1.19045508715e-05
-1.74255820649e-05
2.35666234222e-05
-2.00115247344e-05
2.45657078332e-05
-2.14890306725e-05
1.9870270004e-05
2.01008239287e-05
-2.15378125227e-05
3.19281011857e-05
1.90849918061e-05
-1.91165555133e-05
3.77902193751e-05
1.95757585842e-05
-9.56918569645e-06
3.93011783166e-05
2.05345463112e-05
1.4539911072e-06
3.7703392649e-05
2.19524074659e-05
1.18386814905e-05
3.35779245264e-05
2.35657497332e-05
2.06039929797e-05
2.75192516445e-05
2.51285200972e-05
2.71380420915e-05
2.01065057619e-05
2.65069987677e-05
3.16109750994e-05
1.17393066917e-05
2.76381849424e-05
3.4355489337e-05
2.74997655369e-06
2.84004682545e-05
3.57740453069e-05
-6.44011608005e-06
2.8589293344e-05
3.61622148921e-05
-1.53433724157e-05
2.81521178713e-05
3.5393991688e-05
-2.34458371353e-05
2.72124501965e-05
3.29360592366e-05
-3.01317318878e-05
2.58695926368e-05
2.83407808985e-05
-3.47419255996e-05
2.42400309714e-05
2.15797462318e-05
-3.67414812611e-05
2.25260869717e-05
1.28026845098e-05
-3.5667558576e-05
2.10173549525e-05
2.58924625739e-06
-3.0377756994e-05
1.99952423463e-05
-8.16387954342e-06
-1.90216110207e-05
1.94805995849e-05
-1.75525944097e-05
2.0470843637e-05
-1.99047659384e-05
2.1137667268e-05
1.43524461726e-05
-2.03552494516e-05
3.39556417939e-05
1.35603478096e-05
-1.73402511079e-05
3.99697820232e-05
1.37958895741e-05
-6.97610003076e-06
4.13662514358e-05
1.43385851408e-05
4.51471848307e-06
3.95913540367e-05