/*--------------------------------*- C++ -*----------------------------------*\
| =========                 |                                                 |
| \\      /  F ield         | OpenFOAM: The Open Source CFD Toolbox           |
|  \\    /   O peration     | Version:  3.0.1                                 |
|   \\  /    A nd           | Web:      www.OpenFOAM.org                      |
|    \\/     M anipulation  |                                                 |
\*---------------------------------------------------------------------------*/
FoamFile
{
    version     2.0;
    format      ascii;
    class       volVectorField;
    location    "9.4";
    object      ddt0(U);
}
// * * * * * * * * * * * * * * * * * * * * * * * * * * * * * * * * * * * * * //

dimensions      [0 1 -2 0 0 0 0];

internalField   nonuniform List<vector> 
7968
(
(9.73991244581e-05 7.92768032223e-05 -0.000108848748969)
(0.000298906645089 0.000121497610237 -0.000130345277765)
(0.000432410141141 0.000133191849588 -0.000123113478677)
(0.00050086895157 0.000119127566406 -9.2101977279e-05)
(0.000542434743275 9.08282238672e-05 -4.2639930841e-05)
(0.000514227828134 5.5373666458e-05 1.27061302456e-05)
(0.000496708712806 2.53936913783e-05 3.91663371281e-05)
(0.000474219119243 -2.71794518216e-06 7.06974619148e-05)
(0.000425968198556 -1.47611125294e-05 9.92954832968e-05)
(0.000352026400557 -1.62038925934e-05 0.000114524817589)
(0.000264365281803 -1.22509005631e-05 0.000118551095336)
(0.000165886093725 -3.37280431209e-06 0.000111456194003)
(6.54683987491e-05 1.40086270073e-05 9.06273875523e-05)
(-2.70258786424e-05 4.17368100342e-05 6.22174300496e-05)
(-0.000114421261089 5.59545915416e-05 1.83181944702e-05)
(-0.00019986736874 0.00012084900787 4.11185812617e-06)
(-0.000264157625488 0.000130500708437 -6.57421739653e-05)
(-0.000264007331025 0.000144829509647 -9.70070767777e-05)
(-0.000206546815416 0.000132812215311 -0.000106731316202)
(-6.85656862111e-05 8.65320002931e-05 -8.79396971374e-05)
(0.000143333313815 0.000239783205042 -0.000126683003066)
(0.000372246212991 0.000305877944623 -0.00015699360996)
(0.000461543560919 0.00031296912504 -0.00012146164882)
(0.00049736291638 0.000259244170672 -6.6481306669e-05)
(0.000503382380045 0.000162092391246 1.24270931609e-05)
(0.000460048870048 4.40490795665e-05 9.28775003257e-05)
(0.000444542630158 -8.02207136461e-05 0.000149578733316)
(0.000428895734519 -0.000180730028867 0.0002119687179)
(0.00039711749418 -0.000240257522509 0.000265910921289)
(0.00034742798497 -0.000261454512765 0.000296398377685)
(0.000285679181242 -0.000256235658401 0.000303570673397)
(0.000211824332689 -0.000226191858467 0.000287563459129)
(0.000130739136904 -0.00016124487367 0.000246382704886)
(4.5501836924e-05 -5.87566963076e-05 0.000188972372807)
(-4.2022499259e-05 5.88238816828e-05 0.000127532724289)
(-0.000156697127373 0.000192472425675 6.44357746294e-05)
(-0.000239533341165 0.000286320345934 -2.32962836805e-05)
(-0.000281382710255 0.00033972119255 -8.31477313677e-05)
(-0.000270525266621 0.000332656532837 -0.000125757439102)
(-0.000110808799631 0.000260922086072 -0.000107027327938)
(0.000156160131472 0.00032530646832 -0.00011796439037)
(0.000381648372107 0.000344918612259 -0.00011889934558)
(0.000427165229905 0.000307346846072 -3.54157124467e-05)
(0.000415409307869 0.000186250615259 3.29036527552e-05)
(0.000386717490389 8.85299561087e-06 0.00010488001319)
(0.000341501952667 -0.000199138801666 0.000167561272556)
(0.000338601606887 -0.000408855142816 0.000208420832288)
(0.000347678185584 -0.000574264031928 0.000254433438998)
(0.000348071620274 -0.000675943288357 0.000299025012561)
(0.000335882416776 -0.000718244231301 0.000325200982068)
(0.000310905608433 -0.0007084288218 0.000331753277566)
(0.00027287717188 -0.000648425021048 0.000318299089555)
(0.000220868476914 -0.000534442220936 0.000285269594226)
(0.000156853177629 -0.000364463371031 0.000244165282531)
(8.02624367596e-05 -0.000156972666796 0.000203461285709)
(-4.04033615716e-05 6.31699689018e-05 0.000152028370817)
(-0.000154541613902 0.000232510469156 7.80086022193e-05)
(-0.000242754291086 0.000350094579245 5.6962658418e-06)
(-0.000275989190412 0.000385675102401 -8.44356166374e-05)
(-0.000121912879746 0.000358673418402 -9.76930862679e-05)
(0.000143518005376 0.000348731559526 -8.83223289946e-05)
(0.000329701217745 0.000332085798214 -6.21983104042e-05)
(0.000308648706577 0.000248022038669 3.43530872893e-05)
(0.000233985548723 6.46881270695e-05 8.56645891266e-05)
(0.000166665761456 -0.000186570547423 0.000136330702875)
(0.000118092210806 -0.000458981440062 0.00014632354548)
(0.000141487413877 -0.00072156531167 0.000143260793746)
(0.000195577970229 -0.000923994348713 0.000162059008325)
(0.000256541159757 -0.00104976652972 0.000188321132908)
(0.000310284043821 -0.0011006971126 0.000204830428168)
(0.000351818821145 -0.00108650731243 0.000210437898779)
(0.000379003812783 -0.00100985743228 0.000205895411619)
(0.000385501207513 -0.0008659833666 0.000192392792206)
(0.000360872191985 -0.000654871579003 0.000179383418862)
(0.000304572863316 -0.000394062689334 0.000183589319784)
(0.000176709096713 -0.00011278436395 0.000180531610452)
(2.49727752943e-05 0.000126990976841 0.000129143593349)
(-0.000123409266226 0.000303162138069 7.62340173804e-05)
(-0.000222386758483 0.000384234453351 -2.7327270424e-05)
(-0.000107018073579 0.000393209043174 -6.83233446207e-05)
(0.000124836058486 0.000335578780826 -3.24314755377e-05)
(0.000236164773084 0.000287713541788 1.93680746481e-05)
(0.000135418913995 0.00017060824929 0.000106672093102)
(-1.51169649195e-05 -5.15281917343e-05 0.000135613176961)
(-0.000117267010489 -0.000339501612309 0.000120037125927)
(-0.000161128527069 -0.000655939170366 8.4288587413e-05)
(-0.000104018247808 -0.000949157344328 3.94714575255e-05)
(8.80418142095e-06 -0.00117177206904 2.13795879938e-05)
(0.000145374839763 -0.00130639376116 1.92004176764e-05)
(0.00028077872602 -0.00135898070898 2.18737149947e-05)
(0.000404760003082 -0.00133970395321 2.86776024654e-05)
(0.0005109948986 -0.00125244762873 4.09592369867e-05)
(0.00058767820487 -0.0010924045221 5.84644276939e-05)
(0.000614921213071 -0.000859339888194 8.52584925916e-05)
(0.000582750267966 -0.000569251581172 0.000128592267539)
(0.000454124883546 -0.000248608776062 0.00017074082515)
(0.000264888630155 2.39247775115e-05 0.000181768088109)
(4.61499063062e-05 0.000235077294097 0.000149938375861)
(-0.000129941180519 0.000348030076565 5.6101139306e-05)
(-8.74539234046e-05 0.000387167176993 -8.70110997644e-06)
(7.95626731762e-05 0.000269356146408 6.08689129153e-06)
(0.000111798830297 0.000204046435643 9.15418619361e-05)
(-7.9176602203e-05 8.3237259257e-05 0.00016419992267)
(-0.000296515182143 -0.000142919041233 0.000140517218489)
(-0.000440010940385 -0.000428476483576 7.75783105259e-05)
(-0.000471645556181 -0.00073547008621 -3.06918045396e-05)
(-0.000368847187361 -0.00100756008911 -0.000118722961559)
(-0.000185100428503 -0.00121144578614 -0.000165944961745)
(3.36294759716e-05 -0.00133098478527 -0.000182239889584)
(0.000252019933177 -0.00137409973139 -0.000182485896289)
(0.000458138410664 -0.00135177531902 -0.000173666564352)
(0.00064567128547 -0.00126955720983 -0.0001534759957)
(0.000798508840285 -0.0011200658947 -0.000116060437758)
(0.000884751052166 -0.00090342997867 -5.68060889517e-05)
(0.000884892698885 -0.000634705920531 2.79685500246e-05)
(0.000768552123463 -0.000331276148471 0.000137253912683)
(0.000534788742765 -6.24743673291e-05 0.000192072532527)
(0.00025536789184 0.00015258443981 0.000206641960863)
(-6.94427327883e-06 0.000266657279654 0.000127682558257)
(-3.94938006118e-05 0.000323169324655 2.76894866248e-05)
(5.72839364857e-05 0.00021747918965 3.88613087887e-05)
(-8.94170220464e-06 0.000152975085486 0.000150646351087)
(-0.00028936389213 4.2491386204e-05 0.000206226910031)
(-0.000563920434834 -0.000159817654347 0.000136241592057)
(-0.000737757657216 -0.000417138676311 3.01937254628e-05)
(-0.000746550183864 -0.000686674320924 -0.000122166581359)
(-0.000599976926182 -0.00092286479943 -0.000240755143208)
(-0.000351663187489 -0.00110089659624 -0.00031051080887)
(-5.98846477422e-05 -0.00120301019625 -0.000337694162883)
(0.000232143238873 -0.00123388656051 -0.000340438953356)
(0.000508115209298 -0.00121087055773 -0.000328258233599)
(0.000766515847637 -0.00113766236175 -0.000300804492938)
(0.000985954624837 -0.00100495223146 -0.000245612750465)
(0.00112157089892 -0.000813922791713 -0.000160841186363)
(0.00115085348954 -0.000581815734689 -4.82729599767e-05)
(0.00105202192123 -0.000318216828435 0.000100854168769)
(0.000786357045189 -7.91943358174e-05 0.000191702845498)
(0.000457401303753 0.000112250200691 0.00024660652232)
(0.000110165938266 0.000213791413004 0.000187136222867)
(-1.84706096875e-05 0.000270082598884 6.20890487016e-05)
(2.95529045644e-05 0.00015977168876 6.81329200156e-05)
(-0.000109504756446 0.000102426854359 0.000210648970304)
(-0.000458171327383 1.44117411858e-05 0.000250970437043)
(-0.000774538803608 -0.000143537033219 0.000151452917051)
(-0.000972401441329 -0.000345963310924 5.76567718707e-06)
(-0.000962569481103 -0.000551614420897 -0.000181000901499)
(-0.000783228291023 -0.000731097733142 -0.000326776272895)
(-0.000481329508974 -0.000864695835133 -0.000421413908859)
(-0.000126129301362 -0.000938800475805 -0.000458516952553)
(0.00021735299563 -0.000979195541502 -0.000408367628319)
(0.000551094465534 -0.000952084031578 -0.000411260614954)
(0.000864752058355 -0.000886336662659 -0.000402707062102)
(0.00113528518114 -0.00077878198358 -0.000337576296594)
(0.00130958226409 -0.00063395449176 -0.000226554599156)
(0.00135751813362 -0.000457930616252 -9.12957681561e-05)
(0.0012724888116 -0.000257965526305 8.64532088951e-05)
(0.000984284874527 -7.34312350717e-05 0.000212491322509)
(0.000617530742363 7.82462622598e-05 0.000290877273657)
(0.000207187598678 0.000156626429966 0.000248164130755)
(6.80305376505e-06 0.000207156689263 9.14839586573e-05)
(1.43612512527e-05 8.77030716016e-05 9.22680156398e-05)
(-0.000171590569762 4.82809293537e-05 0.000257003204063)
(-0.000568763938055 -8.42009121403e-06 0.000289564885567)
(-0.000914028144707 -0.000106996701152 0.000172735387009)
(-0.00112565314022 -0.000233895071764 -6.09072647358e-06)
(-0.00110277112118 -0.000360245187885 -0.000213151655092)
(-0.000901331594717 -0.000471514622406 -0.000376440334792)
(-0.000561684643866 -0.000544679874133 -0.000483951294529)
(-0.000181055590247 -0.000597452885961 -0.000467412713892)
(0.000202451349235 -0.000617525573483 -0.000482831929954)
(0.000575697353208 -0.000603045917935 -0.000477741962631)
(0.000932402427706 -0.000563196647357 -0.000447861825765)
(0.00123011191406 -0.000487049822222 -0.000392501230274)
(0.00142898411118 -0.000400491473432 -0.000259517573925)
(0.00148920672937 -0.000293688308656 -0.000110993198574)
(0.00141471137075 -0.000170960372909 8.27620936957e-05)
(0.00111118644165 -5.5163850074e-05 0.000234769782775)
(0.00072152004257 4.09093739082e-05 0.000329590848559)
(0.000265568942146 9.01489930011e-05 0.000296282319948)
(1.88370384954e-05 0.000124656358893 0.000115480170477)
(8.7378754069e-06 7.55639834386e-06 0.000102758791238)
(-0.000197447413163 -6.60029736663e-06 0.000278826055195)
(-0.000621157016751 -2.58734413247e-05 0.000308056519088)
(-0.000980149784935 -5.89341383921e-05 0.000183232787803)
(-0.00119989637683 -0.000102668777184 -1.19293872722e-05)
(-0.0011713502786 -0.000145482188899 -0.000226286438216)
(-0.000953152034458 -0.000183422121023 -0.000399280846402)
(-0.000636038915569 -0.000211306785413 -0.000419841486436)
(-0.000220786232019 -0.000222913070554 -0.000492225239721)
(0.000187774165213 -0.000231670524225 -0.000516633422893)
(0.000583900617753 -0.000226981894977 -0.000506867912549)
(0.000960757695848 -0.000213547071492 -0.00047093220492)
(0.0012759195071 -0.000184815694048 -0.00040237532829)
(0.0014853073125 -0.000152784481371 -0.000270969774112)
(0.00155088172507 -0.000116890713696 -0.000118505282897)
(0.00148281358794 -7.46168626078e-05 8.08385878787e-05)
(0.00117111174972 -3.41628783468e-05 0.000246922305958)
(0.000766575885956 -1.08903504884e-06 0.000350640178773)
(0.000289272341388 1.66627669852e-05 0.000319185393697)
(2.23462581882e-05 2.92510802795e-05 0.000126105033902)
(8.70988704651e-06 -7.21781924623e-05 0.000102425642424)
(-0.0001972428242 -5.92748379584e-05 0.000278489483112)
(-0.000621329478838 -4.03241448916e-05 0.000308049043696)
(-0.000980664447675 -7.50574529358e-06 0.000183292708412)
(-0.00120076221004 3.45845258127e-05 -1.20280981543e-05)
(-0.00117234729018 7.62144979033e-05 -0.000226696010431)
(-0.000954311857788 0.000112881510566 -0.000399953254148)
(-0.000636649848534 0.000138993382582 -0.000422078226815)
(-0.000221601412995 0.000151095266549 -0.000492811809663)
(0.000188096722456 0.000160880301145 -0.000517869986973)
(0.000585446935902 0.000158171324263 -0.000508261049907)
(0.000963451557864 0.000147974757644 -0.000472010603631)
(0.00127930963979 0.000122400110999 -0.000402508632831)
(0.00148809815617 9.34916505861e-05 -0.000272232867872)
(0.0015536342879 6.19332016342e-05 -0.000119462126256)
(0.00148516810597 2.33637986341e-05 8.01007500344e-05)
(0.00117298274642 -1.28012292187e-05 0.000246484749638)
(0.00076784168074 -4.2709239891e-05 0.000350167933852)
(0.000289832034422 -5.84369718416e-05 0.000318604654575)
(2.27098951886e-05 -6.89223272449e-05 0.000125671152644)
(1.41221430912e-05 -0.000148388505299 9.15323107023e-05)
(-0.00017142887983 -0.000110133986653 0.000256055050371)
(-0.000569423246874 -5.38567676078e-05 0.000289043729879)
(-0.000915534113569 4.4302031364e-05 0.000172836301905)
(-0.00112850078718 0.000169659746311 -6.55768298933e-06)
(-0.00110613248958 0.000294624961237 -0.000214537021811)
(-0.000905016597218 0.000404327418455 -0.000378602299502)
(-0.000565084404196 0.00047579331453 -0.000487535100233)
(-0.000183182345774 0.000528925940731 -0.000469514115071)
(0.000203658881546 0.000550388461116 -0.000486527808782)
(0.000580264585168 0.000537994275707 -0.000481825294622)
(0.000940176886154 0.0005009934162 -0.000450599596099)
(0.00124068057097 0.000428579500349 -0.000391790694969)
(0.00143728263973 0.000344680625866 -0.000263233475255)
(0.00149715608891 0.000241583087822 -0.00011396663084)
(0.00142185423658 0.000122206895644 8.04679286166e-05)
(0.0011169824847 1.06200648258e-05 0.000233389753135)
(0.00072515328737 -8.20137851291e-05 0.000328627480499)
(0.000267464724177 -0.000129825430971 0.0002949134446)
(1.98478744755e-05 -0.000162698344327 0.000114584783954)
(2.91402383652e-05 -0.000214093605924 6.73654202214e-05)
(-0.000109849622564 -0.000157395338871 0.000209662451338)
(-0.000459444233263 -6.94739778532e-05 0.000250465970507)
(-0.000777221318734 8.75280212635e-05 0.000151427310733)
(-0.000977218582808 0.000288797752543 4.92847509461e-06)
(-0.000968336040906 0.000493409819138 -0.000183467477787)
(-0.000789541312738 0.000671551770771 -0.000330935833193)
(-0.000487035167036 0.000804070801043 -0.000428269076596)
(-0.000129059224837 0.000878262116209 -0.000467741608344)
(0.000218682491727 0.00092331901743 -0.000410893868172)
(0.000558700089566 0.000898144838285 -0.000414493650976)
(0.000876222978819 0.000832618836906 -0.000410954275884)
(0.00114828047943 0.000727318403299 -0.0003458063853)
(0.00132269770859 0.000585453178596 -0.00023246456749)
(0.001369802807 0.000411873973881 -9.62317117571e-05)
(0.0012840486519 0.000214460682179 8.26490390736e-05)
(0.000994163194641 3.32448332404e-05 0.000210429119512)
(0.000624376545872 -0.000115538512383 0.000290106343813)
(0.000210449794973 -0.000193128222322 0.00024686194044)
(8.25968801246e-06 -0.000242817178825 9.03189155412e-05)
(5.68798010142e-05 -0.000263349446513 3.81512927074e-05)
(-9.66090328187e-06 -0.000199273514063 0.000150493115658)
(-0.000291719640112 -8.85921555799e-05 0.000206277456046)
(-0.000567923095661 0.00011323580771 0.000136193648165)
(-0.000743980826867 0.000370247067403 2.88581850835e-05)
(-0.000753964653655 0.000639475385792 -0.000125492136811)
(-0.000607724389485 0.000875379499385 -0.000246246566851)
(-0.000358158993361 0.00105397684864 -0.000318968486481)
(-6.27183673403e-05 0.00115765812496 -0.000349297730663)
(0.000235298510212 0.00119006749949 -0.000353617768999)
(0.000517703916143 0.00116871204254 -0.000340921210288)
(0.000780509776707 0.00109705344219 -0.000311451681673)
(0.00100151770598 0.000965204985583 -0.000253660664878)
(0.00113696078647 0.000774823402522 -0.000167380726772)
(0.00116588814357 0.000543987874355 -5.40482131447e-05)
(0.00106675637311 0.000281800930774 9.61750817148e-05)
(0.00079958037303 4.46392975429e-05 0.000189486584932)
(0.000466539534819 -0.000145285175626 0.000246840730225)
(0.000114423911137 -0.000246396439347 0.000186223846299)
(-1.68182350382e-05 -0.00030207867663 6.04345455e-05)
(8.02141792069e-05 -0.000306999686955 6.08186901426e-06)
(0.000110998641437 -0.000241760334764 9.22330627254e-05)
(-8.20739979441e-05 -0.000120048991588 0.000164860760301)
(-0.000301040928468 0.000106605611796 0.000140480798013)
(-0.000446795066278 0.000393250541744 7.61834043992e-05)
(-0.000479595579103 0.00070030768909 -3.40148922724e-05)
(-0.000376347005639 0.00097298425437 -0.00012369680301)
(-0.000190546029032 0.00117830837493 -0.000172863746818)
(3.22039918242e-05 0.00129985565278 -0.00019093854502)
(0.00025629577481 0.00134470618731 -0.000192131465182)
(0.0004682782667 0.00132310081836 -0.000182897573837)
(0.000659888931059 0.00124058468811 -0.000161527176547)
(0.000814349151237 0.00109055155756 -0.000122970926655)
(0.000900979683991 0.000873788588409 -6.31674155654e-05)
(0.000901327999673 0.000605557916472 2.18109440998e-05)
(0.000784985458346 0.000302686161911 0.000131802292878)
(0.000549690502565 3.43558725791e-05 0.000188467493803)
(0.000266269749084 -0.000180566488014 0.000204979757882)
(-1.54746093152e-06 -0.000294757636503 0.000126057617197)
(-3.88526607402e-05 -0.00035112806105 2.5673131495e-05)
(0.00012523356849 -0.00036448005853 -3.18014440354e-05)
(0.000235441826231 -0.000315977269955 2.09115452855e-05)
(0.000132522210952 -0.000197850896617 0.000108143546077)
(-1.9292045101e-05 2.49009858079e-05 0.000136341235329)
(-0.000124422254212 0.000313700149561 0.000121819383811)
(-0.000170256468949 0.000631215525795 8.17486817452e-05)
(-0.000111816925676 0.000925145500168 3.5273098149e-05)
(3.51120773192e-06 0.00114871652918 1.54997347824e-05)
(0.000144299836986 0.00128446957581 1.16833748111e-05)
(0.00028534355772 0.00133789012322 1.34334614428e-05)
(0.000415021879517 0.00131881876865 2.03517802083e-05)
(0.000525444024766 0.00123128664941 3.32158011905e-05)
(0.000604236058492 0.00107114593964 5.1319909403e-05)
(0.000632436190587 0.000838523445071 7.82603625275e-05)
(0.000600928096814 0.000549314567028 0.000121669871578)
(0.00047242726797 0.000229270721724 0.000165195388753)
(0.00028120456333 -4.34566992467e-05 0.000177764266489)
(5.84748056897e-05 -0.0002550880985 0.000147627010164)
(-0.000123391118347 -0.000368677621116 5.44788137747e-05)
(-8.57859074113e-05 -0.000408720554518 -1.11358063678e-05)
(0.000144586925267 -0.000370047893328 -8.75830101054e-05)
(0.000329916562816 -0.000352020228972 -6.00665798139e-05)
(0.000306438936502 -0.000266550370153 3.69750890052e-05)
(0.000229611924594 -8.23269960767e-05 8.76659727689e-05)
(0.000160626866566 0.000168877614193 0.000137062058546)
(0.000111038754149 0.00044338821995 0.000145750829755)
(0.000135446057914 0.000707013083257 0.000141554650065)
(0.000191747206301 0.000910502210854 0.000159225760221)
(0.000256621094913 0.00103702444884 0.000183897212487)
(0.000315306410266 0.00108850210051 0.00019939567249)
(0.000361766570145 0.0010744143077 0.000204719451811)
(0.000392897765912 0.000997687464695 0.000200250845369)
(0.000401812552144 0.000854138545244 0.000187062552318)
(0.00037836214599 0.000643781222467 0.000174060891243)
(0.000322778556103 0.000383899472398 0.000178210493852)
(0.0001947849242 0.000102581665228 0.00017596126245)
(4.12482314212e-05 -0.000137399144833 0.00012658057949)
(-0.000111617030421 -0.000314873123891 7.45053699425e-05)
(-0.000216437769461 -0.000397455481944 -2.88767118888e-05)
(-0.000106071509739 -0.000408231240158 -7.1293569548e-05)
(0.000157701763428 -0.000339304752495 -0.000116951383794)
(0.000382877963605 -0.000357317842734 -0.000115951042263)
(0.000426051517497 -0.000318131469358 -3.15271985151e-05)
(0.000411911357388 -0.000195886005286 3.6401487237e-05)
(0.000381459594038 -1.78100419145e-05 0.000107438054927)
(0.000335853689573 0.000191433604469 0.000168764571553)
(0.000333887598237 0.000401488332839 0.000208129291439)
(0.000344973703044 0.000567234897514 0.000252519515518)
(0.000348855665302 0.000669173229904 0.000295383283847)
(0.000341281630196 0.000711740900424 0.000320364277831)
(0.000320877530786 0.000702076725895 0.000326495188975)
(0.000286786842485 0.00064233235015 0.00031314135782)
(0.000237377781507 0.000529171411775 0.000280740926278)
(0.00017452373684 0.000360488302896 0.000240267857093)
(9.82488926645e-05 0.00015431096328 0.000200078067887)
(-2.27141389222e-05 -6.58882189411e-05 0.000149762646103)
(-0.000139506958239 -0.000235955286089 7.67631337121e-05)
(-0.000232153063739 -0.000354833418527 5.11069926686e-06)
(-0.000271067230484 -0.000392211975215 -8.55583793082e-05)
(-0.000121395514091 -0.000367203402326 -0.000100812585495)
(0.000145174715544 -0.000247877770027 -0.00012558236192)
(0.000374935316479 -0.000312632990397 -0.000153909211653)
(0.000462098705077 -0.000318240889517 -0.000116736058137)
(0.000495428482778 -0.000263313661313 -6.17033328558e-05)
(0.000499615488057 -0.000165350114428 1.63994971361e-05)
(0.000456144091202 -4.62651495499e-05 9.55381102101e-05)
(0.000441530708907 7.80302099828e-05 0.000151017027685)
(0.000427772075295 0.000178873915418 0.000211839948352)
(0.00039926404135 0.000238810757258 0.000264102209143)
(0.000353488235442 0.000260177228499 0.000293438783566)
(0.000295604038795 0.00025505356682 0.000300181232712)
(0.000225231354109 0.000225242631252 0.000284249824091)
(0.000146658265401 0.000160787389694 0.000244072507049)
(6.23602210182e-05 5.90318160648e-05 0.000187530986253)
(-2.53886060059e-05 -5.75805486167e-05 0.000126461474457)
(-0.000140377781783 -0.000191619583417 6.45419644563e-05)
(-0.000226363209655 -0.00028624095188 -2.2579913694e-05)
(-0.000272638679444 -0.000340786116874 -8.24435841571e-05)
(-0.000267088772059 -0.000335242678524 -0.000126236253323)
(-0.000110502754487 -0.000265267692367 -0.000109068555437)
(9.88965788666e-05 -8.20347517991e-05 -0.000107209687626)
(0.000301828837728 -0.000124186257612 -0.000127698783554)
(0.000433741454856 -0.000135350637036 -0.00011946321558)
(0.000500166958046 -0.000120630109867 -8.81511965832e-05)
(0.000539892963721 -9.19150471085e-05 -3.88770120281e-05)
(0.00051192885506 -5.57723320358e-05 1.52668964213e-05)
(0.000495175340147 -2.58863383724e-05 4.11577723128e-05)
(0.000474474105281 2.4223612342e-06 7.16137022125e-05)
(0.000429212790687 1.48181521424e-05 9.93212973668e-05)
(0.000358567171639 1.64958827332e-05 0.000113857299595)
(0.000274105315554 1.26176782425e-05 0.000117439455829)
(0.000178534162552 3.74602458469e-06 0.000110332028418)
(8.03135345273e-05 -1.36218026767e-05 9.00110219429e-05)
(-1.14136706534e-05 -4.10416704256e-05 6.21547875972e-05)
(-9.9496274855e-05 -5.48361047999e-05 1.79859910994e-05)
(-0.000184498570777 -0.000120374923198 5.56959564924e-06)
(-0.0002526992012 -0.000130235668524 -6.47352154752e-05)
(-0.000256241900601 -0.000145054497267 -9.59594898554e-05)
(-0.000203555528085 -0.000133473746621 -0.000105817643156)
(-6.7935060477e-05 -8.7461951116e-05 -8.73505489481e-05)
(0.000119931183584 0.00010339071241 -0.000592797841059)
(0.000363999592763 0.000144496148129 -0.00064188087328)
(0.000415203330315 0.000171525108827 -0.000533812544334)
(0.000386896109627 0.000155147131248 -0.000392125457391)
(0.000314158701421 0.000113634415598 -0.000228265623817)
(0.000260320109589 4.66709600958e-05 -8.16907825687e-05)
(0.000226192005841 -1.12919997924e-05 4.44925120368e-05)
(0.000227194867054 -7.06415823758e-05 0.000162660929751)
(0.000252554493389 -0.0001125686478 0.00025987740566)
(0.0002897755653 -0.000133043507873 0.000312305242762)
(0.000325488646653 -0.000132704757495 0.000327090569043)
(0.000338711504907 -0.000112250752883 0.000305066993204)
(0.000315716530235 -7.03301001695e-05 0.000235345169959)
(0.000249651476364 -1.18823701322e-05 0.000131471808468)
(0.000142332113349 4.7446681613e-05 7.50568643007e-06)
(2.33957850311e-05 0.000118747696612 -0.000131498064642)
(-0.000132227746451 0.000165522068847 -0.000291337831053)
(-0.00023751603935 0.000184074149601 -0.000442219484195)
(-0.000265118982113 0.000158401015819 -0.000556398380481)
(-9.36371638089e-05 0.000110438838294 -0.000519936768894)
(0.000175356095349 0.000301465663742 -0.00063904803941)
(0.000366483633884 0.000280768314859 -0.000401085876528)
(0.000384375468856 0.000261470608227 -0.000197614421251)
(0.000345503540177 0.000206357545828 -2.76278948814e-05)
(0.000281257725396 0.000101557306491 0.000126878879953)
(0.000230889861606 -3.47287818377e-05 0.000258945595938)
(0.000210927354784 -0.00017292187706 0.000369228045028)
(0.000222359105967 -0.000290984626544 0.000470399949322)
(0.000254625933572 -0.00036995274382 0.000555266462536)
(0.000293480503167 -0.000406307471139 0.000605346304756)
(0.00032642633431 -0.000400377282279 0.000618390484644)
(0.000339953484507 -0.000353649925849 0.000593871716965)
(0.000324214912754 -0.000266582489836 0.000530727952177)
(0.000270610390139 -0.00014652261707 0.000440750218998)
(0.000180173123882 -1.03808982158e-05 0.000336031231266)
(6.23874936428e-05 0.000128508099433 0.000213597647781)
(-7.04778805864e-05 0.000234289426087 6.44563305161e-05)
(-0.000179414017033 0.000291963515208 -0.000104985901846)
(-0.000235591678761 0.000312498490715 -0.000307568361911)
(-0.000128152000539 0.000323271466728 -0.000551693746114)
(0.000207886836574 0.000297162961632 -0.000531497732429)
(0.000352377227683 0.000245610168278 -0.000201005802294)
(0.000350677860457 0.000206535751667 5.9333973297e-05)
(0.000278970314665 9.78049517161e-05 0.000224289032709)
(0.000200574471439 -7.5439737823e-05 0.000336822686377)
(0.000148591373642 -0.000279095184014 0.000409848547869)
(0.000137855287112 -0.000479231701578 0.000461265355532)
(0.000168868228716 -0.000643417595063 0.000507965183772)
(0.000226175218799 -0.000753759767795 0.000556393119211)
(0.000288009844973 -0.000801230867577 0.000589631552713)
(0.000341723352528 -0.000788186359406 0.000603563395998)
(0.000375815732815 -0.000717038570477 0.000595513458859)
(0.00038132667954 -0.000589644970754 0.000570606312024)
(0.00034334733788 -0.000417650153644 0.00053510688471)
(0.000260022963701 -0.000217457079805 0.000487445975775)
(0.000140478700646 -1.70882642201e-05 0.000420004605525)
(1.34784604668e-08 0.000151185433415 0.000312856239478)
(-0.000135583564296 0.000259152306628 0.000152878373608)
(-0.000212638666914 0.000299708973057 -0.000100167292603)
(-0.000150099529008 0.000342210219618 -0.000435352168564)
(0.000194277317276 0.000215224704958 -0.000391061872065)
(0.000300964556123 0.000160375326501 -3.33755483317e-05)
(0.000245095842505 9.27410351022e-05 0.000221530150925)
(0.000124172724732 -6.20384305526e-05 0.000341581040813)
(9.9327945787e-06 -0.000298612014184 0.000371233439851)
(-3.9386270397e-05 -0.000545560149055 0.000350074757051)
(-1.7374492026e-05 -0.00078029230526 0.00032087858849)
(6.18529784321e-05 -0.000962184452973 0.000306332624663)
(0.000167292912276 -0.00107735101404 0.000312552663122)
(0.000274487653256 -0.00112274369915 0.000328180255241)
(0.000369860456473 -0.00110356151239 0.000343280787518)
(0.00044531767385 -0.001022839855 0.000356936878018)
(0.000492343293328 -0.000882675142645 0.000374701628586)
(0.000497548641339 -0.000688777632829 0.000402342385484)
(0.000441709240112 -0.000453638443806 0.00043306183497)
(0.000324311152047 -0.000209651132061 0.000452847584175)
(0.000152553046884 1.02157066329e-05 0.000427025232698)
(-2.65524979061e-05 0.000161038488556 0.000314619369879)
(-0.000155192135023 0.000229456811534 6.92774899937e-05)
(-0.000130771264636 0.000280887251462 -0.000288379237909)
(0.000153392430427 8.77465501338e-05 -0.000234074292454)
(0.000199161115438 5.30608620423e-05 0.000116127526735)
(7.47376910699e-05 -2.38150473358e-05 0.000332628401327)
(-0.000110704621183 -0.0002121501352 0.000371371941552)
(-0.000234069817316 -0.0004571913335 0.000303647290516)
(-0.000254300873037 -0.000713169855893 0.000165324312559)
(-0.000194033619696 -0.000944097481145 4.70652613979e-05)
(-6.21382191735e-05 -0.00111894289746 -2.30856184376e-05)
(9.93048628583e-05 -0.00122389483143 -4.86728905691e-05)
(0.000260695009665 -0.0012610242261 -4.71780342485e-05)
(0.000407806004039 -0.00123666467335 -2.99313439795e-05)
(0.000533750178983 -0.00115456640529 3.01775119161e-06)
(0.00062907544671 -0.00101502245572 5.86329801639e-05)
(0.000675232978018 -0.000822139440327 0.000145635995503)
(0.000653425011951 -0.000591855375689 0.000264060679993)
(0.000555610956339 -0.000349371415543 0.000386040972451)
(0.000373027567552 -0.00012212828322 0.000455057664861)
(0.000140579061184 5.72906875901e-05 0.000422974027243)
(-5.19266412532e-05 0.000134835409481 0.000220489064917)
(-8.76512694434e-05 0.000170826615817 -0.000124062096119)
(8.43080816337e-05 -6.1139308437e-06 -9.86486920896e-05)
(6.32230549615e-05 -3.57984566268e-05 0.000242194841973)
(-0.000129487756255 -0.000113245043919 0.000404981151587)
(-0.000359990664732 -0.00030000643542 0.000350576299947)
(-0.000492561994283 -0.000518730120126 0.000164159630349)
(-0.00049411471836 -0.000761182977812 -6.47753457351e-05)
(-0.0003813093525 -0.000973291384768 -0.000254020389347)
(-0.000191487254457 -0.00112877267365 -0.000367034252112)
(2.96434340662e-05 -0.00121742139072 -0.000413298911822)
(0.00024874272242 -0.00124386414471 -0.00041782161855)
(0.000451340532306 -0.00121571393823 -0.000396974147777)
(0.000631930905789 -0.00113702385165 -0.000349242971525)
(0.000778469572752 -0.00100641097046 -0.000261404861535)
(0.000866391282501 -0.000828321497014 -0.000123141346125)