/*--------------------------------*- C++ -*----------------------------------*\
| =========                 |                                                 |
| \\      /  F ield         | OpenFOAM: The Open Source CFD Toolbox           |
|  \\    /   O peration     | Version:  3.0.1                                 |
|   \\  /    A nd           | Web:      www.OpenFOAM.org                      |
|    \\/     M anipulation  |                                                 |
\*---------------------------------------------------------------------------*/
FoamFile
{
    version     2.0;
    format      ascii;
    class       volScalarField;
    location    "9.4";
    object      k;
}
// * * * * * * * * * * * * * * * * * * * * * * * * * * * * * * * * * * * * * //

dimensions      [0 2 -2 0 0 0 0];

internalField   nonuniform List<scalar> 
7968
(
0.000189236580023
0.000230886058198
0.000263007893199
0.000282500067053
0.000292296592847
0.000294976211883
0.000293418087437
0.000288958021429
0.000283658749845
0.00027926329783
0.000278003475128
0.000281423737071
0.000286396111703
0.000290843976169
0.000292630186466
0.000290188631877
0.000280896585334
0.000261901733239
0.000230191923381
0.000188846574652
0.000231034665945
0.000362172698864
0.000443630299524
0.000486304816662
0.000502431950699
0.000501359209219
0.000491702653954
0.00047819134835
0.000465689003888
0.000457714004917
0.000456297655163
0.000462295619367
0.000473587848431
0.000486624506726
0.000496339642723
0.000497577925132
0.000482224626582
0.000440548206339
0.000360210071266
0.000230006828355
0.000263236986266
0.000443413608605
0.000551333454931
0.000606769188273
0.000627117466653
0.000625195151049
0.000612014736134
0.000594923223075
0.000579805101035
0.0005704469505
0.00056881541086
0.000575763782066
0.000589335374538
0.000605752716645
0.000618860840149
0.000621063697544
0.000601557186731
0.000547346492615
0.000440836778382
0.000261708260137
0.000282688035601
0.000485868126239
0.00060649803901
0.000667596568221
0.000688978159728
0.000685782639261
0.000670753986483
0.000653126208663
0.000640512669375
0.000632634357239
0.00063116878223
0.000636889042128
0.000647896465117
0.000663817009481
0.000678626667225
0.000682150922754
0.00066167909681
0.000601907622821
0.000482806369058
0.00028074999291
0.000292409399563
0.000501851458167
0.000626689688329
0.000688799399264
0.000708940259825
0.00071036691335
0.000706392051909
0.000696307164517
0.000685468570297
0.000677898414881
0.000676331192788
0.000681672278976
0.000691212419819
0.000700864130354
0.000704728452399
0.000701756160976
0.000682361817979
0.000621595811891
0.000498306797682
0.000290101223421
0.00029509376541
0.000500870894554
0.000624797954224
0.000685542828004
0.000710114336732
0.00072405472056
0.000725019277596
0.000716980911257
0.00070622797898
0.000698171551249
0.000696371340716
0.000701943329641
0.000711470203694
0.000719424158633
0.000718896383854
0.000704998331169
0.000678886053252
0.000619364417563
0.000496965317897
0.000292527349157
0.000293509851316
0.000491337320041
0.000611763346915
0.000670582376371
0.000706080971476
0.000724938385547
0.000727255058468
0.000718578352683
0.000706268054558
0.000696808719862
0.000694655364405
0.000701220879343
0.000712218581299
0.000720992020895
0.000719512433921
0.000701203221145
0.000663978785301
0.000606105638637
0.000487162187534
0.000290805197142
0.000289094910811
0.000478199744605
0.000595158249501
0.000653087694418
0.000696307559062
0.000717289135229
0.00071904426576
0.0007080866215
0.000692753176512
0.000681035588417
0.000678424474127
0.000686686704842
0.000700553443121
0.000711755940843
0.000711179580131
0.000691301215081
0.00064821187525
0.000589215438414
0.000473789048661
0.000286354765019
0.000283964691438
0.000466427584476
0.000581006402954
0.000641059100998
0.000686265928122
0.000707546690904
0.000707941235106
0.000694105202571
0.000675440218925
0.000660640721504
0.000657394713573
0.000668194777374
0.000685328775138
0.000699534407522
0.000700622726869
0.000680899578646
0.000636439249574
0.000574675331721
0.000461773331784
0.000281217489846
0.000279972003667
0.000459468739427
0.000572965269065
0.000634303578181
0.000679966982363
0.000701003766118
0.000700293668591
0.000684490865861
0.000663069489757
0.000645365268755
0.00064147377677
0.000654822416843
0.000674836951292
0.0006910824702
0.000693464700606
0.000674191849572
0.000629462519206
0.000566303658643
0.000454603271763
0.000277162359251
0.000279837164513
0.000459348342493
0.000572877449921
0.000634225207205
0.000679915263426
0.000700982511218
0.000700301912548
0.00068452478754
0.000663123414389
0.000645431187069
0.000641545433105
0.000654890875609
0.000674890208773
0.000691111674805
0.000693462016811
0.000674150505986
0.000629378303025
0.000566181996714
0.000454428953531
0.000276973734745
0.000283679310683
0.000466103970111
0.000580747824719
0.000640837526013
0.000686112687984
0.000707470794835
0.000707940004382
0.000694168502759
0.000675554772163
0.00066078861117
0.000657555984087
0.00066834551037
0.000685438830602
0.000699587581008
0.000700599278692
0.000680782435016
0.000636218513843
0.000574367523304
0.000461349974206
0.000280834509512
0.000288717223159
0.000477692206332
0.000594703247553
0.000652728862204
0.000696023776347
0.000717106905272
0.000718964966975
0.000708097085083
0.00069283681295
0.000681172198747
0.000678579123874
0.000686819030781
0.00070062781718
0.000711754688755
0.000711077157367
0.000691076382156
0.000647855543456
0.000588740756799
0.000473186610806
0.000285870763496
0.00029309652924
0.000490688096932
0.000611120887656
0.00067005750367
0.000705636904862
0.000724616259116
0.000727052266877
0.00071848244362
0.000706260113198
0.000696859460182
0.000694723202228
0.000701257433213
0.000712190611094
0.000720876918841
0.000719285450104
0.000700847836768
0.000663551698108
0.000605478210646
0.000486442572122
0.000290291364091
0.000294698073478
0.000500138572719
0.000624009732608
0.000684836521312
0.000709516136016
0.000723598434765
0.000724689521888
0.000716763526687
0.000706108416514
0.000698115837412
0.000696330455952
0.000701861808839
0.000711312203616
0.000719172770438
0.000718528056625
0.000704488494895
0.00067827970812
0.000618596520374
0.000496176439837
0.000292044612078
0.000292057242183
0.0005010800173
0.00062581918448
0.000687971818418
0.000708195168206
0.000709791622052
0.000705944031815
0.000695973369228
0.000685242263593
0.000677733387313
0.000676175007153
0.000681469866225
0.000690920247373
0.000700467011532
0.000704216853498
0.000701115699154
0.000681589426646
0.000620714934089
0.00049746597419
0.00028967434596
0.000282422789033
0.000485169040519
0.000605654289811
0.000666756023746
0.000688191076849
0.000685069619249
0.000670133347639
0.000652663289557
0.000640173707112
0.000632345669432
0.00063087779768
0.000636549143898
0.000647453051028
0.000663211141938
0.000677943022106
0.000681380576182
0.000660823783372
0.000601010964884
0.000482022535012
0.000280431873154
0.000263061129564
0.000442849329808
0.000550616971824
0.000606019366419
0.000626380747016
0.000624498829009
0.000611375982937
0.000594346274966
0.000579268130583
0.000569918847122
0.000568265773848
0.000575174819976
0.000588691243732
0.000605058423086
0.000618118062814
0.000620271589354
0.000600741854926
0.00054655077501
0.000440188182049
0.000261503959407
0.000230954124226
0.000361823334542
0.000443156633491
0.000485766717094
0.000501838687739
0.000500739650311
0.00049108801058
0.000477590986841
0.000465079530863
0.00045707526776
0.000455618927453
0.000461592254884
0.00047286456907
0.000485896017018
0.000495623867305
0.000496889872948
0.000481598525574
0.000439990348297
0.000359793350375
0.000229909695334
0.000189214860748
0.000230801049051
0.00026284953619
0.000282267600823
0.000291982596089
0.000294589676143
0.000292981788456
0.00028848294721
0.00028314155058
0.00027870259784
0.000277395050453
0.000280804901119
0.000285787035503
0.000290266897999
0.000292112704363
0.00028975640996
0.000280567855519
0.000261663691135
0.000230041050282
0.000188793876051
0.000227699620922
0.000326639311749
0.00040040459675
0.0004468147975
0.000471972682302
0.00048196235262
0.000482390559708
0.00047755599875
0.000471520965642
0.000467194553474
0.000466154710671
0.000468988367565
0.000474172955374
0.000478748698192
0.000478498905781
0.000468913544522
0.000444437321712
0.000398783641208
0.000325619926855
0.000226932313713
0.000327172245885
0.000629044629278
0.000798503296826
0.000893242550849
0.000937224210374
0.000948558616004
0.000941713046103
0.000926690451642
0.000911453878717
0.000901515541265
0.000899791363849
0.00090710557264
0.000920659095443
0.000934899599059
0.000941579600651
0.000930347428675
0.000887053199612
0.000793460964769
0.000625573748602
0.000324979838198
0.000401095665332
0.000798287116474
0.00102143893218
0.00114874313647
0.00121123213473
0.00123117699733
0.00122671967783
0.0012109140079
0.0011932988817
0.00118130064408
0.00117908580555
0.00118765274116
0.00120319759137
0.00121819404827
0.00122246167997
0.00120281963143
0.00114114679766
0.00101514474254
0.00079382476284
0.000398005172054
0.000447456797438
0.000892891894943
0.00114854580885
0.00129748067846
0.00137484443319
0.00140522914978
0.00140945924133
0.00140004282206
0.001384005195
0.00137212258787
0.00136954090475
0.00137741589137
0.00139126434499
0.00140069580096
0.00139563217047
0.00136575377897
0.00128921375812
0.001141527689
0.000887697450733
0.000443739749055
0.000472545583924
0.000936901654328
0.00121092540934
0.00137462066496
0.0014648356251
0.00150742708354
0.00151247892083
0.00149984358733
0.00148231522474
0.00146942880491
0.00146633467635
0.00147433678967
0.00148905364419
0.00150103625584
0.00149664389411
0.00145623793144
0.00136612265374
0.00120345569784
0.000931083695386
0.00046832174319
0.000482547221008
0.00094845402121
0.00123087336845
0.00140480026061
0.00150728052373
0.00154881977062
0.00155229825658
0.0015362151023
0.00151544029775
0.0015003858373
0.00149660467147
0.00150564279509
0.00152291517192
0.00153829143091
0.00153614943086
0.00149679101082
0.00139623360643
0.00122314794276
0.000942156949731
0.000477941736412
0.000483039326402
0.00094188952992
0.0012265928587
0.00140894731259
0.00151261421273
0.00155277214732
0.00155278351214
0.00153145695469
0.0015054904845
0.00148700401458
0.00148242605228
0.00149360212215
0.00151526249464
0.00153577235168
0.00153773861126
0.00150079751661
0.00140132717256
0.00121866983587
0.000935199453961
0.000478179747213
0.000478436856667
0.000927466938059
0.00121152245761
0.00140073108476
0.00150137383974
0.00153846459897
0.00153351699327
0.001505352841
0.00147262074798
0.00145065595416
0.00144542611655
0.00145858935939
0.00148609405535
0.00151322416097
0.00152056471165
0.00148730270663
0.00139043542593
0.00120284363434
0.000920324570756
0.000473415874505
0.000472892206754
0.000913317176312
0.00119539369915
0.00138673261071
0.00148640124374
0.00152083829955
0.00151122619961
0.00147658645345
0.0014400124814
0.00141427780383
0.00140822289889
0.00142441953308
0.00145483886736
0.00148798649317
0.0015002185008
0.00147005639844
0.00137456809147
0.00118579222512
0.000905626209699
0.000467731484735
0.000469297785955
0.000904808542531
0.00118534836229
0.00137736299554
0.00147666901979
0.00150966984579
0.00149732748761
0.0014594436919
0.00141971924282
0.00139071085446
0.00138401218
0.00140285966635
0.00143676924551
0.00147232906805
0.00148738614306
0.00145892270423
0.0013641289422
0.00117513334288
0.000896673665402
0.000463987408344
0.000469179462578
0.000904676475251
0.00118524338979
0.00137731440542
0.00147669677666
0.00150978327525
0.00149752574843
0.0014597168639
0.00142005118095
0.00139107471394
0.00138438701496
0.00140322572533
0.00143710043095
0.00147260361125
0.00148758183009
0.00145902371384
0.00136412910643
0.00117504821901
0.000896525541895
0.000463814164729
0.000472558808711
0.00091291301334
0.00119505866558
0.00138655278177
0.0014864372034
0.00152111361477
0.00151173788819
0.00147731364328
0.0014408990721
0.00141526484787
0.00140924494371
0.00142541068749
0.00145571609963
0.00148870566139
0.00150072412094
0.00147030766221
0.00137455076743
0.00118555032933
0.000905225303672
0.00046729295769
0.000477923083697
0.000926765052166
0.00121090149475
0.00140032510025
0.00150129620655
0.0015387391426
0.00153414211641
0.00150629542239
0.00147382133244
0.00145203806887
0.00144686808376
0.00145996580205
0.00148727996641
0.00151416378678
0.00152118957729
0.00148756519959
0.00139031735388
0.00120241968924
0.00091969288536
0.000472796983463
0.000482419637832
0.000940911317762
0.00122567374542
0.00140826898531
0.00151232351259
0.00155287426579
0.00155329373079
0.00153235511371
0.00150670662635
0.00148842882457
0.0014839194
0.00149500659976
0.0015164532891
0.00153666106735
0.00153826035912
0.00150090918126
0.00140096635283
0.00121802121559
0.000934356527206
0.000477468541848
0.000481900805687
0.000947264633891
0.00122969585767
0.00140389469598
0.00150674255912
0.00154866572536
0.00155255249229
0.0015368689645
0.00151643268305
0.00150160236635
0.00149788853685
0.00150681976958
0.00152385777694
0.0015389223806
0.00153641643514
0.00149666436173
0.00139569922101
0.00122225934816
0.000941120202356
0.000477211762333
0.000471935382798
0.000935574769942
0.00120956499115
0.00137350569656
0.0014640830014
0.00150705103754
0.00151249631649
0.00150021903125
0.00148298576806
0.00147029664187
0.00146725866554
0.00147516011419
0.0014896644978
0.00150137026677
0.0014966280104
0.00145582696119
0.00136533109876
0.00120232670713
0.000929867988877
0.000467626965871
0.000446947873801
0.000891569040219
0.00114713872263
0.00129626582062
0.00137395539986
0.00140471862568
0.00140936852031
0.00140022351542
0.00138440761458
0.00137267090474
0.00137012543846
0.00137791517007
0.00139159150079
0.00140082090709
0.00139539641495
0.00136513379719
0.00128821297889
0.00114025032477
0.000886415586896
0.000443147249292
0.000400724561902
0.000797109619982
0.0010201422145
0.00114756495105
0.00121029785522
0.0012305373893
0.00122637652825
0.00121082274068
0.00119338407192
0.00118148812006
0.00117929194328
0.00118779239042
0.0012031933761
0.00121798670924
0.00122198235787
0.00120202795607
0.00114006142346
0.00101387918917
0.000792623642938
0.000397559418102
0.000326969140125
0.000628192794125
0.00079750838341
0.00089227201043
0.000936366570156
0.000947853820951
0.000941162168891
0.000926270964027
0.000911111588735
0.000901200096144
0.000899466486601
0.000906746740091
0.000920223907038
0.000934358404547
0.000940904907584
0.000929514543614
0.000886079675683
0.000792426006751
0.000624649079722
0.000324712481773
0.000227667038523
0.000326336397368
0.000399928809228
0.000446232207261
0.000471313575283
0.000481250642361
0.000481644023668
0.000476777154284
0.000470691532999
0.000466309543629
0.000465225875511
0.000468049660056
0.000473243361732
0.000477846128722
0.000477641746748
0.000468122109036
0.000443736274471
0.000398201354803
0.000325220666901
0.000226852463207
0.000263942322102
0.000404055809394
0.000506780079391
0.000571444448344
0.000607670032414
0.000624182631941
0.000628697980027
0.000627375954648
0.000624850285221
0.00062317694842
0.000622396680579
0.000622661344494
0.00062405419025
0.000624718115668
0.000620094176632
0.000603904351921
0.000568372106117
0.000504624312897
0.000402711916975
0.000262854947758
0.000405050242207
0.000795236861586
0.00101412062511
0.00113927834149
0.00120167934244
0.00122335135027
0.00122174112629
0.00120979114251
0.00119698260513
0.00118864399199
0.00118664286116
0.00119160715889
0.00120203959114
0.0012127517325
0.00121405488872
0.00119258211152
0.00113092201564
0.00100710237858
0.00079017007314
0.000401452892625
0.000508082478381
0.0010139953118
0.00129590454451
0.00146044197534
0.00154768124002
0.00158376495255
0.00158894331406
0.00157836622063
0.00156398658334
0.00155394357812
0.00155137897734
0.00155698655975
0.00156821998008
0.00157749564211
0.00157236243932
0.00153668769351
0.00145031072366
0.00128711453332
0.00100731060389
0.000503024493776
0.000572826415513
0.00113924360335
0.00146050595747
0.00165238151147
0.00176127523722
0.00181541372319
0.00183349363783
0.00182837092588
0.0018150549445
0.00180396338777
0.00180063879346
0.00180611712779
0.00181584429386
0.00181986757198
0.00180307597643
0.00174906822001
0.00164109492205
0.00145035488808
0.00113112189197
0.000566716783576
0.000609198579794
0.00120204017583
0.00154794649663
0.00176130328568
0.00189206900701
0.0019572612607
0.00197830044418
0.00197321909734
0.0019582647898
0.00194550730392
0.00194139323382
0.00194706341194
0.00195704652919
0.00196046758143
0.00194100172147
0.00187824963802
0.00174905355185
0.00153657237181
0.0011924511302
0.000602152742268
0.000625989845654
0.00122430435324
0.00158433320479
0.00181545500605
0.0019575325314
0.00202728417637
0.00204748437412
0.00203821814801
0.00201870726254
0.00200298597197
0.00199805328309
0.00200500459376
0.00201735711043
0.00202327455305
0.00200538273676
0.00194041972912
0.00180280907638
0.00157182262974
0.00121330604821
0.00061812469637
0.000630891188447
0.00122342156716
0.00159014380731
0.00183452286678
0.00198001200616
0.00204995371549
0.00206560641488
0.00204889064577
0.0020225502947
0.00200275676017
0.00199716695922
0.00200669397358
0.00202342180377
0.00203403788063
0.00202043479893
0.0019579404918
0.00181814741685
0.00157602765708
0.00121108761933
0.000622398403223
0.000630098985588
0.00121256355071
0.00158082286062
0.00183137261016
0.00197823959582
0.0020459221984
0.00205505841664
0.00202953597149
0.0019951756287
0.00197057593848
0.00196443249177
0.00197748144447
0.00200022587934
0.00201721314115
0.00200912716894
0.0019508064216
0.00181166731208
0.00156519431232
0.00119903582229
0.000621240004128
0.000628227382005
0.00120137749347
0.00156855186735
0.0018210952386
0.001967778624
0.00203247854414
0.00203569286962
0.00200246133096
0.00196085979083
0.00193149645032
0.00192470438919
0.00194118967774
0.00196998288464
0.00199341642379
0.0019906690849
0.00193614073259
0.0017986378391
0.00155211447575
0.001186784189
0.0006191982931
0.000627242388374
0.00119494559376
0.00156066421675
0.00181350713973
0.00195965522639
0.00202243980946
0.00202223717085
0.00198465162444
0.00193855856252
0.00190602514306
0.00189874362675
0.0019175284434
0.0019501471777
0.00197760401698
0.00197814575233
0.00192585859967
0.00178953336782
0.00154393799472
0.00117961744754
0.00061808849367
0.000627158589001
0.00119486665522
0.00156062363561
0.00181354179401
0.00195978882533
0.00202267591255
0.00202256179535
0.00198505026071
0.00193901267772
0.00190650945582
0.00189923599483
0.00191801094826
0.00195061140524
0.001978041192
0.00197852894932
0.00192613978616
0.0017896839088
0.00154395644642
0.00117954573933
0.000617933090275
0.000627939576796
0.00120106402379
0.00156837591084
0.00182115458239
0.00196813933471
0.00203316273259
0.0020366753018
0.00200369573877
0.00196228497417
0.00193303506106
0.00192627811183
0.00194272368673
0.00197142970578
0.00199473511661
0.00199177704905
0.00193692435372
0.00179904289688
0.00155214913652
0.0011865580474
0.000618769019786
0.000629600236277
0.00121192178193
0.00158041069968
0.00183134979179
0.00197872826813
0.00204701268123
0.00205674752237
0.00203172348728
0.00199771345977
0.00197332969353
0.00196725724817
0.00198022385892
0.00200278032951
0.00201944712086
0.00201086627577
0.00195193576249
0.00181219115167
0.0015652002069
0.00119862321255
0.000620603698688
0.000630253475897
0.00122245223468
0.0015894321964
0.00183430872875
0.00198043671806
0.00205120556606
0.00206777540482
0.002051852964
0.00202607248373
0.00200661063245
0.00200113433761
0.00201054906747
0.00202692587026
0.00203692041027
0.00202247417202
0.00195911597949
0.00181857763465
0.00157585856895
0.00121045115776
0.000621642722894
0.000625317006075
0.00122309647739
0.00158333557939
0.00181497658595
0.00195770447156
0.00202826760354
0.00204945459851
0.00204113560308
0.00202232195688
0.00200701109629
0.00200220938069
0.00200900169269
0.0020208799038
0.00202599436288
0.00200715204038
0.00194131850258
0.00180293216653
0.00157136265701
0.00121242535477
0.000617330396226
0.000608573379775
0.00120068857502
0.00154672487275
0.00176055171659
0.0018919506407
0.00195782424093
0.00197962350036
0.00197533010073
0.00196101471365
0.00194865178351
0.00194466418064
0.00195017052532
0.00195970229146
0.00196244103762
0.00194222544352
0.00187873443823
0.00174884886944
0.00153576974803
0.00119132346415
0.000601386593588
0.000572314785048
0.00113785730983
0.00145916403143
0.00165140361743
0.00176084487726
0.00181563830057
0.00183431099993
0.00182978780476
0.00181697229796
0.0018062075402
0.00180298069979
0.00180830757546
0.00181766642052
0.00182116780292
0.00180377281665
0.00174910359051
0.00164048752337
0.00144923917892
0.00112981370152
0.000566046695543
0.000507728368197
0.00101270312201
0.00129457943645
0.00145934263998
0.00154698233457
0.00158355474788
0.00158921958708
0.00157911748424
0.00156512651559
0.00155534547665
0.00155284496238
0.0015583166739
0.00156922512324
0.00157808336748
0.00157246859653
0.00153625331662
0.00144937212351
0.00128583177261
0.00100597020429
0.000502512350484
0.000404887855189
0.000794227556795
0.00101298991122
0.00113822186682
0.00120081984419
0.00122275169986
0.00122140716241
0.00120971079079
0.00119708603597
0.00118884481192
0.00118685581599
0.00119175382407
0.00120201593007
0.00121250560756
0.00121355098551
0.00119178524359
0.00112986420771
0.00100589798689
0.00078903680333
0.000401149985626
0.000263995732902
0.000403611551131
0.000506095626171
0.000570624556743
0.000606758775434
0.000623209143144
0.000627680018784
0.000626318529428
0.00062373068253
0.000621992492075
0.000621160224875
0.000621405683979
0.000622797675726
0.000623490295438
0.000618919123719
0.000602800077332
0.000567371443078
0.000503776447167
0.000402129644223
0.000262838641552
0.000298673995222
0.000481565721633
0.000610803827135
0.000691361761672
0.000738410965574
0.00076326515724
0.000775186434461
0.000781025947219
0.000784707563981
0.000786812252589
0.000786308969045
0.000783181979488
0.000778397407003
0.000771570106457
0.000759122819174
0.000734338160306
0.000687846037723
0.000608317009979
0.000480239461512
0.000297381352348
0.000483225051305
0.000965327087467
0.00122889049368
0.00138184066424
0.00146310699467
0.00149803383806
0.00150682322189
0.00150438201193
0.00149980892591
0.0014963875509
0.00149424420125
0.00149382570982
0.00149550918346
0.00149616269402
0.0014868028304
0.00145209601908
0.00137164330429
0.00122013792872
0.000958814601296
0.000478045333652
0.000612871359353
0.00122907779844
0.00155772148034
0.00174966749599
0.00185523063217
0.00190459660818
0.00191976634184
0.0019190988968
0.00191309596133
0.00190651194756
0.00190325240634
0.00190423843123
0.00190651444727
0.00190467067966
0.00188947261909
0.00184097652933
0.00173651153438
0.00154603373125
0.00121976550757
0.000605644369735
0.000693743503409
0.00138273766395
0.00175034100083
0.00196786683217
0.00209521132614
0.00216547436705
0.00219158732239
0.00219206741443
0.00218236219359
0.00217267661451
0.00216818217859
0.00216984868616
0.00217330681832
0.00216973902081
0.00214511452985
0.00207765952444
0.00195183563558
0.00173565211386
0.00137040049868
0.000684840765947
0.000741347480723
0.00146519941803
0.00185683610168
0.0020958805201
0.00224581537301
0.00232522543704
0.00235389484207
0.00235165495615
0.00233753577727
0.00232457213925
0.00231900506679
0.00232151857634
0.00232605209167
0.00232200001309
0.00229432179613
0.00222134743988
0.00207654901486
0.00183879383844
0.0014494334841
0.000730806644413
0.000766901274466
0.00150155333683
0.00190721988466
0.00216718823415
0.0023276231276
0.0024102816617
0.00243497219035
0.00242555396187
0.00240488492864
0.00238817999838
0.00238190386536
0.00238611939474
0.00239332822027
0.00239125532344
0.00236425207348
0.00229073988319
0.00214171192543
0.00188546696461
0.00148221923828
0.000754884903977
0.000779571210263
0.00151180126811
0.00192360650776
0.00219627848901
0.00236294992681
0.00244325576761
0.00245964353071
0.00244006992855
0.00241167966508
0.00239096413196
0.00238450332845
0.00239168350045
0.00240335329046
0.00240550205813
0.00238177735996
0.00231043271063
0.00216176106315
0.00189820511207
0.00148921243591
0.000766494650555
0.000786056990595
0.00151099479658
0.00192450835981
0.00220204042087
0.00236987432565
0.00244498789503
0.00245183628256
0.00242160756274
0.00238514019562
0.00236020965697
0.0023538284604
0.00236488029142
0.00238241362956
0.00239029384508
0.00237148877207
0.00230414969934
0.00215856697442
0.00189702980736
0.00148586219607
0.000772563652147
0.00079020482194
0.0015084741841
0.00192144161255
0.00219792105107
0.00236406397915
0.00243415604508
0.00243316815086
0.00239437058586
0.00235091100007
0.00232199695246
0.00231540115942
0.0023297943189
0.00235320614446
0.00236703178696
0.00235333252597
0.00229028682649
0.00214823675346
0.00189002635861
0.00148120182793
0.000776733292155
0.000792695462763
0.0015073414009
0.00191870047014
0.00219342578774
0.00235791252403
0.00242506515257
0.00241979349412
0.00237624804387
0.00232867793917
0.00229728495324
0.00229046728321
0.00230686216361
0.00233378446042
0.00235138266569
0.00234096155222
0.00228062554273
0.00214078995049
0.00188467895303
0.00147863839024
0.000779234554542
0.000792653960987
0.00150736475699
0.00191876905926
0.00219360972802
0.00235821389849
0.00242546576991
0.00242025747897
0.00237675556607
0.0023292197908
0.00229784882527
0.00229104077095
0.00230744652853
0.0023344051082
0.00235206483663
0.00234166833921
0.00228126141072
0.00214126057546
0.00188494338708
0.00147871277765
0.000779101630561
0.000790015384045
0.00150840119991
0.00192158232633
0.00219843481019
0.00236497733423
0.002435447948
0.0024347579111
0.00239619555934
0.00235292005382
0.00232412578356
0.00231757957412
0.00233198015313
0.00235543474355
0.00236931382586
0.00235553212514
0.00229215891383
0.00214956462243
0.00189073247073
0.00148135139789
0.000776347564499
0.000785685805048
0.00151065844038
0.00192459904623
0.00220280681922
0.00237144125958
0.00244739492018
0.00245498301291
0.00242535196288
0.00238932458398
0.0023646745642
0.00235841150059
0.00236944082666
0.00238692926969
0.00239459975424
0.00237529366837
0.00230713797368
0.00216053419593
0.00189794732804
0.00148597610935
0.000771985710882
0.000779090635551
0.00151118793545
0.00192352093537
0.00219709965856
0.00236498349682
0.00244671537345
0.00246448701305
0.00244608004082
0.0024185492304
0.00239836500455
0.00239212544554
0.00239924337215
0.002410514648
0.00241186585099
0.00238692934611
0.00231408358251
0.00216392168031
0.00189910252638
0.00148916173274
0.000765808575903
0.000766434789045
0.00150077479717
0.00190688031758
0.00216773488993
0.00232951243598
0.00241397344114
0.00244056934245
0.00243282731128
0.0024133974327
0.00239743243515
0.00239142978693
0.00239545381669
0.0024019183003
0.00239847758902
0.00236963305462
0.00229415120719
0.00214345475822
0.00188601519906
0.00148189823591
0.000754172337441
0.000740979926086
0.00146434998031
0.00185626784062
0.002096014872
0.00224702710821
0.00232803160053
0.00235864392132
0.00235818349569
0.00234534372471
0.00233314832569
0.00232787250354
0.00233015221338
0.0023338259298
0.00232818366643
0.00229853033361
0.00222373365659
0.00207753870639
0.0018387891455
0.00144878262284
0.000730135232045
0.000693521469246
0.00138186189285
0.00174958190414
0.00196759762377
0.00209571520897
0.00216700394102
0.00219442392928
0.00219626967035
0.00218760426612
0.00217855605852
0.00217429564218
0.00217574790943
0.00217846940001
0.00217364371562
0.00214760484793
0.00207890629603
0.0019520373143
0.00173505897675
0.00136944969571
0.0006842803076
0.000612822193214
0.00122822502425
0.00155684964989
0.00174905189955
0.00185513212683
0.00190518936813
0.00192115599347
0.0019213760089
0.00191605524788
0.00190987992483
0.0019067590504
0.00190757247607
0.00190934188482
0.00190666841177
0.00189058516646
0.00184119631787
0.0017359689037
0.00154500873881
0.0012186593627
0.000605278627087
0.000483360182986
0.00096459348075
0.00122802319963
0.00138100360155
0.00146245819128
0.00149769958427
0.00150688227111
0.00150487767604
0.00150064532063
0.00149741979507
0.00149530941968
0.00149477737532
0.00149614441945
0.00149636992599
0.00148655778027
0.00145140601948
0.00137062452584
0.00121898922589
0.000957800170718
0.000477937294057
0.000298934839827
0.000481141496414
0.000610116961541
0.000690496192937
0.000737407935908
0.000762169981751
0.000774041536895
0.00077985617592
0.00078348471214
0.000785521646729
0.000784950278356
0.000781779419791
0.000776951209751
0.000770109833793
0.000757693575053
0.000732986387072
0.000686642837227
0.000607331222803
0.000479596215248
0.000297518153747
0.000335649122004
0.000565810466065
0.000721248147817
0.000819055580487
0.000880357923414
0.000918020999631
0.000941342482814
0.000956825761269
0.000967436981079
0.000973222286396
0.000972960074604
0.00096669067767
0.00095535845227
0.000938823366013
0.000914609656656
0.000876864792658
0.000815797854678
0.000718738991701
0.000564755628536
0.000334347448878
0.000568166422555
0.00115364574283
0.0014619356099
0.00164503928991
0.00174983353131
0.00180442674938
0.00183083716314
0.00184380042714
0.00185047829268
0.00185296186636
0.00185058134163
0.0018439276699
0.00183430623897
0.00181961574164
0.00179258303616
0.00173826036798
0.00163425901502
0.00145243674092
0.00114622050304
0.000561598459793
0.000724100479714
0.00146272188523
0.00183416191014
0.00205084961243
0.00217363020176
0.00223622984516
0.00226560486442
0.00227607335093
0.00227568055334
0.00227193452341
0.00226764569291
0.00226372196925
0.00225830686122
0.00224566890123
0.002216989366
0.00215664203928
0.00203542866106
0.00182029614813
0.00145107780161
0.000714974210443
0.000822651986364
0.00164732460891
0.00205242255848
0.00228662075335
0.00242747413414
0.00250580812727
0.00253802963338
0.00254251564142
0.00253498598401
0.00252584935517
0.00251966023241
0.00251737729428
0.00251485202371
0.00250369685675
0.00247192944955
0.00240103998604
0.0022653587326
0.00203320141471
0.00163088075839
0.00081117166507
0.00088497708989
0.00175416748259