/*--------------------------------*- C++ -*----------------------------------*\
| =========                 |                                                 |
| \\      /  F ield         | OpenFOAM: The Open Source CFD Toolbox           |
|  \\    /   O peration     | Version:  3.0.1                                 |
|   \\  /    A nd           | Web:      www.OpenFOAM.org                      |
|    \\/     M anipulation  |                                                 |
\*---------------------------------------------------------------------------*/
FoamFile
{
    version     2.0;
    format      ascii;
    class       volScalarField;
    location    "9.4";
    object      rAU;
}
// * * * * * * * * * * * * * * * * * * * * * * * * * * * * * * * * * * * * * //

dimensions      [-1 3 1 0 0 0 0];

internalField   nonuniform List<scalar> 
7968
(
1.05314095001e-05
1.05260973707e-05
1.05261200114e-05
1.05279741263e-05
1.05274124218e-05
1.05171177528e-05
1.05120629376e-05
1.05185227794e-05
1.05218156521e-05
1.0523205312e-05
1.0523425142e-05
1.05225547826e-05
1.05201958161e-05
1.05159621375e-05
1.05107291124e-05
1.05182439319e-05
1.05278557031e-05
1.05260698485e-05
1.0526057725e-05
1.05314120888e-05
1.05260297423e-05
1.05136654514e-05
1.05103799947e-05
1.05105934882e-05
1.05086971367e-05
1.05022297151e-05
1.0499155134e-05
1.05024925996e-05
1.0505174442e-05
1.05064293525e-05
1.0506637701e-05
1.05058499127e-05
1.0503788135e-05
1.05007722259e-05
1.05009261997e-05
1.05063797526e-05
1.05103200078e-05
1.05104095262e-05
1.05137558895e-05
1.0526130517e-05
1.05260199657e-05
1.05102878362e-05
1.05048538384e-05
1.05038987546e-05
1.05019843e-05
1.0497788592e-05
1.0496564629e-05
1.0499481197e-05
1.05019052182e-05
1.05034824057e-05
1.0503736288e-05
1.05026954651e-05
1.05008376306e-05
1.04978373412e-05
1.04973615254e-05
1.05008313013e-05
1.05036876372e-05
1.05049987486e-05
1.05105139638e-05
1.05261590499e-05
1.0527793026e-05
1.05103050331e-05
1.0503718591e-05
1.05019710531e-05
1.05024419164e-05
1.04988305615e-05
1.04975990034e-05
1.05001318174e-05
1.05023133453e-05
1.05034300569e-05
1.05036136053e-05
1.05028839111e-05
1.05010900442e-05
1.04986387557e-05
1.04985415013e-05
1.05017263581e-05
1.05013502643e-05
1.05038944443e-05
1.05106339611e-05
1.05280281073e-05
1.05243185924e-05
1.05075084335e-05
1.05013743045e-05
1.050202812e-05
1.049859337e-05
1.04916058434e-05
1.04885230926e-05
1.04897697603e-05
1.04911443666e-05
1.04918398673e-05
1.04920655511e-05
1.04917940973e-05
1.04908071948e-05
1.04895078549e-05
1.04911786244e-05
1.04975533365e-05
1.05020804926e-05
1.05014557264e-05
1.05076105375e-05
1.05236977534e-05
1.05157493234e-05
1.05016388793e-05
1.04975213465e-05
1.04988842156e-05
1.04920746997e-05
1.04824749614e-05
1.04793647959e-05
1.04804803073e-05
1.04815967862e-05
1.0481974101e-05
1.04821396658e-05
1.04821206374e-05
1.04813604602e-05
1.04802725277e-05
1.04820293811e-05
1.04906566597e-05
1.04983463539e-05
1.04976117418e-05
1.05015773408e-05
1.05150442374e-05
1.05143159718e-05
1.04999511888e-05
1.04970515168e-05
1.04984014172e-05
1.04897762358e-05
1.04801540096e-05
1.04781770732e-05
1.04802188145e-05
1.04817086561e-05
1.04823186083e-05
1.04824217151e-05
1.04819714432e-05
1.04807773782e-05
1.04788418609e-05
1.0479599184e-05
1.04882824008e-05
1.04977746088e-05
1.04974126548e-05
1.05000788594e-05
1.051438504e-05
1.05194347987e-05
1.05030981406e-05
1.04998633036e-05
1.05010644597e-05
1.04911295998e-05
1.04813348884e-05
1.04802268433e-05
1.04830464325e-05
1.04851294907e-05
1.04888492191e-05
1.04900692496e-05
1.04854079065e-05
1.04836277414e-05
1.04808970537e-05
1.0480719698e-05
1.0489549059e-05
1.05001585682e-05
1.05005809358e-05
1.05033038571e-05
1.05194355393e-05
1.05222342794e-05
1.05054442373e-05
1.05020911544e-05
1.050304236e-05
1.04923463097e-05
1.04823120376e-05
1.04815547916e-05
1.04849629541e-05
1.04959752368e-05
1.04997156505e-05
1.0500154198e-05
1.0497899265e-05
1.04866351845e-05
1.04823628573e-05
1.04816628241e-05
1.0490709613e-05
1.05021620866e-05
1.0502951712e-05
1.05056769676e-05
1.05222220991e-05
1.05233765466e-05
1.05064636289e-05
1.05033839826e-05
1.05039597091e-05
1.04928241548e-05
1.0482546684e-05
1.04819797881e-05
1.04857367565e-05
1.04992631967e-05
1.05024712089e-05
1.05029274091e-05
1.05005827879e-05
1.0492290709e-05
1.04829816948e-05
1.04818704032e-05
1.04911926457e-05
1.05031074121e-05
1.05039212786e-05
1.0506713665e-05
1.05233640682e-05
1.05233850761e-05
1.05064671452e-05
1.05033830092e-05
1.05039598259e-05
1.04928194752e-05
1.04825455165e-05
1.04819825939e-05
1.04857387188e-05
1.04992485036e-05
1.05024548415e-05
1.05029093023e-05
1.05005635009e-05
1.04922487346e-05
1.04829816933e-05
1.04818706203e-05
1.04911914606e-05
1.050310711e-05
1.05039215528e-05
1.05067193865e-05
1.05233751881e-05
1.05222607157e-05
1.05054594109e-05
1.05020986644e-05
1.05030500655e-05
1.0492339463e-05
1.04823147212e-05
1.0481574785e-05
1.04849816207e-05
1.04959363936e-05
1.0499690404e-05
1.05001228402e-05
1.04978585541e-05
1.04864369487e-05
1.04823735911e-05
1.04816710766e-05
1.04907109455e-05
1.0502167865e-05
1.0502886244e-05
1.05056946751e-05
1.0522255401e-05
1.05194837695e-05
1.0503129647e-05
1.04998272292e-05
1.05010909146e-05
1.04911337542e-05
1.04813536505e-05
1.04802760429e-05
1.04831003823e-05
1.04851836628e-05
1.04887503956e-05
1.04899901287e-05
1.04854609558e-05
1.04836761979e-05
1.04809431379e-05
1.04807514716e-05
1.04895689327e-05
1.05001782011e-05
1.05005426832e-05
1.05033361253e-05
1.05194943712e-05
1.05144309288e-05
1.04999934273e-05
1.04970488991e-05
1.04984348972e-05
1.04898000324e-05
1.04801943103e-05
1.04782581837e-05
1.04803190184e-05
1.04818138475e-05
1.04824222182e-05
1.04825237491e-05
1.04820737998e-05
1.04808729319e-05
1.04789222844e-05
1.0479660189e-05
1.04883288598e-05
1.04977982204e-05
1.04973959494e-05
1.05001152561e-05
1.05145060858e-05
1.051563383e-05
1.05016189219e-05
1.04975182734e-05
1.0498923584e-05
1.04921049218e-05
1.04825279252e-05
1.04794681964e-05
1.04806201973e-05
1.04817546851e-05
1.0482135992e-05
1.04823019845e-05
1.04822800668e-05
1.04815048065e-05
1.04803914471e-05
1.04821220849e-05
1.04907210956e-05
1.04983837785e-05
1.04976060413e-05
1.05015541539e-05
1.05149152642e-05
1.05241297761e-05
1.0507475013e-05
1.05013774838e-05
1.05020852875e-05
1.04985982516e-05
1.0491609052e-05
1.04885634338e-05
1.04898398695e-05
1.04912292693e-05
1.04919301249e-05
1.04921565769e-05
1.04918817695e-05
1.04908818956e-05
1.0489565345e-05
1.04912124752e-05
1.04975711785e-05
1.05021319037e-05
1.05014603292e-05
1.05075765786e-05
1.0523493659e-05
1.05278126743e-05
1.05103235881e-05
1.05037454734e-05
1.05019919325e-05
1.05024900054e-05
1.04987836153e-05
1.04975638353e-05
1.05001003456e-05
1.05022788877e-05
1.05033895292e-05
1.05035703066e-05
1.0502842411e-05
1.05010483666e-05
1.04985992457e-05
1.04984890362e-05
1.05017548441e-05
1.05014000847e-05
1.05039128887e-05
1.05106492548e-05
1.05280399254e-05
1.05260464182e-05
1.05103184389e-05
1.05048966696e-05
1.05039418188e-05
1.05020013868e-05
1.0497791642e-05
1.0496595369e-05
1.04995242057e-05
1.05019043032e-05
1.05034707378e-05
1.05037231445e-05
1.05026907386e-05
1.05008550031e-05
1.04978556327e-05
1.04973507521e-05
1.05008295796e-05
1.05037171559e-05
1.05050289428e-05
1.05105377161e-05
1.052616786e-05
1.05260586193e-05
1.05137062294e-05
1.05104289001e-05
1.05106475081e-05
1.05087070639e-05
1.05022210263e-05
1.04991900195e-05
1.05025274901e-05
1.05051917376e-05
1.05064360843e-05
1.05066453499e-05
1.05058691471e-05
1.05038247172e-05
1.05008127226e-05
1.05008831797e-05
1.05063438032e-05
1.05103612329e-05
1.05104458365e-05
1.05137829247e-05
1.05261406571e-05
1.05314350849e-05
1.05261225148e-05
1.05261524141e-05
1.05280120118e-05
1.05273694098e-05
1.05171184826e-05
1.05121524378e-05
1.05185627821e-05
1.05218426213e-05
1.0523229785e-05
1.05234526342e-05
1.05225900566e-05
1.05202472936e-05
1.05160386225e-05
1.0510389759e-05
1.05178804091e-05
1.05278870035e-05
1.05260920099e-05
1.05260804264e-05
1.05314374767e-05
1.05299744391e-05
1.05201388049e-05
1.05161764079e-05
1.05158534286e-05
1.05131493338e-05
1.05079456366e-05
1.0506756034e-05
1.05099267587e-05
1.05127223192e-05
1.05140993108e-05
1.05143307407e-05
1.0513467272e-05
1.05113235983e-05
1.05083911932e-05
1.05072574802e-05
1.05114082119e-05
1.05154950111e-05
1.05162553395e-05
1.05202446791e-05
1.05299601569e-05
1.05202273183e-05
1.04772939006e-05
1.04512020947e-05
1.04398560266e-05
1.04348301966e-05
1.04328240937e-05
1.04336813582e-05
1.04370676101e-05
1.04404212407e-05
1.04422344051e-05
1.04425544077e-05
1.04413820341e-05
1.04385767936e-05
1.04351328394e-05
1.04333582409e-05
1.04347440215e-05
1.0439855558e-05
1.04514257758e-05
1.0477353528e-05
1.0520136038e-05
1.05162190346e-05
1.0451333588e-05
1.04085225557e-05
1.03882046608e-05
1.0380448823e-05
1.03789204328e-05
1.03802637727e-05
1.03832217368e-05
1.038628463e-05
1.03887037479e-05
1.03891743095e-05
1.0387554355e-05
1.03849791172e-05
1.03818613591e-05
1.03800351861e-05
1.03811107424e-05
1.03885177985e-05
1.04086638767e-05
1.0451276969e-05
1.05162225572e-05
1.05156707577e-05
1.04399182006e-05
1.03883340978e-05
1.03643865144e-05
1.03556048827e-05
1.03516825642e-05
1.03514156976e-05
1.03534061417e-05
1.03561722716e-05
1.03582967082e-05
1.03588248805e-05
1.0357532536e-05
1.03551321781e-05
1.03530785436e-05
1.03529657568e-05
1.03566468096e-05
1.03646868542e-05
1.03883891534e-05
1.04397595274e-05
1.05157327122e-05
1.0512229285e-05
1.04348866482e-05
1.03807011743e-05
1.0355708097e-05
1.03421944449e-05
1.03372845637e-05
1.03373066609e-05
1.03398509178e-05
1.03431143339e-05
1.03454463732e-05
1.03460493246e-05
1.03446774325e-05
1.0341863195e-05
1.03391748265e-05
1.03387757993e-05
1.03432682379e-05
1.03564941447e-05
1.03808387498e-05
1.04345990715e-05
1.05122139649e-05
1.05075726923e-05
1.04331985243e-05
1.0379345777e-05
1.03520447653e-05
1.03374241041e-05
1.0333223945e-05
1.03345216973e-05
1.03380571596e-05
1.03419578078e-05
1.0344668112e-05
1.03453538216e-05
1.03437259732e-05
1.03402933336e-05
1.03365841726e-05
1.03349193013e-05
1.0338624311e-05
1.03525245606e-05
1.03795398091e-05
1.04328958199e-05
1.05074784771e-05
1.05076429171e-05
1.04344840429e-05
1.03808920442e-05
1.03519301292e-05
1.03375712107e-05
1.03346973373e-05
1.03369934753e-05
1.03414496621e-05
1.03460871354e-05
1.03491251291e-05
1.0349854437e-05
1.03480441903e-05
1.03439311322e-05
1.03392478037e-05
1.03364848048e-05
1.03389479297e-05
1.03525447032e-05
1.0381194163e-05
1.04343045044e-05
1.05075520812e-05
1.05106907182e-05
1.04378271906e-05
1.03837363199e-05
1.03538572231e-05
1.03400382345e-05
1.03382234368e-05
1.03414706015e-05
1.03467877498e-05
1.03518781652e-05
1.03583987694e-05
1.03604291351e-05
1.03540033734e-05
1.03495370973e-05
1.03440417845e-05
1.03403210143e-05
1.03418072637e-05
1.03547253433e-05
1.03844725901e-05
1.04378386494e-05
1.05106657313e-05
1.05131245876e-05
1.04408376391e-05
1.03865862022e-05
1.03562242449e-05
1.03428905419e-05
1.03417167021e-05
1.03457186729e-05
1.03514563592e-05
1.03663354727e-05
1.03737266908e-05
1.03750255588e-05
1.03704809809e-05
1.03555055128e-05
1.03486214534e-05
1.0344229734e-05
1.03450711849e-05
1.03575361194e-05
1.03875716023e-05
1.04409725637e-05
1.05131616953e-05
1.05142366739e-05
1.04423391098e-05
1.03885710247e-05
1.03578091237e-05
1.03446175513e-05
1.03437494512e-05
1.03481239959e-05
1.0354228806e-05
1.03723654505e-05
1.03795027504e-05
1.03807763116e-05
1.03762565952e-05
1.03636314045e-05
1.03511485579e-05
1.03465512114e-05
1.03470665721e-05
1.03593742509e-05
1.03892873638e-05
1.04424521076e-05
1.05143078534e-05
1.05142444794e-05
1.04423359148e-05
1.03885691649e-05
1.03577938667e-05
1.03445915277e-05
1.03437101573e-05
1.03480731307e-05
1.0354165317e-05
1.03722778081e-05
1.03794133294e-05
1.03806831564e-05
1.03761582699e-05
1.03635107748e-05
1.03510824635e-05
1.03464917546e-05
1.03470192104e-05
1.03593424719e-05
1.03892759022e-05
1.04424369765e-05
1.05143149574e-05
1.05131518002e-05
1.04408418385e-05
1.0386590847e-05
1.03561929112e-05
1.03428285258e-05
1.03416187637e-05
1.03455877826e-05
1.03513003598e-05
1.03660958383e-05
1.0373483854e-05
1.03747722935e-05
1.03702129931e-05
1.03550968655e-05
1.03484527008e-05
1.03440782299e-05
1.03449504345e-05
1.03574550003e-05
1.03874740837e-05
1.04409501188e-05
1.05131829101e-05
1.05107429594e-05
1.04378575823e-05
1.03837055839e-05
1.03538402192e-05
1.03399771464e-05
1.03381181148e-05
1.03413233388e-05
1.03466044668e-05
1.03516635339e-05
1.0357998838e-05
1.03600380825e-05
1.03537601167e-05
1.03493122583e-05
1.03438389771e-05
1.03401426463e-05
1.03416633585e-05
1.03546319001e-05
1.03843946108e-05
1.04378335424e-05
1.05107051729e-05
1.05077124233e-05
1.04345416039e-05
1.03809268759e-05
1.03519408713e-05
1.03375390621e-05
1.03346336946e-05
1.0336896608e-05
1.03413156572e-05
1.03459161324e-05
1.03489214009e-05
1.03496333629e-05
1.03478294509e-05
1.03437366585e-05
1.03390758629e-05
1.03363325757e-05
1.03388256777e-05
1.03524694307e-05
1.03811586502e-05
1.04343163681e-05
1.0507611171e-05
1.05076055521e-05
1.04332795574e-05
1.03794403792e-05
1.0352094846e-05
1.03374221849e-05
1.03332004817e-05
1.03344782454e-05
1.03379796168e-05
1.03418359331e-05
1.03445064555e-05
1.03451743642e-05
1.03435547715e-05
1.0340143167e-05
1.03364516396e-05
1.03347994415e-05
1.03385325017e-05
1.03524884819e-05
1.03795653599e-05
1.04329290651e-05
1.05075323055e-05
1.05122285375e-05
1.04349889654e-05
1.03808382687e-05
1.0355807033e-05
1.03422001595e-05
1.03372532949e-05
1.03372434705e-05
1.03397498374e-05
1.03429664245e-05
1.03452573474e-05
1.03458424758e-05
1.03444816664e-05
1.03416921614e-05
1.03390295035e-05
1.03386615028e-05
1.03431924069e-05
1.03565124372e-05
1.03809378058e-05
1.04346554093e-05
1.05122166256e-05
1.05156857756e-05
1.04400272369e-05
1.03884711388e-05
1.03644937545e-05
1.03556521995e-05
1.03516037072e-05
1.03512847378e-05
1.03532225264e-05
1.0355941703e-05
1.03580283849e-05
1.03585407419e-05
1.0357260873e-05
1.03548892377e-05
1.03528770302e-05
1.03528162189e-05
1.03566191676e-05
1.03647523829e-05
1.03884955053e-05
1.04398162147e-05
1.05157053082e-05
1.05162647793e-05
1.04514489438e-05
1.04086321749e-05
1.0388303405e-05
1.03805308132e-05
1.03789148641e-05
1.03801781139e-05
1.03830749305e-05
1.03860538324e-05
1.03884390508e-05
1.03889011916e-05
1.03872978344e-05
1.03847723231e-05
1.0381711337e-05
1.03799682519e-05
1.03811546421e-05
1.03885829745e-05
1.04087220314e-05
1.0451339907e-05
1.05162344277e-05
1.05202785819e-05
1.04773817927e-05
1.04512625578e-05
1.04398722555e-05
1.04348036768e-05
1.04327707675e-05
1.04336011137e-05
1.04369535577e-05
1.04402738188e-05
1.04420576905e-05
1.0442367795e-05
1.04412174013e-05
1.043844045e-05
1.04350216626e-05
1.04332642426e-05
1.04346670568e-05
1.04398148093e-05
1.04514331544e-05
1.04774002175e-05
1.05201743526e-05
1.05300157064e-05
1.05201557743e-05
1.05161955686e-05
1.05158601078e-05
1.05131313683e-05
1.05079517742e-05
1.05067785174e-05
1.05099252972e-05
1.05127116535e-05
1.0514086302e-05
1.05143189038e-05
1.05134583659e-05
1.05113203626e-05
1.0508405066e-05
1.05072844295e-05
1.05113962108e-05
1.05154645151e-05
1.05162507877e-05
1.05202525276e-05
1.05300037421e-05
1.05251840159e-05
1.0510953546e-05
1.04993512941e-05
1.04965738013e-05
1.04931928908e-05
1.04909012356e-05
1.04911021973e-05
1.04921601189e-05
1.04929127674e-05
1.04931374319e-05
1.04931580263e-05
1.0493064194e-05
1.04925994341e-05
1.04917059481e-05
1.04911288726e-05
1.04924953697e-05
1.04957926168e-05
1.04992552873e-05
1.05105619957e-05
1.05252100485e-05
1.05108508468e-05
1.04485286779e-05
1.04086219646e-05
1.0392798475e-05
1.03867138824e-05
1.03855067783e-05
1.038676397e-05
1.03891449973e-05
1.03915543372e-05
1.03930784464e-05
1.03933372143e-05
1.03922460278e-05
1.03901235991e-05
1.03877756225e-05
1.03863935903e-05
1.03874676752e-05
1.03933794729e-05
1.04090195376e-05
1.04481666581e-05
1.05108401044e-05
1.04989824007e-05
1.04084292165e-05
1.03572216181e-05
1.03281697356e-05
1.03155264103e-05
1.03121636824e-05
1.03129185977e-05
1.03153587303e-05
1.03181092253e-05
1.03199640825e-05
1.03204386703e-05
1.03193468264e-05
1.03170776969e-05
1.03147163298e-05
1.03139164266e-05
1.03171984227e-05
1.0329440235e-05
1.03580135616e-05
1.0409277322e-05
1.04997503805e-05
1.04957538385e-05
1.039265315e-05
1.03283733974e-05
1.02891949385e-05
1.0268039321e-05
1.02593016175e-05
1.02576935298e-05
1.02595354502e-05
1.02624596946e-05
1.02648158412e-05
1.02655580882e-05
1.02643866828e-05
1.02620172854e-05
1.02601861663e-05
1.02615801511e-05
1.02700336108e-05
1.02908767181e-05
1.03292304374e-05
1.0393581433e-05
1.04967732239e-05
1.04923383091e-05
1.03866345904e-05
1.03158543618e-05
1.02682304663e-05
1.0241568242e-05
1.02315028716e-05
1.0230513053e-05
1.02331668745e-05
1.02367194312e-05
1.0239602094e-05
1.02405394646e-05
1.02391307497e-05
1.02360546434e-05
1.0233381416e-05
1.02344175013e-05
1.02440678205e-05
1.02698149797e-05
1.03168454983e-05
1.03875783788e-05
1.04934443735e-05
1.0490520316e-05
1.03854478515e-05
1.0312469676e-05
1.02595039991e-05
1.02315597127e-05
1.02224260534e-05
1.0222862559e-05
1.02265709864e-05
1.02310237476e-05
1.02346874839e-05
1.02358390241e-05
1.02339357976e-05
1.02294833271e-05
1.02250282649e-05
1.02249550631e-05
1.02344361368e-05
1.02614026717e-05
1.03135448985e-05
1.03864564275e-05
1.04915846092e-05
1.04909544512e-05
1.03867190625e-05
1.03132083768e-05
1.02577711968e-05
1.0230584061e-05
1.02233591503e-05
1.02255338439e-05
1.02305568139e-05
1.02362926764e-05
1.02409340864e-05
1.0242274274e-05
1.02397056634e-05
1.0233560712e-05
1.02267394033e-05
1.02247995252e-05
1.0233564075e-05
1.02602539805e-05
1.03144221003e-05
1.03878191522e-05
1.04919842698e-05
1.04919121258e-05
1.0389028122e-05
1.03155262122e-05
1.02593419586e-05
1.02332155332e-05
1.02277554583e-05
1.02316196926e-05
1.02383323362e-05
1.02455761755e-05
1.02515942988e-05
1.02531540953e-05
1.02493817479e-05
1.02417880746e-05
1.02328940993e-05
1.0228924858e-05
1.02365134921e-05
1.02625087251e-05
1.03170057773e-05
1.03902620397e-05
1.04929962818e-05
1.04924891008e-05
1.03912288525e-05
1.03179522043e-05
1.02617007076e-05
1.02362631354e-05
1.02319528833e-05
1.02373007695e-05
1.02456019572e-05
1.02553909669e-05
1.02626097559e-05
1.02642390068e-05
1.02597366977e-05
1.02497093566e-05
1.02393674175e-05
1.02338840468e-05
1.02402876825e-05
1.02655592066e-05
1.03195919016e-05
1.0392590426e-05
1.04936285829e-05
1.04926178218e-05
1.03925151667e-05
1.03194621633e-05
1.02632733225e-05
1.0238140525e-05
1.02343907878e-05
1.02405793585e-05
1.02499770673e-05
1.02611566864e-05
1.02689812324e-05
1.02706310069e-05
1.02656996006e-05
1.02548966362e-05
1.02432389896e-05
1.0237018859e-05
1.0242745601e-05
1.02675625732e-05
1.0321185104e-05
1.03939439498e-05
1.04937870612e-05
1.04926198144e-05
1.03925146756e-05
1.03194501109e-05
1.02632362573e-05
1.0238085998e-05
1.0234309053e-05
1.02404694484e-05
1.02498424177e-05
1.02610140289e-05
1.02688427449e-05
1.02704889805e-05
1.02655440953e-05
1.02547338111e-05
1.02430883316e-05
1.02368885247e-05
1.02426411673e-05
1.02674837892e-05
1.03211403177e-05
1.03939301684e-05
1.04937905665e-05
1.04925024365e-05
1.03912304672e-05
1.03179199355e-05
1.02616067998e-05
1.02361223877e-05
1.02317436526e-05
1.02370158101e-05
1.02452514247e-05
1.02550033766e-05
1.02622174617e-05
1.02638304025e-05
1.02592996068e-05
1.02492609481e-05
1.0238964303e-05
1.02335387326e-05
1.02400092983e-05
1.02653477836e-05
1.03194729422e-05
1.03925547673e-05
1.04936379819e-05
1.04919389032e-05
1.0389046723e-05
1.03155045527e-05
1.02592357718e-05
1.02330627278e-05
1.02275684719e-05
1.02313848393e-05
1.02380197911e-05
1.0245191999e-05
1.0251160899e-05
1.02526939651e-05
1.0248929493e-05
1.0241345796e-05
1.02324896207e-05
1.02285460416e-05
1.02361671622e-05
1.02622321033e-05
1.03168507237e-05
1.0390223191e-05
1.04930173632e-05
1.04909958002e-05
1.03867714316e-05
1.03132325919e-05
1.02576947711e-05
1.02304574625e-05
1.02232668269e-05
1.02254887068e-05
1.02304719427e-05
1.02360991097e-05
1.0240638357e-05
1.02419350953e-05
1.02393871538e-05
1.02333003439e-05
1.02264903804e-05
1.02244797122e-05
1.02332168593e-05
1.02599824814e-05
1.03142815445e-05
1.03877991715e-05
1.04920253708e-05
1.04905790427e-05
1.03855455587e-05
1.03125536422e-05
1.02594689947e-05
1.0231438401e-05
1.02223103853e-05
1.02228094426e-05
1.02265024644e-05
1.02308367046e-05
1.02343775774e-05
1.02354829712e-05
1.02336164273e-05
1.02292234391e-05
1.02247461226e-05
1.02245975861e-05
1.02340917736e-05
1.02611745791e-05
1.03134600478e-05
1.03864742406e-05
1.04916530778e-05
1.04923562695e-05
1.03867633926e-05
1.03159863077e-05
1.02682289525e-05
1.02414439681e-05
1.02312889504e-05
1.02302423679e-05
1.02328206051e-05
1.02362560991e-05
1.02390294186e-05
1.02399222971e-05
1.02385459158e-05
1.02355331485e-05
1.02329041186e-05
1.02339910467e-05
1.02437514824e-05
1.02696405492e-05
1.0316847908e-05
1.0387639663e-05
1.0493475337e-05
1.0495732111e-05
1.03927896506e-05
1.03285291828e-05
1.02892353201e-05
1.02678943848e-05
1.02590153388e-05
1.0257290668e-05
1.02590186029e-05
1.02618283062e-05
1.02640925063e-05
1.02647957938e-05
1.02636528709e-05
1.0261356943e-05
1.02596160097e-05
1.02611275051e-05
1.02697321989e-05
1.02907582207e-05
1.03292923237e-05
1.03936679596e-05
1.04967441342e-05
1.04989803352e-05
1.04085386268e-05
1.03573733389e-05
1.03282476834e-05
1.03154808124e-05
1.03119336643e-05
1.03125336533e-05
1.0314851217e-05
1.03174986119e-05
1.03192903316e-05
1.03197399575e-05
1.03186670958e-05
1.0316466161e-05
1.03142055014e-05
1.03135546536e-05
1.0317041264e-05
1.03294297535e-05
1.03580960026e-05
1.04093496524e-05
1.04997325299e-05
1.05106778549e-05
1.04483112376e-05
1.04087351238e-05
1.03929008635e-05
1.03867610046e-05
1.03854886296e-05
1.03866740174e-05
1.03889893741e-05
1.03913445113e-05
1.03928329878e-05
1.03930798778e-05
1.03920103888e-05
1.03899278446e-05
1.03876388892e-05
1.03863233102e-05
1.03874630682e-05
1.0393435778e-05
1.04090961957e-05
1.04478753719e-05
1.05105966899e-05
1.05251828132e-05
1.05108529693e-05
1.04994042373e-05
1.04966532746e-05
1.04933095195e-05
1.04910531157e-05
1.04912306714e-05
1.0492261212e-05
1.04929994889e-05
1.04932158445e-05
1.04932393826e-05
1.04931530279e-05
1.04927010692e-05
1.04918368736e-05
1.04912976296e-05
1.0492639357e-05
1.04958710461e-05
1.04992929801e-05
1.05104679947e-05
1.05251797475e-05
1.05108544979e-05
1.04958335511e-05
1.04926894338e-05
1.04892219506e-05
1.04866619678e-05
1.04858428216e-05
1.04854305837e-05
1.04849709043e-05
1.04844271594e-05
1.04838553132e-05
1.04832456341e-05
1.04833901228e-05
1.04842960675e-05
1.04851303118e-05
1.048584992e-05
1.04865738144e-05
1.04885704209e-05
1.04920043635e-05
1.04956915181e-05
1.0510896623e-05
1.04954151573e-05
1.0418353631e-05
1.03854587168e-05
1.03677366683e-05
1.03604399433e-05
1.03588647465e-05
1.03600419649e-05
1.03620369273e-05
1.03638555376e-05
1.03649844771e-05
1.03651782293e-05
1.03643899566e-05
1.03629133684e-05
1.0361203848e-05
1.0360183045e-05
1.0361763871e-05
1.03689054064e-05
1.03863654033e-05
1.0419503011e-05
1.04963123704e-05
1.04917992584e-05
1.03852197065e-05
1.03221135461e-05
1.02852190416e-05
1.02674422929e-05
1.02610724937e-05
1.02606416778e-05
1.02620763244e-05
1.02636900518e-05
1.02647980928e-05
1.02653151635e-05
1.02651224399e-05
1.02642169081e-05
1.02632081581e-05
1.0263838977e-05
1.02701298946e-05
1.02874816817e-05
1.03237311662e-05
1.03867605737e-05
1.04933354527e-05
1.04881527701e-05
1.03676337446e-05
1.02854755562e-05
1.02320522488e-05
1.02042495587e-05
1.01924006438e-05
1.01893326829e-05
1.01897886366e-05
1.01915427223e-05
1.01934524558e-05
1.01944013654e-05
1.01940223703e-05
1.01925043198e-05
1.01917129632e-05
1.01952634515e-05
1.02074597279e-05
1.0234764043e-05
1.0287259641e-05
1.03691431692e-05
1.04899732257e-05
1.04858806421e-05
1.03603512618e-05
1.02677715047e-05
1.02043664386e-05
1.0170702064e-05
1.01564628627e-05
1.01521065173e-05
1.01511883589e-05
1.01526679172e-05
1.01554418512e-05
1.01568748357e-05
1.01561583613e-05
1.01529679026e-05
1.01507868364e-05
1.01558376774e-05
1.01726837746e-05
1.02074635044e-05
1.02699323387e-05
1.03619798982e-05
1.04877043441e-05
1.04851053048e-05
1.03586503186e-05
1.02612029994e-05
1.01927393463e-05
1.01575830095e-05
1.01432583136e-05
1.0137924764e-05
1.01355694555e-05
1.01370639539e-05
1.01410644023e-05
1.01430005672e-05
1.01416256103e-05
1.01355801649e-05
1.01300605012e-05
1.0134911134e-05
1.01551047561e-05
1.01953686609e-05
1.02640179919e-05
1.0360562446e-05
1.0486985581e-05
1.04844217112e-05
1.03595993913e-05
1.02605641982e-05
1.01903509962e-05
1.01557136462e-05
1.01423922127e-05
1.01375552454e-05
1.01354747954e-05
1.01379487018e-05
1.01433139402e-05
1.0145672255e-05
1.01433180301e-05
1.01337941954e-05
1.01234228714e-05
1.0126090938e-05
1.01479763922e-05
1.01916256377e-05
1.02638654877e-05
1.03619182915e-05
1.04864690779e-05
1.04836577886e-05
1.03613138524e-05
1.02617445884e-05
1.01916724186e-05
1.0158013082e-05
1.01464957442e-05
1.01435732366e-05
1.01436092694e-05
1.01481129795e-05
1.01547949318e-05
1.01572695401e-05
1.01537501773e-05
1.01412982816e-05
1.0126788985e-05
1.01262029947e-05
1.01476590236e-05
1.01921202915e-05
1.02654815637e-05
1.03640711862e-05
1.04858679936e-05
1.04828837906e-05
1.03628006521e-05
1.02628227741e-05
1.01932759094e-05
1.01605349406e-05
1.01506121762e-05
1.01499739783e-05
1.01529502491e-05
1.01600419754e-05
1.01680136415e-05
1.01699664443e-05
1.01648929078e-05
1.01504551518e-05
1.01335774599e-05
1.01306237461e-05
1.01505731827e-05
1.01942876472e-05
1.02671574138e-05
1.03660242577e-05
1.04852191481e-05
1.04823792668e-05
1.03636224737e-05
1.02633550065e-05
1.01941423777e-05
1.0161875916e-05
1.01528131858e-05
1.01536043255e-05
1.01588220525e-05
1.01687849545e-05
1.01785320024e-05
1.01786988192e-05
1.01715502992e-05
1.01557962542e-05
1.01379920684e-05
1.01339252822e-05
1.0152900646e-05
1.01958718731e-05
1.0268110042e-05
1.03672278009e-05
1.04847472905e-05
1.0482380523e-05
1.03636176867e-05
1.02633138159e-05
1.01940735338e-05
1.01617682377e-05
1.01526544319e-05
1.015341106e-05
1.01586557895e-05
1.01688826404e-05
1.01789083572e-05
1.01786900856e-05
1.01712916327e-05
1.01554761534e-05
1.01376845074e-05
1.01336620516e-05
1.01526927664e-05
1.01957169179e-05
1.02680058012e-05
1.03672006775e-05
1.04847519153e-05
1.04828720776e-05
1.03627919446e-05
1.02627120711e-05
1.01930952876e-05
1.01602746029e-05
1.01502404594e-05
1.014951649e-05
1.01524936241e-05
1.01597876776e-05
1.01679181299e-05
1.01695600368e-05
1.01641773568e-05
1.01496441107e-05
1.01328034698e-05
1.01299518728e-05
1.0150028894e-05
1.01938690285e-05
1.02668762057e-05
1.03659415079e-05
1.04852144818e-05
1.04836309625e-05
1.03613121424e-05
1.02616121061e-05
1.01914921336e-05
1.01579101173e-05
1.01465002962e-05
1.01436866037e-05
1.01437844948e-05
1.01482925482e-05
1.01549087876e-05
1.01572044992e-05
1.01535853333e-05
1.0141136649e-05
1.0126659699e-05
1.0125929982e-05
1.01472006433e-05
1.01916033418e-05
1.0265091766e-05
1.03639442452e-05
1.04858514507e-05
1.04843887923e-05
1.03596094901e-05
1.02604506673e-05
1.01902291508e-05
1.01558902787e-05
1.01430659243e-05
1.01387196389e-05
1.01369145886e-05
1.01393407582e-05
1.01445174091e-05
1.01467562173e-05
1.01444110848e-05
1.01350307308e-05
1.01245412798e-05
1.01265818792e-05
1.01477892741e-05
1.01911229366e-05
1.02634468002e-05
1.03617781067e-05
1.04864485472e-05
1.04850734092e-05
1.03586780165e-05
1.02611210971e-05
1.01925928591e-05
1.01577088253e-05
1.01439987509e-05
1.01392991328e-05
1.01373047256e-05
1.01387331971e-05
1.01425146305e-05
1.01443644027e-05
1.01430432538e-05
1.01370793015e-05
1.01312552595e-05
1.0135344968e-05
1.01548228106e-05
1.01948562969e-05
1.02636396053e-05
1.03604450427e-05
1.0486970321e-05
1.04858573006e-05
1.03604105561e-05
1.02677242898e-05
1.02041898633e-05
1.01705389973e-05
1.01566280802e-05
1.01526525621e-05
1.01519049184e-05
1.01532705515e-05
1.01558363941e-05
1.01571844991e-05
1.01565181395e-05
1.01533709459e-05
1.01509935612e-05
1.01556119192e-05
1.01721615153e-05
1.02069937745e-05
1.0269643181e-05
1.03619207684e-05
1.04877075223e-05
1.04880858238e-05
1.03677246396e-05
1.02854872891e-05
1.02318773729e-05
1.02039029519e-05
1.01919565363e-05
1.01888984948e-05
1.01893194619e-05
1.01909197643e-05
1.01926624311e-05
1.01935327845e-05
1.01931914313e-05
1.01917465256e-05
1.01909557364e-05
1.01945075165e-05
1.0206849952e-05
1.02343704136e-05
1.02870965482e-05
1.03691570251e-05
1.04899294111e-05
1.04916793809e-05
1.0385337594e-05
1.03221989772e-05
1.02851038648e-05
1.0267114882e-05
1.02605379531e-05
1.02599270496e-05
1.02611908517e-05
1.0262642336e-05
1.02636375962e-05
1.02641045907e-05
1.02639365208e-05
1.02631332523e-05
1.02622671363e-05
1.026308371e-05
1.02696009744e-05
1.02872103499e-05
1.03237084891e-05
1.03868478355e-05
1.04932252774e-05
1.04953136309e-05
1.0418477862e-05
1.03856388178e-05
1.0367803964e-05
1.03603685291e-05
1.03586715372e-05
1.03597250818e-05
1.03616018056e-05
1.03633247517e-05
1.03644107307e-05
1.03645878869e-05
1.03638116537e-05
1.0362398015e-05
1.03607861194e-05
1.03598897956e-05
1.03616163918e-05
1.0368912123e-05
1.03865218295e-05
1.04196579661e-05
1.04962016054e-05
1.05106963437e-05
1.04958303368e-05
1.04928329574e-05
1.04894278414e-05
1.04868886422e-05
1.04860395457e-05
1.04855789907e-05
1.04850862268e-05
1.04845180193e-05
1.04839125679e-05
1.04832942515e-05
1.04834723407e-05
1.0484407093e-05
1.04852760191e-05
1.04860425374e-05
1.04868269536e-05
1.04888194352e-05
1.04921540006e-05
1.04956750469e-05
1.05106633546e-05
1.0483287635e-05
1.04915432439e-05
1.04876344837e-05
1.04853880385e-05
1.04816067963e-05
1.04777515357e-05
1.04749616529e-05
1.04728965148e-05
1.04704284678e-05
1.04687686493e-05
1.04684144653e-05
1.04696009461e-05
1.04717313953e-05
1.04735640077e-05
1.04763237985e-05
1.0480497452e-05
1.04848109647e-05
1.0487994446e-05
1.04920383194e-05
1.04838301182e-05
1.04911965635e-05
1.04069983052e-05
1.03626293597e-05
1.03399720626e-05
1.03300787386e-05
1.03267693381e-05
1.03263867258e-05
1.03269577073e-05
1.0327789163e-05
1.03275858332e-05