/*--------------------------------*- C++ -*----------------------------------*\
| =========                 |                                                 |
| \\      /  F ield         | OpenFOAM: The Open Source CFD Toolbox           |
|  \\    /   O peration     | Version:  3.0.1                                 |
|   \\  /    A nd           | Web:      www.OpenFOAM.org                      |
|    \\/     M anipulation  |                                                 |
\*---------------------------------------------------------------------------*/
FoamFile
{
    version     2.0;
    format      ascii;
    class       volVectorField;
    location    "7.7";
    object      ddt0(U);
}
// * * * * * * * * * * * * * * * * * * * * * * * * * * * * * * * * * * * * * //

dimensions      [0 1 -2 0 0 0 0];

internalField   nonuniform List<vector> 
7968
(
(0.000537630796187 0.00054057133055 -0.000620255776267)
(0.0014003808416 0.000615141864815 -0.000585013068011)
(0.00183056956905 0.000639422985922 -0.000420578488817)
(0.00198098758124 0.000623095288024 -0.000330731840971)
(0.0017427119482 0.000559222048275 -7.93802140421e-05)
(0.00150252497036 0.000495515600344 -8.28567060217e-05)
(0.00111112774579 0.000465375991356 -4.87517119639e-05)
(0.000723360889423 0.000484221463634 -3.7337858888e-05)
(0.000398258096494 0.000529155097829 -6.11461717959e-05)
(0.00013611875961 0.000565622502753 -7.39562862681e-05)
(-8.68022759218e-05 0.000565370838154 -7.35723033779e-05)
(-0.000348596153551 0.000528275775049 -5.99765200999e-05)
(-0.000673657260136 0.000482412905072 -3.52376660607e-05)
(-0.00106269241816 0.000462653599704 -4.59430302214e-05)
(-0.0014573127281 0.000492185585446 -7.95130725823e-05)
(-0.00170208537973 0.000555271696916 -7.59370619987e-05)
(-0.00194864075552 0.000618580963207 -0.000327139463531)
(-0.00180741797119 0.000634458683566 -0.000417407418217)
(-0.00138704119153 0.000609786249911 -0.000582086048212)
(-0.00053327550727 0.0005353722463 -0.000617085057877)
(0.000612260262485 0.00140849030537 -0.000584495729441)
(0.00147063015673 0.00147910333395 -0.00059539980789)
(0.0018326196999 0.00150511640763 -0.000433251094076)
(0.00196446612822 0.00149305634035 -0.000349256323546)
(0.00177405546854 0.00140677145926 -5.90359870185e-05)
(0.0015340212478 0.00120661904953 -1.43361581007e-05)
(0.00120168134758 0.00109451231569 0.000148722692687)
(0.00080909635619 0.00101172420672 0.000296472175521)
(0.00042773330759 0.000965611948721 0.000371580671096)
(0.000135784684865 0.000952031661015 0.000366675414755)
(-8.75470386349e-05 0.000950893357876 0.000367270773162)
(-0.000379161114105 0.000962138301497 0.000373384608029)
(-0.000760637836197 0.0010058298145 0.000299325267793)
(-0.00115462575887 0.00108651403879 0.000152070267932)
(-0.00149005429022 0.00119703127334 -1.07617866837e-05)
(-0.00173434598181 0.00139549539478 -5.50258909736e-05)
(-0.00193342046034 0.00148032649017 -0.000345653379863)
(-0.00181021536801 0.00149093879473 -0.000430033653233)
(-0.00145722526695 0.0014637568779 -0.000592339219006)
(-0.000607696152634 0.00139318267346 -0.000581586319484)
(0.000636586294441 0.00184301382895 -0.000419708978766)
(0.0014964934183 0.00184602214825 -0.000432759691531)
(0.00183172369476 0.00184580905774 -0.000228024380321)
(0.00191031026524 0.00176079449792 -0.000130051007018)
(0.0017726245981 0.00155707338039 0.000120371088231)
(0.00151831702566 0.00119104553646 0.000214360300438)
(0.00126418789966 0.000903890863396 0.000387573856884)
(0.000939219376184 0.000645709804989 0.000595725224097)
(0.000559724073771 0.000472131811674 0.000783537305316)
(0.000191327122281 0.000399134273821 0.000836353950843)
(-0.000145266131901 0.000397365999502 0.000836852377918)
(-0.000513681590623 0.000466864373997 0.000785414135919)
(-0.000893547597557 0.000637063773643 0.000598131389375)
(-0.00121987154493 0.000892102939972 0.000390140601094)
(-0.00147690793266 0.00117644811849 0.000216914538618)
(-0.00173552794066 0.00154008097188 0.000123780952435)
(-0.00188147328523 0.00174117440297 -0.000127145383341)
(-0.00181115052267 0.00182373988392 -0.00022531592167)
(-0.00148394732986 0.00182202093371 -0.000430204068078)
(-0.000632205722595 0.0018182581275 -0.000417060518336)
(0.000620388510978 0.00199721073576 -0.000329645499317)
(0.00148446544665 0.00198213794249 -0.000347939125398)
(0.00174635498165 0.00192909707309 -0.000129171463533)
(0.00174871558846 0.00176830470682 -2.89104898264e-05)
(0.00157800439787 0.00145595168988 0.000176193291076)
(0.00129856475137 0.000941574852934 0.000235237451457)
(0.00109593412606 0.000495802309752 0.000330411796994)
(0.000853634555642 6.40498444574e-05 0.00046304296487)
(0.000545533873177 -0.000239100176194 0.000592363990449)
(0.000197072280956 -0.000388684312845 0.000658920150373)
(-0.000154410459829 -0.000390884310646 0.000659253566761)
(-0.000502924186659 -0.000245547447635 0.000593462235661)
(-0.000811477444602 5.35434349152e-05 0.000464598148876)
(-0.00105507897704 0.000481472081467 0.000332198519412)
(-0.00126055528626 0.000923468441869 0.000236911938583)
(-0.00154430966521 0.0014346198325 0.000178881883298)
(-0.00172286052216 0.00174349046478 -2.6749936437e-05)
(-0.00172813884855 0.00190115489098 -0.000127121031505)
(-0.00147312236457 0.00195179647925 -0.000345871922566)
(-0.000616233807929 0.00196549320484 -0.000327142060389)
(0.00055688465192 0.00176102859438 -7.83194644744e-05)
(0.00139878548723 0.00179365993951 -5.6954112831e-05)
(0.0015430326704 0.00179395567074 0.000122535946642)
(0.00143629735791 0.0016009542378 0.000177587861107)
(0.00121038074232 0.00123419764866 0.000290751557972)
(0.000910284302163 0.000635544555779 0.000265745805685)
(0.000752549832618 6.32097455709e-05 0.000281962499825)
(0.000581857846747 -0.000478650430616 0.000357786089021)
(0.000380024630951 -0.000877313963052 0.000380791470153)
(0.000146981100598 -0.0010738865009 0.000304635131557)
(-0.000107801453399 -0.00107620862944 0.000304691873426)
(-0.000341023589833 -0.000884263889311 0.00038085567719)
(-0.000543349639799 -0.000490152875069 0.000358799270047)
(-0.000715543398943 4.73669003094e-05 0.000283089619879)
(-0.000876201705525 0.000615238722444 0.00026678208939)
(-0.00118077662525 0.00121009273186 0.000293266994835)
(-0.00141388268455 0.00157262061084 0.000179177133484)
(-0.00152733953348 0.00176217109066 0.000124037300169)
(-0.00138864223573 0.00175926871524 -5.53064976415e-05)
(-0.000552998303815 0.00172516777221 -7.61560875869e-05)
(0.00049371913876 0.0015217744179 -8.12641464352e-05)
(0.00119976118412 0.00155460912985 -1.14670654498e-05)
(0.00117805306336 0.00154090448061 0.000217509210679)
(0.000922694486802 0.00132327020977 0.000237838574126)
(0.000611909897057 0.000936660355159 0.000267180266802)
(0.000310388010548 0.000337291030698 0.000124775423153)
(0.000206062124473 -0.000231576620737 4.73540630907e-05)
(0.000157069226352 -0.000758484074539 4.14356336484e-05)
(0.000107345163964 -0.00115436999429 8.76335421304e-05)
(4.80002846589e-05 -0.00135047065954 0.000102488088774)
(-1.2266612239e-05 -0.00135286961277 0.000102840560982)
(-7.20436409517e-05 -0.00116151441834 8.866075529e-05)
(-0.000122838071722 -0.000770147095483 4.25161657388e-05)
(-0.0001737464557 -0.000247716726178 4.82296483507e-05)
(-0.000281227470975 0.000316464209582 0.000125281529941)
(-0.000586816863187 0.000911397685413 0.000268516108366)
(-0.000904238977847 0.00129362791414 0.000238773241731)
(-0.00116537286641 0.00150751685333 0.000218562130185)
(-0.00119153258016 0.00151821438626 -9.90535847058e-06)
(-0.00049035934594 0.00148358983284 -7.92547520995e-05)
(0.000464122344255 0.00113027718022 -4.71295142853e-05)
(0.00108891277774 0.00122140664887 0.000151772224808)
(0.000892505143501 0.00128590552476 0.000391556232695)
(0.000478545019218 0.00112003822702 0.000334177785511)
(4.05529589216e-05 0.00077891755121 0.000285035618323)
(-0.000258156665806 0.000233620963422 4.89685075545e-05)
(-0.000313439831222 -0.00028556236232 -9.51055974473e-05)
(-0.00025609503408 -0.00077579378862 -0.000139226050264)
(-0.000129456291805 -0.00110001284642 -0.000345131404655)
(-3.28422065626e-05 -0.00129594863936 -0.000357258794454)
(6.48131556283e-05 -0.00129839220855 -0.000357117554523)
(0.000160844407957 -0.00110723886737 -0.000345024704831)
(0.000286196101591 -0.000787658671373 -0.000137761376355)
(0.000341157183007 -0.000301772029118 -9.4156095581e-05)
(0.00028247838439 0.00021279782139 4.95162697886e-05)
(-2.01876835077e-05 0.000753539076132 0.000286111853089)
(-0.000464178780038 0.00109018163808 0.000334939737647)
(-0.000882810490046 0.00125212908782 0.0003923704431)
(-0.00108234120521 0.00118443712613 0.000153007921469)
(-0.00046115852386 0.00109123451264 -4.55509655988e-05)
(0.00048340555985 0.000742216140333 -3.59719810018e-05)
(0.00100733857994 0.000827224302234 0.000299188761641)
(0.000636347636817 0.000958597581595 0.000599820114863)
(4.91438141428e-05 0.000875031076215 0.000467392872589)
(-0.00049943534073 0.000605611446102 0.000362169995303)
(-0.000783972689167 0.000182224235203 4.44282736537e-05)
(-0.000803361091345 -0.000230128506674 -0.000138198814088)
(-0.00062981784852 -0.00060374970947 -0.000394177936017)
(-0.000387801334755 -0.000896022059347 -0.000444015759867)
(-0.000124261510675 -0.00103213854043 -0.000482180378852)
(0.00015222399965 -0.00103453588479 -0.000482041893213)
(0.00041519661327 -0.000903146159253 -0.000443791541305)
(0.000655757636529 -0.000615700002711 -0.000393250177588)
(0.000826568659999 -0.000246182184361 -0.000136585161279)
(0.000803458922708 0.000161874820657 4.54594270072e-05)
(0.000514959135012 0.00058078190623 0.000363390542854)
(-3.91107632499e-05 0.000845755603624 0.000468257745744)
(-0.000630094746338 0.00092524368574 0.000600796148931)
(-0.00100300703589 0.000790469498896 0.00030038024769)
(-0.000481200499178 0.000703236067071 -3.46875046169e-05)
(0.000528388841292 0.000416392192344 -5.95893292916e-05)
(0.000961930410587 0.000444350027859 0.000373526340577)
(0.000464401761042 0.000576459935189 0.000786795507564)
(-0.000251874892474 0.000563150644781 0.000596224765479)
(-0.000896283034151 0.000398904438041 0.000387447220041)
(-0.00117829040691 0.000127835506718 9.04914504512e-05)
(-0.00112626840261 -0.000108220749955 -0.000343216986726)
(-0.000922365898406 -0.000365777874699 -0.000443612488393)
(-0.000583927473898 -0.000561338921231 -0.000529562527148)
(-0.000194706747 -0.000646614805888 -0.000587913604854)
(0.000218078794505 -0.000648945191871 -0.000587779379239)
(0.000606644534015 -0.000568397324099 -0.000529160265521)
(0.000943375351032 -0.000377499272482 -0.00044297724287)
(0.00114447125334 -0.00012407618137 -0.000342338360502)
(0.00119269704806 0.00010781736686 9.22231763938e-05)
(0.000906528693809 0.000374706849564 0.000388411076852)
(0.000257106120391 0.000534440303055 0.000597386140785)
(-0.000462066691152 0.000543642191161 0.000788037966796)
(-0.000960250559588 0.00040813757035 0.000374517633925)
(-0.000527167085492 0.000378176248458 -5.87356819202e-05)
(0.000564524500863 0.000152826799061 -7.19406559568e-05)
(0.000948378785404 0.000150868911535 0.000368260317491)
(0.000391699076205 0.000205407272704 0.000839580516716)
(-0.000400776619059 0.000210653726677 0.000662060435088)
(-0.00109202049374 0.000160913641466 0.000309398582068)
(-0.00137366875647 6.28006967193e-05 0.000105071311604)
(-0.0013210374584 -1.70651553727e-05 -0.000357814047643)
(-0.0010572759021 -0.000107069614384 -0.00048283391258)
(-0.000668887688993 -0.000176342762336 -0.000588278743101)
(-0.000226081047203 -0.000207484205412 -0.000655801556987)
(0.000244694439624 -0.000209673573797 -0.000655612474819)
(0.000686704875328 -0.000183047244049 -0.000587748274166)
(0.00107329759941 -0.000118378395678 -0.000481931464184)
(0.00133402539578 -3.26842077967e-05 -0.000356585326788)
(0.00138277000439 4.30097383058e-05 0.000107107230965)
(0.00109687253664 0.000136991076255 0.000311434276787)
(0.000400838219912 0.000182488191773 0.000663242536108)
(-0.000393613110464 0.000173212864627 0.000840165287993)
(-0.000949422817176 0.00011556343188 0.000368531218789)
(-0.000564224206062 0.000115913770318 -7.13855209972e-05)
(0.000564099242389 -7.23725488299e-05 -7.19763604152e-05)
(0.000946710818543 -7.48315747756e-05 0.000368654531021)
(0.000388850276561 -0.000134567282977 0.000839477580961)
(-0.000404203547042 -0.000145348511265 0.000661574840158)
(-0.00109521908027 -9.93852464919e-05 0.000308036777808)
(-0.00137658622242 -3.67574456031e-06 0.000104599320673)
(-0.00132397900391 7.46344017551e-05 -0.000358130885593)
(-0.00106002771058 0.000163967787868 -0.000483071159771)
(-0.000671474506812 0.000231677979877 -0.000588443375533)
(-0.000228414111087 0.000259418231843 -0.000656061332543)
(0.000242473913498 0.000257364646144 -0.000655844049923)
(0.000684625355665 0.000225377171535 -0.000587807603588)
(0.00107124007245 0.000153306010743 -0.000482100932998)
(0.00133197221837 5.96828197292e-05 -0.000356826296485)
(0.00138066958266 -2.29166870453e-05 0.000106819576878)
(0.00109503753004 -0.000122665644442 0.000310734140177)
(0.000399362718375 -0.000172559265371 0.000662784014891)
(-0.000394712900658 -0.000165495128279 0.000839654199455)
(-0.00095013598476 -0.000108415064809 0.000368064740641)
(-0.000564525155282 -0.000107397513011 -7.17831349262e-05)
(0.000526749701629 -0.000336605294318 -5.94128785834e-05)
(0.000956802563668 -0.000369407953365 0.000374300464356)
(0.000456303541406 -0.000506752958166 0.000786973269826)
(-0.000261335394822 -0.00049869213196 0.000594889112313)
(-0.000905400238867 -0.000338557062143 0.000382834716981)
(-0.00118661145742 -7.0287546335e-05 8.92856841788e-05)
(-0.00113433245161 0.000163543246956 -0.000345066389354)
(-0.000929933535901 0.000419796215681 -0.000444740830722)
(-0.000591470949326 0.000613491244295 -0.000529921232222)
(-0.000201753007 0.000695423517628 -0.000587944154151)
(0.000211359369177 0.000693528881584 -0.000587686971285)
(0.00060018770652 0.000607624796965 -0.000529272439115)
(0.000936817090926 0.000409843580356 -0.0004435673069)
(0.00113792038553 0.000149416206013 -0.000343185057331)
(0.00118622426704 -8.86858900028e-05 9.16879215361e-05)
(0.000900902314261 -0.000360918634607 0.000385743641331)
(0.000252619173764 -0.000524405238514 0.000596221083787)
(-0.000465302699068 -0.000535498588448 0.000786931000747)
(-0.000962251120682 -0.000400319608442 0.000373376294858)
(-0.000527983559943 -0.000368939078256 -5.97124706345e-05)
(0.000480418051599 -0.000664266565511 -3.54777771909e-05)
(0.000998993888171 -0.000754218401498 0.000299703510379)
(0.000624057114141 -0.000890637248175 0.00059900215898)
(3.4941202533e-05 -0.000812078991419 0.000465020027524)
(-0.000513729237342 -0.000546648971593 0.000358728226773)
(-0.000796761981241 -0.000127678746371 4.19129690733e-05)
(-0.000815648251492 0.000281504143743 -0.000138573589019)
(-0.000642113620173 0.000652294272515 -0.000395002568235)
(-0.000400191514418 0.000941810422988 -0.000444137277822)
(-0.000136066234865 0.00107351849434 -0.000482314820699)
(0.000141363603345 0.00107172846984 -0.000482091529393)
(0.000404727095949 0.000936245410583 -0.000443560482804)
(0.000644790634642 0.000642880432903 -0.000393775825447)
(0.000815348570722 0.000268060466049 -0.000135950853539)
(0.000792534749311 -0.000145179287999 4.46981216322e-05)
(0.000505707248977 -0.000567962537539 0.000361734921332)
(-4.64670144676e-05 -0.000836069127992 0.00046658427874)
(-0.000635233019999 -0.000916827406093 0.000599320190357)
(-0.00100592038539 -0.000781955425278 0.0002990560524)
(-0.000482234011969 -0.000693090537001 -3.59736832354e-05)
(0.000460029991967 -0.00105605292599 -4.66715492146e-05)
(0.00107792860844 -0.00115161026842 0.000151988506432)
(0.000876728016069 -0.00122068163199 0.000390225198318)
(0.00046015352799 -0.00105961653685 0.000331566922665)
(2.15034444915e-05 -0.000723075428203 0.000281369189027)
(-0.000275555451051 -0.000183354763092 4.5690463449e-05)
(-0.000329838710927 0.00033102507181 -9.67702359172e-05)
(-0.000272158681534 0.000817215940382 -0.000138880670368)
(-0.000145579522984 0.00113658856788 -0.0003449101933)
(-4.84783411175e-05 0.0013276838441 -0.000358313691548)
(5.00610781492e-05 0.00132603793631 -0.000358025164637)
(0.000146410108007 0.001131536527 -0.000344213434489)
(0.000271109394416 0.000808614398581 -0.000136591166669)
(0.000325662699975 0.000318643300902 -9.40958871227e-05)
(0.000267723748292 -0.00019949196655 4.83241091697e-05)
(-3.26013715861e-05 -0.000742692586883 0.00028405303779)
(-0.00047393461336 -0.00108140295119 0.000333083335451)
(-0.000889458979864 -0.00124413354625 0.000390832814848)
(-0.00108574760108 -0.00117602219139 0.000151843315304)
(-0.000462087022672 -0.00108102051463 -4.69079837643e-05)
(0.0004890233905 -0.00145335363754 -8.05213523357e-05)
(0.00118675309956 -0.00148989221895 -1.1276499582e-05)
(0.00115900276441 -0.00148038628407 0.00021628397365)
(0.000899954423025 -0.00126738690994 0.000235410554726)
(0.000587541964538 -0.000885685933117 0.000263815306812)
(0.000287437829578 -0.000292660598063 0.000121161650897)
(0.000184436159935 0.000270292740663 4.50806677641e-05)
(0.000136449160028 0.00079167282982 4.09164760822e-05)
(8.74093055423e-05 0.0011822896266 8.84438755247e-05)
(2.88567816179e-05 0.0013737433795 0.00010439059028)
(-3.05440005895e-05 0.0013722368797 0.000104768985658)
(-8.98945538658e-05 0.00117780831532 8.97578046678e-05)
(-0.000141015859829 0.000784177361201 4.31405987102e-05)
(-0.000192171427221 0.000259615422121 4.76189514547e-05)
(-0.000298632860653 -0.000306571371085 0.000123405878375)
(-0.000601479314822 -0.000902637122097 0.000266090296502)
(-0.000915785872768 -0.00128615331224 0.000236842094912)
(-0.00117308724564 -0.00150054625131 0.000217049404455)
(-0.00119518096885 -0.00151072742728 -1.09977511673e-05)
(-0.00049115864606 -0.00147436002854 -8.037080998e-05)
(0.000551832781897 -0.00170037530376 -7.69552619981e-05)
(0.00138422638931 -0.00173607857533 -5.61240648346e-05)
(0.00152101699289 -0.00174020987786 0.000122359229444)
(0.00140937910126 -0.0015514139352 0.000176618558921)
(0.00118100188208 -0.00118963201644 0.000289756965725)
(0.00088126057853 -0.000596819204008 0.000263673595382)
(0.000724819144307 -3.06442173355e-05 0.000280553894285)
(0.000555751654671 0.000504943378032 0.000357389004996)
(0.000354728071087 0.000897574863094 0.000386395409434)
(0.000124232533961 0.0010885570783 0.00030720598909)
(-0.000128419270091 0.00108727885996 0.000307467227777)
(-0.000360066093731 0.000893732783474 0.00038597842744)
(-0.000563033397597 0.000498780311453 0.000359372021583)
(-0.000735288330531 -3.92326438963e-05 0.000282647014738)
(-0.000894954951607 -0.000607885347768 0.000265399041572)
(-0.00119701134962 -0.00120317510018 0.000291789115288)
(-0.00142676621298 -0.00156649539182 0.000177743044337)
(-0.00153610288126 -0.00175651033951 0.00012297372658)
(-0.00139317738526 -0.00175302356164 -5.56873784191e-05)
(-0.000554144429324 -0.00171736156187 -7.6299399064e-05)
(0.000614698294369 -0.0019474107692 -0.000327764530501)
(0.00146863263824 -0.0019351254741 -0.000346665751671)
(0.00172159611197 -0.00188566542963 -0.000128655233459)
(0.00171786474118 -0.00172871974222 -2.90744424518e-05)
(0.00154360371215 -0.00142067512303 0.000175534279731)
(0.00126388240205 -0.000911538473948 0.000234050900412)
(0.00106231391424 -0.000471312524421 0.00032945510528)
(0.00082195209996 -4.55046783604e-05 0.000462259805068)
(0.000516395373609 0.000251471024896 0.000591308301843)
(0.00017113709595 0.000395617341252 0.000657421387742)
(-0.000177094256407 0.000394635915522 0.000657780945066)
(-0.000523216470181 0.000248593913918 0.000592473170252)
(-0.000831039223632 -5.00495326881e-05 0.000464165021616)
(-0.00107472213043 -0.000477448551129 0.000331665338738)
(-0.00127959975563 -0.000919339220977 0.000236006931261)
(-0.00156141656537 -0.00143035697926 0.000177632834684)
(-0.00173667840817 -0.00173951164107 -2.75746388654e-05)
(-0.00173762475435 -0.00189744264064 -0.000127577675444)
(-0.00147796392309 -0.00194748353305 -0.000345567589793)
(-0.000617019641945 -0.00195975768845 -0.000326292162322)
(0.000630595015297 -0.00180685879966 -0.000417270863018)
(0.00147949276255 -0.00181188567712 -0.000430876848959)
(0.00180458869389 -0.00181436012102 -0.000227051028369)
(0.00187619492529 -0.00173211110611 -0.000129560582517)
(0.00173434610067 -0.00153144505154 0.000120455951872)
(0.00147905137973 -0.00116926912146 0.000214170197534)
(0.00122576274249 -0.000886099478 0.000387358375847)
(0.0009029439566 -0.000632403289559 0.000595384652509)
(0.00052661795569 -0.00046347620838 0.000782500203064)
(0.000162403071378 -0.000394371191839 0.000834944112568)
(-0.000169761780344 -0.000395057314039 0.000835278373173)
(-0.000534786564154 -0.000465399709277 0.000783692819101)
(-0.000913307924917 -0.00063528062694 0.000597470093309)
(-0.00123953582955 -0.000889812095163 0.0003898109898)
(-0.00149624272626 -0.00117392365029 0.000216442589041)
(-0.0017534746271 -0.00153730511238 0.000122917144629)
(-0.00189628598947 -0.00173866106519 -0.00012770116175)
(-0.00182154178057 -0.00182155968829 -0.000225588388865)
(-0.00148929304056 -0.00181943861073 -0.000429274225165)
(-0.000633046199783 -0.00181394998104 -0.000415114501987)
(0.00060572825928 -0.00138721118771 -0.000580628985014)
(0.00145238161967 -0.00145879262566 -0.000592706348624)
(0.00180343223582 -0.00148622561993 -0.000431836957458)
(0.00192766662942 -0.00147544327017 -0.000348298820318)
(0.0017327869179 -0.00139056615563 -5.83913055806e-05)
(0.00149112831125 -0.00119270560658 -1.36318753468e-05)
(0.00115945943763 -0.00108284486425 0.000149190856951)
(0.000769327495311 -0.00100277210553 0.000296629884955)
(0.000391937634925 -0.00095945576229 0.000371013589509)
(0.000105018436101 -0.000948039390338 0.000365448420195)
(-0.000113280351203 -0.000948344796234 0.000365790505638)
(-0.000400893689404 -0.000960265365217 0.000372228339238)
(-0.00078034388855 -0.00100384411869 0.000298883356163)
(-0.00117386637238 -0.00108409255943 0.000151944209284)
(-0.00150910326409 -0.00119432224132 -1.09071177454e-05)
(-0.00175253335753 -0.00139262756011 -5.54362528739e-05)
(-0.00194856678288 -0.00147766177148 -0.000345759695373)
(-0.0018209041179 -0.00148858914263 -0.000429648743799)
(-0.00146210275312 -0.00146072234172 -0.000590371206824)
(-0.000607980392029 -0.00138811257668 -0.000577819277593)
(0.000530997781872 -0.000533233270952 -0.000615904937153)
(0.00138156958354 -0.000607984598348 -0.000581104894566)
(0.0018001997998 -0.000632695825741 -0.000418353622163)
(0.00194234438174 -0.000616632475982 -0.000328826119542)
(0.00169946482658 -0.000553213737445 -7.80086937526e-05)
(0.00145727577317 -0.000490106030391 -8.17665174613e-05)
(0.00106661824249 -0.000460628971884 -4.81406838479e-05)
(0.00068180810941 -0.000480468644352 -3.69283137543e-05)
(0.000361366629603 -0.000526358314629 -6.07446196959e-05)
(0.000104649125638 -0.000563333682431 -7.33698627325e-05)
(-0.000113071266386 -0.000563469405514 -7.30329279028e-05)
(-0.000370511169999 -0.000526689473907 -5.9664051958e-05)
(-0.000692961173437 -0.000480760127206 -3.50582188137e-05)
(-0.00108103452126 -0.000460700711699 -4.5727740945e-05)
(-0.00147537055196 -0.000490041119593 -7.91773252446e-05)
(-0.00171949871859 -0.000553181634867 -7.53211725244e-05)
(-0.0019631709902 -0.000616457463579 -0.00032604700155)
(-0.00181713686658 -0.000632471508189 -0.000415831442644)
(-0.00139019806209 -0.000607355708974 -0.00057842549936)
(-0.000532707606373 -0.000532107208562 -0.000612787596047)
(0.000382566883092 0.00038529183601 -0.00315233844616)
(0.000921995909899 0.000397565025763 -0.00283263817633)
(0.00106768915159 0.000583646246767 -0.00214656822005)
(0.000793557744244 0.000699958302066 -0.00158182713672)
(0.000383889736632 0.000720430306624 -0.00116506722216)
(6.46072786757e-05 0.000719021484133 -0.000794421550945)
(-0.000260012579305 0.000705833984526 -0.000584908341625)
(-0.000448048846605 0.000711034583834 -0.00057222807894)
(-0.000385284602668 0.000739736353005 -0.000698606033042)
(-0.000130839548324 0.000756099436686 -0.000827640397516)
(0.000181549491943 0.000755634932666 -0.00082629941914)
(0.000436163209676 0.000738386410924 -0.000694598526902)
(0.000498436087773 0.000708686286813 -0.000565244745247)
(0.000308893826252 0.000702794283952 -0.000575428947776)
(-1.88270247712e-05 0.000715342715047 -0.000783482307962)
(-0.000343377430228 0.000716324780651 -0.00115399983971)
(-0.000760532317919 0.000695646296451 -0.0015709677175)
(-0.00104455918413 0.000578975667607 -0.00213628547811)
(-0.000908108676063 0.000392480868385 -0.00282260278683)
(-0.000378359593575 0.000379867944388 -0.00314251224912)
(0.000395029197001 0.00092891718824 -0.00283128048066)
(0.000847564179394 0.000855426453883 -0.00209606878499)
(0.00107119859739 0.00114465963972 -0.00133781158201)
(0.0009418986042 0.001445899258 -0.000794769335273)
(0.00064262387042 0.00157856312376 -0.000413838751883)
(0.000344453830685 0.00158412772458 -7.92234075762e-05)
(4.39908862228e-05 0.00152284346367 0.000187256218918)
(-0.000186181953549 0.001425861121 0.000358204361779)
(-0.000262346383193 0.00130926334017 0.000404661680449)
(-0.000114711052411 0.00116795882982 0.000374450380812)
(0.000163461929132 0.00116671325658 0.000375673881155)
(0.000311381408772 0.00130581917329 0.000408322810217)
(0.000235097689277 0.0014198123096 0.000364474171732)
(3.64126188462e-06 0.00151480045736 0.00019544194437)
(-0.000299885382896 0.00157437512978 -7.0284930431e-05)
(-0.000603209047217 0.00156733389611 -0.000404834941268)
(-0.000909808024819 0.00143339526063 -0.000786104269466)
(-0.00104809532308 0.00113079866083 -0.00132971593835)
(-0.000833221051604 0.000840771265467 -0.00208746253715)
(-0.000390148481138 0.000914079067376 -0.00282254325418)
(0.000580556379979 0.00107941546375 -0.00214458935885)
(0.00113657603081 0.00108423632519 -0.00133667121958)
(0.00141136719919 0.00142509526518 -0.00046853688454)
(0.00129163821034 0.00170704077468 5.58890639717e-05)
(0.00102386898004 0.00177400948778 0.000397501624955)
(0.000755006099702 0.00165354776661 0.000687140345749)
(0.000509675197668 0.00143593909774 0.000966414744055)
(0.000307492459163 0.00119638569032 0.00124087484719)
(0.000115712582809 0.00100919856436 0.00144759227566)
(1.64651125683e-05 0.000914122245396 0.00159665912282)
(3.00104322462e-05 0.00091218408566 0.00159749034251)
(-6.93447250929e-05 0.00100347636965 0.00145004800828)
(-0.000261496202396 0.00118711750907 0.00124554886724)
(-0.000464554988201 0.0014236607371 0.000972137838135)
(-0.000712720864161 0.00163871091017 0.000693390018031)
(-0.000986611594736 0.00175688329555 0.000403965521246)
(-0.00126158753482 0.00168763000766 6.22896841295e-05)
(-0.00138961555166 0.00140341927991 -0.000462666311243)
(-0.00112248665809 0.00106085643824 -0.0013300128293)
(-0.000576145017021 0.00105526874377 -0.0021368166763)
(0.000696970194023 0.000808902189135 -0.00157864956125)
(0.00143775478706 0.000958939681357 -0.000791304066103)
(0.00169263443162 0.00130996330419 5.81000605285e-05)
(0.00154140181273 0.00156074110471 0.000526888136795)
(0.00123688720761 0.00153997825169 0.000778277118729)
(0.000931046527006 0.00128655368924 0.000944699210396)
(0.000680153369872 0.000912378086342 0.00111588739929)
(0.000477883447164 0.000525554415637 0.00132589248616)
(0.000285785786744 0.000212991498571 0.00151802065427)
(0.000106170123774 8.35730485575e-05 0.00164235362958)
(-6.30916545599e-05 8.12313335036e-05 0.0016430235492)
(-0.000242597332627 0.000205940033089 0.00151995349232)
(-0.00043485560549 0.000514515081715 0.00132905763871)
(-0.000638161380467 0.000897580227775 0.00111962577019)
(-0.00089192215825 0.00126836082463 0.000948711832844)
(-0.00120293685908 0.00151910728766 0.000782470410638)
(-0.00151440394076 0.00153621485288 0.000531511321585)
(-0.00167341190497 0.00128254955497 6.2709035824e-05)
(-0.00142484459898 0.000929363317322 -0.000786196937423)
(-0.000692431773491 0.000777822876021 -0.00157189926369)
(0.000717387856925 0.000402165299493 -0.0011600695167)
(0.00157019653776 0.000661847086906 -0.00040814816327)
(0.00175947097147 0.00104493794326 0.000402447048079)
(0.00152019560549 0.00125952992137 0.000781179742282)
(0.0011383717626 0.00116195047394 0.000877522249326)
(0.00079624055872 0.000827050176235 0.000865601061959)
(0.000565207111292 0.00037932772357 0.000835703334439)
(0.000401161633736 -8.4704727295e-05 0.000864665501788)
(0.000252792973802 -0.000459190169506 0.000985663439504)
(0.000101063203915 -0.000656105066629 0.0010981587295)
(-6.13053698366e-05 -0.000658529283994 0.00109872956228)
(-0.000213083223603 -0.000466423595932 0.000987556191028)
(-0.000361960177573 -9.64047504155e-05 0.000866781396997)
(-0.000527261301992 0.000363319946099 0.000838120245942)
(-0.000760828199531 0.000806789047636 0.000867983013166)
(-0.00110843545057 0.00113774528746 0.00087953233658)
(-0.00149741506962 0.00123167303089 0.000784094816185)
(-0.00174316739643 0.00101394329627 0.000405848459755)
(-0.00155912172408 0.00062873005878 -0.000403851095163)
(-0.000712954714805 0.000367064212411 -0.00115412734419)
(0.000716346718424 8.29859126916e-05 -0.000788354927315)
(0.00157628260925 0.000363798500392 -7.17175284586e-05)
(0.00163977716522 0.000776775666605 0.000694726784907)
(0.00126725257218 0.000954996312298 0.000950648082401)
(0.000803427540633 0.000821746623049 0.000868803750023)
(0.000454001233621 0.000480171982551 0.000637774195421)
(0.000247561931088 2.47577924839e-05 0.000402019996144)
(0.00014596386551 -0.000429572606303 0.000258308137071)
(9.53597422748e-05 -0.000781587623357 0.000203825863765)
(4.77149097061e-05 -0.000977916582838 0.000203926896041)
(-1.14382930207e-05 -0.00098032381278 0.000204436835673)
(-5.94506939717e-05 -0.000788776191808 0.000205234952654)
(-0.000110924659712 -0.000441398573411 0.000260192786158)
(-0.000214341372181 8.38093304515e-06 0.000403984186895)
(-0.000423924148231 0.000459121720266 0.00063952634946)
(-0.000778061284407 0.000795811656852 0.000870506852131)
(-0.00124788854456 0.000925552478409 0.000952724855001)
(-0.0016264088922 0.000744205603262 0.00069732445153)