/*--------------------------------*- C++ -*----------------------------------*\
| =========                 |                                                 |
| \\      /  F ield         | OpenFOAM: The Open Source CFD Toolbox           |
|  \\    /   O peration     | Version:  3.0.1                                 |
|   \\  /    A nd           | Web:      www.OpenFOAM.org                      |
|    \\/     M anipulation  |                                                 |
\*---------------------------------------------------------------------------*/
FoamFile
{
    version     2.0;
    format      ascii;
    class       volScalarField;
    location    "7.7";
    object      ddt0(k);
}
// * * * * * * * * * * * * * * * * * * * * * * * * * * * * * * * * * * * * * //

dimensions      [0 2 -3 0 0 0 0];

internalField   nonuniform List<scalar> 
7968
(
-4.78519678134e-05
-5.5546928053e-05
-6.36723611777e-05
-6.95546224259e-05
-7.37557648246e-05
-7.64602938342e-05
-7.82331311745e-05
-7.89193808051e-05
-7.87509109813e-05
-7.81910868216e-05
-7.82042520672e-05
-7.87780458022e-05
-7.8954947456e-05
-7.82715690243e-05
-7.64985378082e-05
-7.37905300268e-05
-6.95848407261e-05
-6.36968840442e-05
-5.55657445323e-05
-4.78610833783e-05
-5.55472867565e-05
-9.00203341148e-05
-0.000116807167921
-0.000134100810107
-0.000144406645847
-0.000149430425336
-0.000151995457561
-0.000153117686886
-0.000153626029708
-0.000153868483566
-0.000153881466602
-0.000153650285722
-0.000153145419414
-0.000152022798131
-0.000149459869047
-0.000144438893612
-0.000134133739846
-0.00011683706741
-9.00433869731e-05
-5.55581440384e-05
-6.36709656805e-05
-0.000116806736276
-0.000154805999996
-0.0001785209506
-0.000192270030064
-0.000198829369024
-0.000201892801897
-0.000203613765316
-0.000205321184327
-0.000206613041594
-0.000206623878722
-0.00020533901685
-0.000203627246753
-0.000201900734098
-0.000198838387235
-0.000192286686145
-0.000178541926306
-0.00015482735832
-0.000116823219434
-6.3680822922e-05
-6.95513323009e-05
-0.000134101248509
-0.000178525333173
-0.000205139246957
-0.000219509525102
-0.000225323049329
-0.000226772841904
-0.000222209417442
-0.000222919180967
-0.000224418139287
-0.000224425768728
-0.000222923104464
-0.000222200704116
-0.000226760085007
-0.000225308552663
-0.000219504708619
-0.000205141295099
-0.000178531640228
-0.000134108322025
-6.95598247086e-05
-7.37506976901e-05
-0.000144414602999
-0.000192290494621
-0.000219529794856
-0.000232355649556
-0.000232722974965
-0.000235068143124
-0.000235302393411
-0.000236046838226
-0.000237236322497
-0.000237241514328
-0.00023604481672
-0.000235286666823
-0.000235048025511
-0.000232700151006
-0.00023233032275
-0.00021951039203
-0.000192278842807
-0.000144410018181
-7.37576669365e-05
-7.64552463477e-05
-0.000149454850631
-0.000198878407581
-0.000225380172672
-0.000232749320026
-0.000238161228635
-0.000240396216443
-0.000240424030553
-0.000240313499098
-0.000240881489024
-0.000240885632906
-0.000240309694548
-0.000240406301083
-0.000240369157435
-0.000238129827695
-0.000232718743893
-0.000225343810489
-0.000198853325423
-0.000149443189577
-7.64622418668e-05
-7.82215213028e-05
-0.000152034069721
-0.000201974406067
-0.000226873986081
-0.00023513074821
-0.000240432221863
-0.000241231042334
-0.000239574231105
-0.000237914692417
-0.000237489489304
-0.000237493543134
-0.000237911182134
-0.000239558766514
-0.000241204936708
-0.000240400853041
-0.000235098910307
-0.000226835731416
-0.000201945250933
-0.000152018675012
-7.82282487585e-05
-7.8897587877e-05
-0.000153162249932
-0.00020371746108
-0.000222316211581
-0.000235399513864
-0.000240500512084
-0.000239617320624
-0.000235879185971
-0.000232456534177
-0.000230860845468
-0.000230866285506
-0.000232458086705
-0.00023587224175
-0.00023960205854
-0.000240480104738
-0.000235376320683
-0.00022229171464
-0.000203700645784
-0.000153152639288
-7.89038895533e-05
-7.87190138337e-05
-0.000153660039502
-0.00020541955829
-0.000223017643773
-0.000236150819761
-0.000240410844321
-0.000237989798794
-0.000232490872486
-0.000227213495783
-0.00022435361826
-0.000224361727929
-0.000227223333996
-0.000232497930999
-0.000237994116635
-0.000240414774362
-0.000236154797399
-0.000223022189043
-0.000205428808224
-0.000153663137646
-7.87225700135e-05
-7.81564749982e-05
-0.000153884728459
-0.000206692899422
-0.00022449297766
-0.000237324135473
-0.000240972669263
-0.000237564155486
-0.000230904078391
-0.000224367980139
-0.000220594781778
-0.000220606640082
-0.000224387729432
-0.000230927895736
-0.000237591878667
-0.000241004437504
-0.000237358479505
-0.000224527055015
-0.000206728083168
-0.000153898546486
-7.81520395212e-05
-7.81797766566e-05
-0.000153884925706
-0.000206672570661
-0.000224471558169
-0.000237301754639
-0.000240956096005
-0.000237559572532
-0.000230915855467
-0.000224395855491
-0.000220634320704
-0.000220648745128
-0.000224424484292
-0.000230955017018
-0.00023760804037
-0.000241011703897
-0.000237360743124
-0.000224528097928
-0.000206729287967
-0.000153903980679
-7.81648674156e-05
-7.87613818334e-05
-0.00015364865354
-0.000205360581563
-0.000222944544484
-0.000236076707284
-0.000240353006339
-0.000237961501334
-0.000232503985454
-0.000227266514497
-0.000224432943967
-0.000224448269237
-0.000227301628148
-0.000232556066769
-0.000238027570995
-0.000240427570842
-0.000236156139257
-0.000223022019988
-0.000205433869762
-0.000153678900534
-7.87463193935e-05
-7.89472478706e-05
-0.000153143140135
-0.000203632959681
-0.000222201593257
-0.000235290142793
-0.000240416224612
-0.000239575895766
-0.000235891988034
-0.000232521748597
-0.000230957175782
-0.000230972522293
-0.000232559138662
-0.000235948431805
-0.000239646461742
-0.000240495633595
-0.000235376399315
-0.000222290417947
-0.000203713366118
-0.000153181434215
-7.89383496027e-05
-7.82736185832e-05
-0.000152024043388
-0.000201898027014
-0.000226745778996
-0.000235027880205
-0.000240349541238
-0.000241188908746
-0.000239588621501
-0.000237984296845
-0.000237588148813
-0.000237603045468
-0.000238020666308
-0.000239642163167
-0.000241252241074
-0.000240417483627
-0.000235100829529
-0.000226834039925
-0.000201966223997
-0.000152059852708
-7.82717234572e-05
-7.65100929657e-05
-0.000149470719027
-0.000198838662034
-0.000225289734175
-0.000232669969212
-0.000238095621267
-0.000240365013504
-0.000240442614132
-0.000240380275941
-0.000240977025163
-0.000240991469223
-0.000240414833173
-0.000240490124894
-0.000240417390235
-0.000238147477996
-0.000232722033243
-0.000225347013222
-0.000198884075702
-0.000149495901393
-7.6512496187e-05
-7.38112717139e-05
-0.000144465234851
-0.000192301752534
-0.000219499046478
-0.000232298074482
-0.000232684529551
-0.00023505859015
-0.000235331082706
-0.000236113587471
-0.000237325818673
-0.00023734023714
-0.000236147312265
-0.000235375195787
-0.00023510473001
-0.000232725163189
-0.000232334455972
-0.000219529736274
-0.000192326001692
-0.000144479529555
-7.38162028116e-05
-6.96141811625e-05
-0.000134182413464
-0.000178582058659
-0.00020516233909
-0.000219506153988
-0.00022531656058
-0.000226793588614
-0.000222252106313
-0.000222989551013
-0.000224503421129
-0.000224518760034
-0.000223025172786
-0.000222298284856
-0.000226843516555
-0.000225353761552
-0.000219533828957
-0.000205182342904
-0.000178596050703
-0.000134191153978
-6.96213234256e-05
-6.37340033118e-05
-0.000116905552931
-0.000154890309606
-0.000178577506979
-0.000192303234407
-0.000198857046221
-0.000201935203605
-0.000203683791004
-0.000205415066635
-0.000206721268693
-0.000206739154764
-0.00020545732208
-0.000203738446355
-0.000201986556192
-0.000198896945289
-0.000192333361018
-0.000178597834284
-0.000154904273431
-0.000116915964404
-6.37446723158e-05
-5.56086571171e-05
-9.0115247583e-05
-0.000116894279752
-0.000134167491381
-0.000144455275808
-0.000149474011131
-0.000152043630359
-0.000153178415274
-0.000153695690871
-0.000153939519218
-0.000153955067692
-0.000153732506483
-0.000153227749801
-0.000152092696551
-0.000149515527263
-0.000144489596223
-0.000134192877139
-0.000116913660634
-9.01311759096e-05
-5.56227721824e-05
-4.79044837581e-05
-5.56092307951e-05
-6.3730633622e-05
-6.96066366148e-05
-7.38022740152e-05
-7.65049400977e-05
-7.82761542847e-05
-7.89602485501e-05
-7.87850273851e-05
-7.82175678159e-05
-7.82276924689e-05
-7.88076645314e-05
-7.89923262409e-05
-7.83116501694e-05
-7.65389714398e-05
-7.3832806459e-05
-6.96317050603e-05
-6.37512645247e-05
-5.56269590355e-05
-4.79184446973e-05
-2.81584459601e-05
-5.05845871821e-05
-7.22847242041e-05
-8.92346318641e-05
-0.000101087625007
-0.000108513358907
-0.000111388403003
-0.000109160762173
-0.000103185949637
-9.77897252756e-05
-9.78095112317e-05
-0.000103242138229
-0.000109246177396
-0.000111483838201
-0.000108606085942
-0.000101168587691
-8.93013926236e-05
-7.23389149816e-05
-5.06276612324e-05
-2.8185904644e-05
-5.05783754773e-05
-0.000135710491144
-0.00019586260238
-0.000239935236518
-0.000269372840585
-0.000287950848996
-0.000297939880397
-0.000301493302817
-0.000300762987473
-0.000298762067411
-0.00029877966401
-0.000300807309856
-0.000301558259762
-0.000298019380198
-0.000288040749755
-0.00026946683439
-0.00024002602368
-0.000195942246707
-0.000135772314888
-5.0608363612e-05
-7.22749678826e-05
-0.000195862195837
-0.000277597349982
-0.000336492140974
-0.000376233709791
-0.000401088223122
-0.00041495802642
-0.000422443454575
-0.000425140490725
-0.000422883323406
-0.00042287873925
-0.000425162815957
-0.000422472044298
-0.000414994959882
-0.00040113785378
-0.000376295617423
-0.000336558265911
-0.000277655251769
-0.000195908118175
-7.23005095586e-05
-8.92253791343e-05
-0.000239938778118
-0.000336501809921
-0.000403249623794
-0.000446416970106
-0.000471334108874
-0.000481086266972
-0.000492593249985
-0.000497590561731
-0.000499936356489
-0.000499940603793
-0.000497595246011
-0.000492592890244
-0.000481080349733
-0.000471338245601
-0.000446437209537
-0.000403279089189
-0.00033653086305
-0.000239962428808
-8.92416404871e-05
-0.000101081121645
-0.000269384335063
-0.000376261491807
-0.000446440151364
-0.00048918275628
-0.000511721995891
-0.000520908990887
-0.000526299715537
-0.00052947996834
-0.00053147903206
-0.000531481734278
-0.000529472146127
-0.000526275610165
-0.000520870660854
-0.000511686369344
-0.00048917253679
-0.000446434199243
-0.00037626234314
-0.000269390437525
-0.00010109137515
-0.000108502786835
-0.000287972810133
-0.00040114141486
-0.000471389610659
-0.000511763502035
-0.000529400931253
-0.000534458559956
-0.000534956411151
-0.000535040242296
-0.0005358730968
-0.000535874541481
-0.000535027180361
-0.000534920203205
-0.000534403263655
-0.000529342152332
-0.000511717413225
-0.000471358612842
-0.000401123767403
-0.000287970338
-0.000108514397828
-0.000111353756666
-0.000297963627861
-0.000415033695695
-0.000481158612441
-0.000521000733871
-0.000534522694311
-0.000534949286034
-0.000530818661616
-0.000526762269323
-0.000525426361437
-0.000525425461593
-0.000526741892175
-0.000530783362735
-0.000534894856505
-0.000534463416163
-0.000520951036114
-0.000481125507265
-0.0004150138928
-0.000297963486011
-0.000111371787647
-0.000109092503934
-0.000301505956447
-0.000422535462163
-0.000492719390948
-0.000526447516657
-0.000535091403973
-0.000530900123889
-0.000521910085409
-0.00051507164511
-0.000511654081709
-0.000511655465352
-0.000515061239899
-0.000521890107654
-0.000530870589288
-0.000535059269147
-0.000526422828363
-0.00049270499776
-0.000422531710749
-0.000301516699649
-0.000109109823028
-0.000103092871284
-0.000300751415343
-0.000425229188324
-0.000497734797331
-0.000529659178703
-0.00053521871847
-0.000526917186702
-0.000515143566516
-0.000504988278996
-0.000499549768159
-0.000499556191042
-0.000504995618203
-0.000515149639151
-0.00052692366588
-0.000535234990535
-0.000529680935045
-0.000497760188519
-0.000425258071832
-0.000300775807272
-0.000103089997655
-9.77009650732e-05
-0.000298730934817
-0.000423021875453
-0.000500070494062
-0.000531646309941
-0.000536047895602
-0.000525568762608
-0.000511742425049
-0.000499586046561
-0.00049290647585
-0.000492919951874
-0.000499614989397
-0.000511785686861
-0.000525625348195
-0.000536118951585
-0.000531725031969
-0.000500145150706
-0.00042307378895
-0.000298762110557
-9.76630850552e-05
-9.77429379672e-05
-0.000298738740288
-0.000422962628626
-0.000500021482782
-0.000531595956855
-0.000536009566834
-0.000525549770513
-0.000511752567569
-0.000499623647276
-0.000492962928539
-0.000492983036115
-0.000499673884444
-0.000511830365313
-0.000525651198053
-0.000536128838605
-0.000531725207252
-0.00050014543591
-0.000423075288262
-0.000298775711837
-9.7677258157e-05
-0.000103201762833
-0.000300764997287
-0.000425155420631
-0.000497612350546
-0.000529517969897
-0.00053510251559
-0.000526843421319
-0.000515150784141
-0.000505073776814
-0.000499685120523
-0.000499710107546
-0.000505139784211
-0.000515257712521
-0.000526983818194
-0.000535256019538
-0.000529678022633
-0.000497761705443
-0.000425276987577
-0.000300814013658
-0.000103129514458
-0.000109228528842
-0.000301519929828
-0.000422439237477
-0.000492565720257
-0.000526260562935
-0.000534926907162
-0.000530813001982
-0.000521925398961
-0.000515189989842
-0.00051183010691
-0.00051185700036
-0.00051526261504
-0.000522043256043
-0.000530963348166
-0.000535087711421
-0.000526422249822
-0.000492714767966
-0.000422568105757
-0.000301581971995
-0.000109173453943
-0.000111484378725
-0.000297992724781
-0.00041495773806
-0.000481033169426
-0.000520819185096
-0.000534354104061
-0.000534855237336
-0.00053083788584
-0.000526892631136
-0.000525602988117
-0.000525629821722
-0.000526963769703
-0.000530952097357
-0.000534990115534
-0.000534492798288
-0.000520954597601
-0.000481150914114
-0.000415073473348
-0.00029805786611
-0.000111456576689
-0.000108626248303
-0.000288040494253
-0.000401120728244
-0.000471302733147
-0.000511631460959
-0.000529271698236
-0.000534385732871
-0.000534975995336
-0.000535151669951
-0.000536047261712
-0.000536072964944
-0.000535219234569
-0.000535072353064
-0.000534491904437
-0.000529375732881
-0.000511734941415
-0.000471405545408
-0.000401213530197
-0.00028809694394
-0.000108617024328
-0.000101207810998
-0.000269509196467
-0.000376323421101
-0.00044644061719
-0.000489149993018
-0.000511665603051
-0.000520881793302
-0.000526337059354
-0.000529590423117
-0.000531644349932
-0.000531668530073
-0.000529651204611
-0.000526419519334
-0.000520965620985
-0.000511744815759
-0.000489233764014
-0.000446519189376
-0.000376391749716
-0.000269552696171
-0.000101208157268
-8.93587566806e-05
-0.000240123079285
-0.000336647288017
-0.000403339793241
-0.0004464607805
-0.000471354667415
-0.000481107188226
-0.00049266098668
-0.000497707513975
-0.000500097976368
-0.000500122645352
-0.000497768669478
-0.000492742528671
-0.000481187300623
-0.000471435406592
-0.000446536095435
-0.00040340683423
-0.00033670169604
-0.000240158325483
-8.93661881902e-05
-7.24083421773e-05
-0.000196086425922
-0.000277803443103
-0.000336649100333
-0.000376344816488
-0.000401174003968
-0.000415043217557
-0.00042254895071
-0.000425275685208
-0.000423098402472
-0.000423124170053
-0.000425341236447
-0.000422639874235
-0.000415141443696
-0.000401268328369
-0.000376428616883
-0.000336719079197
-0.000277857619724
-0.000196122543097
-7.24239743248e-05
-5.06967790006e-05
-0.000135926972138
-0.000196083130511
-0.000240118435167
-0.000269519582573
-0.000288076345944
-0.000298059500844
-0.000301616181473
-0.000300889999059
-0.000298895667713
-0.00029891987486
-0.000300954281472
-0.000301709500238
-0.00029816576451
-0.000288180920398
-0.000269612246583
-0.000240194034662
-0.000196139815605
-0.000135966825619
-5.07199827149e-05
-2.82440962752e-05
-5.07180236263e-05
-7.24254735542e-05
-8.93638113798e-05
-0.00010120432614
-0.000108623133634
-0.000111492710927
-0.00010925730095
-0.000103264528129
-9.78535965333e-05
-9.78673446441e-05
-0.000103305645434
-0.000109324159573
-0.000111574069557
-0.000108704507222
-0.000101275741086
-8.94212539245e-05
-7.24701113668e-05
-5.0752342733e-05
-2.82716235338e-05
-8.8119436239e-06
-3.51945775035e-05
-5.86659083902e-05
-7.66773840407e-05
-8.61289136609e-05
-8.67902185037e-05
-7.7612816011e-05
-5.97082578934e-05
-4.12780210377e-05
-3.06443947997e-05
-3.06563182415e-05
-4.13222444327e-05
-5.98020345994e-05
-7.77325757533e-05
-8.69282986153e-05
-8.62490454236e-05
-7.67676075145e-05
-5.8733802294e-05
-3.52480416336e-05
-8.85375674685e-06
-3.51732980902e-05
-0.000135550374229
-0.000205333134227
-0.000259713736362
-0.000298208922325
-0.000322601747534
-0.000333798608589
-0.000332902560349
-0.000324605079543
-0.000317820500375
-0.000317848729488
-0.000324685046449
-0.000333039147351
-0.000333976636255
-0.000322792966261
-0.000298390461988
-0.000259872664053
-0.000205467224083
-0.000135648837693
-3.52359429825e-05
-5.86372501556e-05
-0.000205329705497
-0.000303330426301
-0.000382172402009
-0.00044131983505
-0.000482350471339
-0.000508941040742
-0.000521366870161
-0.000517734712495
-0.000518638977957
-0.00051866773166
-0.000517774599773
-0.000521459535571
-0.000509070599222
-0.000482500836975
-0.000441471474798
-0.000382308586093
-0.000303441981406
-0.000205414687664
-5.86916041682e-05
-7.6648199929e-05
-0.000259712343287
-0.000382187026023
-0.000475376281687
-0.000541766012205
-0.000581315137962
-0.000612371602406
-0.000629237997094
-0.000636007072237
-0.000639065425448
-0.000639080803049
-0.000636030339887
-0.000629277433285
-0.000612427327858
-0.000581383285868
-0.000541855980507
-0.000475463022808
-0.000382254983054
-0.000259762424934
-7.66754557733e-05
-8.60985489099e-05
-0.000298215502145
-0.000441352390524
-0.000541789348957
-0.000603836017333
-0.000647077624423
-0.000672308989864
-0.000686400383821
-0.000693884399785
-0.00069786080883
-0.000697869739268
-0.000693894734606
-0.000686414072221
-0.000672323213033
-0.000647090004402
-0.000603863688929
-0.000541828205978
-0.000441386911685
-0.000298237152829
-8.60999638845e-05
-8.6742806843e-05
-0.000322608244775
-0.000482397675021
-0.00058134949731
-0.000647106448272
-0.000683934724647
-0.000703029786076
-0.000712301152671
-0.000716725647144
-0.000719078570608
-0.000719081323355
-0.000716721014964
-0.00071230968246
-0.000703055488656
-0.000683936558563
-0.000647093509398
-0.00058135027286
-0.000482414877586
-0.000322618316091
-8.67233916276e-05
-7.75164721832e-05
-0.000333785830048
-0.000508996165116
-0.000612438945082
-0.000672377092709
-0.000703076621323
-0.000716586640316
-0.000720748338002
-0.000721334259617
-0.00072115526664
-0.000721150896878
-0.000721311109447
-0.000720753340634
-0.000716647741172
-0.000703124123921
-0.000672360925229
-0.000612429670896
-0.000509011380292
-0.000333799003218
-7.7477955214e-05
-5.96048160405e-05
-0.000332862584135
-0.000521411340199
-0.000629325173626
-0.000686505230093
-0.000712401770115
-0.000720816937274
-0.000719834316686
-0.000715629797674
-0.000712688464437
-0.000712682196903
-0.000715605324728
-0.000719850445918
-0.000720914250313
-0.000712507372584
-0.000686520443319
-0.000629328923708
-0.000521437887386
-0.000332874362794
-5.95150178287e-05
-4.11805851858e-05
-0.000324537454823
-0.000517736997302
-0.000636093218573
-0.000694009157118
-0.000716868551576
-0.000721474640701
-0.000715707545365
-0.000707051923139
-0.00070157807512
-0.000701576672456
-0.00070704534469
-0.000715759417249
-0.000721621259286
-0.000717027928873
-0.000694069582859
-0.000636128936707
-0.000517771188058
-0.000324540375008
-4.10221349382e-05
-3.05499550221e-05
-0.000317722834749
-0.000518545443123
-0.000639112392415
-0.000697976252963
-0.000719225344397
-0.000721312938478
-0.000712813154842
-0.000701639765986
-0.000694656611425
-0.000694664271606
-0.000701661327041
-0.00071291333761
-0.00072151928627
-0.00071944043944
-0.000698085079322
-0.000639193573626
-0.000518616866238
-0.00031772331857
-3.03490273842e-05
-3.05538761838e-05
-0.000317731221153
-0.000518556984202
-0.000639082915573
-0.000697936433076
-0.000719185336484
-0.000721286256151
-0.000712816474918
-0.000701673084671
-0.000694711362612
-0.000694728013908
-0.000701722149879
-0.000712960635677
-0.000721546906726
-0.000719451149662
-0.000698087061689
-0.000639197027689
-0.000518631542873
-0.0003177400551
-3.03445140634e-05
-4.12351953259e-05
-0.000324571529237
-0.000517688541905
-0.000635989142365
-0.000693890255823
-0.000716747782673
-0.000721386775462
-0.000715702143685
-0.000707129464064
-0.000701713249188
-0.000701736452436
-0.000707196622748
-0.000715876586039
-0.000721687549323
-0.000717049890632
-0.000694069504012
-0.000636132832096
-0.000517799124923
-0.000324589886885
-4.10227800114e-05
-5.973192926e-05
-0.000332928150804
-0.000521360573694
-0.000629193807962
-0.00068634968366
-0.00071225518005
-0.000720732375841
-0.000719860711332
-0.000715769705379
-0.00071290064103
-0.000712924674736
-0.000715839830341
-0.000720038482087
-0.000721031647924
-0.000712551533297
-0.000686523582107
-0.000629343121964
-0.000521496881233
-0.000332960976576
-5.95424567473e-05
-7.7682411752e-05
-0.000333874901464
-0.000508969832836
-0.000612332575049
-0.000672236532472
-0.000702955032981
-0.000716546806061
-0.00072082533879
-0.000721526282831
-0.000721408324402
-0.000721431106474
-0.000721590014869
-0.000720979739393
-0.000716795817837
-0.000703182043168
-0.000672372668767
-0.000612464505518
-0.000509100970406
-0.000333917263662
-7.75356667467e-05
-8.69025228129e-05
-0.00032271648607
-0.000482424119139
-0.000581309235975
-0.000647016572026
-0.000683844086855
-0.000703003016986
-0.000712369991376
-0.000716876470642
-0.000719276905327
-0.000719299476417
-0.000716936825477
-0.000712490580072
-0.000703168863831
-0.000683979240383
-0.00064711934511
-0.000581413269305
-0.000482532561823
-0.000322755433448
-8.68004874365e-05
-8.6248113997e-05
-0.000298355720499
-0.00044144470322
-0.000541828730526
-0.000603833118434
-0.000647041947696
-0.000672278829485
-0.000686405932012
-0.000693931535907
-0.000697947014663
-0.000697972883415
-0.00069400048135
-0.000686508109463
-0.000672389934324
-0.000647136664315
-0.000603924947821
-0.000541927348116
-0.00044152613104
-0.000298381406014
-8.6177533159e-05
-7.67859307434e-05
-0.000259889165759
-0.000382347671717
-0.000475499845283
-0.000541848553127
-0.000581354913205
-0.00061240407453
-0.000629277221737
-0.000636069358677
-0.000639143653101
-0.000639172043493
-0.00063614423108
-0.000629383755805
-0.000612519571333
-0.000581462575859
-0.000541955130544
-0.000475590506403
-0.000382409834547
-0.000259906184851
-7.67426454916e-05
-5.87590531927e-05
-0.000205524921529
-0.000303538586408
-0.000382355393302
-0.000441471631473
-0.000482482483289
-0.000509065796287
-0.000521491491276
-0.000517843788342
-0.000518720619995
-0.000518752764871
-0.000517930406765
-0.000521627210234
-0.000509220513975
-0.000482629928304
-0.000441594301115
-0.000382445044566
-0.00030359115023
-0.000205541145329
-5.87393492049e-05
-3.52617297011e-05
-0.000135739091724
-0.000205543543621
-0.000259909454076
-0.000298380991216
-0.000322762346086
-0.000333959278811
-0.000333066599865
-0.000324774505641
-0.000317996425309
-0.000318035956209
-0.000324879317017
-0.000333217950858
-0.000334129632336
-0.000322920083912
-0.000298504594211
-0.000259992205487
-0.000205588977817
-0.000135756437463
-3.52607749569e-05
-8.85557634412e-06
-3.53125095102e-05
-5.88041271345e-05
-7.68030749261e-05
-8.62393952344e-05
-8.68784910673e-05
-7.7663016115e-05
-5.97260511867e-05
-4.12479327723e-05
-3.05827337588e-05
-3.0601610107e-05
-4.12997993872e-05
-5.98088147452e-05
-7.77651436109e-05
-8.69763158595e-05
-8.6316215028e-05
-7.68566960965e-05
-5.88369388006e-05
-3.53296655999e-05
-8.8683754409e-06
-2.79265855982e-07
-3.00004765716e-05
-5.18589878089e-05
-6.46346637874e-05
-6.31646458168e-05
-5.01839580592e-05
-2.78150570069e-05
-8.54578720956e-06
2.92485361959e-07
3.22665439499e-06
3.2291623252e-06
3.01987556215e-07
-8.54062182457e-06
-2.77758978654e-05
-5.02363997967e-05
-6.32402236884e-05
-6.46675998798e-05
-5.18928641458e-05
-3.00258572204e-05
-3.20256393156e-07
-2.99473588075e-05
-0.000137099444211
-0.00020852132516
-0.000261575651197
-0.000296338942877
-0.000312572172762
-0.000310223519881
-0.000294071634455
-0.000277517883372
-0.000268218846455
-0.000268236783296
-0.000277574152462
-0.000294171690608
-0.000310412665752
-0.000312784145423
-0.000296529868314
-0.000261734391411
-0.000208645407117
-0.000137197993389
-3.00355212631e-05
-5.17950817918e-05
-0.000208510787398
-0.000316342555371
-0.000403615805606
-0.000472321890548
-0.000521976214318
-0.000552767085258
-0.000556438510632
-0.000561861826897
-0.000560806144416
-0.000560837148568
-0.000561939031988
-0.000556540287581
-0.00055297981954
-0.000522202683874
-0.000472511937236
-0.000403762699674
-0.000316444240064
-0.000208580965243
-5.18590738314e-05
-6.45426603703e-05
-0.0002615674685
-0.000403629946699
-0.000516855981728
-0.00060299229258
-0.000660374919171
-0.000700988033766
-0.000723303372042
-0.000735186886291
-0.000739576331527
-0.000739601689669
-0.000735246815214
-0.000723404862884
-0.000701156363864
-0.000660535722971
-0.000603103577858
-0.000516952206841
-0.000403686848895
-0.000261585712573
-6.45519552761e-05
-6.31002586978e-05
-0.00029633220517
-0.00047235999357
-0.000603018370933
-0.000690904715334
-0.000751495471867
-0.000791366113877
-0.000814681169115
-0.000826750545202
-0.000832018377872
-0.000832029900324
-0.000826777300876
-0.000814780995764
-0.000791567854851
-0.000751689726833
-0.000691012060508
-0.000603054886945
-0.000472379551702
-0.00029630037636
-6.30108598007e-05
-5.0114305622e-05
-0.000312572020712
-0.000522036381281
-0.000660412533828
-0.000751508137341
-0.000809819008367
-0.000845066222803
-0.000863565980556
-0.000871697783895
-0.000874904600173
-0.000874898033525
-0.000871679567548
-0.000863658583011
-0.000845344760696
-0.000810138050967
-0.000751705614929
-0.000660461435228
-0.00052204950923
-0.000312503240712
-4.99259387839e-05
-2.77362436596e-05
-0.000310236344032
-0.000552835618905
-0.000701033864874
-0.000791386287425
-0.000845079514532
-0.00087368211471
-0.000885358636395
-0.000888094604944
-0.000888194470597
-0.000888170895677
-0.000888031299912
-0.000885439657942
-0.000874039352902
-0.000845531828735
-0.000791706655335
-0.000701130443587
-0.000552855010085
-0.000310138563208
-2.74486932977e-05
-8.59910818317e-06
-0.000294087298175
-0.000556456112732
-0.000723337481066
-0.000814702485605
-0.000863599373801
-0.000885398027744
-0.000890046019033
-0.000886707676128
-0.000883312034891
-0.000883281444296
-0.000886630958657
-0.000890134733194
-0.000885812213561
-0.000864150304924
-0.000815105963732
-0.000723484170678
-0.000556452676593
-0.000293944782837
-8.15372106628e-06
2.46685754546e-07
-0.000277529570753
-0.000561839542095
-0.000735192882196
-0.000826774264108
-0.000871761965377
-0.000888195266422
-0.000886784280784
-0.000878181045982
-0.000871854421876
-0.000871828659885
-0.0008781222061
-0.00088692150099
-0.000888674727282
-0.000872380828246
-0.000827233735797
-0.000735393941059
-0.000561879307674
-0.000277372930304
7.43240734113e-07
3.24696936605e-06
-0.000268180641274
-0.000560741048629
-0.000739557499195
-0.000832041587999
-0.000874982755571
-0.000888331592793
-0.000883467487502
-0.000871949311084
-0.000863959548767
-0.000863945259445
-0.000871925903386
-0.000883667851614
-0.000888890003496
-0.000875668047011
-0.00083255024272
-0.000739797701053
-0.000560807891293
-0.000268041617107
3.74352867121e-06
3.3197868692e-06
-0.000268129292777
-0.000560722570135
-0.000739527560662
-0.000831992490639
-0.000874920716229
-0.000888277896436
-0.000883450220578
-0.000871969551354
-0.000864003929566
-0.000864000915996
-0.000871978484459
-0.000883705253117
-0.000888908049014
-0.000875671082922
-0.000832548601712
-0.000739798345453
-0.000560810829562
-0.000268028817916
3.77973259721e-06
4.37937136943e-07
-0.000277418023251
-0.000561782374809
-0.00073510071293
-0.000826633954777
-0.000871588767447
-0.000888040246236
-0.000886730142191
-0.000878225921317
-0.00087196431548
-0.000871966312963
-0.000878248556652
-0.000887012066181
-0.000888720743919
-0.000872385365782
-0.000827224245131
-0.000735390836959
-0.000561884979005
-0.000277344261828
8.51495657029e-07
-8.37551094117e-06
-0.000293981832963
-0.000556350833756
-0.000723213047083
-0.00081456082744
-0.000863458801954
-0.00088532055388
-0.000890105272231
-0.000886897881925
-0.000883580862259
-0.00088357777778
-0.00088690693668
-0.000890367184573
-0.00088597623087
-0.00086423106833
-0.000815131445055
-0.000723491356345
-0.000556461009298
-0.000293924217045
-8.00566492664e-06
-2.76394981269e-05
-0.000310194434026
-0.00055277565342
-0.000700960302301
-0.000791332307835
-0.000845088978516
-0.000873811324306
-0.000885637337259
-0.000888485544372
-0.000888645960904
-0.000888636543835
-0.000888474524974
-0.000885836430971
-0.00087434940022
-0.000845716483605
-0.000791787915027
-0.000701164743237
-0.00055290384421
-0.000310142724091
-2.72957234176e-05
-5.00875554778e-05
-0.000312559202566
-0.000522000155127
-0.000660361292666
-0.000751497154808
-0.000809905907666
-0.000845281604062
-0.000863912489881
-0.000872122112329
-0.000875355520955
-0.000875346177797
-0.000872102078865
-0.000864044791849
-0.000845653431833
-0.000810326231598
-0.000751780186007
-0.000660484192248
-0.000522086986576
-0.00031249914708
-4.98109234072e-05
-6.31208095455e-05
-0.000296322832395
-0.000472329809203
-0.0006029492161
-0.000690879434227
-0.000751552884829
-0.000791520244193
-0.000814897130752
-0.000827002092537
-0.000832286160862
-0.000832293775974
-0.000827024724918
-0.000815013808534
-0.000791758553868
-0.000751791494391
-0.000691027581657
-0.000603032350823
-0.000472369813273
-0.000296253441272
-6.29035761054e-05
-6.45788511999e-05
-0.000261553122188
-0.000403617351923
-0.000516847515996
-0.000602968665813
-0.000660389384163
-0.000701038899436
-0.000723372569597
-0.000735282075647
-0.00073969171805
-0.000739721861904
-0.000735363660647
-0.000723513496272
-0.000701233140924
-0.000660555161237
-0.000603075815054
-0.000516915763333
-0.000403624012756
-0.000261489718615
-6.44257801952e-05
-5.18147450761e-05
-0.000208500070953