/*--------------------------------*- C++ -*----------------------------------*\
| =========                 |                                                 |
| \\      /  F ield         | OpenFOAM: The Open Source CFD Toolbox           |
|  \\    /   O peration     | Version:  3.0.1                                 |
|   \\  /    A nd           | Web:      www.OpenFOAM.org                      |
|    \\/     M anipulation  |                                                 |
\*---------------------------------------------------------------------------*/
FoamFile
{
    version     2.0;
    format      ascii;
    class       volScalarField;
    location    "7.7";
    object      epsilon_0;
}
// * * * * * * * * * * * * * * * * * * * * * * * * * * * * * * * * * * * * * //

dimensions      [0 2 -3 0 0 0 0];

internalField   nonuniform List<scalar> 
7968
(
8.3750330265e-05
0.000110906402615
0.000131598590798
0.000142870297377
0.000145638207276
0.000143323627341
0.00013815314133
0.000131977571112
0.000126480113859
0.000122662493153
0.000122643884721
0.000126445217218
0.000131936178794
0.000138113108457
0.000143292187305
0.000145618125785
0.000142864395802
0.000131603224684
0.000110915952787
8.37576974288e-05
0.00011089688141
0.00020537901237
0.000269817657948
0.000302655642196
0.000309814792732
0.00030122586591
0.00028407273245
0.000264181990537
0.000247153712483
0.000237080132575
0.000237041322559
0.000247063501935
0.00026406223189
0.000283948336566
0.000301117414122
0.000309730469541
0.000302608698423
0.000269802265951
0.000205385262385
0.000110907080261
0.000131580759521
0.000269799933428
0.000363939294556
0.000412336877311
0.000424109206781
0.000412151931893
0.000387500600825
0.000358687765747
0.000333822394658
0.000319061148436
0.000319007394938
0.00033369455783
0.0003585144859
0.000387315511718
0.000411983709529
0.000423972627638
0.000412249418689
0.000363897410532
0.000269794167409
0.000131589794189
0.000142843809328
0.000302620871977
0.00041231761343
0.000470083080792
0.000485599519681
0.000472822589463
0.00044532913693
0.000417335247175
0.000395585053736
0.00038207317102
0.000382022707476
0.000395468170361
0.000417169874762
0.000445100764569
0.00047260611554
0.000485418214699
0.000469957339706
0.000412246404484
0.00030259619989
0.000142848155634
0.000145606622775
0.000309773581627
0.00042408545355
0.000485597181311
0.000503358046347
0.000497035101772
0.000485889663073
0.000467706766079
0.000448824295057
0.000435806480226
0.000435752527408
0.0004487016535
0.000467541915309
0.000485702769002
0.000496846340367
0.00050313930504
0.00048543500852
0.000423981453597
0.00030972263764
0.000145601512062
0.000143301074132
0.000301207893913
0.000412158297992
0.000472854949885
0.000497054791655
0.000511037922094
0.000511183289494
0.000499249712457
0.00048243516951
0.000469596039881
0.000469537824343
0.000482304929441
0.00049908075171
0.000511003760042
0.000510862411519
0.000496878843155
0.000472668664504
0.000412029053305
0.00030113489629
0.000143285316412
0.00013814765469
0.000284093101559
0.000387559199212
0.000445422411234
0.000485956182216
0.000511228917001
0.000518211747058
0.000509681762756
0.000493578398658
0.000480407465057
0.000480347321754
0.000493445366229
0.000509512746688
0.000518037220946
0.000511062250617
0.000485792821649
0.00044523176204
0.000387416026875
0.00028400301695
0.000138120518497
0.000131991124941
0.000264246539526
0.000358807734632
0.000417448226294
0.000467825116944
0.000499363529663
0.000509759535626
0.000502297245729
0.000485664021792
0.000471320877958
0.000471263361976
0.000485540604747
0.00050214578542
0.000509606752468
0.000499222661775
0.000467694850881
0.000417320984317
0.000358675372372
0.000264155952388
0.000131957376238
0.000126500766904
0.000247244219422
0.000333981181867
0.000395726440534
0.000448985563519
0.000482612412555
0.000493737192717
0.000485757051387
0.000467199175214
0.000450558971318
0.000450510890614
0.000467103749299
0.000485649911705
0.000493638812861
0.000482529001921
0.000448912828878
0.000395656679791
0.000333897223982
0.000247181823352
0.000126471882216
0.000122673720504
0.000237158386397
0.000319205861499
0.000382205623652
0.000435966736801
0.000469787054697
0.000480595211269
0.000471463491294
0.000450627618882
0.000431293304818
0.000431263752265
0.000450582180145
0.00047143074505
0.000480585127639
0.000469795289946
0.00043598164897
0.000382218321949
0.000319209346716
0.000237156305401
0.000122666287758
0.000122659481743
0.000237087621413
0.000319095563865
0.000382096311192
0.000435844605429
0.000469656731791
0.000480473620794
0.00047137122334
0.000450582233036
0.000431297882984
0.000431297668467
0.000450604469073
0.000471431028184
0.000480569055038
0.000469773155782
0.000435963132465
0.000382207534657
0.000319205062722
0.000237163177616
0.000122686581816
0.000126464706771
0.000247084143956
0.000333731538441
0.000395483681522
0.00044871913362
0.000482334267854
0.00049348374002
0.000485575695757
0.000467129363029
0.000450603388841
0.000450617314341
0.000467179305982
0.000485668893489
0.000493613759282
0.000482484212722
0.000448871195167
0.000395629236856
0.00033388222602
0.000247191177075
0.000126504861011
0.000131952947517
0.000264059807267
0.000358506650926
0.000417137025511
0.000467498073204
0.000499035096557
0.000509470856364
0.000502107223353
0.000485619750678
0.000471420020542
0.000471438286154
0.000485673724534
0.000502197164027
0.000509589367903
0.000499168756786
0.000467634267943
0.000417269571206
0.000358642688773
0.000264157270719
0.000131987521092
0.000138119748235
0.000283924761675
0.000387272391538
0.000445033645944
0.000485620186433
0.000510914654157
0.000517949616499
0.000509526871684
0.000493577397892
0.000480556243105
0.00048057491452
0.000493626518015
0.000509599376323
0.000518037209159
0.000511008126989
0.00048571324204
0.000445127943035
0.000387361795816
0.000283988521117
0.000138138024045
0.0001432861166
0.00030107996112
0.000411921528142
0.000472517563579
0.000496747249825
0.000510762647182
0.000510967662441
0.000499141361832
0.000482473396102
0.00046977927352
0.000469797397097
0.000482516786158
0.000499196558426
0.00051102406778
0.000510813298953
0.00049678709873
0.000472552274425
0.000411960248955
0.000301105809897
0.000143286594173
0.000145599424911
0.000309689283047
0.000423909312372
0.000485333797987
0.000503034455492
0.000496789330774
0.000485714453554
0.000467639115512
0.000448890196437
0.000436001750539
0.00043601931769
0.00044892893308
0.000467680094177
0.00048574302513
0.000496800852736
0.000503013622362
0.000485326488688
0.000423909749525
0.000309685381324
0.000145586527474
0.000142832911499
0.000302569918742
0.000412197563477
0.000469896007373
0.000485369040715
0.000472598297951
0.000445167391434
0.000417297443062
0.000395671879951
0.000382276867938
0.000382293282962
0.000395705481459
0.000417324599969
0.000445159991527
0.000472572158449
0.000485335496958
0.000469869316314
0.000412176691032
0.000302548710971
0.00014281337268
0.000131562119892
0.000269767671142
0.000363863763409
0.00041221553177
0.000423957815163
0.000412006284415
0.000387400733889
0.00035867837696
0.000333935191362
0.000319292573527
0.000319307619378
0.000333962555998
0.000358693461322
0.000387393751421
0.000411981396844
0.000423921932531
0.000412181799494
0.000363833989162
0.000269740100915
0.000131541820597
0.000110872343839
0.000205356686558
0.00026977990074
0.000302594094841
0.000309733518528
0.000301145149347
0.000284016918622
0.000264183248974
0.00024723632818
0.00023724480538
0.000237255310835
0.00024725451958
0.000264189810674
0.000284004564357
0.000301117628152
0.000309695620822
0.000302557494708
0.000269748127613
0.000205329916895
0.000110854604147
8.37251956341e-05
0.000110889194031
0.000131589246027
0.000142862211703
0.000145627905868
0.000143313107516
0.000138148575173
0.000131990433297
0.000126518873124
0.000122729656649
0.000122730700548
0.000126521299859
0.000131984791384
0.000138132078692
0.000143289104787
0.000145600517978
0.00014283706097
0.000131569691286
0.000110874590232
8.37138277457e-05
0.000128724952758
0.00019964960093
0.000255547473052
0.000289539030508
0.000304025795741
0.000304964225793
0.00029916528861
0.000292471328027
0.000288923653107
0.000288383827184
0.000288344158728
0.000288824471559
0.000292335601661
0.000299021013589
0.000304838361621
0.000303935604775
0.000289489451373
0.000255531443117
0.000199651711769
0.000128728723053
0.000199639728527
0.00025276027144
0.000297224102286
0.000324291867805
0.000335823988919
0.00033590307215
0.000329673233074
0.000321579602624
0.000315082339675
0.000311742057025
0.000311706445033
0.000314992689842
0.000321454558877
0.00032953573257
0.000335776299041
0.000335726160235
0.000324229867562
0.000297194466108
0.000252752259828
0.000199649761547
0.000255528023962
0.000297219469405
0.000336492587768
0.000360591452481
0.000370953323135
0.00037090490775
0.000364478059714
0.000355214401329
0.000346485804985
0.000341193777491
0.000341164582775
0.000346410207705
0.000355109000367
0.000364360803875
0.000370791803543
0.000370858639511
0.000360523601174
0.000336452109595
0.00029720114549
0.00025553154527
0.000289506504515
0.000324284045714
0.000360590120336
0.000383866382027
0.000395610721615
0.000398702002897
0.000397224317043
0.000392851998848
0.000386948544305
0.000382463729291
0.000382440340151
0.000386893932226
0.000392778919582
0.000397139477896
0.000398605500818
0.000395519041868
0.000383790197757
0.000360533572338
0.000324246645532
0.00028949258618
0.000303993595077
0.000335823833824
0.000370958617448
0.000395615874207
0.00041175663471
0.000423700252968
0.000430449640779
0.000431193896355
0.000427826566287
0.000424165750047
0.000424144872748
0.000427780558629
0.000431136307126
0.000430387491002
0.000423631673563
0.000411670563516
0.000395532043488
0.000370883851264
0.000335761394262
0.000303952112947
0.000304965863894
0.000335933205779
0.000370931738226
0.000398721988478
0.000423709842222
0.00044492229102
0.000458738461098
0.000463962612481
0.00046266498676
0.000459552880288
0.000459532163686
0.000462621356201
0.000463911355238
0.000458687692347
0.000444869412113
0.000423645588886
0.00039863692052
0.000370841804935
0.000335845343836
0.000304891733755
0.000299237138905
0.000329755764921
0.000364539108565
0.000397262491982
0.000430475006217
0.000458755553708
0.000477876239248
0.000486116879645
0.000485826698017
0.000482924469989
0.000482903804934
0.00048578404325
0.00048606704955
0.000477830467942
0.000458711307454
0.000430422223961
0.000397190644483
0.000364444008652
0.000329651972994
0.000299134132223
0.000292626762325
0.000321717868155
0.000355311330681
0.000392910866367
0.000431241606919
0.000464009171952
0.000486152843792
0.000495837711731
0.000495986049021
0.000492594992494
0.000492575084776
0.000495947277818
0.000495796552165
0.000486114838058
0.000463975090754
0.000431201550488
0.00039285522372
0.000355227892433
0.000321621507529
0.000292520286078
0.000289126751742
0.000315250104111
0.000346600501571
0.000387021543706
0.000427894691108
0.000462743846353
0.000485902422869
0.000496034425938
0.000495371149855
0.000490649098319
0.000490633101295
0.00049534439878
0.000496012276841
0.000485888107968
0.000462732728269
0.000427878739476
0.000386993917478
0.000346553239287
0.000315195049037
0.000289062688198
0.000288560048624
0.000311889361078
0.000341286824458
0.000382528209615
0.000424233483166
0.000459642277952
0.000483017829881
0.000492672526556
0.000490689695695
0.000484484452995
0.000484478395177
0.000490688476607
0.000492686153437
0.000483044037113
0.000459672641056
0.000424258782517
0.000382545953279
0.000341299656398
0.000311908574723
0.000288586065596
0.000288446497962
0.000311791284697
0.000341211220846
0.000382467014601
0.000424176568907
0.000459585671699
0.000482967795312
0.000492636434378
0.00049067691016
0.000484498540432
0.000484508313614
0.00049071184928
0.00049269678541
0.000483044372329
0.000459666806839
0.00042425188569
0.000382538474228
0.000341289524955
0.000311894313422
0.000288573655934
0.000288862086242
0.000315015523606
0.000346413346448
0.000386880874001
0.00042777006678
0.000462625759032
0.000485801459424
0.000495968197377
0.000495360555268
0.000490698791722
0.000490716223172
0.000495411200556
0.000496047337071
0.000485896739692
0.000462724457352
0.000427864466011
0.000386975171147
0.000346523946237
0.000315155040954
0.000289028473956
0.000292316550324
0.000321422300309
0.000355068945505
0.000392733040531
0.000431093796205
0.000463878806906
0.000486044511797
0.000495777419621
0.000495995111951
0.000492674853006
0.00049269403431
0.000496047206883
0.000495854950518
0.00048613533785
0.000463971707809
0.000431183847686
0.000392824765539
0.000355177213703
0.000321554764524
0.000292464014532
0.000298955344794
0.000329457172421
0.000364283849062
0.000397068764643
0.000430325685469
0.000458636122215
0.000477786056809
0.000486072872172
0.000485851495719
0.000483019627526
0.000483038078611
0.000485899399116
0.000486140020828
0.000477862927532
0.000458713606291
0.000430399970891
0.000397143326891
0.000364368341041
0.00032955569501
0.000299051937405
0.000304739744044
0.000335663448541
0.000370686574737
0.00039851432158
0.00042355727749
0.000444809844796
0.000458661146183
0.00046392987705
0.000462695738334
0.000459652689064
0.000459669667189
0.000462738292443
0.000463987300688
0.000458723796571
0.000444870113809
0.000423611358541
0.000398563831021
0.000370739686799
0.00033571980459
0.000304781787925
0.000303812676431
0.000335590763158
0.000370734781011
0.000395413446584
0.000411583619798
0.000423579595756
0.000430370397743
0.000431160386379
0.000427852024351
0.000424253257068
0.000424269376322
0.000427890764911
0.000431209241918
0.000430419181278
0.000423621102237
0.000411611068952
0.000395437578803
0.000370758181059
0.000335609516216
0.000303812536509
0.000289352203504
0.000324085224708
0.00036039124806
0.000383677235937
0.000395438687049
0.000398560993093
0.000397131431093
0.000392811232708
0.000386969406698
0.000382546328358
0.000382561335569
0.000387003886665
0.000392850715847
0.000397164045816
0.000398578352681
0.000395445078158
0.000383678844142
0.000360389533598
0.000324075901794
0.000289327012148
0.000255387750325
0.000297050574447
0.000336319986874
0.000360419382856
0.000370786031973
0.000370755334833
0.000364366143923
0.000355161352899
0.000346506540476
0.000341280708508
0.000341294375091
0.000346535094777
0.000355187082922
0.000364378016016
0.000370750853438
0.000370769581019
0.000360397551115
0.000336295142071
0.000297020163811
0.000255349985
0.000199516032173
0.000252621580931
0.000297080493698
0.000324141025404
0.000335665470979
0.00033574856526
0.000329547057702
0.0003215119561
0.000315092749778
0.000311828180253
0.000311840435728
0.000315114147454
0.000321522411384
0.000329536349559
0.0003357176352
0.000335622208151
0.000324094564739
0.00029703497626
0.000252576604496
0.000199474097111
0.000128623400241
0.000199544149287
0.000255439527132
0.000289421167893
0.000303893979449
0.000304826889476
0.000299045953715
0.000292406584372
0.000288936239066
0.000288470886125
0.000288482224198
0.000288950573955
0.000292401340509
0.000299014616231
0.000304775908501
0.000303834354077
0.000289364420747
0.000255390418176
0.000199502868287
0.000128589966197
0.000196662471763
0.000324916076194
0.000426445599307
0.000489665606124
0.000521847944523
0.000534794838148
0.000543315573759
0.000559704873102
0.000584784751134
0.000604971622774
0.00060490629754
0.000584597489217
0.000559415026842
0.00054297914448
0.000534490988112
0.000521628701057
0.000489540079708
0.000426394679539
0.000324902396758
0.00019665470039
0.000324928421881
0.000377671488269
0.000438880361801
0.000479403695585
0.000499404896207
0.000503813495919
0.000501276907366
0.000500129670608
0.000503818589942
0.000508606268636
0.000508548569331
0.000503657968347
0.00049988964536
0.000501005133608
0.000503566739232
0.000499223772421
0.000479298166528
0.000438834563811
0.000377654770553
0.000324927054792
0.000426456135994
0.00043889341607
0.00047108456417
0.000490705517273
0.000497552699278
0.00049433282597
0.000485666321914
0.000476335029699
0.000471927193209
0.000470762971134
0.00047072579185
0.000471828627584
0.000476165893763
0.000485470734496
0.00049414883156
0.000497405715092
0.000490609089217
0.000471033904631
0.000438867637881
0.000426445915969
0.000489662648533
0.00047942019316
0.000490712413405
0.000496765523442
0.000498566275872
0.00049805510608
0.00049625146968
0.000491263374973
0.000486214052556
0.000483137949682
0.000483111749917
0.000486146500024
0.000491163305221
0.000496138752983
0.00049794971065
0.000498450935161
0.000496669913141
0.000490644314433
0.00047937262362
0.000489629773274
0.000521864046086
0.000499438886963
0.000497573036702
0.000498575915935
0.000505595237839
0.000512969694378
0.000517250279177
0.00051718385086
0.000514362413427
0.000511627690012
0.000511609444486
0.000514317885381
0.000517122822851
0.000517183151875
0.00051290238101
0.000505524180423
0.000498482701828
0.000497481149998
0.000499354974397
0.000521785980201
0.00053490600166
0.000503908921024
0.000494389202131
0.00049808157838
0.000512982142984
0.000527825956165
0.000538609139303
0.000543377454567
0.000543075589215
0.000541132044759
0.00054111920275
0.000543045666466
0.000543338185787
0.000538566705767
0.000527782299376
0.000512929629112
0.000498009841418
0.000494274794543
0.000503780908114
0.000534766910173
0.000543616166164
0.00050148500443
0.000485784744439
0.0004963108749
0.000517283038242
0.000538628290601
0.000554995890248
0.000563391073364
0.000564516726881
0.000562749299634
0.000562739026273
0.000564493050547
0.000563362169724
0.000554966078362
0.000538598087048
0.000517242363665
0.000496239820172
0.000485658363884
0.000501327270206
0.00054342742666
0.000560202351101
0.000500453674891
0.000476514472216
0.000491355501323
0.000517241918343
0.000543426311303
0.000563427694889
0.00057340973676
0.000574520829621
0.000572240260439
0.000572232176199
0.000574503209586
0.000573388930553
0.000563408889112
0.000543409109266
0.000517216411166
0.000491301780257
0.000476409660548
0.000500319560773
0.00056004576699
0.000585342824999
0.000504186748911
0.000472107437358
0.000486318279676
0.00051444035562
0.000543156397301
0.000564600841242
0.000574574975667
0.00057466776384
0.000571263606548
0.000571259464706
0.000574661415732
0.000574571107078
0.000564600959587
0.000543160741997
0.000514441483568
0.000486304928033
0.00047207805085
0.000504147935281
0.000585335722913
0.000605414210799
0.000508914750544
0.00047091438847
0.000483225997164
0.000511703525218
0.000541223289612
0.00056285528359
0.000572329110589
0.000571308368135
0.000566824354976
0.000566827879053
0.000571321825676
0.000572353346952
0.000562887572736
0.000541261568773
0.000511745296891
0.000483268651667
0.000470968310062
0.000509020214575
0.000605628140962
0.000605154172003
0.000508723808398
0.000470796115721
0.000483144085426
0.000511641795216
0.000541173855701
0.000562816316663
0.000572306105004
0.000571306974715
0.000566844338519
0.000566858113756
0.000571344693521
0.000572362079238
0.000562883724353
0.00054125028446
0.000511729419056
0.000483247782675
0.000470937794018
0.000508969512923
0.000605562247221
0.000584667037744
0.000503694198876
0.000471809783691
0.000486113890091
0.000514292163997
0.00054304245891
0.000564513692431
0.000574527682362
0.000574673987177
0.000571320275394
0.000571338231125
0.00057472109382
0.000574595621632
0.000564594279431
0.00054313390012
0.000514400076222
0.00048624729481
0.000471993207219
0.000504007310626
0.000585155249313
0.000559330343301
0.000499798260699
0.000476070901356
0.000491072468331
0.000517047972023
0.000543285737641
0.000563328375807
0.00057336005242
0.00057453816622
0.00057231869567
0.000572335927508
0.000574582983312
0.000573424417252
0.000563405405242
0.000543374830637
0.000517154920849
0.000491207589746
0.000476261984095
0.000500100929921
0.000559773460875
0.000542772380925
0.000500804844875
0.000485294991719
0.000495994841544
0.000517069686219
0.000538479999429
0.000554895649005
0.000563342400103
0.000564533708162
0.000562827027407
0.000562842256913
0.00056457317399
0.000563399505511
0.000554964413321
0.000538559489219
0.00051716297549
0.000496109776647
0.000485452646692
0.000501041693653
0.000543086312566
0.000534203539487
0.000503285262383
0.000493903704001
0.00049775779716
0.000512752853891
0.000527666744359
0.000538501002391
0.000543318613016
0.000543075941499
0.000541191133042
0.000541206050933
0.000543113557961
0.000543370351726
0.00053856119196
0.000527733212778
0.000512826949132
0.000497843960825
0.000494015055058
0.000503441503395
0.000534378958713
0.000521293475867
0.000498890040748
0.000497105081022
0.000498204462383
0.000505333630138
0.000512778822821
0.000517115141169
0.000517102092994
0.000514342450964
0.000511669854936
0.000511685297318
0.000514379785124
0.000517149171632
0.000517164175627
0.000512828517414
0.000505384338063
0.000498254190682
0.000497172281965
0.000498976114313
0.00052136067061
0.000489189739718
0.000478944082378
0.000490271977159
0.000496376413196
0.000498239360315
0.000497811261199
0.000496063370189
0.000491142734522
0.000486169032287
0.000483163253066
0.000483179082567
0.00048620475844
0.000491181393399
0.000496094851571
0.000497836533056
0.000498251092982
0.000496392821611
0.000490299675587
0.000478975646275
0.000489186411996
0.000426058233894
0.0004384896332
0.000470680186691
0.000490312266014
0.000497179020019
0.000493995912079
0.000485389662535
0.000476148675957
0.000471837898181
0.000470757550808
0.000470772504807
0.000471867360189
0.000476167509295
0.000485386349941
0.000493974316375
0.000497150905443
0.0004902904979
0.00047066782255
0.000438477377295
0.000426013863683
0.000324625141729
0.000377345110059
0.000438517459131
0.000479012546712
0.000498990409491
0.000503396449511
0.000500900791706
0.000499846641577
0.000503651608271
0.00050854245064
0.000508553564253
0.00050366398518
0.000499833753472
0.000500852213762
0.000503322974951
0.000498911990658
0.00047894482878
0.000438463245944
0.000377296640498
0.000324559943916
0.000196468187275
0.000324628675131
0.000426094747996
0.000489266224962
0.000521400033163
0.000534315970842
0.000542856806734
0.000559338147141
0.000584536056439
0.000604822682443
0.000604834294194
0.000584537847458
0.000559293024323
0.000542757058334
0.000534184728312
0.000521266261489
0.000489150288691
0.000426000333343
0.000324552955673
0.000196406711045
0.000285740372795
0.000506815617499
0.000687858344201
0.000811371575073
0.00089534076405
0.000960825201157
0.00103071165619
0.00111531337616
0.00119809540092
0.00125045217164
0.00125037240598
0.00119788122841
0.00111496375225
0.0010302438148
0.000960362098906
0.000895005927103
0.000811188658469
0.000687800368677
0.000506808037516
0.000285722472348
0.000506883533129
0.000558752082103
0.000655665129947
0.000729195750714
0.000775357085926
0.000801367617504
0.000821696516439
0.000847938832126
0.000877959696172
0.000898585311886
0.000898510735307
0.000877740691787
0.000847595785333
0.000821286112108
0.000800999510335
0.00077510998211
0.000729082315166
0.000655645128874
0.000558755730291
0.000506855627834
0.000687947715467
0.000655706360386
0.000686107238717
0.000707002820878
0.000713292299061
0.000708136211165
0.000697867288343
0.000692834112717
0.000695233779901
0.000698217122862
0.000698161401014
0.000695078278914
0.000692612942969
0.000697556017428
0.000707853400879
0.000713090707534
0.000706900940269
0.000686084534965
0.000655710476019
0.000687917211176
0.000811455795512
0.000729246667014
0.000707020173683
0.00068894072215
0.000673982384196
0.000665779202237
0.000655616057384
0.000645718439883
0.000638892724583
0.000635304158353
0.00063526645071
0.000638790866365
0.000645569585639
0.000655435588699
0.000665609294219
0.000673828284218
0.000688838742776
0.000706978982384
0.000729245307917
0.000811431813909
0.000895493616231
0.000775438817468
0.000713329896538
0.000673997113941
0.00066022414054
0.000654278139479
0.000649057571185
0.000642256758647
0.000635069508321
0.000630179073415
0.000630157769244
0.000635011695808
0.000642170222383
0.00064895414403
0.000654177031221
0.000660127817437
0.000673897934372
0.00071325831668
0.000775408719587
0.00089544645259
0.000961155725623
0.00080154884697
0.000708228067798
0.000665820412875
0.000654294792188
0.000654435994639
0.000655790475615
0.000653424629224
0.000647897358507
0.000643205274549
0.000643197323807
0.000647871871003
0.000653380160031
0.00065573115211
0.00065437464433
0.000654232314389
0.000665744594354
0.000708124017411
0.000801475739476
0.000961080692483
0.00103131822001
0.000822043998095
0.000698051064916
0.000655700743965
0.0006490992762
0.000655813743096
0.000662570089757
0.00066329230186
0.000658712906789
0.000653969414198
0.000653970407937
0.000658706642707
0.000663272423129
0.000662537464785
0.000655776161629
0.000649055997165
0.000655635393849
0.00069793377286
0.000821958324927
0.00103127005434
0.00111609448337
0.000848416906376
0.000693069315187
0.000645840622942
0.000642328033087
0.00065348148606
0.000663333600506
0.000665144607915
0.000660152969738
0.000654755189618
0.000654761182291
0.000660160249515
0.000665143063817
0.000663322481752
0.00065346674764
0.000642308180833
0.000645810536529
0.00069303654381
0.000848419469121
0.00111624168468
0.00119879446989
0.000878439806822
0.00069550266668
0.000639036558407
0.000635165151723
0.000647990757533
0.000658805119314
0.000660210070635
0.000653899574022
0.000647428005797
0.000647438231678
0.000653919195704
0.000660230026507
0.000658818153622
0.000648001801241
0.000635177688931
0.000639057740732
0.000695552113659
0.000878623901847
0.00119928572048
0.00125090500446
0.000898944233041
0.000698429186997
0.000635424628945
0.000630273214655
0.000643311762224
0.000654088768916
0.000654853744345
0.000647476519753
0.000640175084139
0.000640191393206
0.000647511773691
0.00065489623662
0.000654129882648
0.000643354688866
0.00063033139536
0.000635519952265
0.000698604224684
0.000899343192761
0.00125174994027
0.00125054531895
0.000898671503019
0.000698242137063
0.000635300118709
0.000630189313955
0.000643254963068
0.000654054246511
0.000654839962171
0.000647484301379
0.000640201315639
0.000640224467882
0.000647535783403
0.000654902714112
0.000654118441123
0.000643330739419
0.000630297694707
0.000635473836549
0.000698539226174
0.000899251456491
0.00125163229264
0.00119779028203
0.000877694254474
0.000695007606413
0.000638711505918
0.000634948693841
0.000647843967143
0.000658711450459
0.000660171132451
0.000653916989939
0.000647491281527
0.000647515881938
0.000653972146713
0.000660239541117
0.000658784564242
0.00064793501702
0.000635083271705
0.000638927792206
0.000695368927965
0.000878363694618
0.00119896391048
0.00111465796484
0.000847355444094
0.000692393740012
0.000645381650465
0.000642021261939
0.000653273308709
0.000663197961777
0.000665080770186
0.000660166161275
0.000654828781888
0.000654849539116
0.0006602140004
0.00066514256564
0.000663269950478
0.000653368288551
0.000642162715254
0.000645604739871
0.000692751956604
0.000848008759373
0.00111573425728
0.00102976551487
0.000820869641541
0.000697200091799
0.000655146381718
0.000648730502604
0.000655561352416
0.000662399290528
0.00066319709386
0.000658697848709
0.000654018784617
0.000654034255612
0.000658735436891
0.000663250730394
0.000662469121571
0.000655655972739
0.000648866600784
0.000655353795737
0.000697523969987
0.00082142250852
0.00103060671254
0.000959757355816
0.000800438534555
0.000707364794615
0.000665217467235
0.000653873898841
0.000654140287707
0.000655577677233
0.00065328411048
0.000647830850721
0.000643202855681
0.000643217412679
0.000647865884096
0.000653334492928
0.000655644508564
0.000654227596207
0.000653996765458
0.000665393037208
0.000707627889007
0.000800855872635
0.000960322971958
0.000894330620723
0.000774457258175
0.000712494598515
0.000673329350391
0.000659725178086
0.000653907636842
0.000648776180164
0.000642053502924
0.000634946823823
0.000630132725267
0.000630148252214
0.000634983743737
0.000642101824609
0.000648832654909
0.000653980437014
0.000659822879464
0.00067345986704
0.000712695952782
0.000774745788913
0.000894654237207
0.00081051834851
0.000728403021477
0.000706234389677
0.000688235287294
0.000673375917467
0.00066529013411
0.000655222654348
0.000645428325462
0.000638706755956
0.000635213662179
0.000635229523524
0.000638742328738
0.000645468322035
0.000655258142457
0.000665330883843
0.000673427363683
0.000688324776864
0.000706374889595
0.000728579033623
0.000810655772385
0.000687203744399
0.000654998563698
0.000685387257529
0.000706281052153
0.000712586531238
0.000707475748408
0.0006972917623
0.000692406384111
0.000694930735252
0.000698028164773
0.000698041745793
0.000694955814159
0.000692424675123
0.000697279357509
0.000707457955966
0.000712587507417
0.000706318462732
0.000685459467719
0.000655077786624
0.000687218581356
0.000506361207146
0.000558179977877
0.000655010016616
0.000728463973721
0.000774561859316
0.000800548553899
0.000820926841848
0.000847294149079
0.00087745762112
0.000898207791499
0.000898214569485
0.000877457886839
0.000847262949586
0.000820855825293
0.000800462115736
0.000774491913674
0.000728426866868
0.000654999642564
0.00055817484944
0.000506305191371
0.000285471430105
0.000506280236062
0.000687155149073
0.000810534328679
0.000894388822096
0.000959810544542
0.00102974003355
0.00111448632105
0.00119741548548
0.00124989683877
0.00124990777683
0.00119741501734
0.00111442615204
0.00102960029986
0.000959629514746
0.000894215315255
0.00081039636563
0.000687050300537
0.000506199603439
0.000285395679447
0.00039745928466
0.000764493401132
0.00108019859806
0.0013225680404
0.00152137977205
0.00169829647761
0.00187377631441
0.00204603811932
0.00219058903664
0.00227550854036
0.00227546050018
0.0021904511093
0.00204579753393
0.00187343144491
0.00169794440374
0.00152115694558
0.0013225009838
0.00108025988587
0.000764561966746
0.000397444615513
0.000764668401737
0.000814805855032
0.000972788401169
0.00111102960094
0.0012158806943
0.00129382755818
0.00136103177741
0.00142645230506
0.00148244917176
0.00151518646703
0.00151511667606
0.00148223652521