/*--------------------------------*- C++ -*----------------------------------*\
| =========                 |                                                 |
| \\      /  F ield         | OpenFOAM: The Open Source CFD Toolbox           |
|  \\    /   O peration     | Version:  3.0.1                                 |
|   \\  /    A nd           | Web:      www.OpenFOAM.org                      |
|    \\/     M anipulation  |                                                 |
\*---------------------------------------------------------------------------*/
FoamFile
{
    version     2.0;
    format      ascii;
    class       volScalarField;
    location    "7.2";
    object      k_0;
}
// * * * * * * * * * * * * * * * * * * * * * * * * * * * * * * * * * * * * * //

dimensions      [0 2 -2 0 0 0 0];

internalField   nonuniform List<scalar> 
7968
(
0.00029087036511
0.000337527948448
0.000375670764408
0.00040001962659
0.000414125183376
0.000421236321802
0.000423737624146
0.000423966952389
0.000423403684626
0.000422474386722
0.000422159883986
0.000422818167366
0.00042313519284
0.000422604257159
0.00041950195625
0.000411920249897
0.000397584984018
0.000373609167937
0.000336399067664
0.000290482959723
0.000337427686646
0.000523984153412
0.000655058126286
0.00073926122348
0.00079120589845
0.000819954176662
0.000833061437169
0.00083629033942
0.000834657498941
0.00083183961822
0.000829958922917
0.000829058610103
0.000826950303488
0.000820263537962
0.000804668705348
0.00077509929338
0.000724773278831
0.000644432120583
0.000518508776671
0.000336530316766
0.000375400689623
0.000655257880514
0.000848320250316
0.000973189226025
0.00105166683512
0.00109675346936
0.00111856249969
0.00112533888506
0.00112408525693
0.00111988053105
0.00111549834692
0.00111108376548
0.00110430720225
0.00109084780646
0.0010647809215
0.00101894817902
0.000944038332641
0.00082693365
0.000644104475288
0.000374101591319
0.000399961861163
0.000740153435939
0.00097418433478
0.0011260591248
0.00122197863013
0.00127738581724
0.00130445873854
0.00131321325173
0.00131272761318
0.00130804931971
0.00130055704128
0.00129112680683
0.00128038682255
0.00126213073279
0.00122929239411
0.00117323828308
0.00108281735155
0.000942358583331
0.000723483349959
0.000398056162676
0.000414576005927
0.000793317697299
0.00105468820851
0.00122436104152
0.00133109558375
0.00139265076449
0.00142665459974
0.00144094534564
0.00144110614145
0.00143408838053
0.00142404866396
0.00141187534428
0.00139523114759
0.00136892086283
0.00132982724925
0.00126787601178
0.00116832904503
0.00101335910616
0.000771944350796
0.000411707055562
0.000422112912784
0.000823872876803
0.00110266956331
0.00128340066124
0.00139660163263
0.00146755127939
0.00150610045946
0.00151896544963
0.00151626376983
0.00150640326343
0.00149431150815
0.00148102923513
0.00146366390031
0.00143609326253
0.00139057765461
0.00132095098832
0.00121645780652
0.00105324383113
0.00079842866206
0.000418665265259
0.000424990992954
0.000839020828179
0.00112796604433
0.00131500874857
0.00143476217817
0.00151129011613
0.00154845116515
0.00155796899268
0.00155171535987
0.0015391016625
0.00152555671686
0.00151216741134
0.00149565430081
0.0014692081166
0.0014237902613
0.0013494634066
0.00123939640963
0.00107209686963
0.000810317704775
0.000421320308157
0.000425037452377
0.000844329646261
0.00113854656982
0.00132877737011
0.00145506922734
0.00153103844548
0.00156524698023
0.00157105083739
0.00156142866267
0.00154654311431
0.00153216770916
0.00151932103169
0.00150434198445
0.00147989585133
0.00143628963028
0.00136246140525
0.00124707654292
0.00107797982524
0.000813343455845
0.000422266880027
0.000424344568312
0.000844657450931
0.00114114444119
0.00133272782411
0.00146207307812
0.00153635113352
0.00156768902033
0.00157042122761
0.0015582411349
0.00154179742265
0.00152711694906
0.0015151005097
0.00150165633395
0.00147912454763
0.00143745550762
0.00136511246006
0.00124911604302
0.00107749929377
0.000812138873559
0.000421960361399
0.000423462845438
0.000843584988433
0.00114061138083
0.0013324984711
0.00146224258006
0.00153495369354
0.00156439066437
0.00156534873276
0.00155182529567
0.00153465708996
0.00151998156368
0.00150866759737
0.00149628178039
0.00147496322621
0.00143458692166
0.00136348151457
0.0012482867819
0.00107531393668
0.000810079968259
0.000421124299704
0.000423256118702
0.000843220521396
0.00113955450315
0.00133050194048
0.0014591908042
0.00153110855419
0.00156003998133
0.00156081553452
0.00154737777296
0.00153042290505
0.00151596905436
0.00150486096074
0.00149266580726
0.00147156181678
0.00143151257339
0.00136090655358
0.00124636254306
0.0010738011653
0.000809050568904
0.000420488735411
0.000424055056547
0.000843551910953
0.00113795839876
0.00132694882592
0.00145317569412
0.00152511715928
0.00155492325313
0.00155702817478
0.00154499201798
0.00152911711806
0.00151510710785
0.00150367339089
0.00149078566689
0.00146891774472
0.00142826091757
0.00135742774239
0.0012433228919
0.00107284873783
0.000809231594417
0.000420716469781
0.000424778437756
0.000842357356656
0.00113322652335
0.00131952679961
0.00144105321316
0.00151327652732
0.00154490152917
0.00154945504849
0.0015397572146
0.00152554777203
0.00151215890106
0.0015002597328
0.00148626041806
0.00146304571253
0.0014212444421
0.00134992506148
0.00123679878399
0.00106996780863
0.0008085122274
0.000420736657723
0.000424609060869
0.000836076254772
0.00112069483606
0.00130285777713
0.00141699167435
0.00148870630697
0.00152234829509
0.00152990042262
0.00152312073316
0.00151100917848
0.00149854738715
0.00148638299456
0.00147130400106
0.00144672281967
0.00140389446009
0.00133277712738
0.00122443999585
0.00106069218909
0.000803377413099
0.000419277125378
0.000421530608181
0.000820058254163
0.00109398993221
0.0012694202048
0.00137737656416
0.00144282560658
0.00147728730993
0.00148762420336
0.0014839099828
0.00147422799349
0.00146312486762
0.00145120207668
0.0014356043084
0.0014103618816
0.00136772627331
0.00129967176873
0.00119800758587
0.00103900649337
0.000789502757428
0.000415432528529
0.000413825552029
0.000789014695878
0.0010455671743
0.00121012964878
0.00131190625955
0.00136901356659
0.00139904305707
0.00141070581104
0.00140960696849
0.00140248508208
0.00139323011105
0.00138234299455
0.00136743151947
0.00134327798157
0.00130485387134
0.00124472176851
0.00114821733729
0.000997539019255
0.000761576308007
0.000408080124606
0.000399180297069
0.00073604674753
0.000965929393714
0.00111353068843
0.00120534518812
0.00125713379138
0.00128135365225
0.00128825470316
0.0012869754634
0.0012821086106
0.0012751596852
0.00126648960739
0.00125602914822
0.00123815308888
0.00120609731231
0.00115151572029
0.00106362035354
0.0009268757422
0.000712936634967
0.000394459066643
0.000374730543333
0.000652073032132
0.000842195164848
0.000964160901097
0.00103992472939
0.00108266306836
0.00110266306068
0.00110831781952
0.0011065883819
0.0011023647586
0.00109813171405
0.00109375852594
0.00108685116618
0.00107317989785
0.00104713629604
0.00100184103486
0.000928371359692
0.000813836485284
0.000634809169771
0.000370967831965
0.000336986869865
0.000522198683966
0.000651756473308
0.000734677289049
0.000785664434056
0.00081359404728
0.00082616024853
0.000829223728422
0.000827704687886
0.000825086944593
0.000823158733086
0.000821840430409
0.000819067220214
0.000811514105907
0.000795092702586
0.000764954978968
0.000714610155624
0.000635382490764
0.000511900316523
0.000334325790188
0.000290668975916
0.000337052417729
0.000375080082529
0.000399372989916
0.000413324111457
0.000420530340088
0.000423218090577
0.000423884813745
0.000423610941385
0.000422875355043
0.000422364751477
0.000422436472006
0.000422286612815
0.000420830053251
0.000416946353891
0.000408711389378
0.000394285240468
0.00037052762249
0.000333988611344
0.000289496518712
0.000334508119675
0.000504896810746
0.000631081923389
0.000715902522304
0.00077093491792
0.000804140811943
0.000821707874651
0.000828434532615
0.000828930144095
0.000827056216546
0.000824903104718
0.000822637850264
0.000818243437351
0.000808157867744
0.000788745557117
0.000755680649469
0.000703085514677
0.000622676836213
0.000501515024992
0.00033368354089
0.000504970817854
0.00109536097737
0.00143083044948
0.00165648354715
0.00180571674223
0.00189789303151
0.00194828156106
0.00196989224904
0.00197368457683
0.00196790322759
0.00195727358304
0.00194251183107
0.00192050266981
0.00188491968279
0.00182686881397
0.00173510920539
0.00159520769507
0.00138694621767
0.00107370642347
0.000501187467769
0.000631278493968
0.00143086959755
0.00188420400926
0.00219298317697
0.0023997787597
0.00252866364113
0.00259920787945
0.00262882976011
0.00263233780676
0.00262108284561
0.00260206108427
0.00257667405558
0.00254103238854
0.00248725340462
0.00240344392219
0.00227481026509
0.00208290135811
0.00180237447847
0.00138629837537
0.000622164300362
0.000716612828076
0.00165813194689
0.00219529890788
0.00256311174035
0.0028102374458
0.00296396079493
0.00304698436266
0.00308038178268
0.0030816492496
0.00306387314946
0.00303669678371
0.00300214604753
0.00295518180435
0.00288857137876
0.00278709489362
0.00263342631954
0.00240619572652
0.0020764896565
0.001590461998
0.000701749733213
0.000772633656813
0.00181067298109
0.00240700425348
0.00281599749323
0.00309008318846
0.00325893881596
0.00334807912924
0.00337810235887
0.00337154619663
0.00334565492812
0.00331118738123
0.0032709491723
0.00322014677413
0.0031474213398
0.003035184055
0.00286635847217
0.0026167659547
0.00225477455687
0.00172207162372
0.000752496454906
0.000807246337746
0.00190777100554
0.00254336582584
0.00297896471506
0.00326910308452
0.00344494694932
0.00353044452787
0.00355254858791
0.00353634683869
0.00350183169874
0.00346127212994
0.00341792225471
0.00336644504146
0.00329362961435
0.00318074377367
0.00300515120973
0.00274365271379
0.00236279384296
0.00180157839838
0.000782740411708
0.000826553737402
0.00196446500904
0.00262367582389
0.00307439740065
0.00337271042332
0.0035460121122
0.00362372244021
0.00363520247654
0.00360842004278
0.00356573658426
0.00352066930335
0.00347661807152
0.00342750497446
0.00335861665977
0.0032495372418
0.00307626545927
0.00281046922487
0.00242071649039
0.00184456510069
0.00079867270028
0.000835580415286
0.00199345766617
0.00266485807183
0.00312224341621
0.00342091489296
0.00358852547976
0.00365670163919
0.00365727381566
0.0036208075501
0.00357154114554
0.00352374174477
0.00348064570897
0.00343544980257
0.00337224063449
0.00326919171693
0.00310100548156
0.00283850419064
0.0024458742398
0.00186382037232
0.000804632116835
0.000838272102367
0.00200531683825
0.00268139621499
0.00314087302233
0.00343546318943
0.00359636482278
0.00365592755733
0.00364773535635
0.00360420577295
0.00355068140539
0.00350182704248
0.00346046055778
0.00341903200586
0.00336102114762
0.00326373881501
0.00310106413009
0.0028432430791
0.00245226060292
0.00186972407366
0.000805614340349
0.000838352178316
0.00200780631537
0.00268379640174
0.00314207202045
0.00343212914485
0.00358776014686
0.00364169737021
0.00362849448846
0.00358138375077
0.00352619732767
0.00347750099439
0.00343770367836
0.00339883471278
0.00334410692561
0.00325063261257
0.00309198565637
0.00283806242855
0.00245025722559
0.00186965230213
0.000804804129855
0.000838071405528
0.00200515282285
0.00267791320212
0.00313270927787
0.00341972392286
0.00357284791666
0.00362511532587
0.00361119352463
0.00356421288257
0.00350970436965
0.00346190006668
0.00342295106529
0.00338487133307
0.00333102269723
0.00323876313398
0.00308186190937
0.00283028648431
0.00244529086179
0.00186741647577
0.000803973590141
0.000837427698216
0.0019974612327
0.00266413844598
0.00311353304691
0.00339921445013
0.00355269570497
0.00360717641322
0.00359658295884
0.00355308265484
0.0035012419983
0.00345482343308
0.00341592046319
0.0033769297202
0.00332169995783
0.00322821737128
0.00307087763799
0.00282010592282
0.00243731590309
0.00186295972305
0.000803354136239
0.00083398990336
0.00198076271505
0.00263748526031
0.00307952999469
0.00336374874519
0.00351935244868
0.00357895815413
0.00357493226729
0.00353756586329
0.0034901270365
0.0034456966885
0.00340647422213
0.00336549084584
0.00330732964191
0.00321102796736
0.00305196538132
0.00280133134518
0.00242147666589
0.00185259101973
0.000801040822696
0.000824228397818
0.00194782058682
0.00258846920246
0.00301992428941
0.00329979584956
0.00345739779678
0.00352336937988
0.0035277927429
0.00349849789922
0.00345693852943
0.00341544330057
0.0033762586197
0.00333308147273
0.00327163387539
0.00317230845457
0.0030117188684
0.00276139060356
0.00238837810339
0.00182942603148
0.000793770917466
0.000804359250169
0.00188879886236
0.00250383666363
0.0029181777293
0.00318805619031
0.00334603979424
0.00341766095571
0.00343069203709
0.00341027894564
0.00337575680763
0.00333840028424
0.00330042350415
0.00325614437436
0.00319266684783
0.00309195340459
0.00293213695564
0.00268726523863
0.00232559484836
0.00178402540213
0.000777359171013
0.000769612868998
0.00179173293639
0.00236777746486
0.0027558138177
0.00300996698632
0.00316118882184
0.00323600124977
0.00325616859817
0.00324435473126
0.00321748476872
0.00318558652638
0.00315064938725
0.00310746383664
0.00304473326733
0.0029457776926
0.00279174365199
0.0025597626609
0.00221735352826
0.00170448978071
0.00074688163242
0.000714069772016
0.00164198902925
0.00216148329548
0.00251096119474
0.00274063994667
0.00287892676941
0.0029494405059
0.00297393241125
0.00296993623876
0.00295079496058
0.00292558136166
0.00289585020665
0.00285615570955
0.00279799623418
0.00270779274437
0.00256778616285
0.00235651412369
0.00204429749642
0.00157580852242
0.000696789444848
0.000629747344715
0.00141998788546
0.00186030137434
0.00215537850338
0.00234909706211
0.00246641140628
0.00252758937513
0.00255055689905
0.00255027916581
0.00253803516545
0.00252043802678
0.00249846622852
0.00246795252144
0.00242089899096
0.00234566566726
0.00222745113144
0.00204762863944
0.00178025125654
0.00137719177473
0.000618681922146
0.00050452384177
0.00109092989868
0.00141932681203
0.00163726325052
0.00177907454176
0.00186469298922
0.00190984433082
0.00192785381894
0.00192979063778
0.00192375633155
0.00191420087692
0.00190153916678
0.00188248181119
0.00185077514755
0.00179755364389
0.00171161607878
0.00157844989275
0.00137750306158
0.00107133973631
0.000499376651056
0.000334171185944
0.000504135356932
0.000629091931555
0.000712487966638
0.000766144843433
0.000798171517484
0.000814861853683
0.000821000634374
0.000821398204162
0.000819653908141
0.000817565014842
0.000815205940525
0.000810772048143
0.000800999470408
0.000781934289584
0.000749506311818
0.000697994397013
0.000619110488518
0.000499558226082
0.000331971315541
0.000372841457189
0.000636608453453
0.000833981258852
0.000969396372559
0.00105896231179
0.00111378621938
0.00114289498178
0.00115427338481
0.00115484094486
0.00114992224293
0.0011426166395
0.00113343202362
0.00112029073824
0.00109908030257
0.00106443543511
0.00100973011896
0.000926636875487
0.000803537460592
0.000621868152906
0.000370362506476
0.000636955646998
0.00146095556921
0.00193802375984
0.00226618016188
0.00248713942604
0.00262500244105
0.0026997999965
0.00272964835753
0.00273032638407
0.0027141131312
0.0026884058338
0.00265512251667
0.002610915797
0.00254753346463
0.00245325210273
0.0023132975574
0.00210943885227
0.00181686594651
0.00138985452086
0.000621314497793
0.000834780276414
0.00193862439353
0.0025662440017
0.00300084283203
0.00329651694251
0.0034822815078
0.00358288328851
0.00362162840399
0.0036191438508
0.00359232830543
0.00355175643292
0.00350062709216
0.00343491066676
0.00334396633415
0.00321284844216
0.00302265049197
0.00275086271083
0.0023675329337
0.0018140772747
0.000802086967834
0.000971449765196
0.00227016840694
0.00300524375405
0.00351445916782
0.0038611465285
0.0040779221015
0.00419279868614
0.00423370170631
0.00422366858257
0.00418443728582
0.00412982109754
0.00406425770081
0.00398304878265
0.00387317318953
0.00371824564809
0.00349540767163
0.00317895493965
0.00273503255016
0.00209561040566
0.000922232845074
0.00106327118412
0.00249746023797
0.00330944086804
0.00387074562406
0.00425088809484
0.0044855764693
0.00460334029977
0.00463486074984
0.0046104671462
0.00455617582403
0.00448856902172
0.00441325031046
0.00432482620506
0.00420837184561
0.00404230579972
0.00380123347379
0.00345793846092
0.00297519099853
0.00227849744252
0.00099948558385
0.0011213353456
0.00264454940376
0.00350786851565
0.00410238203965
0.00450140791399
0.0047400895197
0.00484941423567
0.00486334782377
0.00481914877868
0.00474797286886
0.00466887090144
0.00458827159126
0.00449942484072
0.00438510875331
0.0042211907068
0.00397755651136
0.00362204261149
0.00311842749474
0.00238800874397
0.00104555471691
0.00115455961482
0.00273124405128
0.00362507216946
0.00423725103746
0.00464239146057
0.00487498640147
0.00496695997579
0.00495741130867
0.00489095436636
0.00480331525983
0.00471531383336
0.00463364364355
0.00454984865332
0.00444429941947
0.0042905809302
0.00405538401789
0.00370135508885
0.00319068266134
0.00244476600746
0.00106957294596
0.00117076441664
0.00277531233811
0.00368403372576
0.00430300762874
0.00470413290608
0.00492408944684
0.00499514471529
0.00496218704808
0.00487556367417
0.00477450023757
0.00468090979462
0.00460114690725
0.00452516859148
0.00443129932433
0.00429092837701
0.00406884870839
0.00372438823052
0.00321602834449
0.00246701999197
0.00107927589101
0.00117661918044
0.00279199835567
0.00370481608551
0.00432281032609
0.00471563069095
0.0049216254272
0.00497465381372
0.00492353491006
0.00482240802967
0.00471265351249
0.00461659593617
0.00453986852615
0.00447125241065
0.00438781498507
0.00425952003589
0.0040497647197
0.00371617574591
0.00321561189524
0.00247016421041
0.00108111090336
0.00117720993535
0.00279283228807
0.00370308836958
0.00431600797162
0.00470056521786
0.00489604687722
0.00493765027027
0.00487630346091
0.00476791292137
0.00465457878273
0.00455843054172
0.00448437882715
0.0044205481544
0.00434357252092
0.00422302795995
0.00402182693303
0.00369695067265
0.00320479441709
0.00246524811938
0.00107972888132
0.0011753576604
0.00278422069772
0.00368787735989
0.00429422375023
0.00467285122253
0.00486342284437
0.00490158283877
0.00483857058861
0.00473012148891
0.0046177880528
0.00452311843008
0.0044505784907
0.00438821309343
0.00431294678151
0.00419486780173
0.00399731354186
0.00367739063367
0.00319129052443
0.00245800214901
0.00107767900924
0.00117110696823
0.002766741071
0.00366031071494
0.00425912825866
0.00463456400129
0.0048259456425
0.00486839276002
0.00481169835262
0.00470964862493
0.00460220185251
0.00451011717912
0.0044377879448
0.00437376573712
0.00429587655379
0.00417542994146
0.00397692309874
0.00365826266809
0.00317568848559
0.00244865510329
0.00107515088407
0.00116175685433
0.00273512636785
0.00361357941052
0.00420228931719
0.00457584802382
0.00477190365784
0.00482479190841
0.00478113731217
0.00469106517197
0.0045919938392
0.00450374173353
0.00443092413956
0.00436315714559
0.00427970636164
0.00415361441115
0.00395096926415
0.00363126287778
0.00315143078444
0.00243218124767
0.00106972843858
0.00114258094065
0.00267933695107
0.00353467195952
0.00410886646016
0.00447800569058
0.0046789023575
0.00474556916505
0.00471954470623
0.00464569019712
0.00455804562002
0.00447537405543
0.00440255269085
0.00433071935395
0.00424103691439
0.0041084512416
0.003900631234
0.00358030960185
0.00310629814833
0.00239909425598
0.00105697654246
0.00110749887803
0.00258580697991
0.00340599829394
0.00395808756599
0.00431657848805
0.00451936157189
0.00459882867346
0.0045915672668
0.004535889539
0.004461870347
0.00438694818242
0.00431612448608
0.0042420711886
0.00414810851578
0.00401079126627
0.00380024103887
0.00348340456669
0.00302228693834
0.00233609843072
0.00103109199954
0.00104931182452
0.00243828591905
0.00320674532405
0.00372536471138
0.00406510332013
0.00426315835736
0.00435053909557
0.00435926003474
0.00432096758465
0.00426152949013
0.00419662313621
0.00413091574795
0.00405833915003
0.00396421909798
0.00382715308207
0.00362063277295
0.00331734048595
0.00287849643279
0.00222693795554
0.00098504777316
0.000959460526937
0.00221775938369
0.00291332824423
0.0033837865711
0.00369394276073
0.00387781132419
0.00396488853409
0.00398445322691
0.00396080687133
0.00391584663985
0.00386300289573
0.00380617550662
0.00374007968949
0.00365166552146
0.00352333435926
0.00333294466072
0.00305381670771
0.00265037443699
0.00205189776186
0.000910112048014
0.000826632827923
0.00189970045746
0.00249588607855
0.00289946325278
0.00316596042234
0.00332556040642
0.00340414247696
0.00342608961973
0.00341284632706
0.00338150503521
0.00334237352752
0.00329826466688
0.00324472869517
0.00317115237791
0.0030621489644
0.00289858571426
0.00265710564306
0.0023061707564
0.00178474205183
0.000794198554324
0.000633426475704
0.00144004759017
0.00189704603136
0.002205038361
0.00240701801886
0.00252796348961
0.00258869820321
0.00260803994771
0.00260223350924
0.00258364118845
0.0025594897317
0.0025313947966
0.00249561965943
0.00244395925395
0.00236443572164
0.00224199092205
0.00205774434256
0.0017857092145
0.00137821488741
0.000617947605189
0.000372034008127
0.000632671103753
0.000824817563823
0.000954641750743
0.00103888629708
0.00108902388763
0.00111436455482
0.00112308388212
0.00112215900984
0.00111678591067
0.00110990085845
0.00110188058828
0.00109064620703
0.00107215586694
0.00104103446559
0.000990705089706
0.000912756741464
0.000795209392879
0.000618408616055
0.000367719286335
0.000408661455255
0.000770871138659
0.00104173419174
0.00122848164015
0.0013520775629
0.00142676459485
0.00146455112172
0.00147652093014
0.00147247699978
0.00145991710658
0.00144324146991
0.0014235624813
0.00139879174383
0.00136391024502
0.00131202132684
0.00123470781573
0.00112172108798
0.000959016042593
0.000723687361267
0.000400277171807
0.000771874151745
0.00184872127436
0.00247674844368
0.00291304933398
0.00320829267844
0.0033915923117
0.00348803016249
0.00352113109326
0.00351215375736
0.00347789763331
0.00342891016104
0.0033687801844
0.00329416697302
0.00319504290535
0.00305681804369
0.002861579091
0.00258808025533
0.00220836160772
0.00167015913782
0.000722759706087
0.0010439181633
0.00247859340774
0.00329245517495
0.00386007128667
0.00424835372924
0.00449165582623
0.0046200692622
0.00466252341952
0.00464675645022
0.00459555361518
0.00452353128338
0.00443660787146
0.00433079424724
0.00419310269805
0.00400492011126
0.00374374420041
0.00338372216597
0.00289172483661
0.00220024582288
0.000955300281199
0.0012332751502
0.00292087776672
0.00386709703407
0.00452507176551
0.00497456890157
0.00525476553334
0.00539957086393
0.0054384165556
0.00540653459735
0.00533394597151
0.00523989066491
0.00513204054567
0.00500522721243
0.00484371792243
0.00462689114343
0.00432685212519
0.00391320293244
0.00334870251362
0.00255397486975
0.0011098896688
0.00136118496026
0.00322612187023
0.00426747243494
0.00498756006602
0.0054768722109
0.00577712206814
0.00591596616415
0.00593188051526
0.00587062459555
0.00577018269628
0.0056540263527
0.00553170245696
0.00539648072051
0.00522956234913
0.00500516638497
0.00469014940867
0.00424985615709
0.00364216102064
0.00278055960909
0.0012078655779
0.00144186948565
0.00342333701483
0.00452790619154
0.00528696150501
0.0057992093955
0.00609493501901
0.00620531706211
0.00618043702916
0.0060785573202
0.00594563908818
0.00580938651155
0.00568008708224
0.00554896494158
0.00539276544275
0.00518027181453
0.00487429382564
0.00443169842591
0.00380638752032
0.00290904056916
0.00126358193696
0.00148722453796
0.00353748098195
0.00467853160071
0.0054581783269
0.0059727997369
0.00624409457817
0.00631046608672
0.00623437496517
0.00608709198589
0.00592255225481
0.00577113440049
0.00564253591178
0.00552539842349
0.00539161235446
0.00520429346111
0.00492130478822
0.0044965679715
0.00387409596081
0.00296563157315
0.00128912660289
0.00150814385549
0.00359200855967
0.00474883702641
0.0055336916128
0.00603457458626
0.00627233773168
0.00629133444984
0.00616538503073
0.00597769114271
0.00578798540628
0.00562768152486
0.00550474209252
0.00540525261732
0.00529705805752
0.00513887541197
0.00488443930708
0.00448466800148
0.0038787393704
0.00297576261093
0.00129553544385
0.00151413284205
0.00360781984445
0.00476603987513
0.00554422068724
0.00602621364071
0.00623302244095
0.00621351069144
0.00605034323385
0.0058346225336
0.00562926245106
0.00546539889813
0.00534887357016
0.00526383982156
0.00517616827687
0.00504210564972
0.00481299573702
0.00443714956066
0.00385171007225
0.00296205841166
0.00129224019687
0.00151235799207
0.0036011396265
0.00475228578502
0.00551921407547
0.00598456202196
0.00616985440057
0.00612710055105
0.00594396455257
0.00571497022444
0.00550359522063
0.00533995647837
0.00522823668959
0.00515139890737
0.00507499375353
0.00495502121096
0.00474227280274
0.00438379071097
0.00381545918854
0.00294111310726
0.00128602107429
0.00150671642169
0.00358127031192
0.00472067781101
0.00547621555469
0.00593095372342
0.00610707981916
0.00605793803825
0.00587205514784
0.00564335518539
0.00543396975044
0.00527283711088
0.00516334477927
0.00508820279111
0.00501368608544
0.00489709678196
0.00469027014831
0.00434053343685
0.00378349719984
0.00292201047305
0.00128053551026
0.00149747952976
0.00354960637433
0.00467356090642
0.00541846183508
0.00586914156801
0.00604831275113
0.00600866602867
0.00583560027739
0.00561889445026
0.0054179579402
0.00526072490156
0.00515079366219
0.0050716152673
0.00499097661019
0.00486850699907
0.00465822888158
0.00430908449489
0.00375737764245
0.00290555499875
0.00127597253414
0.00148128269573
0.00349955572925
0.00460240995945
0.00533445532812
0.00578495427152
0.0059770808534
0.00596073719034
0.00581432705495
0.00562006646926
0.0054333829226
0.00528145394258
0.00516910157758
0.00508143909151
0.00498866242761
0.00485356197129
0.00463304261033
0.00427848697281
0.00372784406334
0.00288490235455
0.00126918066602
0.00145187509714
0.00341795200047
0.004489991859
0.0052019076387
0.00565081525479
0.0058610118624
0.00587724142297
0.00576781219379
0.0056045549696
0.00543756475476
0.00529334752036
0.0051784574933
0.00508050334936
0.00497316352342
0.00482270911359
0.00458939253725
0.00422695984021
0.00367676924675
0.0028468538605
0.00125429987219
0.00140105936749
0.00328714741973
0.00431394988961
0.00499769490724
0.00543539465672
0.00566046069526
0.00571021721368
0.005641014146
0.00551317289873
0.00537052073434
0.00523799253919
0.00512366628419
0.00501786522454
0.00489813759127
0.00473465260375
0.00449100616679
0.00412331533998
0.00358103099908
0.00277359439037
0.00122351338961
0.00131927261036
0.00308644474496
0.00404833402928
0.00469214427007
0.00510729492984
0.00533614181612
0.00541140009078
0.00537789007872
0.00528441170889
0.00516838996571
0.0050521580367
0.00494395370318
0.00483661738671
0.0047114620268
0.0045422559802
0.00429562912738
0.0039333791885
0.00341272757762
0.00264377944164
0.00116740580881
0.00119547354646
0.00279246059802
0.00366479744378
0.00425216424589
0.00463416204428
0.00485095527947
0.00493833424383
0.00493041824629
0.0048659422491
0.00477578890009
0.00467918128496
0.0045834787594
0.00448313926436
0.00436260699859
0.00419859366001
0.00396318249566
0.00362427797506
0.00314191396441
0.00243301181809
0.00107469691588
0.00101532782089
0.00237594362597
0.00312828708685
0.00363725941603
0.00396990139831
0.0041616252883
0.00424431692009
0.00424937803279
0.00420685114325
0.00414089317219
0.00406639051811
0.00398910678215
0.00390523840546
0.00380160222969
0.00365851992103
0.00345242767236
0.0031556437009
0.002732098508
0.00211055889087
0.000930336152749
0.000756201939363
0.00178403148662
0.00236900745256
0.00276426711164
0.00302094061472
0.00316890142549
0.00323441376922
0.00324252958472
0.00321595002883
0.00317239414222
0.00312280475414
0.00307078115088
0.00301256603718
0.00293808205429
0.00283207660664
0.00267575269072
0.00244633491052
0.00211349109504
0.0016217482019
0.000710218463833
0.00040572963268
0.000754769338572
0.00101096683801
0.001183622833
0.00129418259271
0.00135726127739
0.00138528558561
0.00138976404209
0.00138079852227
0.00136599262989
0.0013497678168
0.00133307488615
0.00131363666453
0.00128648871257
0.0012446307213
0.00117951316359
0.00108046647819
0.000932588246836
0.000711202544246
0.000395352852854
0.0004563916442
0.000953084325479
0.00131332831133
0.00156009181996
0.00172301522414
0.0018205402635
0.00186810714908
0.00188017640258
0.00186956030955
0.00184604343395
0.00181561874479
0.00178015297818
0.00173759956074
0.00168206151128
0.00160514175163
0.00149684193574
0.00134542375064
0.00113491390298
0.000837701937813
0.000431168583756
0.000955389114573
0.00235255182661
0.00316133672861
0.00372746420307
0.00411378620544
0.00435529884734
0.00448241313818
0.00452419770389
0.00450735761061
0.00445307167768
0.0043752307489
0.00427930662004
0.00416186267542
0.00401096837243
0.00380902037085
0.00353516232758
0.00316594270921
0.00267174427378
0.00199556869999
0.000835869223978
0.00131790168484
0.00316475912467
0.00420539757658
0.00493721400232
0.00544312508085
0.00576442904575
0.00593599542294
0.00599017629824
0.00596352417516
0.00588536175598
0.00577497870349
0.00564115737499
0.00547998562507
0.00527583208644
0.00500712313013
0.00464577117627
0.00416231268657
0.00352253175705
0.00265249643253
0.00112598854979
0.00156887853881
0.00373860820941
0.00494526529735
0.00579039621289
0.00637793288739
0.00674916640634
0.00693647332566
0.00697609279678
0.00691787299864
0.00680378226973
0.00665959945594
0.00649679143646
0.00630904496023
0.00607728021336
0.00577471460356
0.00536968750191
0.00482312813305
0.00409240586381
0.00309242028946
0.00131755446747
0.00173815618308
0.0041362138666
0.00546278605687
0.00639017240323
0.00703195524923
0.00741784390659
0.00757705368631
0.00756410689532
0.00744754474762
0.00728246930248
0.00710181701873
0.00691926361491
0.00672635922125
0.00649780769977
0.00619920264159
0.00578927605886
0.00522350026425
0.00444779024534
0.00336736663025
0.00143542985251
0.00184407464981
0.0043922430208
0.00579962510767
0.00678302347393
0.00744491744802
0.0078004918998
0.00788805393196
0.00778552721707