/*--------------------------------*- C++ -*----------------------------------*\
| =========                 |                                                 |
| \\      /  F ield         | OpenFOAM: The Open Source CFD Toolbox           |
|  \\    /   O peration     | Version:  3.0.1                                 |
|   \\  /    A nd           | Web:      www.OpenFOAM.org                      |
|    \\/     M anipulation  |                                                 |
\*---------------------------------------------------------------------------*/
FoamFile
{
    version     2.0;
    format      ascii;
    class       volScalarField;
    location    "0.1";
    object      rAU;
}
// * * * * * * * * * * * * * * * * * * * * * * * * * * * * * * * * * * * * * //

dimensions      [-1 3 1 0 0 0 0];

internalField   nonuniform List<scalar> 
7968
(
6.60989757173e-06
6.59118920259e-06
6.5911514864e-06
6.59115697331e-06
6.59117173578e-06
6.59118088155e-06
6.5911880812e-06
6.59119093213e-06
6.59119115663e-06
6.59119149766e-06
6.59119139609e-06
6.59119115462e-06
6.59119096237e-06
6.5911876786e-06
6.59118041215e-06
6.5911711927e-06
6.59115709627e-06
6.59115440438e-06
6.59119363416e-06
6.60989470328e-06
6.59118578564e-06
6.54902156671e-06
6.54301231578e-06
6.54233830276e-06
6.5422935359e-06
6.54228861633e-06
6.54228803531e-06
6.5422874625e-06
6.54228521516e-06
6.54228439337e-06
6.54228425635e-06
6.54228507452e-06
6.54228745879e-06
6.54228832661e-06
6.54228899372e-06
6.54229413062e-06
6.54233897496e-06
6.54301406911e-06
6.54902152538e-06
6.59118542877e-06
6.5911571513e-06
6.54302194636e-06
6.5334706399e-06
6.53221639541e-06
6.5321090069e-06
6.53209725998e-06
6.5320982063e-06
6.53209885775e-06
6.53209781631e-06
6.53209845168e-06
6.5320982635e-06
6.53209756415e-06
6.5320987952e-06
6.53209904838e-06
6.53209811797e-06
6.53210915888e-06
6.53221629508e-06
6.5334702954e-06
6.54302412505e-06
6.59116040332e-06
6.59116444588e-06
6.54234462044e-06
6.53221727215e-06
6.53085722859e-06
6.53073957535e-06
6.53073557007e-06
6.53073669261e-06
6.53074447743e-06
6.53075417956e-06
6.530758143e-06
6.53075790683e-06
6.53075433342e-06
6.53074446079e-06
6.53073688434e-06
6.53073535808e-06
6.5307396348e-06
6.53085684214e-06
6.53221638158e-06
6.54234536926e-06
6.59116510022e-06
6.59117189538e-06
6.54229449556e-06
6.53210959088e-06
6.53074146049e-06
6.53062345841e-06
6.53061276893e-06
6.53061469183e-06
6.53063180027e-06
6.53064498261e-06
6.53065043543e-06
6.53065047522e-06
6.53064490815e-06
6.53063283668e-06
6.53061543957e-06
6.53061274943e-06
6.53062265186e-06
6.53074060148e-06
6.53210905282e-06
6.54229494647e-06
6.5911714028e-06
6.59117703311e-06
6.54228731864e-06
6.53209899997e-06
6.53073686331e-06
6.53061612044e-06
6.53059232574e-06
6.53056427267e-06
6.53055457508e-06
6.53054173075e-06
6.53052078157e-06
6.53051911676e-06
6.53054432436e-06
6.53055594687e-06
6.53056884967e-06
6.53059310016e-06
6.53061498566e-06
6.53073512527e-06
6.53209849799e-06
6.54228858115e-06
6.59117569997e-06
6.59118284283e-06
6.54228590207e-06
6.53209745084e-06
6.53074130848e-06
6.53062280471e-06
6.53055494792e-06
6.53049183905e-06
6.53048077402e-06
6.5304634875e-06
6.53043689077e-06
6.53043525154e-06
6.5304642354e-06
6.53048153957e-06
6.53049442971e-06
6.53056056096e-06
6.53062210312e-06
6.53073939485e-06
6.5320973468e-06
6.54228810333e-06
6.59118241038e-06
6.59118894209e-06
6.54228498684e-06
6.53209885884e-06
6.53075050247e-06
6.53063877332e-06
6.53053358399e-06
6.5304660735e-06
6.53051096543e-06
6.53053632192e-06
6.53054302659e-06
6.53054470348e-06
6.53053558628e-06
6.53051230054e-06
6.53046861173e-06
6.53053818807e-06
6.53063885989e-06
6.53074769407e-06
6.5320999587e-06
6.5422880076e-06
6.59118948442e-06
6.59119008518e-06
6.54228440462e-06
6.53209967389e-06
6.53075836352e-06
6.53064967591e-06
6.53050779738e-06
6.53043659779e-06
6.53052719345e-06
6.53057363099e-06
6.53058973457e-06
6.53059101723e-06
6.53057481189e-06
6.53053120238e-06
6.5304406e-06
6.53052025407e-06
6.53065253127e-06
6.53075500639e-06
6.53210124978e-06
6.54228935247e-06
6.59119070275e-06
6.59119173178e-06
6.54228512227e-06
6.53209989461e-06
6.53076113607e-06
6.53065416927e-06
6.53048201553e-06
6.53039926537e-06
6.53053085159e-06
6.53058717162e-06
6.53059934055e-06
6.53059990824e-06
6.5305882353e-06
6.53053568312e-06
6.53040910883e-06
6.530495959e-06
6.53066104793e-06
6.53075758549e-06
6.53210095289e-06
6.54228817977e-06
6.5911913854e-06
6.59119132309e-06
6.54228372569e-06
6.53209957671e-06
6.53076078322e-06
6.53065417571e-06
6.53047941532e-06
6.53039679476e-06
6.53053232237e-06
6.53058806036e-06
6.53059953338e-06
6.5306000461e-06
6.53058866267e-06
6.53053759101e-06
6.53040982982e-06
6.53049613056e-06
6.53066155372e-06
6.53075679682e-06
6.53210027848e-06
6.54228442646e-06
6.59119082547e-06
6.59118981621e-06
6.54228252893e-06
6.53209907509e-06
6.53075809803e-06
6.53064964346e-06
6.53050894e-06
6.53043377363e-06
6.53052460449e-06
6.53057385035e-06
6.53059021178e-06
6.53059113878e-06
6.53057692796e-06
6.53053327284e-06
6.53044497953e-06
6.53052958246e-06
6.53065116857e-06
6.53075487101e-06
6.532099745e-06
6.54228393401e-06
6.591189162e-06
6.59118903622e-06
6.54228450623e-06
6.53209842967e-06
6.5307499066e-06
6.53063923409e-06
6.530534446e-06
6.53046314397e-06
6.53051021845e-06
6.53053801372e-06
6.53054653022e-06
6.53054860136e-06
6.53054162077e-06
6.53051778323e-06
6.53047493737e-06
6.53054947118e-06
6.53064107379e-06
6.53074697112e-06
6.53209928134e-06
6.54228588671e-06
6.5911873372e-06
6.59118282362e-06
6.54228587481e-06
6.53209745874e-06
6.53074097334e-06
6.53062410295e-06
6.53055646503e-06
6.53049057488e-06
6.53048159567e-06
6.53046604307e-06
6.53044067452e-06
6.5304418818e-06
6.53047309738e-06
6.53049029795e-06
6.53051038053e-06
6.53058115486e-06
6.53062185607e-06
6.53073974704e-06
6.53209831871e-06
6.5422873661e-06
6.59118050563e-06
6.5911770316e-06
6.54228730418e-06
6.53209920225e-06
6.53073594107e-06
6.53061575577e-06
6.53059367194e-06
6.5305647709e-06
6.53055751506e-06
6.53054664403e-06
6.53052525427e-06
6.53052572258e-06
6.53055285588e-06
6.53056704132e-06
6.53058403934e-06
6.53059404103e-06
6.53061400723e-06
6.53073543725e-06
6.53210022185e-06
6.54228832268e-06
6.59117512924e-06
6.59117200682e-06
6.54229482377e-06
6.53210956503e-06
6.53074097567e-06
6.53062210687e-06
6.53061152948e-06
6.53061397422e-06
6.53063084389e-06
6.53064508331e-06
6.53065353995e-06
6.53065320864e-06
6.53064404089e-06
6.53063288482e-06
6.53061417289e-06
6.53061085653e-06
6.53062170786e-06
6.53074129822e-06
6.53211010538e-06
6.54229592645e-06
6.59117008086e-06
6.59116621297e-06
6.54234525583e-06
6.53221695679e-06
6.53085713863e-06
6.53073875046e-06
6.53073325292e-06
6.53073520912e-06
6.53074197349e-06
6.53075110232e-06
6.5307549005e-06
6.53075440553e-06
6.53075177696e-06
6.53074191297e-06
6.53073570065e-06
6.53073412614e-06
6.53073996198e-06
6.53085788836e-06
6.53221632558e-06
6.54234565466e-06
6.59116516376e-06
6.59116326489e-06
6.54302393274e-06
6.53347035823e-06
6.53221571264e-06
6.53210854537e-06
6.53209693989e-06
6.53209809607e-06
6.53209988621e-06
6.53209910206e-06
6.53209945145e-06
6.53209949324e-06
6.5320988308e-06
6.53209987873e-06
6.53210026828e-06
6.53209986447e-06
6.53210984351e-06
6.53221579141e-06
6.53346929133e-06
6.54301873013e-06
6.59116153532e-06
6.59119332105e-06
6.54901955773e-06
6.5430115647e-06
6.54233794676e-06
6.54229434301e-06
6.54228962905e-06
6.54228886287e-06
6.5422894507e-06
6.54228707802e-06
6.54228621047e-06
6.5422859148e-06
6.54228650582e-06
6.54228946791e-06
6.54228964927e-06
6.54229035433e-06
6.54229561865e-06
6.54233989829e-06
6.54301028312e-06
6.54902087164e-06
6.59118100101e-06
6.60989492921e-06
6.59118343192e-06
6.59115180551e-06
6.59115688372e-06
6.59117154127e-06
6.59118134078e-06
6.59118775483e-06
6.59119046065e-06
6.59118946111e-06
6.59119022045e-06
6.59119007938e-06
6.59118919762e-06
6.59119007243e-06
6.59118533387e-06
6.59117766321e-06
6.59116899438e-06
6.5911563709e-06
6.59115357082e-06
6.59117855016e-06
6.60988250744e-06
6.59123615926e-06
6.54902836711e-06
6.54296193075e-06
6.5422715938e-06
6.54224142088e-06
6.54226102879e-06
6.54227922698e-06
6.54227722569e-06
6.54227790523e-06
6.54227887202e-06
6.5422788714e-06
6.54227785697e-06
6.54227718211e-06
6.54227916168e-06
6.54226130401e-06
6.542241541e-06
6.54227175534e-06
6.54295544817e-06
6.54903017169e-06
6.59123535879e-06
6.5490192353e-06
6.33686553916e-06
6.26629990625e-06
6.25540861032e-06
6.25440441885e-06
6.25433995956e-06
6.25433657378e-06
6.25433300782e-06
6.25433249633e-06
6.25433459538e-06
6.25433485795e-06
6.25433306188e-06
6.25433353707e-06
6.25433725052e-06
6.25434045377e-06
6.25440437387e-06
6.25540779307e-06
6.26629935699e-06
6.336862793e-06
6.54902075123e-06
6.54296108322e-06
6.2663010892e-06
6.16108177666e-06
6.14263678077e-06
6.14071923643e-06
6.14057160266e-06
6.14055727007e-06
6.14055283626e-06
6.14055268707e-06
6.14055295176e-06
6.14055320236e-06
6.14055310916e-06
6.14055330305e-06
6.14055796159e-06
6.14057204283e-06
6.14071847592e-06
6.14263378659e-06
6.16107744866e-06
6.26629976226e-06
6.54295306949e-06
6.54227291456e-06
6.25541302889e-06
6.14263743569e-06
6.12248707969e-06
6.12035421749e-06
6.12018441731e-06
6.12016269291e-06
6.12015795532e-06
6.12015897011e-06
6.12016061407e-06
6.12016096208e-06
6.12015974423e-06
6.12015917619e-06
6.12016402462e-06
6.12018470921e-06
6.12035312196e-06
6.12248344902e-06
6.14263212339e-06
6.25541092045e-06
6.54227054705e-06
6.54224549694e-06
6.2544069079e-06
6.14072027582e-06
6.1203551066e-06
6.11819145246e-06
6.11801774541e-06
6.11802502703e-06
6.11802122905e-06
6.11801912149e-06
6.11800604335e-06
6.11800611521e-06
6.1180189925e-06
6.11802180536e-06
6.11802540998e-06
6.11801719215e-06
6.1181906936e-06
6.12035138628e-06
6.14071469172e-06
6.25440510353e-06
6.54224236623e-06
6.54226011462e-06
6.25434128851e-06
6.14057326222e-06
6.1201870443e-06
6.11801998029e-06
6.1178624191e-06
6.1178687083e-06
6.11786470321e-06
6.11786263914e-06
6.11785980913e-06
6.11785966029e-06
6.11786385484e-06
6.11786479128e-06
6.11787111213e-06
6.1178628499e-06
6.11801790724e-06
6.12018323282e-06
6.14056785311e-06
6.2543397443e-06
6.542256436e-06
6.54227608977e-06
6.2543374902e-06
6.14055958099e-06
6.12016625511e-06
6.11802956979e-06
6.11785959442e-06
6.11784023732e-06
6.11784974083e-06
6.11784263988e-06
6.11783766025e-06
6.11783787428e-06
6.11784329645e-06
6.11784958076e-06
6.11784051113e-06
6.11786349332e-06
6.1180276423e-06
6.12016296509e-06
6.14055415371e-06
6.25433575151e-06
6.54227309719e-06
6.54227730463e-06
6.25433347435e-06
6.14055500111e-06
6.12016128139e-06
6.11802438656e-06
6.11784723774e-06
6.11784043822e-06
6.11785457842e-06
6.1178522894e-06
6.11784948489e-06
6.11785081077e-06
6.11785310431e-06
6.11785548167e-06
6.11784227599e-06
6.11784970008e-06
6.11802441837e-06
6.12015866621e-06
6.14054970638e-06
6.25433181599e-06
6.54227732209e-06
6.54227806587e-06
6.2543319616e-06
6.14055417832e-06
6.12016195381e-06
6.11801969226e-06
6.11783634806e-06
6.11782596054e-06
6.11784506914e-06
6.11785106187e-06
6.11784695652e-06
6.11784786055e-06
6.11785260388e-06
6.11784822693e-06
6.11783023594e-06
6.11784530427e-06
6.11802018281e-06
6.12015937951e-06
6.14054884761e-06
6.25433025182e-06
6.54227737976e-06
6.54227900247e-06
6.2543336535e-06
6.14055405909e-06
6.12016292155e-06
6.11800678083e-06
6.11783117507e-06
6.11781414025e-06
6.11784022467e-06
6.11784436936e-06
6.11783827817e-06
6.11783907202e-06
6.11784655596e-06
6.11784344198e-06
6.11782284194e-06
6.11784149733e-06
6.11801050097e-06
6.12016013931e-06
6.14054874286e-06
6.25433199256e-06
6.54227801858e-06
6.54227885946e-06
6.25433347161e-06
6.14055391007e-06
6.12016299878e-06
6.11800675413e-06
6.11783099395e-06
6.11781425768e-06
6.11784141067e-06
6.11784509738e-06
6.11783886774e-06
6.11783973568e-06
6.11784734642e-06
6.11784476362e-06
6.11782442416e-06
6.11784268248e-06
6.11801131559e-06
6.12016022979e-06
6.14054914268e-06
6.25433190275e-06
6.54227734449e-06
6.54227785197e-06
6.25433172944e-06
6.14055396428e-06
6.12016232846e-06
6.11801965186e-06
6.11783674613e-06
6.11782422221e-06
6.11784499928e-06
6.11785229521e-06
6.1178481506e-06
6.11784923998e-06
6.11785489394e-06
6.11785131511e-06
6.11783339776e-06
6.11785199673e-06
6.11801984008e-06
6.12015964164e-06
6.14054929397e-06
6.2543302054e-06
6.54227587296e-06
6.54227713778e-06
6.25433347496e-06
6.1405548863e-06
6.12016195006e-06
6.11802423638e-06
6.11784771429e-06
6.11783876123e-06
6.11785485024e-06
6.11785433461e-06
6.11785247759e-06
6.11785405932e-06
6.11785796121e-06
6.11785911736e-06
6.1178480031e-06
6.11785821162e-06
6.11802471536e-06
6.12015898393e-06
6.14055009874e-06
6.25433181938e-06
6.54227557542e-06
6.54227603572e-06
6.25433753795e-06
6.14055965117e-06
6.12016665292e-06
6.11803063567e-06
6.11786008169e-06
6.11783849243e-06
6.11785090824e-06
6.11784588147e-06
6.11784267912e-06
6.11784364106e-06
6.11785019606e-06
6.1178566631e-06
6.11785256787e-06
6.11787998145e-06
6.11802803844e-06
6.12016307376e-06
6.14055492034e-06
6.25433613328e-06
6.54227236673e-06
6.54226018992e-06
6.25434132003e-06
6.1405730144e-06
6.12018664917e-06
6.11801915012e-06
6.11786258511e-06
6.11786949842e-06
6.11786695596e-06
6.11786592056e-06
6.11786326987e-06
6.11786347806e-06
6.11786907761e-06
6.1178728117e-06
6.11788358179e-06
6.11786348051e-06
6.11801742961e-06
6.12018297802e-06
6.14056853813e-06
6.25434025492e-06
6.54225678662e-06
6.54224581789e-06
6.25440637293e-06
6.14071887831e-06
6.12035340001e-06
6.11819007207e-06
6.11801570326e-06
6.11802372484e-06
6.11801987574e-06
6.11801827086e-06
6.11800746549e-06
6.11800764772e-06
6.11801801151e-06
6.11802024843e-06
6.11802374037e-06
6.1180153388e-06
6.11818908562e-06
6.12035056062e-06
6.14071436118e-06
6.25440580657e-06
6.54224244396e-06
6.542273068e-06
6.25541172275e-06
6.1426339008e-06
6.12248293253e-06
6.12034991868e-06
6.12018007467e-06
6.12015894616e-06
6.12015475607e-06
6.12015585646e-06
6.12015730817e-06
6.12015751767e-06
6.1201564741e-06
6.12015549556e-06
6.12015973309e-06
6.1201805096e-06
6.12034975879e-06
6.1224801758e-06
6.14262991873e-06
6.25541071301e-06
6.54227063612e-06
6.54295446346e-06
6.26629959261e-06
6.16107686147e-06
6.14263103111e-06
6.1407133246e-06
6.14056591993e-06
6.14055174235e-06
6.14054764809e-06
6.14054750323e-06
6.14054785426e-06
6.14054833402e-06
6.14054830552e-06
6.14054851049e-06
6.14055320698e-06
6.14056744393e-06
6.14071373468e-06
6.14262950214e-06
6.16107421797e-06
6.26629518697e-06
6.54292437591e-06
6.54902286265e-06
6.33686180688e-06
6.26629689575e-06
6.25540546563e-06
6.25440222663e-06
6.2543381319e-06
6.25433465782e-06
6.25433116883e-06
6.25433064089e-06
6.25433280136e-06
6.25433308812e-06
6.25433146834e-06
6.25433208718e-06
6.25433593421e-06
6.25433947254e-06
6.25440383e-06
6.25540636199e-06
6.266295807e-06
6.33686752564e-06
6.54902183941e-06
6.5912351199e-06
6.54902730322e-06
6.54295081739e-06
6.54226861862e-06
6.54223795923e-06
6.54225780222e-06
6.54227752445e-06
6.54227646219e-06
6.5422769399e-06
6.54227799655e-06
6.54227694624e-06
6.54227524039e-06
6.54227527235e-06
6.54227683278e-06
6.5422580309e-06
6.54223836446e-06
6.54226916379e-06
6.54292824271e-06
6.5490284097e-06
6.59123767093e-06
6.59112287785e-06
6.54293408865e-06
6.533363163e-06
6.53211300456e-06
6.53204005272e-06
6.53206765711e-06
6.5320872635e-06
6.53208617084e-06
6.53207798798e-06
6.53208013606e-06
6.53207911046e-06
6.53207672302e-06
6.53208567477e-06
6.53208682249e-06
6.53206798415e-06
6.53204031466e-06
6.53211250149e-06
6.53335441251e-06
6.54293467201e-06
6.59112994917e-06
6.54292866205e-06
6.2662639026e-06
6.1610474793e-06
6.14260962094e-06
6.14070158553e-06
6.1405654376e-06
6.14055813742e-06
6.14055210487e-06
6.14054902399e-06
6.14055203233e-06
6.14055247252e-06
6.14054962179e-06
6.14055254882e-06
6.14055842841e-06
6.14056542609e-06
6.14070038146e-06
6.14260664125e-06
6.16104365885e-06
6.26626226743e-06
6.54293365789e-06
6.53336597724e-06
6.16104713238e-06
5.99127373202e-06
5.95628539571e-06
5.95205029689e-06
5.95168405487e-06
5.95164641289e-06
5.95163637325e-06
5.95163254423e-06
5.9516353357e-06
5.95163590507e-06
5.95163398082e-06
5.95163776869e-06
5.95164745291e-06
5.95168417092e-06
5.95204737527e-06
5.95627733907e-06
5.99126322249e-06
6.16104353499e-06
6.53335529723e-06
6.53211614628e-06
6.14260821478e-06
5.95628665195e-06
5.91684255724e-06
5.91195052642e-06
5.91152009473e-06
5.91148304068e-06
5.91147057771e-06
5.91146828312e-06
5.91146973774e-06
5.91147019576e-06
5.91146910681e-06
5.91147127944e-06
5.91148354757e-06
5.91151984561e-06
5.91194727962e-06
5.91683248477e-06
5.95627314932e-06
6.14260345171e-06
6.53211099019e-06
6.53203495516e-06
6.14070382793e-06
5.95205202908e-06
5.91195201362e-06
5.90697514171e-06
5.90651487352e-06
5.90653944228e-06
5.90665624306e-06
5.90672320243e-06
5.90672745242e-06
5.90672799624e-06
5.90672428764e-06
5.90665652548e-06
5.90653853634e-06
5.90651331364e-06
5.90697113668e-06
5.91194190605e-06
5.95203840821e-06
6.14069927615e-06
6.53203231287e-06
6.5320650781e-06
6.14056758141e-06
5.95168612005e-06
5.91152394293e-06
5.90651664848e-06
5.9062418725e-06
5.9068665863e-06
5.90752146493e-06
5.90774618013e-06
5.90775007637e-06
5.90775119701e-06
5.90774784006e-06
5.90751870495e-06
5.90685904624e-06
5.90623798387e-06
5.9065114411e-06
5.91151391853e-06
5.95167250175e-06
6.14056269413e-06
6.53206501086e-06
6.53208932178e-06
6.14055882434e-06
5.95164941383e-06
5.91148826667e-06
5.90654316982e-06
5.90687064361e-06
5.90850466509e-06
5.90983615377e-06
5.91022674501e-06
5.91022647827e-06
5.91022863579e-06
5.91023106961e-06
5.90983340221e-06
5.90849083323e-06
5.90685631836e-06
5.90653659353e-06
5.91147748177e-06
5.95163657623e-06
6.14055372028e-06
6.53208802216e-06
6.532089418e-06
6.14055345783e-06
5.95164019131e-06
5.91147603919e-06
5.90666224952e-06
5.90753107671e-06
5.90984235106e-06
5.9115434439e-06
5.91203305743e-06
5.9120305432e-06
5.91203376847e-06
5.91204118766e-06
5.91154415634e-06
5.90982649415e-06
5.90751004708e-06
5.90665423513e-06
5.91146552072e-06
5.95162697678e-06
6.14054800019e-06
6.53208961506e-06
6.53208520768e-06
6.14055254869e-06
5.95163766888e-06
5.91147359775e-06
5.90672911023e-06
5.90775875136e-06
5.91023734245e-06
5.91203644094e-06
5.91257725352e-06
5.91257487191e-06
5.91257754839e-06
5.91258706901e-06
5.91203947201e-06
5.91022014161e-06
5.90773585308e-06
5.90671891275e-06
5.91146237048e-06
5.95162407261e-06
6.14054716236e-06
6.5320854125e-06
6.53208354182e-06
6.1405547127e-06
5.95163885833e-06
5.91147535823e-06
5.90673296253e-06
5.90776273126e-06
5.91023700812e-06
5.91203491639e-06
5.91257520592e-06
5.91256012972e-06
5.91256026455e-06
5.91258214577e-06
5.91203618444e-06
5.91021967089e-06
5.90773973816e-06
5.90672287337e-06
5.91146439603e-06
5.95162569934e-06
6.14054938044e-06
6.53208310676e-06
6.53208323581e-06
6.14055468639e-06
5.95163868774e-06
5.91147542034e-06
5.90673320715e-06
5.90776312638e-06
5.91023809592e-06
5.91203714671e-06
5.91257748486e-06
5.91256231635e-06
5.9125624924e-06
5.91258435382e-06
5.91203775671e-06
5.91022030568e-06
5.90774010158e-06
5.90672327607e-06
5.91146521423e-06
5.95162643592e-06
6.14054952853e-06
6.53208258577e-06
6.5320845961e-06
6.14055242595e-06
5.95163769242e-06
5.91147387998e-06
5.90672989377e-06
5.90775984893e-06
5.91024076585e-06
5.91204311634e-06
5.91258515681e-06
5.91258215922e-06
5.9125848082e-06
5.91259373007e-06
5.91204456306e-06
5.9102227865e-06
5.90773682991e-06
5.90671986472e-06
5.9114632193e-06
5.95162580608e-06
6.14054730916e-06
6.53208412527e-06
6.53208892323e-06
6.14055331306e-06
5.95164059337e-06
5.91147651259e-06
5.90666315473e-06
5.9075318521e-06
5.90984569991e-06
5.91154998668e-06
5.91204114448e-06
5.91203842439e-06
5.91204094553e-06
5.91204777726e-06
5.91154859194e-06
5.90982892573e-06
5.90751096926e-06
5.9066545503e-06
5.91146573112e-06
5.95162804e-06
6.14054816019e-06
6.5320884996e-06
6.53208937567e-06
6.14055863122e-06
5.95164978484e-06
5.91148833364e-06
5.90654361467e-06
5.90687025925e-06
5.90850496372e-06
5.90983806218e-06
5.9102288211e-06
5.91022861131e-06
5.91023022656e-06
5.91023233514e-06
5.90983426899e-06
5.90849151399e-06
5.90685616877e-06
5.90653547374e-06
5.91147771503e-06
5.95163728506e-06
6.14055391168e-06
6.5320877402e-06
6.53206599232e-06
6.14056704257e-06
5.95168562449e-06
5.91152322259e-06
5.90651586309e-06
5.90624170184e-06
5.90686461807e-06
5.90751879876e-06
5.90774331925e-06
5.90774713259e-06
5.90774808754e-06
5.90774469914e-06
5.9075160335e-06
5.9068571377e-06
5.9062368679e-06
5.90651033372e-06
5.91151346877e-06
5.95167236199e-06
6.14056276345e-06
6.53206409745e-06
6.53203456801e-06
6.14070223787e-06
5.95204864289e-06
5.91194822514e-06
5.90697085632e-06
5.90651070961e-06
5.90653531956e-06
5.90665247856e-06
5.9067193623e-06
5.90672352708e-06
5.90672420127e-06
5.90672054537e-06
5.90665224582e-06
5.90653317342e-06
5.90650866968e-06
5.90696648519e-06
5.91193825056e-06
5.95203625682e-06
6.14069861366e-06
6.5320307803e-06
6.53211479384e-06
6.14260491475e-06
5.95627810206e-06
5.91683210469e-06
5.91193994373e-06
5.91150955122e-06
5.91147231082e-06
5.91146029801e-06
5.9114577135e-06
5.91145908877e-06
5.91145986011e-06
5.9114585868e-06
5.91146056924e-06
5.9114726255e-06
5.91150920145e-06
5.91193679274e-06
5.91682294608e-06
5.95626669364e-06
6.14260430462e-06
6.53210914588e-06
6.53335588358e-06
6.16104282699e-06
5.99126308374e-06
5.95627129886e-06
5.95203644606e-06
5.95167026423e-06
5.95163264013e-06
5.95162281652e-06
5.95161895096e-06
5.95162173073e-06
5.951622773e-06
5.95162122192e-06
5.95162425573e-06
5.95163365579e-06
5.95167056999e-06
5.95203463189e-06
5.95626531687e-06
5.99125962227e-06
6.16104553261e-06
6.53332382799e-06
6.5429283195e-06
6.26626188237e-06
6.16104361871e-06
6.14260495652e-06
6.14069599048e-06
6.14056127199e-06
6.1405529548e-06
6.14054640774e-06
6.14054309351e-06
6.14054618013e-06
6.14054717176e-06
6.14054433937e-06
6.14054706669e-06
6.14055327359e-06
6.14056139683e-06
6.14069582211e-06
6.14260594784e-06
6.1610458624e-06
6.26626776819e-06
6.54293523257e-06
6.59112957506e-06
6.54293889057e-06
6.53334849557e-06
6.53210864933e-06
6.53203860347e-06
6.53206644803e-06
6.53208674646e-06
6.53208637658e-06
6.53207903292e-06
6.53208055125e-06
6.5320780642e-06
6.53207545995e-06
6.53208483863e-06
6.53208618229e-06
6.53206656348e-06
6.53203734224e-06
6.53210721808e-06
6.533324518e-06
6.54294089835e-06
6.59113647713e-06
6.59108506607e-06
6.54220715086e-06
6.53210345863e-06
6.53077401883e-06
6.53067995456e-06
6.53069936656e-06
6.53071444304e-06
6.53071673661e-06
6.53070643352e-06
6.53070061347e-06
6.530699835e-06
6.5307053323e-06
6.53071560986e-06
6.53071368889e-06
6.5306991417e-06
6.53067986748e-06
6.53077319923e-06
6.53210018654e-06
6.54220403407e-06
6.59108591072e-06
6.5422033456e-06
6.25534676404e-06
6.14260561024e-06
6.12247903379e-06
6.12035944159e-06
6.1202024831e-06
6.12018980049e-06
6.12018458114e-06
6.12018344778e-06
6.12018647405e-06
6.12018670886e-06
6.1201837237e-06
6.12018494783e-06
6.12018957092e-06
6.12020175238e-06
6.1203576132e-06
6.12247544903e-06
6.14260122704e-06
6.25534536733e-06
6.54220154301e-06
6.53210329694e-06
6.14260574067e-06
5.95629031999e-06
5.91685746029e-06
5.91197918903e-06
5.91155109485e-06
5.91150890598e-06
5.91149866036e-06
5.91149281e-06
5.9114982456e-06
5.91149824166e-06
5.91149329065e-06
5.91149904776e-06
5.9115092173e-06
5.91155045717e-06
5.91197522877e-06
5.91684691871e-06
5.95627723688e-06
6.14260198774e-06
6.53209803953e-06
6.53077705602e-06
6.12248008577e-06
5.91685818543e-06
5.87208643662e-06
5.8664056806e-06
5.86602006533e-06
5.8664059417e-06
5.86682830766e-06
5.86696248284e-06
5.86697056593e-06
5.86697494446e-06
5.86696807632e-06
5.86682853265e-06
5.86640205931e-06
5.86601657412e-06
5.86640056886e-06
5.87207332093e-06
5.91684070492e-06
6.12247444182e-06
6.53077272941e-06
6.53067997848e-06
6.12036006279e-06
5.91198077223e-06
5.86640783232e-06
5.86091557549e-06
5.86160688594e-06
5.86339892537e-06
5.8646995375e-06
5.86507796577e-06
5.86509744009e-06
5.86511564207e-06
5.86510116821e-06
5.86470943462e-06
5.86339531139e-06
5.8615915497e-06
5.86090318588e-06
5.86639333531e-06
5.91196265527e-06
6.1203529662e-06
6.53067872928e-06
6.53069646927e-06
6.12020253077e-06
5.91155528183e-06
5.86602467536e-06
5.86161224566e-06
5.86422831698e-06
5.86745191098e-06
5.86933059024e-06
5.86983323834e-06
5.86984945746e-06
5.86988170558e-06
5.86987338113e-06
5.86935827959e-06
5.86745408569e-06
5.86419402499e-06
5.86158441355e-06
5.86600716909e-06
5.91153657512e-06
6.12019613317e-06
6.53069706279e-06
6.53071277295e-06
6.12019131045e-06
5.91151527268e-06
5.86641472427e-06
5.86342015075e-06
5.86747447509e-06
5.87124950734e-06
5.87331929061e-06
5.87390289148e-06
5.87394172548e-06
5.87396479725e-06
5.87393847598e-06
5.87337085479e-06
5.87126977027e-06
5.86742536658e-06
5.86337362985e-06
5.8663863334e-06
5.91149862614e-06
6.1201834872e-06
6.53071255116e-06
6.53072021807e-06
6.12018878772e-06
5.91150793134e-06
5.86684169875e-06
5.86473351005e-06
5.86937177733e-06
5.87332733634e-06
5.87556116516e-06
5.87627692189e-06
5.87630395424e-06
5.8763210016e-06
5.87630736429e-06
5.87562465523e-06
5.87336057074e-06
5.86931616373e-06
5.86467531969e-06
5.8668058758e-06
5.91148875422e-06
6.12018530898e-06
6.53071916083e-06
6.53071686218e-06
6.12019168127e-06
5.91150702311e-06
5.86698309499e-06
5.86511898914e-06
5.86988103921e-06
5.87390356091e-06
5.87626333298e-06
5.87706951278e-06
5.87697254191e-06
5.87696427986e-06
5.87707452013e-06
5.87632569662e-06
5.87393725807e-06
5.86982346536e-06
5.86505688133e-06
5.86694550075e-06
5.91148779951e-06
6.12018555286e-06
6.53071584861e-06
6.53071172517e-06
6.12019301913e-06
5.91151140195e-06
5.86699348745e-06
5.86514364686e-06
5.86989826546e-06
5.87394683414e-06
5.87629545585e-06
5.87699129094e-06
5.87682180677e-06
5.87681264973e-06
5.87697579674e-06
5.8763494962e-06
5.87398132825e-06
5.86984015606e-06
5.86508310818e-06
5.86695601183e-06
5.91149229115e-06
6.12018684474e-06
6.53070930546e-06
6.53071122315e-06
6.12019289057e-06
5.91151137118e-06
5.86699314675e-06
5.86514586337e-06
5.86990216048e-06
5.87395051618e-06
5.87630240964e-06
5.87699737784e-06
5.87682360609e-06
5.87681519379e-06
5.87697978371e-06
5.87635247726e-06
5.87398626561e-06
5.86984842668e-06
5.86508764766e-06
5.86695752529e-06
5.91149252795e-06
6.12018696646e-06
6.5307091613e-06
6.53071626992e-06
6.1201917975e-06
5.91150719123e-06
5.86698319416e-06
5.86512411026e-06
5.86988916413e-06
5.8739127207e-06
5.87628216055e-06
5.87709287345e-06
5.87698430935e-06
5.87697407355e-06
5.87708812438e-06
5.87633587383e-06
5.87394958701e-06
5.8698384806e-06
5.86506534509e-06
5.86694840132e-06
5.911489028e-06
6.12018584998e-06
6.53071519567e-06
6.53071968969e-06
6.12018895758e-06
5.9115081589e-06
5.86684237626e-06
5.86474056595e-06
5.86938403187e-06
5.87334491848e-06
5.87558738496e-06
5.87630826924e-06
5.87633128932e-06
5.87634531744e-06
5.87633055394e-06
5.87564482657e-06
5.87337978127e-06
5.86933321008e-06
5.864684741e-06
5.86680838365e-06
5.91148965553e-06
6.12018605768e-06
6.53071840615e-06
6.53071222777e-06
6.12019086977e-06
5.91151536885e-06
5.86641447341e-06
5.86342581548e-06
5.86748553458e-06
5.87126604349e-06
5.87334187574e-06
5.87392633817e-06
5.87396592285e-06
5.87398937307e-06
5.87396209346e-06
5.87339335449e-06
5.87128954704e-06
5.8674402341e-06
5.86337921438e-06
5.86638771398e-06
5.91149969855e-06
6.12018372595e-06
6.53071260101e-06
6.53069636935e-06
6.12020160296e-06
5.91155420634e-06
5.86602350848e-06
5.86161306475e-06
5.86423279459e-06
5.86745729062e-06
5.86933850612e-06
5.86983899005e-06
5.869860209e-06
5.86989685327e-06
5.86988463548e-06
5.86936978068e-06
5.86746373125e-06
5.86419901573e-06
5.86158419707e-06
5.86600687404e-06
5.91153675635e-06
6.12019672226e-06
6.53069698805e-06
6.53067942823e-06
6.12035817918e-06
5.91197655147e-06
5.86640277027e-06
5.86090987288e-06
5.86160308562e-06
5.86339692664e-06
5.8646991997e-06
5.86507594918e-06
5.86510773712e-06
5.8651292874e-06
5.86510313435e-06
5.86471048229e-06
5.86339321837e-06
5.86158670509e-06
5.86089687027e-06
5.86638834295e-06
5.91195986875e-06
6.12035355431e-06
6.53067722047e-06
6.53077515989e-06
6.12247632245e-06
5.91684787374e-06
5.87207294289e-06
5.86639160982e-06
5.8660066415e-06
5.86639094569e-06
5.86681322969e-06
5.86694638652e-06
5.86695435507e-06
5.8669603881e-06
5.86695468413e-06
5.86681498669e-06
5.8663881754e-06
5.86600357932e-06
5.86638644561e-06
5.87206121859e-06
5.91683507381e-06
6.12247406185e-06
6.53077019291e-06
6.53209882614e-06
6.14260125765e-06
5.95627721574e-06
5.91684030499e-06
5.91196081064e-06
5.91153294194e-06
5.91149112596e-06
5.91148001671e-06
5.91147370936e-06
5.91147919381e-06
5.91148021044e-06
5.91147584753e-06
5.91148099896e-06
5.91149169343e-06
5.91153323681e-06
5.91195797805e-06
5.91683448236e-06
5.95627186751e-06
6.14260394867e-06
6.53209444137e-06
6.54219945947e-06
6.25534533377e-06
6.1426016077e-06
6.12247327872e-06
6.12035273727e-06
6.12019583104e-06
6.12018343354e-06
6.12017847089e-06
6.12017646465e-06
6.12017958245e-06
6.120179959e-06
6.12017714852e-06
6.12017923015e-06
6.12018400878e-06
6.12019625637e-06
6.1203527834e-06
6.12247277211e-06
6.14260361035e-06
6.25534979166e-06
6.54219835738e-06
6.59108519913e-06
6.54220443662e-06
6.53209829176e-06
6.53077028767e-06
6.53067983445e-06
6.53070054031e-06
6.53071444402e-06
6.53071530815e-06
6.5307046577e-06
6.53069783085e-06
6.53069702868e-06
6.5307030032e-06
6.53071426642e-06
6.53071403709e-06
6.53069999312e-06
6.53067836009e-06
6.53076880921e-06
6.53209575869e-06
6.54220197868e-06
6.59108184286e-06
6.59096985712e-06
6.54210703761e-06
6.53194542964e-06
6.53060342972e-06
6.53052572978e-06
6.53055799401e-06
6.53056774926e-06
6.53061640882e-06
6.53061934944e-06
6.53061803801e-06
6.53061820652e-06
6.53062098729e-06
6.53061778946e-06
6.53056893781e-06
6.53055482493e-06
6.53052654048e-06
6.53060438115e-06
6.53194481611e-06
6.54210741157e-06
6.59096803166e-06
6.54210041653e-06
6.254314139e-06
6.14067982529e-06
6.12034241079e-06
6.11817239563e-06
6.11801580624e-06
6.11801091154e-06
6.11803120092e-06
6.1180358528e-06
6.11803672705e-06