/*--------------------------------*- C++ -*----------------------------------*\
| =========                 |                                                 |
| \\      /  F ield         | OpenFOAM: The Open Source CFD Toolbox           |
|  \\    /   O peration     | Version:  3.0.1                                 |
|   \\  /    A nd           | Web:      www.OpenFOAM.org                      |
|    \\/     M anipulation  |                                                 |
\*---------------------------------------------------------------------------*/
FoamFile
{
    version     2.0;
    format      ascii;
    class       volVectorField;
    location    "0.1";
    object      U_0;
}
// * * * * * * * * * * * * * * * * * * * * * * * * * * * * * * * * * * * * * //

dimensions      [0 1 -1 0 0 0 0];

internalField   nonuniform List<vector> 
7968
(
(-6.07622747584e-05 -6.17531649972e-05 8.23150762451e-05)
(-9.36177696153e-05 -6.45488460483e-05 2.25426991029e-05)
(-7.17933183174e-05 -6.50757729291e-05 7.56884786432e-06)
(-4.64206371192e-05 -6.07949115171e-05 4.72953453781e-06)
(-2.88391531455e-05 -5.46832663784e-05 5.18714416896e-07)
(-1.55016853239e-05 -4.78062172717e-05 -4.3192750207e-06)
(-7.61573006327e-06 -4.11031844866e-05 -9.01062443116e-06)
(-3.82919424858e-06 -3.60300633177e-05 -1.31656161209e-05)
(-1.24325259035e-06 -3.27365100796e-05 -1.64261848168e-05)
(1.61045102555e-06 -3.11884646993e-05 -1.82335149086e-05)
(4.82363087886e-06 -3.12088125944e-05 -1.82799792748e-05)
(7.87438512471e-06 -3.28640076455e-05 -1.66542499229e-05)
(1.07112273738e-05 -3.6240789773e-05 -1.35414891137e-05)
(1.48134436208e-05 -4.13519412077e-05 -9.53997699654e-06)
(2.28237215761e-05 -4.80851180023e-05 -4.97780910036e-06)
(3.61762738082e-05 -5.50090015131e-05 -2.47587067697e-07)
(5.37396908618e-05 -6.08753873609e-05 4.28149945029e-06)
(7.66161688185e-05 -6.44315479895e-05 8.02481009939e-06)
(9.29423537468e-05 -6.89505101372e-05 1.84648091853e-05)
(7.40869179483e-05 -6.98209664133e-05 7.4039442499e-05)
(-6.41841161903e-05 -9.66818624654e-05 2.25705493769e-05)
(-8.83255469772e-05 -8.97389102793e-05 -3.74673809047e-05)
(-6.37394779586e-05 -7.93772597251e-05 -5.08520525399e-05)
(-3.63281051738e-05 -6.54014121237e-05 -5.44736019824e-05)
(-1.68375209661e-05 -4.62295274023e-05 -5.99965148613e-05)
(-3.68706037189e-06 -2.38813332106e-05 -6.57505205957e-05)
(1.70725969753e-06 -1.85679179886e-06 -7.12485476209e-05)
(1.87467380527e-06 1.52181345214e-05 -7.60459252676e-05)
(1.11283623819e-06 2.58484998787e-05 -8.01946472838e-05)
(1.09969333385e-06 3.07758528988e-05 -8.23680147088e-05)
(1.6478346689e-06 3.08165370825e-05 -8.24197401374e-05)
(1.78988404953e-06 2.58796942815e-05 -8.04390893509e-05)
(1.34710147659e-06 1.52563214149e-05 -7.64287300458e-05)
(1.90489136991e-06 -1.58174152538e-06 -7.18086748846e-05)
(7.53071730232e-06 -2.32755485219e-05 -6.64501691747e-05)
(2.08244361512e-05 -4.51998957633e-05 -6.08615560587e-05)
(4.08343193291e-05 -6.40570566423e-05 -5.52580204575e-05)
(6.76451338783e-05 -7.71821136755e-05 -5.09598986701e-05)
(9.3131036041e-05 -8.80090819055e-05 -4.05395497566e-05)
(7.85662177736e-05 -8.91016233328e-05 1.45522023119e-05)
(-6.48035291262e-05 -7.55920681639e-05 7.50453238375e-06)
(-7.80664956479e-05 -6.5018154925e-05 -5.09193559186e-05)
(-4.33353885614e-05 -4.46251372823e-05 -6.51891613989e-05)
(-8.74591458734e-06 -1.82268652234e-05 -6.84473160841e-05)
(1.52836658343e-05 1.63639634496e-05 -7.15161612143e-05)
(2.97276597077e-05 5.66720406562e-05 -7.40136056893e-05)
(3.09811689733e-05 9.45753714803e-05 -7.71537552026e-05)
(2.24591021989e-05 0.00012364222581 -8.0416888092e-05)
(1.24195014739e-05 0.00014142612769 -8.35156886675e-05)
(4.5390910173e-06 0.000149778452913 -8.56879860025e-05)
(-2.158528219e-06 0.000149838170528 -8.57107824458e-05)
(-9.98028354872e-06 0.000141539443873 -8.37125477168e-05)
(-1.96296379298e-05 0.000123431771221 -8.06835719898e-05)
(-2.76353351523e-05 9.49720763033e-05 -7.76544835358e-05)
(-2.61082007448e-05 5.78264345329e-05 -7.46786901919e-05)
(-1.15012993305e-05 1.77198091094e-05 -7.23053918934e-05)
(1.33253548768e-05 -1.64813343373e-05 -6.9152422554e-05)
(4.66766031966e-05 -4.21830961331e-05 -6.51689717944e-05)
(8.16044100382e-05 -6.15216312049e-05 -5.27364691374e-05)
(7.48315697704e-05 -6.71837004547e-05 2.47689337043e-06)
(-6.07118468139e-05 -5.09971836852e-05 4.48684639913e-06)
(-6.4275536185e-05 -3.7787164167e-05 -5.47428073514e-05)
(-1.70052537648e-05 -1.03063411044e-05 -6.86745167505e-05)
(2.89290636341e-05 2.75012209138e-05 -6.9568040929e-05)
(6.18302938992e-05 8.0422854322e-05 -6.79604458664e-05)
(7.7617026443e-05 0.000135778774664 -6.53153274458e-05)
(7.10532867794e-05 0.000188860393193 -6.23072280306e-05)
(5.03678256738e-05 0.000230326946035 -6.23628693155e-05)
(2.8160759783e-05 0.000255168479277 -6.4980328921e-05)
(9.69764126318e-06 0.000266080993207 -6.79068873109e-05)
(-7.14589676336e-06 0.000266251731324 -6.79358424728e-05)
(-2.59436634471e-05 0.000255524757602 -6.52075394256e-05)
(-4.73632732317e-05 0.000230563304247 -6.22601195385e-05)
(-6.66820937385e-05 0.000189509227103 -6.28991190139e-05)
(-7.35028127943e-05 0.000136930816962 -6.6287194021e-05)
(-5.79436274449e-05 8.18459497635e-05 -6.87599367927e-05)
(-2.39395546961e-05 2.95256449985e-05 -7.00224102227e-05)
(2.07147377395e-05 -7.64292555654e-06 -6.81755279285e-05)
(6.76359331286e-05 -3.35084639492e-05 -5.60967903261e-05)
(7.01438054214e-05 -4.22048714938e-05 5.53180428764e-08)
(-5.47965910122e-05 -3.35797458401e-05 6.75595709466e-08)
(-4.53085521055e-05 -1.81701818612e-05 -6.05654756344e-05)
(1.76247423208e-05 1.36964910867e-05 -7.20215961439e-05)
(8.1982818386e-05 6.05328490484e-05 -6.84545553949e-05)
(0.000123587166561 0.000122284115275 -6.07804318116e-05)
(0.00013818503028 0.000190261877694 -4.6997056272e-05)
(0.000125547109896 0.000254973250077 -3.44097775227e-05)
(8.87825697631e-05 0.000301914410803 -2.8857321559e-05)
(4.8185369602e-05 0.000328784149718 -3.27474022059e-05)
(1.56252798107e-05 0.000340120506203 -3.67003083957e-05)
(-1.27243870919e-05 0.000340527114751 -3.67854602735e-05)
(-4.56873367976e-05 0.000328459727887 -3.31353898865e-05)
(-8.56681213897e-05 0.000302560288619 -2.93911062319e-05)
(-0.000121294888336 0.00025568366788 -3.50645422395e-05)
(-0.000133802988065 0.000191143351476 -4.76699324945e-05)
(-0.000118945726391 0.000123733189556 -6.12063288145e-05)
(-7.61947091458e-05 6.23832886267e-05 -6.86189704166e-05)
(-1.35480073772e-05 1.67545242629e-05 -7.12380788405e-05)
(4.8599726624e-05 -1.38647334871e-05 -6.13754527405e-05)
(6.40910437841e-05 -2.48238185128e-05 -4.07302464084e-06)
(-4.80723061035e-05 -2.00640199371e-05 -4.96828449988e-06)
(-2.3246060679e-05 -4.90271396431e-06 -6.66001955026e-05)
(5.78852870309e-05 2.82913532723e-05 -7.46426263022e-05)
(0.000137490730435 7.59820941e-05 -6.59590450589e-05)
(0.000191559227749 0.000136948144413 -4.72489873105e-05)
(0.000210308403631 0.000208940381937 -2.01678892453e-05)
(0.000182714519823 0.000275322467618 -1.65301518304e-07)
(0.000124195718147 0.0003190163587 9.25036273264e-06)
(6.63860068813e-05 0.000341878465628 1.02576754218e-05)
(2.1449218719e-05 0.000351571741039 6.29857072417e-06)
(-1.88161847183e-05 0.000352016068573 6.065129243e-06)
(-6.39310574855e-05 0.000341295584726 1.03182018441e-05)
(-0.00012015751394 0.000319508854365 9.07076197342e-06)
(-0.00017810863287 0.00027642683762 -6.34689790526e-07)
(-0.000205456318627 0.000210373327665 -2.08304495045e-05)
(-0.000186704557709 0.000138287902275 -4.76386574801e-05)
(-0.000130910633066 7.83783252668e-05 -6.58364027112e-05)
(-5.30121440262e-05 3.11786862453e-05 -7.38562191169e-05)
(2.6567290834e-05 -7.13448583994e-07 -6.71790586713e-05)
(5.72004368468e-05 -1.16036826551e-05 -8.76650162865e-06)
(-4.1516302842e-05 -1.16494823873e-05 -9.76979793456e-06)
(-1.34386228355e-06 7.27861779477e-07 -7.2179858557e-05)
(9.5396889913e-05 2.99568114223e-05 -7.79031924116e-05)
(0.000190621033763 6.96778485959e-05 -6.28774546799e-05)
(0.000256543316208 0.000124608081515 -3.50975157327e-05)
(0.000276558552926 0.000181552615708 -1.68134656494e-07)
(0.000235628395984 0.000234298612498 2.9061744927e-05)
(0.000155352820771 0.000268144159914 4.22512212807e-05)
(8.07580296086e-05 0.000283894961037 4.19276857798e-05)
(2.57711048148e-05 0.000290940872934 3.60079077507e-05)
(-2.30085560491e-05 0.000290899526944 3.57887747329e-05)
(-7.82123894792e-05 0.00028458040612 4.19959915694e-05)
(-0.000150551839446 0.00026895572517 4.19634754456e-05)
(-0.000230436173978 0.000235730366556 2.82324405873e-05)
(-0.000271941631521 0.000183220956765 -1.07468617661e-06)
(-0.000250939800169 0.000125531754115 -3.48141768307e-05)
(-0.000183303579457 7.25558810466e-05 -6.29162083904e-05)
(-9.06135417505e-05 3.26034149232e-05 -7.68233334109e-05)
(5.04484466337e-06 4.60407905213e-06 -7.25222510887e-05)
(5.06201161034e-05 -3.68887097576e-06 -1.33131973628e-05)
(-3.65184300912e-05 -7.13573970159e-06 -1.39958105167e-05)
(1.56834765699e-05 1.20057946681e-06 -7.70127867081e-05)
(0.000124462047374 2.17814913391e-05 -8.12260318847e-05)
(0.000232127353068 4.9857382747e-05 -6.28846102685e-05)
(0.000303424284154 8.81196669928e-05 -2.9983722932e-05)
(0.000319991495545 0.000123386427961 9.35038155025e-06)
(0.00026930762501 0.000154440815548 4.23859868658e-05)
(0.000173797486211 0.00017292328274 5.63545634377e-05)
(8.91897266175e-05 0.000180439435978 5.31784672509e-05)
(2.84564799914e-05 0.000184205253563 4.58781231547e-05)
(-2.51800756145e-05 0.000183585858882 4.57327445124e-05)
(-8.58819082461e-05 0.000182274221697 5.29952161882e-05)
(-0.000169012751521 0.000174008965754 5.58730840585e-05)
(-0.000263844895924 0.000155737914924 4.13611468974e-05)
(-0.00031564791867 0.000125216723389 8.12974681591e-06)
(-0.000297362617698 8.95172750934e-05 -2.86681720892e-05)
(-0.000223846986711 5.17189767795e-05 -6.31816904756e-05)
(-0.000119530049777 2.45006742171e-05 -8.01276485414e-05)
(-1.18131141006e-05 4.85128402315e-06 -7.71700201856e-05)
(4.56209912118e-05 4.61224967299e-07 -1.73090090493e-05)
(-3.32636704595e-05 -3.71144742332e-06 -1.7311200098e-05)
(2.63107681778e-05 7.12476769269e-07 -8.12397182596e-05)
(0.000142424012595 1.20771025816e-05 -8.43758383747e-05)
(0.000256949429289 2.80108332903e-05 -6.56926819707e-05)
(0.000330054192672 4.79346084944e-05 -3.33458483264e-05)
(0.000342864589482 6.61891350155e-05 1.02810201736e-05)
(0.000285164266745 8.07981621931e-05 4.20023533652e-05)
(0.00018135291514 8.92317991047e-05 5.3421168836e-05)
(9.20444949784e-05 9.19222228819e-05 4.66236383322e-05)
(2.89191527459e-05 9.00672231016e-05 3.68607550478e-05)
(-2.49419270505e-05 8.96442110485e-05 3.72464669632e-05)
(-8.77932815215e-05 9.34509335789e-05 4.60948034675e-05)
(-0.000177088488584 8.99792767199e-05 5.25235065926e-05)
(-0.00027922693384 8.17538567158e-05 4.10418566272e-05)
(-0.000338146517543 6.79527343146e-05 8.95761039255e-06)
(-0.000324425121276 5.02141919408e-05 -3.29045667198e-05)
(-0.000248335097687 2.96767667797e-05 -6.54659083386e-05)
(-0.000136694468761 1.47636011869e-05 -8.32271096688e-05)
(-2.22708505044e-05 4.34603353122e-06 -8.11587029847e-05)
(4.23763541727e-05 3.79896381146e-06 -2.03984733062e-05)
(-3.17421252684e-05 4.50972168503e-08 -1.91391482024e-05)
(3.12701896555e-05 9.49709593254e-07 -8.34450410964e-05)
(0.000150850738199 4.48775835471e-06 -8.65688326751e-05)
(0.0002679800262 9.71145098767e-06 -6.86200030361e-05)
(0.000341583382026 1.57433002719e-05 -3.73004680441e-05)
(0.000352837435199 2.16905514329e-05 6.37526221423e-06)
(0.000292344885713 2.61849560626e-05 3.61425510025e-05)
(0.000184916855527 2.88623856721e-05 4.55493288719e-05)
(9.00247021459e-05 2.92414628288e-05 3.71604255749e-05)
(2.61784165577e-05 2.65531030457e-05 2.98178034261e-05)
(-2.17959604256e-05 2.66790943073e-05 3.0182008796e-05)
(-8.55456541582e-05 3.00868327359e-05 3.62145441993e-05)
(-0.000180703743194 2.94702246292e-05 4.5225388368e-05)
(-0.00028586383447 2.71921537866e-05 3.51213318318e-05)
(-0.000347167538497 2.32843834648e-05 4.87944427807e-06)
(-0.000335622415596 1.79228152661e-05 -3.72601772804e-05)
(-0.000259312705672 1.2044070611e-05 -6.82644186151e-05)
(-0.00014473638838 7.21115186346e-06 -8.54058057676e-05)
(-2.70138348937e-05 4.58172432925e-06 -8.32253761231e-05)
(4.08375580397e-05 7.47463870795e-06 -2.21070843775e-05)
(-3.17813902339e-05 4.16710945842e-06 -1.9216339841e-05)
(3.13318431791e-05 1.75286970615e-06 -8.35293923016e-05)
(0.000150967414283 -1.9268939763e-06 -8.66257305321e-05)
(0.000268204620505 -6.82859147397e-06 -6.86782214399e-05)
(0.000342025274016 -1.2316416131e-05 -3.74006324907e-05)
(0.000353297752076 -1.82779557026e-05 6.13850175849e-06)
(0.000292333302376 -2.24439243891e-05 3.59048841787e-05)
(0.000184406915443 -2.44630150604e-05 4.55060365301e-05)
(8.97343671298e-05 -2.41455264834e-05 3.75191850035e-05)
(2.63565511709e-05 -2.0955955167e-05 3.02026662406e-05)
(-2.14076417844e-05 -2.06009207516e-05 3.05493574305e-05)
(-8.50009694966e-05 -2.42865058418e-05 3.64600309e-05)
(-0.000179979485738 -2.35599183068e-05 4.53266635223e-05)
(-0.000285407729371 -2.09592525988e-05 3.50586321772e-05)
(-0.000347405491993 -1.6510659131e-05 4.82720812897e-06)
(-0.000335655724243 -1.0087533156e-05 -3.69883483263e-05)
(-0.000259061676669 -4.1621507602e-06 -6.81349092922e-05)
(-0.000144700533986 7.78398695741e-07 -8.52644752794e-05)
(-2.70114957544e-05 5.30991880893e-06 -8.31118931494e-05)
(4.07785076893e-05 1.16339349315e-05 -2.20273357032e-05)
(-3.34082733347e-05 8.05841496584e-06 -1.75792357749e-05)
(2.64551206895e-05 2.06526475339e-06 -8.15259186165e-05)
(0.000142738600905 -9.49540633214e-06 -8.45992386146e-05)
(0.000257597616876 -2.54260372589e-05 -6.59395489366e-05)
(0.000330144865635 -4.49450912253e-05 -3.37429995973e-05)
(0.000342718882741 -6.30617556768e-05 1.04079498477e-05)
(0.000286163265039 -7.73594714699e-05 4.22289221325e-05)
(0.00018321800141 -8.48467954388e-05 5.32729164972e-05)
(9.35317381803e-05 -8.6550235402e-05 4.60258427553e-05)
(2.97228435018e-05 -8.44860176818e-05 3.60730380354e-05)
(-2.51264584235e-05 -8.37976989772e-05 3.63803495158e-05)
(-8.85048022086e-05 -8.74452815206e-05 4.6076850491e-05)
(-0.00017737996016 -8.39075469127e-05 5.24845064683e-05)
(-0.000278818773714 -7.58053026239e-05 4.13024856042e-05)
(-0.000336304445516 -6.16348703401e-05 9.04774855837e-06)
(-0.000323280837473 -4.3608386273e-05 -3.33804536118e-05)
(-0.000248463542383 -2.26913520436e-05 -6.55088387161e-05)
(-0.000136511752284 -6.93992061016e-06 -8.31714363351e-05)
(-2.19467456921e-05 5.69598337762e-06 -8.11376131793e-05)
(4.24078801701e-05 1.57258173397e-05 -2.0424492657e-05)
(-3.67666056608e-05 1.16361537299e-05 -1.44393990199e-05)
(1.58999073517e-05 1.70764670438e-06 -7.74731073434e-05)
(0.000124655363212 -1.89800548765e-05 -8.1559682372e-05)
(0.00023276981748 -4.6745896688e-05 -6.29919774389e-05)
(0.000304411038978 -8.48814623536e-05 -3.03486022755e-05)
(0.000320902074295 -0.000119236853224 9.23915521892e-06)
(0.000270553981541 -0.000149624841053 4.2267095868e-05)
(0.000175220058177 -0.000168009780099 5.60963058927e-05)
(9.00945474155e-05 -0.000175815170215 5.28000133778e-05)
(2.91086212752e-05 -0.000179598747214 4.55945087052e-05)
(-2.43666947144e-05 -0.000178730584905 4.56370306698e-05)
(-8.51108803874e-05 -0.000176136596529 5.27445385509e-05)
(-0.000168344944632 -0.000167143041067 5.58085447554e-05)
(-0.000263142841525 -0.000148245161455 4.13686587475e-05)
(-0.00031522721986 -0.000117826741177 8.07123982407e-06)
(-0.00029672680964 -8.31401125051e-05 -2.73504728303e-05)
(-0.000222411280935 -4.44143121812e-05 -6.22162299313e-05)
(-0.000118319341942 -1.66200581143e-05 -7.98419552523e-05)
(-1.11394931766e-05 5.21743670132e-06 -7.71179016498e-05)
(4.56544091012e-05 1.92544900593e-05 -1.73195929374e-05)
(-4.18468950474e-05 1.63678933896e-05 -1.03999909117e-05)
(-8.78813841642e-07 2.3920564008e-06 -7.2850874999e-05)
(9.62104406228e-05 -2.69277116971e-05 -7.84269332283e-05)
(0.000191714845995 -6.56186698954e-05 -6.34073582128e-05)
(0.000257672815971 -0.000120800508973 -3.56499683262e-05)
(0.000277990862101 -0.000177239753233 -5.10986161254e-07)
(0.000237390933672 -0.000229298406209 2.85926498909e-05)
(0.000157024819645 -0.000262885569698 4.16654567897e-05)
(8.19369073567e-05 -0.000278185817988 4.14906982602e-05)
(2.68048680438e-05 -0.000284753471343 3.53222943211e-05)
(-2.16612134448e-05 -0.000284332101157 3.53953044309e-05)
(-7.69118429235e-05 -0.000277515480243 4.14918127342e-05)
(-0.000149487075255 -0.000261895051116 4.14944825202e-05)
(-0.000229504111902 -0.000228193318888 2.7935485621e-05)
(-0.000271213055765 -0.000175130748964 -1.19347038994e-06)
(-0.000249876762282 -0.000117043240406 -3.4114935598e-05)
(-0.000181958866379 -6.36251858924e-05 -6.27027971831e-05)
(-8.97089283756e-05 -2.44314048881e-05 -7.66019494501e-05)
(5.75530072064e-06 5.55484630016e-06 -7.24086926034e-05)
(5.06159832123e-05 2.37997229688e-05 -1.32786960523e-05)
(-4.85022861859e-05 2.48309856528e-05 -5.8122997926e-06)
(-2.26020956596e-05 8.0592125353e-06 -6.75560853438e-05)
(5.933935702e-05 -2.50317408825e-05 -7.53623104888e-05)
(0.00013891999912 -7.19777012528e-05 -6.69512606993e-05)
(0.000192799948313 -0.000133706249272 -4.76913902828e-05)
(0.000212411075488 -0.000204791810519 -2.06044720479e-05)
(0.000184905689698 -0.000271018692032 -7.84928490375e-07)
(0.000126326169756 -0.000314967558945 8.47292895034e-06)
(6.82178951867e-05 -0.000337471780384 9.40524083133e-06)
(2.29580232829e-05 -0.000346507816875 5.2794043702e-06)
(-1.71251764111e-05 -0.000346681856984 5.27467892279e-06)
(-6.26654656359e-05 -0.000335343238865 9.34796196543e-06)
(-0.000119016904465 -0.000314289308032 8.3148777261e-06)
(-0.000176376897152 -0.000270136598801 -1.08028891809e-06)
(-0.000204080714636 -0.000202945675458 -2.14277769215e-05)
(-0.000185216646333 -0.000130891697003 -4.7655611804e-05)
(-0.000129814709406 -7.04382095036e-05 -6.58649433221e-05)
(-5.28439865897e-05 -2.35217259783e-05 -7.36735576048e-05)
(2.71163993909e-05 1.06061029803e-05 -6.69653363324e-05)
(5.70719597982e-05 3.19033729451e-05 -8.62298272003e-06)
(-5.54090148547e-05 3.84048772095e-05 -9.81843994043e-07)
(-4.42144463384e-05 2.12895844852e-05 -6.17789927661e-05)
(1.9606671638e-05 -1.03651473703e-05 -7.30934179784e-05)
(8.30679771862e-05 -5.71864818968e-05 -6.9647626092e-05)
(0.000124860646743 -0.000118117336723 -6.07000484893e-05)
(0.000140678291858 -0.00018604199076 -4.72345796205e-05)
(0.000127208736182 -0.000250230756124 -3.43181802601e-05)
(9.05554723423e-05 -0.000296647404688 -2.78584970132e-05)
(5.03760886424e-05 -0.000324022599057 -3.23790175055e-05)
(1.75849475035e-05 -0.000335001713577 -3.65575641328e-05)
(-1.04875346156e-05 -0.000335012914966 -3.63516312513e-05)
(-4.44993241606e-05 -0.000322573411155 -3.29544025167e-05)
(-8.42643775806e-05 -0.000295956187902 -2.69050263741e-05)
(-0.000118154417952 -0.000249010855812 -3.39336720085e-05)
(-0.000131964061063 -0.000184358231208 -4.75985859209e-05)
(-0.000117354640719 -0.000116429388348 -6.07169387114e-05)
(-7.46069367805e-05 -5.58205372315e-05 -6.87687758606e-05)
(-1.32403996376e-05 -1.00186595943e-05 -7.0856064544e-05)
(4.90912955409e-05 2.31239306343e-05 -6.09192234668e-05)
(6.3787385292e-05 4.49097823075e-05 -3.69555162757e-06)
(-6.1265685282e-05 5.61083776878e-05 3.63577710198e-06)
(-6.30828606953e-05 4.1398961633e-05 -5.60060490781e-05)
(-1.50625030297e-05 1.42330895484e-05 -6.98100228716e-05)
(3.1202997443e-05 -2.36247482568e-05 -7.03949715445e-05)
(6.39442630665e-05 -7.48765887132e-05 -6.84245086158e-05)
(8.02949524047e-05 -0.000130106278858 -6.545527004e-05)
(7.429129542e-05 -0.000182765543753 -6.25613141464e-05)
(5.25162537723e-05 -0.000223393535106 -6.29478602968e-05)
(2.98433531956e-05 -0.000248034007413 -6.49771059966e-05)
(1.19597633274e-05 -0.000258735792897 -6.7833163578e-05)
(-4.68653649325e-06 -0.000258518480553 -6.77113632874e-05)
(-2.35884266025e-05 -0.000247943832805 -6.51456987408e-05)
(-4.54371046669e-05 -0.000221756565069 -6.1935881746e-05)
(-6.4771295501e-05 -0.000181281455779 -6.25946924599e-05)
(-7.1494285551e-05 -0.00012910205507 -6.5789797817e-05)
(-5.66640125969e-05 -7.38695297903e-05 -6.87797542005e-05)
(-2.34330631359e-05 -2.26577704978e-05 -6.95299800687e-05)
(2.07294042841e-05 1.41193141672e-05 -6.73703741395e-05)
(6.76780097856e-05 4.24072107646e-05 -5.5360522798e-05)
(6.91242531202e-05 6.2092354398e-05 8.30770665816e-07)
(-6.48192997813e-05 7.88409048543e-05 7.45113645408e-06)
(-7.62497340867e-05 6.83200247315e-05 -5.15977122713e-05)
(-4.09239639838e-05 4.75059793753e-05 -6.5758820912e-05)
(-6.01201168147e-06 2.12751007445e-05 -6.84640212631e-05)
(1.83719052469e-05 -1.29950466985e-05 -7.11724037703e-05)
(3.27858771073e-05 -5.26170831974e-05 -7.35299896664e-05)
(3.39184400728e-05 -9.06395019981e-05 -7.64709401672e-05)
(2.5284374488e-05 -0.000119769799827 -7.97545248093e-05)
(1.5033584996e-05 -0.000136805448431 -8.27656700544e-05)
(7.10715377645e-06 -0.000144824470081 -8.49523562763e-05)
(3.20374853616e-07 -0.00014475189743 -8.48189035884e-05)
(-7.71496225265e-06 -0.000136488287908 -8.28311569433e-05)
(-1.75761809131e-05 -0.000118167874338 -7.96329818163e-05)
(-2.54698676543e-05 -8.94890797499e-05 -7.64937856668e-05)
(-2.45127329742e-05 -5.24556399903e-05 -7.35961327954e-05)
(-1.08496102306e-05 -1.28569649263e-05 -7.08674616684e-05)
(1.33990753855e-05 2.11731175247e-05 -6.73975948123e-05)
(4.59399928393e-05 4.63753997278e-05 -6.29897743922e-05)
(8.04366912533e-05 6.74197347268e-05 -5.0908955692e-05)
(7.17235471856e-05 8.38422845222e-05 4.672273403e-06)
(-6.92507249366e-05 9.52141273694e-05 1.80170571468e-05)
(-8.71220879569e-05 9.42367671636e-05 -4.11344013237e-05)
(-6.04174171364e-05 8.26526103515e-05 -5.32444015573e-05)
(-3.19964712303e-05 6.83483037188e-05 -5.63615305611e-05)
(-1.24117945039e-05 4.90444698117e-05 -6.13565558251e-05)
(6.04093908998e-07 2.67527153246e-05 -6.69258543878e-05)
(5.60767760886e-06 4.97185287287e-06 -7.21637941689e-05)
(5.41506709216e-06 -1.20238350791e-05 -7.67618856391e-05)
(4.50511166797e-06 -2.2484133024e-05 -8.05824464778e-05)
(4.42837613271e-06 -2.71865223696e-05 -8.27369294607e-05)
(4.83129392908e-06 -2.71539006038e-05 -8.26407979137e-05)
(5.02768143017e-06 -2.20199259973e-05 -8.07265539182e-05)
(4.53546147496e-06 -1.11153152308e-05 -7.69168261263e-05)
(4.92467589692e-06 5.89174213743e-06 -7.23068403496e-05)
(1.01289104295e-05 2.73721320419e-05 -6.6940875721e-05)
(2.28599806997e-05 4.94021110374e-05 -6.09780457303e-05)
(4.22454480538e-05 6.80279653814e-05 -5.54142796592e-05)
(6.74687158651e-05 8.07830302882e-05 -5.09102694289e-05)
(9.1973925861e-05 9.20178670679e-05 -4.07499476768e-05)
(7.37394110728e-05 9.95524584988e-05 1.61572985129e-05)
(-6.9439685692e-05 7.49857520983e-05 7.38324194445e-05)
(-8.65880164029e-05 7.91171780611e-05 1.40649232639e-05)
(-6.36663910535e-05 7.52422874345e-05 2.14524649343e-06)
(-3.7804907845e-05 7.02329894657e-05 -5.46613412049e-08)
(-2.03038176543e-05 6.39207936614e-05 -3.96768826603e-06)
(-7.33852670792e-06 5.68427459079e-05 -8.49784637596e-06)
(-4.13772646262e-08 5.01204536837e-05 -1.2946066617e-05)
(3.2833801974e-06 4.50486910216e-05 -1.68946257212e-05)
(5.6974143896e-06 4.18109511914e-05 -1.99381365881e-05)
(8.4359861994e-06 4.02771933432e-05 -2.1688081349e-05)
(1.16937584911e-05 4.02331176005e-05 -2.16248509595e-05)
(1.50269806407e-05 4.19359306779e-05 -2.00805711242e-05)
(1.80113607571e-05 4.52343709941e-05 -1.70796118137e-05)
(2.22226396236e-05 5.02701853118e-05 -1.3132954597e-05)
(3.0189790177e-05 5.68091213812e-05 -8.56569680993e-06)
(4.32821108385e-05 6.35716330042e-05 -3.71296771483e-06)
(6.06196146419e-05 6.89622942033e-05 7.76151049895e-07)
(8.27976062817e-05 7.15979890993e-05 4.60846595783e-06)
(9.87082289442e-05 7.35869618313e-05 1.60044664087e-05)
(7.27627327464e-05 7.26688086584e-05 7.95957129809e-05)
(-5.69352536319e-05 -5.72611271681e-05 0.000252150876421)
(-8.64842020675e-05 -5.76004638896e-05 0.00012821046521)
(-7.31769818741e-05 -5.66098606349e-05 9.27676329029e-05)
(-5.22182715029e-05 -5.18266098844e-05 8.0802556544e-05)
(-3.68937565637e-05 -4.55826574762e-05 6.74437430322e-05)
(-2.47003659908e-05 -3.80925094382e-05 5.3432855165e-05)
(-1.70632975384e-05 -3.07906259422e-05 3.95480260245e-05)
(-1.25157639171e-05 -2.52410935594e-05 2.6803237764e-05)
(-7.96661731995e-06 -2.20823610209e-05 1.66821574497e-05)
(-2.02933567935e-06 -2.05449704296e-05 1.09952442179e-05)
(4.5833041063e-06 -2.05968754043e-05 1.09623127451e-05)
(1.06618914637e-05 -2.23091727791e-05 1.647531182e-05)
(1.5482415687e-05 -2.5608644129e-05 2.64982360017e-05)
(2.03789585169e-05 -3.13033280286e-05 3.91970742002e-05)
(2.83050912272e-05 -3.87377998757e-05 5.31332151949e-05)
(4.08435218095e-05 -4.64078931862e-05 6.73073940713e-05)
(5.69320407923e-05 -5.27188582613e-05 8.08606185561e-05)
(7.78494515279e-05 -5.70585836399e-05 9.3602901045e-05)
(9.15882385447e-05 -6.13821370787e-05 0.000129096236757)
(7.05300313924e-05 -6.49307675458e-05 0.000258397545469)
(-5.78481176069e-05 -8.78884998686e-05 0.000128204509752)
(-7.67678740265e-05 -7.69061645649e-05 -5.12189253242e-06)
(-5.92518983617e-05 -6.7039686799e-05 -4.05900892607e-05)
(-3.74250869029e-05 -5.19556867486e-05 -5.51024761367e-05)
(-2.08580543724e-05 -3.0096477089e-05 -6.83335785152e-05)
(-9.31990622511e-06 -4.29564766167e-06 -8.17007934998e-05)
(-4.80374863767e-06 2.05036737008e-05 -9.50297811475e-05)
(-4.88402822716e-06 3.94139248579e-05 -0.000107967794193)
(-4.55796128933e-06 5.09062001085e-05 -0.000118893528961)
(-1.90031316878e-06 5.5846248251e-05 -0.000125290553955)
(1.56756256997e-06 5.58193798049e-05 -0.000125347174336)
(4.28058558375e-06 5.07372984717e-05 -0.000119155047186)
(4.7587351816e-06 3.91452213918e-05 -0.000108353330736)
(4.87332334129e-06 2.01920335808e-05 -9.55101846448e-05)
(9.59187389796e-06 -4.55070622723e-06 -8.22151165362e-05)
(2.14416481942e-05 -3.02427956124e-05 -6.88257135865e-05)
(3.88927100607e-05 -5.20916553995e-05 -5.56150921058e-05)
(6.11142322911e-05 -6.7027372523e-05 -4.10627888519e-05)
(8.08464226361e-05 -7.70948907138e-05 -6.10941997871e-06)
(6.50986798069e-05 -8.34947593455e-05 0.000131583981906)
(-5.69408835956e-05 -7.44211816042e-05 9.26124811957e-05)
(-6.70429418057e-05 -5.88089440228e-05 -4.07050722987e-05)
(-3.99966299907e-05 -3.94734154461e-05 -7.61025854408e-05)
(-9.75738041476e-06 -1.09976536633e-05 -8.92337553046e-05)
(1.3432697384e-05 2.88906890522e-05 -9.88443983953e-05)
(2.63908612256e-05 7.53541511924e-05 -0.000106621108753)
(2.58226316928e-05 0.00011966240999 -0.000114227796553)
(1.64949173981e-05 0.000152152726999 -0.000123511845999)
(6.93801882202e-06 0.000171003595845 -0.000133649515931)
(1.34787936743e-06 0.000178751951452 -0.000140042427787)
(-2.06919623079e-06 0.000178710996478 -0.000140088980703)
(-7.68734150272e-06 0.000170789444672 -0.000133885706655)
(-1.71329108902e-05 0.000151793664979 -0.000123796976991)
(-2.62819493347e-05 0.000119068019047 -0.000114673326254)
(-2.66929312755e-05 7.4902099454e-05 -0.000107120268227)
(-1.3614213335e-05 2.82997020357e-05 -9.93876951716e-05)
(1.02868687925e-05 -1.17562937576e-05 -8.96748235293e-05)
(4.05692565995e-05 -4.03873965359e-05 -7.62950270179e-05)
(6.88057880439e-05 -5.93794639972e-05 -4.04961844531e-05)
(5.90371472029e-05 -6.99051844276e-05 9.74927415557e-05)
(-5.233808113e-05 -5.36525971915e-05 8.05317960465e-05)
(-5.21130552827e-05 -3.6868036635e-05 -5.53594048908e-05)
(-1.1594300992e-05 -9.15476910544e-06 -8.94026340351e-05)
(3.26704013224e-05 3.32276762682e-05 -9.71105178437e-05)
(6.66140622834e-05 9.29416216126e-05 -9.52994875558e-05)
(8.19278589725e-05 0.000159751335859 -8.74896634385e-05)
(7.21750706664e-05 0.000222657971824 -7.90232478458e-05)
(4.65937950206e-05 0.000269017841824 -7.86504917911e-05)
(2.21322519477e-05 0.00029278827973 -8.62668998307e-05)
(5.7595322489e-06 0.000302231123772 -9.36217298949e-05)
(-6.60178525033e-06 0.000302201490127 -9.36888427131e-05)
(-2.30208364617e-05 0.000292556355726 -8.6542685934e-05)
(-4.74869691044e-05 0.000268365943192 -7.86439827553e-05)
(-7.27065351556e-05 0.000222083863724 -7.9532071972e-05)
(-8.2277255555e-05 0.000159254522141 -8.81916058849e-05)
(-6.70608034757e-05 9.23748799164e-05 -9.59074108692e-05)
(-3.24577688269e-05 3.2548766198e-05 -9.72649368297e-05)
(1.14743365617e-05 -1.00247946799e-05 -8.91138286687e-05)
(5.30559087286e-05 -3.70777997245e-05 -5.43065252906e-05)
(5.35709030024e-05 -4.84100037347e-05 8.65026151923e-05)
(-4.63303640506e-05 -3.82229446729e-05 6.70567785115e-05)
(-3.04524951668e-05 -2.01362244662e-05 -6.87866860959e-05)
(2.81502597364e-05 1.41804167462e-05 -9.92350881077e-05)
(9.23114338865e-05 6.74332143428e-05 -9.57746704509e-05)
(0.00013979834302 0.000140496014849 -7.44252879851e-05)
(0.000155842766946 0.000223017206541 -3.80561292026e-05)
(0.000134861602652 0.00029534062263 -3.99412274941e-06)
(8.65025082407e-05 0.000346083146929 1.10732706671e-05)
(4.01189124476e-05 0.00037449803897 6.547016308e-06)
(1.07584802232e-05 0.000385076129829 -2.25033839771e-06)
(-1.17451270507e-05 0.000385122088562 -2.39794244527e-06)
(-4.14971053124e-05 0.000374028934357 6.13800589794e-06)
(-8.75026391615e-05 0.000345667588293 1.08512103286e-05)
(-0.000135204105132 0.000294999278318 -4.48715521436e-06)
(-0.000156194216005 0.000222430485156 -3.86389352046e-05)
(-0.000140240341999 0.000139949282097 -7.46501300211e-05)
(-9.23243611446e-05 6.66430660675e-05 -9.54649218226e-05)
(-2.86585871776e-05 1.34790662425e-05 -9.86351174713e-05)
(3.09546386763e-05 -2.00389533304e-05 -6.71823514269e-05)
(4.6898343199e-05 -3.30998650756e-05 7.36863638865e-05)
(-3.90417222968e-05 -2.58481919689e-05 5.2946264382e-05)
(-4.82514567031e-06 -8.4922619806e-06 -8.23210097694e-05)
(7.46658193691e-05 2.7206530066e-05 -0.000107038843646)
(0.000159114077197 8.26846723355e-05 -8.7912617236e-05)
(0.00022219585126 0.000156475967706 -3.82061957529e-05)
(0.000236717598544 0.000237564461426 3.45018633037e-05)
(0.000195200587091 0.000308194465448 0.000102717334796)
(0.000125737891687 0.000353237397176 0.000137821745107)