/*--------------------------------*- C++ -*----------------------------------*\
| =========                 |                                                 |
| \\      /  F ield         | OpenFOAM: The Open Source CFD Toolbox           |
|  \\    /   O peration     | Version:  3.0.1                                 |
|   \\  /    A nd           | Web:      www.OpenFOAM.org                      |
|    \\/     M anipulation  |                                                 |
\*---------------------------------------------------------------------------*/
FoamFile
{
    version     2.0;
    format      ascii;
    class       volScalarField;
    location    "6";
    object      p_rgh;
}
// * * * * * * * * * * * * * * * * * * * * * * * * * * * * * * * * * * * * * //

dimensions      [1 -1 -2 0 0 0 0];

internalField   nonuniform List<scalar> 
7968
(
4891.47533033
4891.47976663
4891.45532094
4891.41729891
4891.37379299
4891.33187956
4891.30048293
4891.27961812
4891.26570753
4891.25501539
4891.24541966
4891.23698146
4891.232103
4891.23484563
4891.24923836
4891.27547094
4891.30588878
4891.33373732
4891.35172482
4891.34446081
4891.48145997
4891.50952824
4891.49650889
4891.46434924
4891.4217722
4891.38066323
4891.34786158
4891.32653093
4891.31299047
4891.30260171
4891.29295618
4891.28412764
4891.27880336
4891.28186826
4891.29744178
4891.32310101
4891.35233531
4891.3742651
4891.38087968
4891.35018192
4891.46121685
4891.50040853
4891.49011406
4891.45346997
4891.40064126
4891.34815793
4891.30568094
4891.27665467
4891.25788655
4891.24481955
4891.23507286
4891.22876149
4891.22859783
4891.23935679
4891.26459855
4891.3014825
4891.34077074
4891.36689509
4891.37072626
4891.32910009
4891.42868067
4891.47407128
4891.45932208
4891.41096523
4891.34401275
4891.28024663
4891.23143497
4891.19928126
4891.17915386
4891.16546551
4891.15565995
4891.14989568
4891.15110755
4891.16508653
4891.19668482
4891.24461854
4891.29772523
4891.33523144
4891.34334
4891.29555436
4891.39225569
4891.43855333
4891.41370792
4891.3512211
4891.27394991
4891.20774343
4891.162614
4891.13673993
4891.12236199
4891.1117111
4891.10193232
4891.09315286
4891.08867366
4891.0965123
4891.12454076
4891.1747767
4891.23784669
4891.28902514
4891.30689014
4891.25823793
4891.35869407
4891.40584499
4891.36953334
4891.29567287
4891.21595848
4891.15634925
4891.12295539
4891.11150151
4891.10892297
4891.10435917
4891.09466167
4891.07985576
4891.06357786
4891.05711281
4891.07354948
4891.11720073
4891.18252968
4891.24461795
4891.27366968
4891.224068
4891.33636691
4891.38226962
4891.3361483
4891.25586331
4891.17981375
4891.13197444
4891.11609724
4891.12476676
4891.13837486
4891.14208458
4891.13255449
4891.10955941
4891.07699697
4891.05030733
4891.04931607
4891.08133051
4891.14295611
4891.21113175
4891.24962211
4891.20129501
4891.32502432
4891.37058492
4891.31675126
4891.2333248
4891.16359585
4891.13023564
4891.13453472
4891.16604139
4891.19863909
4891.21613816
4891.20721627
4891.17100109
4891.11841355
4891.06861724
4891.04743699
4891.06513877
4891.1204793
4891.19165283
4891.23764198
4891.18970302
4891.3208392
4891.36688458
4891.3079158
4891.22323293
4891.15934089
4891.1378755
4891.1583946
4891.20879782
4891.26556977
4891.29662035
4891.28805903
4891.23915042
4891.16234192
4891.09229169
4891.05479845
4891.06071566
4891.11027887
4891.18270823
4891.23377313
4891.18536145
4891.31983365
4891.36629212
4891.30482261
4891.21966415
4891.15891864
4891.14359608
4891.17234701
4891.23615548
4891.30631065
4891.34250747
4891.33403096
4891.28008546
4891.19025856
4891.10644415
4891.06053259
4891.06027903
4891.10668467
4891.1795744
4891.2331402
4891.18430094
4891.31967097
4891.36619226
4891.3048242
4891.2198118
4891.15923048
4891.14406672
4891.17298189
4891.23695467
4891.30725773
4891.343547
4891.33512118
4891.28116197
4891.19123078
4891.10726408
4891.06120276
4891.06076692
4891.10697726
4891.17968872
4891.23312027
4891.18423492
4891.32028503
4891.36651622
4891.30783716
4891.22358169
4891.16018034
4891.13923242
4891.16025337
4891.21116741
4891.26843736
4891.29976541
4891.29133705
4891.2423769
4891.16517484
4891.09465828
4891.0566985
4891.06206074
4891.11105577
4891.18296973
4891.23366155
4891.18508988
4891.32391145
4891.369753
4891.3163489
4891.23358442
4891.16464892
4891.13216756
4891.13731546
4891.16960407
4891.20303525
4891.22104336
4891.21230225
4891.17588058
4891.12264308
4891.07216601
4891.05017862
4891.06697503
4891.12140327
4891.19179348
4891.23724803
4891.18902953
4891.33447042
4891.38067864
4891.33506352
4891.25556398
4891.18052095
4891.13382167
4891.11907556
4891.12879997
4891.14324948
4891.14753951
4891.13821865
4891.1150119
4891.08185458
4891.05423829
4891.05216987
4891.0830242
4891.14350158
4891.21073778
4891.24859459
4891.19999025
4891.35582403
4891.40322952
4891.3674198
4891.29437983
4891.2157674
4891.15739655
4891.125247
4891.11495858
4891.1133311
4891.10939572
4891.09991964
4891.08488333
4891.06793222
4891.06046476
4891.07572853
4891.11811287
4891.18219325
4891.2433025
4891.27171131
4891.22196243
4891.38813903
4891.43478809
4891.41040925
4891.34866701
4891.27241594
4891.20744145
4891.16352686
4891.1388205
4891.12540543
4891.11536824
4891.10580338
4891.09680761
4891.09165343
4891.09850275
4891.12537443
4891.17434778
4891.2362762
4891.28660082
4891.30397897
4891.25506397
4891.4233995
4891.46914951
4891.45482232
4891.40709453
4891.34100967
4891.27830723
4891.23062881
4891.19955829
4891.18031772
4891.16712968
4891.15751008
4891.15160704
4891.15219795
4891.16526484
4891.19579005
4891.24260654
4891.29477778
4891.33166217
4891.33939777
4891.29144124
4891.45494261
4891.49458098
4891.48464123
4891.44849611
4891.39633788
4891.34474449
4891.30323017
4891.27511589
4891.25709329
4891.24449513
4891.23490887
4891.22842957
4891.22774996
4891.23775216
4891.26209137
4891.29805446
4891.33671059
4891.36243647
4891.3659933
4891.32418824
4891.47483758
4891.50310522
4891.49045028
4891.45871713
4891.41655432
4891.37627381
4891.34437132
4891.32387395
4891.31100361
4891.30104119
4891.2915309
4891.28253603
4891.27674837
4891.27913578
4891.29391019
4891.31886879
4891.34774209
4891.36931414
4891.37574925
4891.34497448
4891.46854905
4891.4733353
4891.44917284
4891.41161495
4891.36870093
4891.32750512
4891.29690756
4891.27680556
4891.2635116
4891.25321185
4891.24374116
4891.23515064
4891.22986021
4891.23200771
4891.24573205
4891.27132663
4891.30125213
4891.32873933
4891.34643285
4891.3388828
4891.44805485
4891.44007227
4891.40533697
4891.3595785
4891.31321977
4891.27234274
4891.24186838
4891.22296856
4891.21099102
4891.20125344
4891.19158334
4891.18206401
4891.17509537
4891.17557583
4891.1885863
4891.21363845
4891.24659178
4891.28196679
4891.31002309
4891.31524223
4891.44160282
4891.45041514
4891.42060269
4891.37898365
4891.33962858
4891.30788961
4891.28504473
4891.27185351
4891.26361388
4891.25564446
4891.24597897
4891.2346797
4891.22392204
4891.21867172
4891.22411051
4891.24021249
4891.26603154
4891.29704778
4891.32023222
4891.30842925
4891.41063851
4891.42440423
4891.38780894
4891.33817007
4891.29181035
4891.25500428
4891.22941704
4891.21428203
4891.20451514
4891.1956312
4891.18590427
4891.17544484
4891.16630089
4891.16314497
4891.17138007
4891.19234923
4891.22492004
4891.26362932
4891.29334186
4891.27658322
4891.37079798
4891.38870066
4891.34406605
4891.2848088
4891.23304187
4891.19581005
4891.17286732
4891.16132655
4891.15406354
4891.14593057
4891.13613113
4891.12481244
4891.11323394
4891.10662463
4891.11239452
4891.13374501
4891.17144364
4891.21928699
4891.25661423
4891.23572868
4891.33182002
4891.35674889
4891.3050493
4891.2403124
4891.19176523
4891.16662771
4891.16088863
4891.16579514
4891.17022266
4891.1680176
4891.15826537
4891.14105122
4891.11777088
4891.09491305
4891.08361386
4891.0928399
4891.12713292
4891.17999828
4891.22402026
4891.19603508
4891.29945883
4891.33341991
4891.27663293
4891.21139825
4891.17496663
4891.17168828
4891.19252227
4891.22289125
4891.24578999
4891.25288758
4891.24336912
4891.21721368
4891.17547147
4891.12714745
4891.08917902
4891.07640307
4891.0984765
4891.1515066
4891.20022187
4891.16322687
4891.27821754
4891.31974465
4891.26027195
4891.1976623
4891.17846097
4891.20173273
4891.25389758
4891.31430639
4891.3591489
4891.37696947
4891.36786526
4891.33150674
4891.26790131
4891.18910897
4891.11944774
4891.07987339
4891.08474085
4891.13506796
4891.18634581
4891.14178414
4891.2689699
4891.31639951
4891.25488782
4891.19593824
4891.19319469
4891.24189114
4891.32406128
4891.41384801
4891.47780702
4891.49955972
4891.49037282
4891.44981834
4891.3680829
4891.25958908
4891.15946069
4891.09436508
4891.08290991
4891.12959298
4891.1827872
4891.13242824
4891.26685082
4891.31815193
4891.25515581
4891.19887091
4891.20794537
4891.27516044
4891.37902752
4891.48778966
4891.55481841
4891.58201454
4891.57317562
4891.52731709
4891.44108925
4891.31439632
4891.19217745
4891.10864414
4891.08547187
4891.12968429
4891.18439989
4891.13020534
4891.26691811
4891.32005866
4891.25632999
4891.20096528
4891.21612379
4891.29251255
4891.40673179
4891.5193687
4891.59177306
4891.62402374
4891.61542578
4891.56491838
4891.47317744
4891.34214366
4891.20931088
4891.1166304
4891.08749316
4891.13079993
4891.18628133
4891.13024667
4891.26679166
4891.31999678
4891.25640532
4891.20120179
4891.21651877
4891.2930651
4891.4074336
4891.52014252
4891.59263828
4891.62499844
4891.61645955
4891.56593831
4891.47413073
4891.34306117
4891.21011677
4891.11727213
4891.08791451
4891.1310219
4891.18631636
4891.13022199
4891.26639458
4891.31789521
4891.25530322
4891.19947184
4891.20909828
4891.2768808
4891.38118445
4891.49020891
4891.55743668
4891.58492116
4891.57624531
4891.53035127
4891.44400306
4891.31714556
4891.19453645
4891.11047528
4891.08666305
4891.13026674
4891.18448565
4891.13007229
4891.26800219
4891.31575862
4891.2548448
4891.19667189
4891.19485076
4891.2446016
4891.32755899
4891.41802263
4891.48222792
4891.50442312
4891.49544948
4891.4548072
4891.37302621
4891.26393511
4891.16306241
4891.09702868
4891.08456346
4891.13028465
4891.18271537
4891.13199837
4891.27641767
4891.31840488
4891.25962529
4891.19804305
4891.18008405
4891.20476836
4891.25819038
4891.31965287
4891.3653877
4891.38382397
4891.37496932
4891.33842723
4891.27417126
4891.19445097
4891.12361475
4891.08270452
4891.08624833
4891.13542443
4891.18576813
4891.14076613
4891.29653
4891.33096483
4891.27501072
4891.21089173
4891.17587153
4891.17414297
4891.19650651
4891.22819877
4891.25220878
4891.26000587
4891.2507595
4891.22430957
4891.18176612
4891.13230177
4891.09295193
4891.07864087
4891.09924823
4891.15104717
4891.19879419
4891.1613388
4891.32767833
4891.3531708
4891.30218939
4891.23851946
4891.19135913
4891.16780891
4891.16361065
4891.16987553
4891.17543753
4891.17401092
4891.16452881
4891.14700729
4891.12291817
4891.0988737
4891.08615844
4891.09383477
4891.12671084
4891.17841616
4891.221602
4891.19310631
4891.36551603
4891.38390886
4891.33981124
4891.28148859
4891.23098681
4891.19516643
4891.17366291
4891.1634922
4891.15723076
4891.14981939
4891.14026175
4891.12863812
4891.11634534
4891.10854947
4891.11307167
4891.13308235
4891.16949797
4891.21631677
4891.25304993
4891.23182437
4891.40441804
4891.41855599
4891.38234817
4891.3334115
4891.28813153
4891.25252477
4891.22815134
4891.21415163
4891.20527797
4891.19697793
4891.18744403
4891.17678243
4891.16702217
4891.16293203
4891.17012745
4891.19001943
4891.22149488
4891.259418
4891.28873153
4891.27188979
4891.43463824
4891.44390373
4891.41439083
4891.37333757
4891.33481865
4891.30402478
4891.28218074
4891.27001421
4891.26257616
4891.2550897
4891.24557642
4891.23411622
4891.22284183
4891.21678974
4891.22140522
4891.23665723
4891.26164403
4891.29209469
4891.3150569
4891.30319964
4891.44098493
4891.43339083
4891.39899583
4891.35378266
4891.30814776
4891.2681378
4891.23859656
4891.22054524
4891.20924462
4891.19995384
4891.19045173
4891.1807718
4891.17333734
4891.17315475
4891.18541545
4891.20967697
4891.24195933
4891.27679945
4891.30455462
4891.3093788
4891.43362897
4891.41658376
4891.37566353
4891.32452857
4891.27497183
4891.23238703
4891.20058161
4891.18008489
4891.16650159
4891.15560467
4891.14568001
4891.13690173
4891.13106079
4891.13250785
4891.14619081
4891.17232426
4891.20780355
4891.24796628
4891.28214135
4891.29603563
4891.41812452
4891.42576424
4891.395767
4891.35349941
4891.31887184
4891.29369435
4891.27667921
4891.26630535
4891.25893449
4891.25092024
4891.24097811
4891.22918901
4891.21710494
4891.20838052
4891.20765377
4891.2167615
4891.23731366
4891.26819415
4891.29105788
4891.2803786
4891.38124577
4891.39978732
4891.3595792
4891.301646
4891.25229842
4891.21702387
4891.19554022
4891.18412443
4891.17656238
4891.16837392
4891.15828882
4891.14649504
4891.13465355
4891.12754491
4891.13135019
4891.15033006
4891.18512587
4891.23142252
4891.26402985
4891.24279747
4891.33630212
4891.36378536
4891.30787456
4891.2305331
4891.16988967
4891.13243876
4891.11556345
4891.11063024
4891.10793932
4891.10233055
4891.09202661
4891.07729376
4891.06074964
4891.04775261
4891.04709332
4891.06799303
4891.11401177
4891.17915952
4891.22736112
4891.19703733
4891.29447448
4891.33684103
4891.26625528
4891.1774909
4891.11602426
4891.08936964
4891.08900576
4891.10138361
4891.11224359
4891.1134182
4891.10304737
4891.08185521
4891.05279092
4891.02373232
4891.00655361
4891.01538255
4891.06132535
4891.13761236
4891.19989785
4891.15469472
4891.26077457
4891.32035911
4891.23975817
4891.14840975
4891.0973057
4891.09244716
4891.12016979
4891.15898634
4891.18845869
4891.19860828
4891.18786685
4891.15683568
4891.10998116
4891.05763201
4891.0143805
4891.00005777
4891.03338333
4891.11112173
4891.18306078
4891.12074384
4891.23861718
4891.31296065
4891.2278116
4891.14033196
4891.10484376
4891.12774532
4891.18703106
4891.25458736
4891.30469218
4891.32519619
4891.31369214
4891.2706844
4891.20256543
4891.12364659
4891.05225064
4891.01100806
4891.02682247
4891.09921046
4891.17561963
4891.09853387
4891.22805154
4891.31294701
4891.22658303
4891.14507179
4891.12598143
4891.17430315
4891.26296253
4891.35795093
4891.42911045
4891.46065
4891.44838173
4891.39236749
4891.30151038
4891.19582529
4891.09831953
4891.03335825
4891.03184637
4891.09769686
4891.17550849
4891.08799628
4891.2245102
4891.31588746
4891.22965097
4891.15311838
4891.14737547
4891.21425227
4891.32457427
4891.44111543
4891.53168982
4891.57108189
4891.5582899
4891.49305698
4891.38240043
4891.25420785
4891.13621468
4891.05350886
4891.03916807
4891.10020916
4891.17828816
4891.08452748
4891.2235221
4891.31805448
4891.23208661
4891.15855837
4891.15966067
4891.23610355
4891.35775077
4891.48585929
4891.58565116
4891.62891737
4891.61580545
4891.54611122
4891.42661757
4891.28606022
4891.15694208
4891.06506907
4891.04407686
4891.10234171
4891.18042666
4891.0837079
4891.22339875
4891.31801886
4891.23226059
4891.15892832
4891.16015368
4891.23698665
4891.35891234
4891.48730677
4891.58724552
4891.63070326
4891.61767624
4891.54797401
4891.42835401
4891.28752681
4891.15810908
4891.06597752
4891.04473287
4891.10270983
4891.18047788
4891.08368193
4891.22391336
4891.31569289
4891.23007562
4891.15415366
4891.14913392
4891.21688691
4891.32813781
4891.44551331
4891.53666501
4891.57651935
4891.56396349
4891.49872767
4891.38765167
4891.25855421
4891.1395993
4891.05609531
4891.04099376
4891.10122435
4891.17843823
4891.08438681
4891.22688017
4891.31241134
4891.22704476
4891.14646693
4891.1285159
4891.17814393
4891.26825944
4891.36462759
4891.43689793
4891.46917829
4891.45723136
4891.40107183
4891.30935511
4891.20222702
4891.1032435
4891.03705723
4891.0343916
4891.09901652
4891.17553645
4891.08753818
4891.23662259
4891.31168154
4891.22780537
4891.14156006
4891.10738477
4891.13172922
4891.19276128
4891.26191524
4891.31339935
4891.33481098
4891.32369349
4891.28041357
4891.21117974
4891.13060379
4891.05761587
4891.01500654
4891.0294396
4891.10029921
4891.17519415
4891.09742935
4891.25764102
4891.31789668
4891.23878685
4891.14878
4891.0990042
4891.09573074
4891.12502053
4891.16516851
4891.19612325
4891.20733561
4891.19698537
4891.16556853
4891.11756075
4891.06390391
4891.01931009
4891.00360332
4891.03531209
4891.11141105
4891.18186006
4891.11867506
4891.29003218
4891.33315316
4891.26387026
4891.17649423
4891.11656572
4891.09137777
4891.09251996
4891.1062559
4891.11845381
4891.12052984
4891.11056411
4891.08901236
4891.05900153
4891.02891685
4891.01047102
4891.01774114
4891.0619395
4891.13661803
4891.19772855
4891.15151113
4891.330561
4891.35878658
4891.30351853
4891.22777195
4891.16870363
4891.13291413
4891.11761951
4891.11393237
4891.11245622
4891.1077511
4891.09777705
4891.08275246
4891.06539194
4891.05139167
4891.04926309
4891.06854557
4891.11286439
4891.17665789
4891.22398557
4891.19276548
4891.3744864
4891.39352541
4891.35376968
4891.29675849
4891.24914901
4891.21544557
4891.19546565
4891.18541358
4891.17891548
4891.17146241
4891.16167606
4891.1496179
4891.13705584
4891.12879269
4891.1312629
4891.14874084
4891.18209704
4891.22754821
4891.25970125
4891.23764898
4891.4108606
4891.41886176
4891.38902942
4891.34751772
4891.31392499
4891.28992899
4891.27431325
4891.26535542
4891.25885182
4891.25140596
4891.24170855
4891.22972216
4891.21703945
4891.20737747
4891.20537731
4891.21342395
4891.23303149
4891.26337574
4891.28595826
4891.27474253
4891.4255757
4891.40947236
4891.36878864
4891.31828961
4891.2697417
4891.22832915
4891.19768702
4891.1781243
4891.16529261
4891.15495924
4891.14525583
4891.13622623
4891.12981938
4891.13054634
4891.14330971
4891.16849739
4891.20315175
4891.24271808
4891.27615717
4891.28899695
4891.40907083
4891.38421096
4891.33919566
4891.28439727
4891.23193989
4891.18680445
4891.15206581
4891.1271698
4891.1091378
4891.09527449
4891.08479677
4891.07787162
4891.07544572
4891.08060593
4891.09659076
4891.12468821
4891.16250482
4891.20562491
4891.24298406
4891.2640179
4891.38595922
4891.39136741
4891.36160117
4891.31730553
4891.27792891
4891.24611151
4891.2229527
4891.20653468
4891.19321962
4891.18139735
4891.17091285
4891.16193084
4891.15498111
4891.15182833
4891.15629851
4891.17123696
4891.19587116
4891.22799618
4891.2502619
4891.24169226
4891.34529419
4891.36605349
4891.32326565
4891.2567537
4891.19582203
4891.14780362
4891.11638788
4891.09794655
4891.08617812
4891.07597632
4891.06518716
4891.05414355
4891.04584056
4891.04526803
4891.05808882
4891.0888426
4891.13466328
4891.18868505
4891.22350387
4891.20020757
4891.29706292
4891.32845862
4891.2636374
4891.16494269
4891.07780114
4891.0174718
4890.98659095
4890.97712636
4890.97561397
4890.97097911
4890.95945243
4890.94177144
4890.92427233
4890.91760311
4890.93070325
4890.971862
4891.04224477
4891.12843717
4891.18545194
4891.15131001
4891.25256461
4891.29709092
4891.21096669
4891.08586871
4890.98526379
4890.93222814
4890.92520467
4890.92346574
4890.93772969
4890.93625684
4890.92296617
4890.90387516
4890.87782907
4890.85466878
4890.85047695
4890.88507459
4890.96498259
4891.07554786
4891.15385749
4891.10658441
4891.2167152
4891.27456421
4891.17232626
4891.03320513
4890.93953653
4890.91583932
4890.93869729
4890.97941699
4891.01816576
4891.02893712
4891.01114878
4890.96853893
4890.90984688
4890.86203587
4890.8335961
4890.84548908
4890.91773248
4891.03731939
4891.13132531
4891.07077101
4891.19212644
4891.26153345
4891.15056123
4891.00968262
4890.93997078
4890.94847757
4891.00384188
4891.0813734
4891.13530954
4891.15322008
4891.13127603
4891.07110589
4890.98987354
4890.91153758
4890.85616789
4890.84392004
4890.89930559
4891.01681693
4891.11859052
4891.04640977
4891.17788079
4891.25584408
4891.14242891
4891.0097962
4890.94772589
4890.99943124
4891.09502924
4891.19544771
4891.26852908
4891.29292763
4891.26671286
4891.19025188
4891.08392119
4890.98061846
4890.89021529
4890.86647332
4890.89906886
4891.00911132
4891.11280143
4891.03231053
4891.1705324
4891.25364966
4891.14201655
4891.02029288
4890.97979956
4891.05556169
4891.17180675
4891.29261142
4891.38556617
4891.41538067
4891.38688604
4891.29903482
4891.17079314
4891.04394604
4890.93961254
4890.87666382
4890.90689853
4891.00792863
4891.11024066
4891.02515731
4891.16722173
4891.25277098
4891.14337791
4891.028468
4890.98934369
4891.08595394
4891.21519398
4891.34431302
4891.45065657
4891.48064247
4891.4503255
4891.35825299
4891.22073468
4891.0815134
4890.96809912
4890.89120331
4890.91331739
4891.00852677
4891.10900676
4891.0220099
4891.16700552
4891.25283276
4891.14370177
4891.02909556
4890.9904498
4891.08783417
4891.21778959
4891.3478168
4891.45422405
4891.48466989
4891.45445691
4891.36235473
4891.22447911
4891.08458404
4890.97038975
4890.89274881
4890.91432638
4891.00903148
4891.10914718
4891.02188601
4891.16983748
4891.25365824
4891.14280213
4891.02222008
4890.98398121
4891.06117738
4891.18010056
4891.30324384
4891.39721431
4891.42789919
4891.39959978
4891.31175268
4891.18248803
4891.05330283
4890.94574613
4890.88145906
4890.90969181
4891.00929449
4891.11060844
4891.02473177
4891.17644165
4891.25558833
4891.14331355
4891.0123694
4890.95283663
4891.00980245
4891.10717588
4891.21108114
4891.28633631
4891.31204812
4891.28617445
4891.20926155
4891.10109544
4890.99428519
4890.89892104
4890.87286436
4890.90288435
4891.01096069
4891.11315558
4891.03139971
4891.18978676
4891.26073302
4891.1509263
4891.01174229
4890.94422863
4890.95649714
4891.01915491
4891.09773842
4891.15453871
4891.17417841
4891.15282829
4891.09192982
4891.0082456
4890.92155715
4890.86442226
4890.85039351
4890.90303737
4891.01842333
4891.11846431
4891.0447065
4891.21321608
4891.27248671
4891.17154774
4891.03408278
4890.94252303
4890.92123115
4890.9484029
4890.99099543
4891.03261791
4891.04589998
4891.02947103
4890.98510881
4890.92153903
4890.87295374
4890.84188021
4890.85057109
4890.92060064
4891.03800546
4891.13020991
4891.06796948
4891.24769766
4891.29344628
4891.20855516
4891.08512391
4890.98625494
4890.93544422
4890.93076338
4890.92992335
4890.94738247
4890.94808966
4890.93567426
4890.9178195
4890.88428639
4890.86259291
4890.85586855
4890.88856991
4890.96629891
4891.07461887
4891.15138849
4891.10251253
4891.29079755
4891.32323825
4891.25953093
4891.1621679
4891.07693843
4891.01843834
4890.9893155
4890.98185702
4890.98191598
4890.9784636
4890.96742016
4890.94938149
4890.93061945
4890.92223994
4890.93387046
4890.97315251
4891.04126092
4891.12552357
4891.18143648
4891.14596248
4891.33798975
4891.35938045
4891.3172276
4891.25232132
4891.1928401
4891.14690459
4891.11740742
4891.10063061
4891.0901684
4891.08084439
4891.07040184
4891.05906394
4891.0497833
4891.04779063
4891.05886429
4891.08748202
4891.13135747
4891.18410918
4891.21809611
4891.19390432
4891.37798203
4891.38381948
4891.35435155
4891.31119136
4891.27319091
4891.24309306
4891.22172745
4891.20665189
4891.19445072
4891.18334039
4891.17310226
4891.16389149
4891.15608969
4891.15161549
4891.15448296
4891.16769159
4891.19088541
4891.22197146
4891.24421525
4891.23485914
4891.40026004
4891.37627716
4891.33169312
4891.27776521
4891.22641257
4891.1826157
4891.1493183
4891.12575539
4891.10870364
4891.09543074
4891.08511282
4891.07788697
4891.07479872
4891.07887009
4891.09352594
4891.1202575
4891.15691891
4891.19931796
4891.23641412
4891.2572007
4891.40707986
4891.37964823
4891.33999094
4891.28723003
4891.23448239
4891.18699926
4891.14888587
4891.11975028
4891.09759762
4891.08082376
4891.06938983
4891.06364826
4891.0640459
4891.07226374
4891.09055928
4891.11989074
4891.15699172
4891.19752108
4891.22895949
4891.2532625
4891.38162997
4891.37114258
4891.33533254
4891.27986791
4891.22439057
4891.17356519
4891.13213693
4891.08886931
4891.05707993
4891.04867708
4891.03968354
4891.02769053
4891.03705714
4891.05506519
4891.07703166
4891.10998367
4891.14980363
4891.19267559
4891.22019617
4891.2273477
4891.34677544
4891.34023728
4891.2883885
4891.20411731
4891.10898793
4891.02182038
4890.97324844
4890.92004483
4890.88479746
4890.87612382
4890.86564168
4890.85191676
4890.86583989
4890.89875602
4890.92946108
4890.99740213
4891.07272028
4891.14425453
4891.18823035
4891.19155936
4891.30098129
4891.29203705
4891.21176318
4891.0580009
4890.90595438
4890.73246352
4890.56794313
4890.5330821
4890.58239401
4890.61402274
4890.5969534
4890.53517387
4890.4745635
4890.53159192
4890.65950681
4890.80123697
4890.92935713
4891.0661813
4891.13939065
4891.14514174
4891.25658699
4891.24471656
4891.12437953
4890.90934361
4890.60339642
4890.44099849
4890.63150002
4890.68135892
4890.70573189
4890.71266348
4890.69336054
4890.64998543
4890.60500859
4890.41237576
4890.3871595
4890.54098371
4890.79454944
4890.98208828
4891.09246217
4891.10099551
4891.21914189
4891.20433804
4891.04621841
4890.72437951
4890.4749913
4890.63849348
4890.64124893
4890.71175286
4890.75911316
4890.77476424
4890.74628038
4890.67411667
4890.59295343
4890.54862392
4890.42718509
4890.38978012
4890.65431254
4890.90912525
4891.05189107
4891.06392955
4891.19196156
4891.17400483
4890.99846073
4890.56414939
4890.68031413
4890.66031454
4890.72283054
4890.81418761
4890.88398116
4890.90300459
4890.86052851
4890.76232015
4890.65452892
4890.58412786
4890.55442819
4890.26762045
4890.54901574
4890.87308061
4891.0214846
4891.0372155
4891.17420584
4891.14446956
4890.94977227
4890.60150677
4890.70985104
4890.73251777
4890.82919506
4890.95334701
4891.03766618
4891.05541632
4891.00492698
4890.88166823
4890.74145372
4890.64977195
4890.60070772
4890.52758982
4890.44640702
4890.83842012
4890.99397019
4891.01976976
4891.16363282
4891.12804745
4890.92989488
4890.68137314
4890.75440901
4890.81094436
4890.94095206
4891.08832916
4891.19443579
4891.21384989
4891.16129369
4891.02568317
4890.84996976
4890.7285028
4890.65579811
4890.63129583
4890.47799662
4890.81709843
4890.97995536
4891.00920873
4891.15831757
4891.12985309
4890.93562187
4890.73278467
4890.78481447
4890.86143099
4891.00952726
4891.16303366
4891.26951639
4891.28676529
4891.23034192
4891.09914117
4890.91698067
4890.7811298
4890.69238376
4890.65227964
4890.52315915
4890.81713659
4890.97880401
4891.00374121
4891.15792818
4891.13165993
4890.93747207
4890.73424387
4890.7867746
4890.86516296
4891.01441526
4891.16919202
4891.27634659
4891.29421126
4891.23766677
4891.10606704
4890.92353616
4890.78673687
4890.69632367
4890.65498415
4890.5268011
4890.81782095
4890.97887876
4891.00340332
4891.16245053
4891.12930361
4890.93411624
4890.6886004
4890.76051807
4890.82221067
4890.9585183
4891.11053744
4891.21722315
4891.23805696
4891.18495222
4891.05122724
4890.8732015
4890.74597851
4890.66768914
4890.63883195
4890.4881475
4890.81907099
4890.97954253
4891.00816652
4891.17205021
4891.14474773
4890.95496136
4890.61301955
4890.7191467
4890.74890118
4890.85375193
4890.98489412
4891.07304053
4891.09260218
4891.04199305
4890.91795496
4890.77404568
4890.67485104
4890.61791597
4890.55338942
4890.4578523
4890.84217485
4890.99366241
4891.01790552
4891.18858299
4891.17239197
4891.00203033
4890.57653795
4890.68812374
4890.67683102
4890.74833791
4890.84603736
4890.92102705
4890.94278939
4890.90100066
4890.80148591
4890.68847008
4890.60982724
4890.5704252
4890.29582097
4890.55736731
4890.87509855
4891.02073147
4891.03426124
4891.2143938
4891.20156578
4891.04709981
4890.72930068
4890.5037417
4890.64736692
4890.66169724
4890.73072895
4890.78654484
4890.80565803
4890.77715194
4890.70183465
4890.61535692
4890.56397706
4890.49747056
4890.39442177
4890.66035918
4890.9119057
4891.04985438
4891.05961328
4891.25029841
4891.24038661
4891.12203131
4890.91109683
4890.60907427
4890.47494838
4890.6745736
4890.69121737
4890.71900691
4890.72863624
4890.71074563
4890.66587674
4890.61735066
4890.49029174
4890.39943632
4890.55050205
4890.79872808
4890.98164699
4891.08869443
4891.0951471
4891.29285466
4891.28517193
4891.20637144
4891.05627688
4890.90628651
4890.73138173
4890.57792967
4890.56619117
4890.61581695
4890.64697084
4890.63292706
4890.57294585
4890.50859346
4890.53538386
4890.66140273
4890.8041129
4890.92930383
4891.06200241
4891.1335931
4891.13775473
4891.3375393
4891.33192721
4891.28117207
4891.19849162
4891.10626094
4891.02326654
4890.97591303
4890.92641759
4890.8924504
4890.8837838
4890.8734677
4890.85975429
4890.8714577
4890.90254326
4890.93231148
4890.99584126
4891.06822228
4891.13795182
4891.18089655
4891.18309138
4891.37172198
4891.361769
4891.32663617
4891.27254855
4891.21890377
4891.17024059
4891.13081893
4891.09321593
4891.06247094
4891.05415166
4891.0447033
4891.03400145
4891.04010117
4891.05508959
4891.07495418
4891.10554565
4891.14333391
4891.18488019
4891.21178489
4891.21825947
4891.39734579
4891.36982235
4891.33057134
4891.27870652
4891.22736413
4891.181647
4891.14530711
4891.11768507
4891.09663203
4891.08051343
4891.06927239
4891.06323219
4891.06277488
4891.06963455
4891.08623988
4891.11380267
4891.14941803
4891.18897639
4891.22004824
4891.24427721
4891.4578516
4891.4296463
4891.40144575
4891.3577771
4891.31691466
4891.28143492
4891.25490581
4891.2367163
4891.22388569
4891.21241381
4891.20028506
4891.18775614
4891.17703918
4891.17228497
4891.17706276
4891.19273963
4891.21670339
4891.24734694
4891.26617238
4891.29066771
4891.43201618
4891.38994014
4891.34415774
4891.27565935
4891.20592722
4891.13915502
4891.08373157
4890.98998837
4890.94283303
4890.95986326
4890.95665059
4890.91903847
4890.94124404
4890.99814887
4891.03224956
4891.07969893
4891.13257762
4891.18854327
4891.22583451
4891.26395988
4891.40938865
4891.34946336
4891.28221457
4891.18612241
4890.93163389
4890.25153199
4889.77924162
4889.52568779
4889.50629044
4889.55339557
4889.54903787
4889.48962987
4889.50634825
4889.74409798
4890.18186011
4890.83432791
4891.04071505
4891.12453366
4891.18387228
4891.2396993
4891.37345519
4891.29014509
4891.19488431
4890.6582676
4889.64580702
4888.74547946
4888.74468046
4889.08585977
4889.32068532
4889.40693003
4889.37465726
4889.18831202
4888.83170001
4888.52811497
4888.72966347
4889.59249534
4890.54414838
4891.03370177
4891.12225501
4891.20284838
4891.34128403
4891.22634054
4890.94998246
4889.6402485
4888.3144899
4888.57850645
4887.66929541
4887.88535944
4888.48956029
4888.76466138
4888.60970126
4888.16278979
4887.93574586
4888.29468529
4888.42030623
4888.43133461
4889.60329832