/*--------------------------------*- C++ -*----------------------------------*\
| =========                 |                                                 |
| \\      /  F ield         | OpenFOAM: The Open Source CFD Toolbox           |
|  \\    /   O peration     | Version:  3.0.1                                 |
|   \\  /    A nd           | Web:      www.OpenFOAM.org                      |
|    \\/     M anipulation  |                                                 |
\*---------------------------------------------------------------------------*/
FoamFile
{
    version     2.0;
    format      ascii;
    class       volVectorField;
    location    "0.35";
    object      U;
}
// * * * * * * * * * * * * * * * * * * * * * * * * * * * * * * * * * * * * * //

dimensions      [0 1 -1 0 0 0 0];

internalField   nonuniform List<vector> 
7700
(
(-0.016926 0.0069659 0)
(-0.0205289 -0.00316726 0)
(0.00289799 -0.0115981 0)
(0.041957 -0.0157817 0)
(0.0856096 -0.0165424 0)
(0.128232 -0.015084 0)
(0.165665 -0.012675 0)
(0.196345 -0.0102284 0)
(0.220889 -0.00823985 0)
(0.240921 -0.00687927 0)
(0.2582 -0.00611138 0)
(0.274159 -0.00579726 0)
(0.289762 -0.00576898 0)
(0.305539 -0.00587612 0)
(0.321672 -0.0060062 0)
(0.338103 -0.00608697 0)
(0.354634 -0.00607962 0)
(0.371004 -0.00596918 0)
(0.386938 -0.00575511 0)
(0.402171 -0.00544394 0)
(0.416462 -0.00504407 0)
(0.429588 -0.00456267 0)
(0.441346 -0.00400406 0)
(0.451535 -0.00336894 0)
(0.459953 -0.00265273 0)
(0.466367 -0.0018429 0)
(0.470487 -0.000883371 0)
(0.472023 0.000419832 0)
(0.470161 0.00218435 0)
(0.463695 0.00480263 0)
(0.451312 0.00839927 0)
(0.431564 0.0130118 0)
(0.402577 0.0187421 0)
(0.362059 0.025591 0)
(0.307491 0.0332743 0)
(0.236583 0.0406394 0)
(0.149583 0.04545 0)
(0.0501625 0.0422402 0)
(-0.0511844 0.0201217 0)
(-0.117714 -0.0199816 0)
(-0.114782 -0.00550583 0)
(-0.177002 0.0388999 0)
(-0.326654 0.0599092 0)
(-0.399313 0.0186211 0)
(-0.293765 -0.0565643 0)
(-0.109164 -0.0781617 0)
(-0.0185694 0.0208582 0)
(-0.0198344 -0.0105808 0)
(0.0038819 -0.0354691 0)
(0.0435474 -0.0478955 0)
(0.0872507 -0.0500233 0)
(0.129512 -0.0455762 0)
(0.166402 -0.0383756 0)
(0.196639 -0.0311209 0)
(0.221003 -0.0252542 0)
(0.241149 -0.0212521 0)
(0.25878 -0.0189922 0)
(0.275241 -0.0180583 0)
(0.291415 -0.017958 0)
(0.307771 -0.0182531 0)
(0.324449 -0.0186155 0)
(0.341375 -0.0188337 0)
(0.358348 -0.0187939 0)
(0.375113 -0.0184517 0)
(0.391408 -0.0178054 0)
(0.406981 -0.0168738 0)
(0.421603 -0.0156813 0)
(0.435065 -0.0142487 0)
(0.447172 -0.0125887 0)
(0.457733 -0.0107035 0)
(0.466558 -0.00858286 0)
(0.473457 -0.00619869 0)
(0.478265 -0.00348089 0)
(0.480783 -0.000269855 0)
(0.481227 0.00352341 0)
(0.480023 0.00826037 0)
(0.477475 0.0141925 0)
(0.473501 0.0216809 0)
(0.467662 0.0313163 0)
(0.458788 0.0437755 0)
(0.444202 0.0595232 0)
(0.41908 0.0783453 0)
(0.376415 0.0982808 0)
(0.308654 0.113053 0)
(0.209655 0.111122 0)
(0.0863453 0.0798122 0)
(-0.0452257 0.0575252 0)
(-0.164399 0.108284 0)
(-0.295772 0.106553 0)
(-0.314925 -0.0167647 0)
(-0.259352 -0.1904 0)
(-0.0948143 -0.255811 0)
(-0.0176492 0.0346671 0)
(-0.018869 -0.0184115 0)
(0.00554907 -0.0595513 0)
(0.0455835 -0.0798373 0)
(0.0887819 -0.0828333 0)
(0.129832 -0.0750926 0)
(0.165214 -0.0630713 0)
(0.194136 -0.0511993 0)
(0.217673 -0.0417577 0)
(0.237548 -0.0354258 0)
(0.255379 -0.0319232 0)
(0.272361 -0.0305276 0)
(0.289222 -0.0304265 0)
(0.306298 -0.0309141 0)
(0.323644 -0.0314713 0)
(0.34114 -0.0317692 0)
(0.358571 -0.0316357 0)
(0.375692 -0.0310077 0)
(0.39226 -0.0298874 0)
(0.408049 -0.0283078 0)
(0.422853 -0.0263081 0)
(0.436483 -0.0239211 0)
(0.44876 -0.0211657 0)
(0.459508 -0.0180449 0)
(0.468548 -0.0145454 0)
(0.475695 -0.0106359 0)
(0.480754 -0.00627918 0)
(0.483475 -0.00147651 0)
(0.48365 0.00385984 0)
(0.481087 0.00974711 0)
(0.475649 0.0164689 0)
(0.467453 0.0245262 0)
(0.456948 0.0346565 0)
(0.445073 0.0479486 0)
(0.433452 0.0657813 0)
(0.423587 0.0895311 0)
(0.414283 0.119145 0)
(0.398863 0.150861 0)
(0.362408 0.174963 0)
(0.287361 0.177846 0)
(0.164506 0.16868 0)
(0.0410829 0.186213 0)
(-0.0605969 0.166474 0)
(-0.0636638 0.020302 0)
(-0.120242 -0.216207 0)
(-0.0370429 -0.370794 0)
(-0.0170733 0.0477151 0)
(-0.0173747 -0.0267275 0)
(0.00784727 -0.0841249 0)
(0.0481556 -0.111658 0)
(0.0904741 -0.114805 0)
(0.129791 -0.103378 0)
(0.163182 -0.0865615 0)
(0.190474 -0.0704143 0)
(0.213085 -0.0578792 0)
(0.232785 -0.0496803 0)
(0.251049 -0.0452851 0)
(0.268856 -0.0436361 0)
(0.286719 -0.0436133 0)
(0.304807 -0.0442772 0)
(0.323069 -0.0449555 0)
(0.341332 -0.0452355 0)
(0.359377 -0.0449106 0)
(0.376976 -0.0439138 0)
(0.393918 -0.0422582 0)
(0.410012 -0.0399913 0)
(0.425086 -0.0371654 0)
(0.438976 -0.033821 0)
(0.451522 -0.02998 0)
(0.462561 -0.0256436 0)
(0.471927 -0.0207943 0)
(0.479441 -0.0153975 0)
(0.484914 -0.00940378 0)
(0.48816 -0.00274327 0)
(0.488965 0.00472653 0)
(0.487125 0.0131153 0)
(0.482444 0.0226137 0)
(0.47474 0.0334328 0)
(0.463973 0.0458464 0)
(0.450405 0.0602783 0)
(0.434935 0.0774615 0)
(0.419589 0.0984502 0)
(0.407544 0.12482 0)
(0.401571 0.157814 0)
(0.398273 0.195331 0)
(0.383427 0.228654 0)
(0.332477 0.2477 0)
(0.260823 0.259053 0)
(0.185646 0.208947 0)
(0.16043 0.0542072 0)
(0.0729008 -0.162705 0)
(0.0332726 -0.372455 0)
(-0.0165175 0.0598792 0)
(-0.0153633 -0.0358744 0)
(0.0106104 -0.109084 0)
(0.050933 -0.143058 0)
(0.0919493 -0.145528 0)
(0.129095 -0.130022 0)
(0.160194 -0.108541 0)
(0.185757 -0.0886097 0)
(0.207523 -0.0736006 0)
(0.227252 -0.0640947 0)
(0.246209 -0.0592072 0)
(0.265101 -0.0575218 0)
(0.28419 -0.057637 0)
(0.303465 -0.0584266 0)
(0.322768 -0.0591152 0)
(0.341887 -0.0592469 0)
(0.360606 -0.0586089 0)
(0.378732 -0.0571457 0)
(0.396098 -0.0548865 0)
(0.412553 -0.0518925 0)
(0.427961 -0.0482242 0)
(0.442186 -0.0439243 0)
(0.455087 -0.0390124 0)
(0.466516 -0.0334845 0)
(0.476312 -0.0273161 0)
(0.484306 -0.0204651 0)
(0.490319 -0.0128738 0)
(0.494166 -0.00446535 0)
(0.495664 0.00484323 0)
(0.494641 0.0151907 0)
(0.490948 0.0267312 0)
(0.484491 0.0396804 0)
(0.475251 0.0542935 0)
(0.46331 0.0708128 0)
(0.448906 0.0894259 0)
(0.432685 0.110273 0)
(0.416233 0.133753 0)
(0.403136 0.161222 0)
(0.397978 0.194942 0)
(0.402946 0.235107 0)
(0.403473 0.271326 0)
(0.390199 0.290778 0)
(0.355139 0.247948 0)
(0.311514 0.115007 0)
(0.199641 -0.0979126 0)
(0.09022 -0.293237 0)
(-0.015794 0.0709337 0)
(-0.0128243 -0.0459878 0)
(0.0137444 -0.13426 0)
(0.0537135 -0.173751 0)
(0.0930374 -0.174711 0)
(0.127717 -0.154833 0)
(0.156437 -0.128967 0)
(0.180381 -0.105886 0)
(0.201541 -0.0891161 0)
(0.221577 -0.0788989 0)
(0.241482 -0.0739094 0)
(0.261648 -0.0723685 0)
(0.282084 -0.0726364 0)
(0.302604 -0.0734605 0)
(0.322965 -0.0740188 0)
(0.342935 -0.0738556 0)
(0.362326 -0.0727786 0)
(0.380986 -0.070756 0)
(0.398799 -0.0678352 0)
(0.41566 -0.0640869 0)
(0.431466 -0.0595728 0)
(0.446105 -0.0543312 0)
(0.459454 -0.0483737 0)
(0.471371 -0.0416868 0)
(0.481705 -0.0342369 0)
(0.49029 -0.0259742 0)
(0.496952 -0.0168359 0)
(0.501516 -0.00674686 0)
(0.503809 0.00438184 0)
(0.503679 0.0166553 0)
(0.501002 0.0302001 0)
(0.495714 0.0451697 0)
(0.487835 0.0617322 0)
(0.477495 0.0800553 0)
(0.464936 0.100253 0)
(0.450512 0.122291 0)
(0.434694 0.145887 0)
(0.418753 0.170773 0)
(0.405602 0.197533 0)
(0.402246 0.228829 0)
(0.410569 0.262493 0)
(0.423689 0.286898 0)
(0.420157 0.266182 0)
(0.384553 0.175519 0)
(0.274955 0.0181789 0)
(0.122118 -0.168445 0)
(-0.0148565 0.08063 0)
(-0.0097288 -0.056974 0)
(0.017215 -0.159543 0)
(0.0563724 -0.203475 0)
(0.0937133 -0.202134 0)
(0.125791 -0.177734 0)
(0.152232 -0.147926 0)
(0.17483 -0.122436 0)
(0.195711 -0.104651 0)
(0.216346 -0.0942901 0)
(0.237394 -0.0895287 0)
(0.258927 -0.088246 0)
(0.28071 -0.0886246 0)
(0.302421 -0.0893546 0)
(0.323764 -0.0896256 0)
(0.344516 -0.0890217 0)
(0.36453 -0.0873921 0)
(0.383709 -0.0847354 0)
(0.401987 -0.0811143 0)
(0.419299 -0.0766016 0)
(0.435571 -0.0712522 0)
(0.450709 -0.0650928 0)
(0.464599 -0.0581213 0)
(0.477108 -0.0503117 0)
(0.488086 -0.0416196 0)
(0.497368 -0.0319874 0)
(0.504785 -0.0213484 0)
(0.510165 -0.00962874 0)
(0.513344 0.00325169 0)
(0.514176 0.0173781 0)
(0.51255 0.0328465 0)
(0.508406 0.0497532 0)
(0.501763 0.0681908 0)
(0.492742 0.0882355 0)
(0.481578 0.109915 0)
(0.468629 0.133156 0)
(0.454261 0.15764 0)
(0.438868 0.182664 0)
(0.422931 0.207067 0)
(0.409423 0.230858 0)
(0.403924 0.25458 0)
(0.409769 0.275415 0)
(0.412308 0.272734 0)
(0.38669 0.223843 0)
(0.287312 0.119073 0)
(0.130493 -0.025603 0)
(-0.0135964 0.0887215 0)
(-0.00615816 -0.0687434 0)
(0.0209338 -0.184777 0)
(0.0589532 -0.232004 0)
(0.0940792 -0.227678 0)
(0.123564 -0.198784 0)
(0.147972 -0.165623 0)
(0.169589 -0.138529 0)
(0.190546 -0.12045 0)
(0.212026 -0.110436 0)
(0.234324 -0.10614 0)
(0.257203 -0.105149 0)
(0.280231 -0.105543 0)
(0.302993 -0.106028 0)
(0.325181 -0.105858 0)
(0.346609 -0.104689 0)
(0.367183 -0.102422 0)
(0.386865 -0.0990865 0)
(0.405631 -0.094753 0)
(0.423447 -0.0894871 0)
(0.44026 -0.0833282 0)
(0.455986 -0.0762848 0)
(0.470517 -0.0683375 0)
(0.483719 -0.0594452 0)
(0.495444 -0.0495519 0)
(0.505527 -0.0385921 0)
(0.5138 -0.0264958 0)
(0.52009 -0.0131919 0)
(0.524234 0.00138845 0)
(0.526087 0.017316 0)
(0.52554 0.0346463 0)
(0.522523 0.0534299 0)
(0.517042 0.0736974 0)
(0.509185 0.0954483 0)
(0.499133 0.118626 0)
(0.487164 0.143087 0)
(0.473605 0.168528 0)
(0.458744 0.194378 0)
(0.442505 0.2194 0)
(0.424753 0.241927 0)
(0.406957 0.260803 0)
(0.393783 0.276586 0)
(0.381984 0.283195 0)
(0.355729 0.268001 0)
(0.269952 0.215644 0)
(0.127902 0.121365 0)
(-0.0119297 0.0948942 0)
(-0.00218153 -0.0813515 0)
(0.0248997 -0.209708 0)
(0.061517 -0.25915 0)
(0.0942945 -0.251316 0)
(0.121319 -0.218144 0)
(0.144037 -0.182337 0)
(0.165073 -0.15445 0)
(0.186424 -0.136723 0)
(0.208913 -0.127435 0)
(0.232464 -0.123733 0)
(0.256571 -0.122989 0)
(0.280663 -0.123266 0)
(0.304284 -0.123354 0)
(0.327156 -0.122612 0)
(0.349148 -0.120788 0)
(0.370229 -0.117838 0)
(0.390408 -0.113814 0)
(0.409696 -0.108783 0)
(0.42808 -0.102794 0)
(0.445513 -0.0958634 0)
(0.461917 -0.0879772 0)
(0.477183 -0.0790959 0)
(0.491178 -0.0691627 0)
(0.50375 -0.0581094 0)
(0.514737 -0.0458626 0)
(0.523965 -0.0323486 0)
(0.53126 -0.0174983 0)
(0.536455 -0.00125159 0)
(0.539394 0.0164438 0)
(0.539953 0.0356074 0)
(0.538055 0.0562487 0)
(0.53368 0.0783472 0)
(0.526881 0.101839 0)
(0.517784 0.126607 0)
(0.506575 0.152459 0)
(0.493465 0.179091 0)
(0.478622 0.206041 0)
(0.461977 0.232496 0)
(0.442804 0.256992 0)
(0.419587 0.277395 0)
(0.392753 0.293245 0)
(0.362388 0.304943 0)
(0.325683 0.312503 0)
(0.247638 0.302513 0)
(0.13474 0.260186 0)
(-0.00983466 0.0988927 0)
(0.00209729 -0.0947566 0)
(0.0291662 -0.234195 0)
(0.0641841 -0.284798 0)
(0.0945564 -0.273099 0)
(0.11933 -0.236041 0)
(0.140738 -0.198367 0)
(0.161573 -0.17046 0)
(0.183564 -0.153619 0)
(0.207125 -0.145306 0)
(0.231832 -0.142224 0)
(0.256973 -0.141622 0)
(0.281899 -0.141635 0)
(0.306171 -0.14119 0)
(0.329569 -0.139785 0)
(0.352031 -0.137262 0)
(0.373582 -0.133625 0)
(0.394268 -0.128934 0)
(0.41412 -0.123244 0)
(0.433134 -0.116576 0)
(0.451263 -0.108921 0)
(0.468427 -0.100238 0)
(0.484515 -0.0904675 0)
(0.499392 -0.0795376 0)
(0.512908 -0.0673678 0)
(0.524896 -0.0538757 0)
(0.535183 -0.0389829 0)
(0.543585 -0.0226199 0)
(0.549927 -0.00473205 0)
(0.554032 0.0147086 0)
(0.555755 0.0357073 0)
(0.554997 0.058228 0)
(0.551707 0.0821992 0)
(0.545899 0.107505 0)
(0.537659 0.133984 0)
(0.527112 0.161425 0)
(0.514376 0.189551 0)
(0.499478 0.217991 0)
(0.482251 0.246233 0)
(0.46209 0.273519 0)
(0.437128 0.298324 0)
(0.404811 0.319524 0)
(0.363041 0.33726 0)
(0.312436 0.360137 0)
(0.238527 0.377911 0)
(0.140994 0.392887 0)
(-0.0278466 0.0177375 0)
(-0.079537 0.0167423 0)
(-0.129849 0.0174304 0)
(-0.179447 0.017128 0)
(-0.224655 0.0162749 0)
(-0.265285 0.0147994 0)
(-0.300851 0.013071 0)
(-0.331623 0.0113647 0)
(-0.358233 0.00981238 0)
(-0.381343 0.0084669 0)
(-0.401396 0.00736261 0)
(-0.418754 0.0063992 0)
(-0.433639 0.00551933 0)
(-0.446079 0.00467265 0)
(-0.456129 0.00380417 0)
(-0.463777 0.0029243 0)
(-0.469026 0.00202678 0)
(-0.471878 0.00110221 0)
(-0.472214 0.00019654 0)
(-0.470168 -0.00068334 0)
(-0.465884 -0.00152418 0)
(-0.459394 -0.00231002 0)
(-0.450808 -0.00297738 0)
(-0.440363 -0.00350905 0)
(-0.428194 -0.0040684 0)
(-0.414135 -0.00482506 0)
(-0.397989 -0.00573391 0)
(-0.379696 -0.0066711 0)
(-0.35927 -0.00760901 0)
(-0.336733 -0.00851492 0)
(-0.312099 -0.00941088 0)
(-0.285476 -0.010277 0)
(-0.257009 -0.0111057 0)
(-0.226766 -0.0118765 0)
(-0.194916 -0.0126209 0)
(-0.161696 -0.0132403 0)
(-0.127278 -0.0137685 0)
(-0.0918814 -0.0142017 0)
(-0.0554938 -0.0146775 0)
(-0.0187405 -0.0144769 0)
(-0.0333431 0.0611377 0)
(-0.0930011 0.0572927 0)
(-0.148934 0.0558867 0)
(-0.200204 0.0508497 0)
(-0.243693 0.0454636 0)
(-0.280798 0.0396022 0)
(-0.312027 0.0341103 0)
(-0.338573 0.0294035 0)
(-0.361512 0.0254886 0)
(-0.381589 0.0221664 0)
(-0.399104 0.0192409 0)
(-0.414126 0.0164849 0)
(-0.426646 0.0138274 0)
(-0.436674 0.0112326 0)
(-0.444264 0.00865318 0)
(-0.449459 0.00610199 0)
(-0.452343 0.00356948 0)
(-0.452992 0.0010457 0)
(-0.451571 -0.00142068 0)
(-0.448048 -0.00384353 0)
(-0.442359 -0.00619784 0)
(-0.434537 -0.00847964 0)
(-0.424578 -0.0106632 0)
(-0.412364 -0.0127265 0)
(-0.397848 -0.014748 0)
(-0.381261 -0.0168322 0)
(-0.362827 -0.0189759 0)
(-0.34271 -0.0211299 0)
(-0.321067 -0.0232594 0)
(-0.298016 -0.0253259 0)
(-0.273637 -0.0273259 0)
(-0.248065 -0.0292128 0)
(-0.221481 -0.0309692 0)
(-0.193973 -0.0325473 0)
(-0.165631 -0.0339858 0)
(-0.136628 -0.0352627 0)
(-0.107113 -0.0363203 0)
(-0.0771634 -0.0371685 0)
(-0.0466753 -0.0381752 0)
(-0.0161708 -0.038526 0)
(-0.0344501 0.108127 0)
(-0.0937508 0.0988224 0)
(-0.149493 0.0948089 0)
(-0.20085 0.0839327 0)
(-0.243612 0.073753 0)
(-0.28052 0.0634452 0)
(-0.311558 0.0543433 0)
(-0.337981 0.0468479 0)
(-0.36091 0.0407745 0)
(-0.381061 0.0356191 0)
(-0.39871 0.0309244 0)
(-0.413928 0.0264163 0)
(-0.426709 0.0220061 0)
(-0.437056 0.0176514 0)
(-0.445014 0.0133503 0)
(-0.450583 0.00909754 0)
(-0.453813 0.00492236 0)
(-0.454716 0.000825083 0)
(-0.453319 -0.00320703 0)
(-0.449687 -0.00717952 0)
(-0.443855 -0.0110801 0)
(-0.435879 -0.0149064 0)
(-0.425803 -0.0186891 0)
(-0.413646 -0.0224509 0)
(-0.399412 -0.0261488 0)
(-0.383141 -0.029711 0)
(-0.364938 -0.0331118 0)
(-0.344936 -0.0363841 0)
(-0.323273 -0.039514 0)
(-0.300089 -0.0425004 0)
(-0.275474 -0.0453425 0)
(-0.249599 -0.0479271 0)
(-0.222676 -0.0502845 0)
(-0.194828 -0.0523678 0)
(-0.166236 -0.0541837 0)
(-0.137024 -0.0557731 0)
(-0.107306 -0.0570742 0)
(-0.077235 -0.0581059 0)
(-0.0466675 -0.059471 0)
(-0.0162329 -0.060204 0)
(-0.0366098 0.154102 0)
(-0.0969517 0.139947 0)
(-0.154472 0.134433 0)
(-0.208209 0.117548 0)
(-0.251068 0.102843 0)
(-0.288126 0.0878117 0)
(-0.318396 0.07484 0)
(-0.343775 0.0643949 0)
(-0.365827 0.05611 0)
(-0.385447 0.0490897 0)
(-0.402832 0.0426448 0)
(-0.417921 0.0364051 0)
(-0.430631 0.0302834 0)
(-0.440935 0.0242206 0)
(-0.448857 0.0182231 0)
(-0.454378 0.0122639 0)
(-0.457542 0.00642871 0)
(-0.458392 0.000674809 0)
(-0.456951 -0.00499297 0)
(-0.453268 -0.0105604 0)
(-0.447382 -0.0160257 0)
(-0.439343 -0.0213776 0)
(-0.429196 -0.0266121 0)
(-0.417002 -0.0317337 0)
(-0.402844 -0.0367631 0)
(-0.386774 -0.0417056 0)
(-0.368816 -0.0465046 0)
(-0.349048 -0.0511107 0)
(-0.327596 -0.0554835 0)
(-0.304596 -0.0595959 0)
(-0.280062 -0.0634074 0)
(-0.254154 -0.0668917 0)
(-0.227111 -0.0700274 0)
(-0.199014 -0.0727941 0)
(-0.170029 -0.0751963 0)
(-0.1403 -0.0771978 0)
(-0.109968 -0.0788333 0)
(-0.0791882 -0.0801204 0)
(-0.0478263 -0.0819095 0)
(-0.0165935 -0.0830011 0)
(-0.0410715 0.207047 0)
(-0.105278 0.183781 0)
(-0.166271 0.176604 0)
(-0.222587 0.151546 0)
(-0.264053 0.131549 0)
(-0.300186 0.111132 0)
(-0.328323 0.0939208 0)
(-0.351616 0.0806836 0)
(-0.372217 0.0706425 0)
(-0.391116 0.062153 0)
(-0.408221 0.0541846 0)
(-0.423194 0.0463093 0)
(-0.435826 0.0384995 0)
(-0.446062 0.0307153 0)
(-0.453924 0.0230104 0)
(-0.459356 0.0153869 0)
(-0.462418 0.00785979 0)
(-0.463186 0.000451273 0)
(-0.461654 -0.00683045 0)
(-0.45788 -0.0139885 0)
(-0.451901 -0.0210124 0)
(-0.443767 -0.0278915 0)
(-0.433529 -0.0346194 0)
(-0.421247 -0.0411955 0)
(-0.407002 -0.0476405 0)
(-0.390841 -0.053936 0)
(-0.372807 -0.0600164 0)
(-0.352985 -0.0658583 0)
(-0.331482 -0.0714183 0)
(-0.308397 -0.0766654 0)
(-0.283785 -0.0814569 0)
(-0.257789 -0.0858994 0)
(-0.23058 -0.0898815 0)
(-0.202259 -0.0933912 0)
(-0.172967 -0.0964207 0)
(-0.142843 -0.0989579 0)
(-0.112033 -0.10101 0)
(-0.0807046 -0.102611 0)
(-0.0487315 -0.104865 0)
(-0.0168721 -0.106276 0)
(-0.0525553 0.25788 0)
(-0.121662 0.228926 0)
(-0.184397 0.219652 0)
(-0.243936 0.184914 0)
(-0.282193 0.159073 0)
(-0.316416 0.132832 0)
(-0.34097 0.111138 0)
(-0.36097 0.0955222 0)
(-0.379624 0.0844578 0)
(-0.397818 0.0749397 0)
(-0.414778 0.0656157 0)
(-0.42972 0.0561592 0)
(-0.442309 0.0466639 0)
(-0.452475 0.0371789 0)
(-0.460224 0.0277456 0)
(-0.465568 0.0184564 0)
(-0.468537 0.00923616 0)
(-0.469179 0.000179368 0)
(-0.467535 -0.00873419 0)
(-0.463648 -0.0174904 0)
(-0.457548 -0.0260793 0)
(-0.44929 -0.0344885 0)
(-0.438919 -0.0427059 0)
(-0.426499 -0.0507142 0)
(-0.412114 -0.0585501 0)
(-0.395791 -0.0662139 0)
(-0.377574 -0.0736173 0)
(-0.357557 -0.0807131 0)
(-0.33585 -0.0874574 0)
(-0.312512 -0.0938335 0)
(-0.287637 -0.0996645 0)
(-0.26139 -0.105052 0)
(-0.233884 -0.109903 0)
(-0.205238 -0.11419 0)
(-0.175581 -0.117894 0)
(-0.145048 -0.121013 0)
(-0.113786 -0.123527 0)
(-0.0819721 -0.125483 0)
(-0.0494826 -0.128236 0)
(-0.0171119 -0.129935 0)
(-0.0663461 0.339753 0)
(-0.139454 0.281716 0)
(-0.207357 0.268881 0)
(-0.27312 0.218379 0)
(-0.306533 0.184865 0)
(-0.337418 0.151889 0)
(-0.356342 0.125239 0)
(-0.371435 0.108128 0)
(-0.387654 0.0973905 0)
(-0.405374 0.0874895 0)
(-0.422451 0.0770202 0)
(-0.437515 0.0660095 0)
(-0.450096 0.0547921 0)
(-0.460194 0.0435969 0)
(-0.467828 0.0324086 0)
(-0.473033 0.0214108 0)
(-0.475873 0.0105308 0)
(-0.47638 -0.00017868 0)
(-0.474605 -0.010727 0)
(-0.470577 -0.0210827 0)
(-0.464333 -0.0312373 0)
(-0.455926 -0.0411764 0)
(-0.445393 -0.0508954 0)
(-0.4328 -0.0603479 0)
(-0.418239 -0.0695934 0)
(-0.401714 -0.0786378 0)
(-0.383267 -0.0873748 0)
(-0.363005 -0.0957527 0)
(-0.341035 -0.103725 0)
(-0.317363 -0.111171 0)
(-0.292123 -0.118091 0)
(-0.265518 -0.124446 0)
(-0.237611 -0.130183 0)
(-0.208534 -0.135262 0)
(-0.178424 -0.139667 0)
(-0.147405 -0.14339 0)
(-0.115631 -0.146382 0)
(-0.0832921 -0.148704 0)
(-0.0502606 -0.151966 0)
(-0.0173675 -0.153924 0)
(-0.105089 0.404159 0)
(-0.177058 0.325934 0)
(-0.24231 0.314644 0)
(-0.315599 0.248537 0)
(-0.337604 0.205663 0)
(-0.362826 0.16611 0)
(-0.373771 0.134823 0)
(-0.381979 0.117885 0)
(-0.395683 0.109519 0)
(-0.413667 0.100058 0)
(-0.431293 0.0885642 0)
(-0.446655 0.0759175 0)
(-0.459252 0.0629267 0)
(-0.469261 0.0499153 0)
(-0.47674 0.0370072 0)
(-0.481758 0.0242763 0)
(-0.484441 0.0117253 0)
(-0.484793 -0.000646027 0)
(-0.482862 -0.0128247 0)
(-0.478669 -0.0247814 0)
(-0.472258 -0.0365077 0)
(-0.463685 -0.0479827 0)
(-0.452963 -0.0592143 0)
(-0.440158 -0.0701217 0)
(-0.425384 -0.0807918 0)
(-0.408617 -0.0912086 0)
(-0.389909 -0.101306 0)
(-0.369378 -0.110992 0)
(-0.347049 -0.120226 0)
(-0.322997 -0.128778 0)
(-0.29738 -0.1368 0)
(-0.27032 -0.144151 0)
(-0.241929 -0.150795 0)
(-0.212341 -0.156694 0)
(-0.181696 -0.161831 0)
(-0.150103 -0.166136 0)
(-0.117729 -0.169625 0)
(-0.0847895 -0.17233 0)
(-0.051145 -0.176112 0)
(-0.0176623 -0.178294 0)
(-0.14207 0.547105 0)
(-0.211477 0.388529 0)
(-0.286749 0.378204 0)
(-0.364611 0.281331 0)
(-0.372619 0.223928 0)
(-0.391308 0.176408 0)
(-0.393014 0.138498 0)
(-0.390721 0.124119 0)
(-0.402174 0.121189 0)
(-0.422313 0.113166 0)
(-0.441449 0.1005 0)
(-0.457302 0.085944 0)
(-0.469886 0.0710297 0)
(-0.479709 0.0561363 0)
(-0.486963 0.0414819 0)
(-0.491776 0.0270216 0)
(-0.494253 0.0128003 0)
(-0.494423 -0.00123585 0)
(-0.492307 -0.0150377 0)
(-0.487926 -0.028603 0)
(-0.481326 -0.0419174 0)
(-0.472567 -0.054941 0)
(-0.46163 -0.0676602 0)
(-0.448584 -0.0800531 0)
(-0.433549 -0.0921602 0)
(-0.416502 -0.103967 0)
(-0.397507 -0.115456 0)
(-0.376668 -0.126485 0)
(-0.353946 -0.136921 0)
(-0.329455 -0.146718 0)
(-0.303392 -0.15584 0)
(-0.275819 -0.164218 0)
(-0.246877 -0.171803 0)
(-0.216705 -0.178546 0)
(-0.185416 -0.184399 0)
(-0.153163 -0.189323 0)
(-0.120136 -0.193326 0)
(-0.0865095 -0.196424 0)
(-0.052157 -0.200744 0)
(-0.0179979 -0.20311 0)
(-0.0458045 0.663843 0)
(-0.279926 0.427874 0)
(-0.371271 0.427388 0)
(-0.435048 0.285838 0)
(-0.417273 0.224735 0)
(-0.431063 0.174391 0)
(-0.420636 0.133334 0)
(-0.397003 0.125357 0)
(-0.404692 0.134131 0)
(-0.430123 0.128203 0)
(-0.452876 0.113442 0)
(-0.469731 0.0961883 0)
(-0.482194 0.079012 0)
(-0.491655 0.0621891 0)
(-0.498556 0.0457538 0)
(-0.503074 0.0296089 0)
(-0.505314 0.0137066 0)
(-0.505271 -0.00196436 0)
(-0.502941 -0.0173829 0)
(-0.498361 -0.0325617 0)
(-0.491546 -0.0474723 0)
(-0.482551 -0.0620551 0)
(-0.471386 -0.0762704 0)
(-0.458095 -0.0901586 0)
(-0.442761 -0.10372 0)
(-0.425405 -0.116949 0)
(-0.406091 -0.129837 0)
(-0.384848 -0.142242 0)
(-0.361703 -0.153928 0)
(-0.336773 -0.164981 0)
(-0.31018 -0.175255 0)
(-0.282033 -0.1847 0)
(-0.252463 -0.19325 0)
(-0.221603 -0.200846 0)
(-0.189605 -0.207441 0)
(-0.156632 -0.21303 0)
(-0.122852 -0.217557 0)
(-0.0884527 -0.221052 0)
(-0.0533007 -0.225927 0)
(-0.0183756 -0.228436 0)
(-0.00750719 0.100466 0)
(0.00658805 -0.109086 0)
(0.0338905 -0.258408 0)
(0.0671659 -0.309086 0)
(0.0951061 -0.293269 0)
(0.117837 -0.252849 0)
(0.138284 -0.214132 0)
(0.159231 -0.186912 0)
(0.182017 -0.171374 0)
(0.206621 -0.164168 0)
(0.232319 -0.161647 0)
(0.25826 -0.161046 0)
(0.283788 -0.160647 0)
(0.308523 -0.159565 0)
(0.332324 -0.157447 0)
(0.355199 -0.15422 0)
(0.377218 -0.149924 0)
(0.39845 -0.144612 0)
(0.41893 -0.138312 0)
(0.438651 -0.131015 0)
(0.457562 -0.122679 0)
(0.475575 -0.113242 0)
(0.492577 -0.102623 0)
(0.50843 -0.0907355 0)
(0.522984 -0.0774865 0)
(0.536071 -0.0627841 0)
(0.547511 -0.0465424 0)
(0.557115 -0.0286887 0)
(0.564693 -0.00917079 0)
(0.570055 0.0120317 0)
(0.573024 0.0348951 0)
(0.573463 0.0593557 0)
(0.57128 0.0852914 0)
(0.566456 0.112528 0)
(0.559042 0.140864 0)
(0.549136 0.170084 0)
(0.536812 0.199959 0)
(0.522031 0.230245 0)
(0.504539 0.260646 0)
(0.483723 0.290936 0)
(0.45834 0.320581 0)
(0.425052 0.34952 0)
(0.381817 0.376147 0)
(0.317767 0.412708 0)
(0.259731 0.448159 0)
(0.11166 0.530944 0)
(-0.00547176 0.0992237 0)
(0.0111601 -0.124384 0)
(0.0391448 -0.282494 0)
(0.0705547 -0.332079 0)
(0.0961443 -0.311969 0)
(0.117069 -0.268835 0)
(0.136864 -0.229928 0)
(0.158154 -0.204029 0)
(0.1818 -0.190092 0)
(0.20735 -0.18402 0)
(0.233841 -0.181939 0)
(0.260362 -0.18118 0)
(0.286305 -0.180249 0)
(0.311383 -0.178471 0)
(0.335544 -0.175638 0)
(0.358855 -0.171747 0)
(0.381414 -0.166849 0)
(0.403297 -0.16098 0)
(0.424533 -0.15413 0)
(0.445102 -0.146257 0)
(0.464942 -0.137287 0)
(0.483956 -0.127135 0)
(0.502022 -0.115704 0)
(0.519 -0.102892 0)
(0.53473 -0.0885929 0)
(0.549035 -0.0727044 0)
(0.561721 -0.0551311 0)
(0.572582 -0.0357948 0)
(0.581411 -0.0146431 0)
(0.587996 0.00834908 0)
(0.59216 0.0331304 0)
(0.59374 0.0596155 0)
(0.592609 0.0876235 0)
(0.588714 0.116921 0)
(0.582091 0.147267 0)
(0.572833 0.178438 0)
(0.561016 0.21026 0)
(0.546596 0.242625 0)
(0.529346 0.275446 0)
(0.508615 0.308836 0)
(0.483878 0.342932 0)
(0.451643 0.379172 0)
(0.413938 0.416414 0)
(0.345764 0.466387 0)
(0.305809 0.520457 0)
(0.129764 0.671463 0)
(-0.00373792 0.0953317 0)
(0.015881 -0.141135 0)
(0.0442618 -0.306353 0)
(0.0737837 -0.353771 0)
(0.0975401 -0.329305 0)
(0.117157 -0.284158 0)
(0.136665 -0.245886 0)
(0.158495 -0.22184 0)
(0.183016 -0.209677 0)
(0.209398 -0.204674 0)
(0.236513 -0.202877 0)
(0.263459 -0.201822 0)
(0.289724 -0.200286 0)
(0.315129 -0.197814 0)
(0.339706 -0.194321 0)
(0.363565 -0.18985 0)
(0.386815 -0.184445 0)
(0.409522 -0.178103 0)
(0.431701 -0.170779 0)
(0.453313 -0.162391 0)
(0.474284 -0.152839 0)
(0.494507 -0.142014 0)
(0.513855 -0.129805 0)
(0.532185 -0.116094 0)
(0.54933 -0.10076 0)
(0.565096 -0.0836855 0)
(0.579258 -0.0647625 0)
(0.591566 -0.0439092 0)
(0.601755 -0.0210837 0)
(0.609543 0.00371049 0)
(0.614751 0.0304895 0)
(0.61719 0.0591126 0)
(0.616731 0.08932 0)
(0.61337 0.120775 0)
(0.6072 0.153169 0)
(0.598368 0.186291 0)
(0.587013 0.220059 0)
(0.573123 0.254505 0)
(0.556551 0.289724 0)
(0.536693 0.326024 0)
(0.513667 0.363927 0)
(0.484345 0.405439 0)
(0.454306 0.451862 0)
(0.398867 0.511349 0)
(0.373286 0.582561 0)
(0.259319 0.756353 0)
(-0.00200479 0.0887387 0)
(0.0206975 -0.1591 0)
(0.0477565 -0.329511 0)
(0.0752999 -0.374396 0)
(0.0984574 -0.345804 0)
(0.117816 -0.299211 0)
(0.13761 -0.262217 0)
(0.160217 -0.240401 0)
(0.185624 -0.230075 0)
(0.212716 -0.226017 0)
(0.240288 -0.224344 0)
(0.267509 -0.22289 0)
(0.293992 -0.220734 0)
(0.319673 -0.217626 0)
(0.344648 -0.213579 0)
(0.369047 -0.208649 0)
(0.392966 -0.20285 0)
(0.416449 -0.196142 0)
(0.439489 -0.188437 0)
(0.462038 -0.179619 0)
(0.484015 -0.169562 0)
(0.505322 -0.158144 0)
(0.525853 -0.145237 0)
(0.545496 -0.130703 0)
(0.56412 -0.114395 0)
(0.581563 -0.0961586 0)
(0.597606 -0.0758515 0)
(0.611966 -0.0533654 0)
(0.624287 -0.0286645 0)
(0.6342 -0.00182312 0)
(0.641282 0.0270807 0)
(0.645123 0.0580279 0)
(0.645462 0.0907576 0)
(0.642336 0.124795 0)
(0.636041 0.159621 0)
(0.626988 0.194881 0)
(0.615561 0.23058 0)
(0.601906 0.266959 0)
(0.586003 0.304282 0)
(0.567424 0.342866 0)
(0.54666 0.383407 0)
(0.521822 0.427585 0)
(0.498167 0.47863 0)
(0.463892 0.541023 0)
(0.445642 0.617369 0)
(0.414981 0.758715 0)
(0.000139149 0.0792852 0)
(0.0255238 -0.177443 0)
(0.0488982 -0.350733 0)
(0.0736717 -0.394362 0)
(0.0974896 -0.362617 0)
(0.117981 -0.31484 0)
(0.138773 -0.279335 0)
(0.162342 -0.259848 0)
(0.188486 -0.251261 0)
(0.215939 -0.24795 0)
(0.243524 -0.246228 0)
(0.270549 -0.244299 0)
(0.296777 -0.24155 0)
(0.322248 -0.237904 0)
(0.347093 -0.233425 0)
(0.371427 -0.228154 0)
(0.39531 -0.222067 0)
(0.418756 -0.215082 0)
(0.44175 -0.207079 0)
(0.46425 -0.197919 0)
(0.486192 -0.187461 0)
(0.507511 -0.175587 0)
(0.528158 -0.162173 0)
(0.548104 -0.147071 0)
(0.567321 -0.130109 0)
(0.585766 -0.111084 0)
(0.603357 -0.0897642 0)
(0.619932 -0.0659118 0)
(0.635217 -0.0393284 0)
(0.648843 -0.00992653 0)
(0.660272 0.0216719 0)
(0.668657 0.0552099 0)
(0.673084 0.0902485 0)
(0.67295 0.1264 0)
(0.668288 0.16322 0)
(0.659758 0.200397 0)
(0.648263 0.237956 0)
(0.63441 0.276286 0)
(0.61848 0.315786 0)
(0.600521 0.356582 0)
(0.581399 0.399209 0)
(0.561025 0.444788 0)
(0.542209 0.49645 0)
(0.524774 0.557066 0)
(0.513366 0.627645 0)
(0.520289 0.7266 0)
(0.00347543 0.0662622 0)
(0.0317826 -0.195245 0)
(0.0517922 -0.369254 0)
(0.0712292 -0.414178 0)
(0.0943401 -0.381222 0)
(0.116251 -0.332255 0)
(0.138229 -0.297862 0)
(0.162503 -0.28036 0)
(0.188745 -0.273135 0)
(0.215688 -0.270215 0)
(0.242328 -0.268195 0)
(0.268189 -0.265672 0)
(0.293202 -0.262308 0)
(0.317488 -0.258139 0)
(0.341193 -0.253232 0)
(0.364402 -0.247576 0)
(0.387145 -0.241107 0)
(0.409435 -0.233716 0)
(0.431276 -0.225267 0)
(0.45266 -0.215605 0)
(0.473542 -0.204568 0)
(0.493871 -0.19207 0)
(0.51364 -0.178042 0)
(0.53284 -0.162374 0)
(0.551436 -0.14494 0)
(0.569376 -0.125588 0)
(0.586631 -0.104106 0)
(0.603248 -0.0802165 0)
(0.619364 -0.0535776 0)
(0.63484 -0.0236592 0)
(0.649779 0.0107357 0)
(0.663454 0.0488746 0)
(0.674885 0.089894 0)
(0.682844 0.132254 0)
(0.686273 0.174187 0)
(0.684841 0.214799 0)
(0.678861 0.254333 0)
(0.66875 0.293705 0)
(0.654774 0.333601 0)
(0.637614 0.373943 0)
(0.619133 0.415296 0)
(0.60136 0.459226 0)
(0.585945 0.508065 0)
(0.576928 0.564133 0)
(0.574054 0.626028 0)
(0.588201 0.698478 0)
(0.00900857 0.0472931 0)
(0.0442248 -0.214127 0)
(0.0685604 -0.385568 0)
(0.0787157 -0.431002 0)
(0.0933414 -0.399361 0)
(0.113207 -0.350306 0)
(0.135094 -0.316853 0)
(0.159221 -0.300822 0)
(0.184671 -0.294361 0)
(0.21023 -0.291322 0)
(0.235201 -0.288662 0)
(0.259397 -0.285349 0)
(0.282921 -0.281243 0)
(0.305973 -0.27643 0)
(0.328735 -0.270938 0)
(0.351303 -0.264715 0)
(0.373734 -0.257677 0)
(0.396088 -0.249709 0)
(0.418429 -0.240671 0)
(0.440797 -0.230377 0)
(0.463126 -0.218587 0)
(0.485388 -0.205265 0)
(0.5075 -0.19043 0)
(0.529171 -0.17384 0)
(0.549878 -0.15529 0)
(0.568952 -0.134619 0)
(0.585722 -0.111776 0)
(0.599864 -0.0868392 0)
(0.611668 -0.0600639 0)
(0.622462 -0.0319045 0)
(0.632796 -0.00223915 0)
(0.643118 0.0322799 0)
(0.653822 0.0702992 0)
(0.664041 0.111071 0)
(0.672664 0.153541 0)
(0.679413 0.197019 0)
(0.684067 0.241678 0)
(0.685273 0.288519 0)
(0.680753 0.336833 0)
(0.669866 0.383923 0)
(0.655194 0.428531 0)
(0.640537 0.472194 0)
(0.628197 0.51725 0)
(0.622385 0.566525 0)
(0.625176 0.619482 0)
(0.641024 0.676335 0)
(0.017229 0.0190973 0)
(0.0701255 -0.240571 0)
(0.115813 -0.398678 0)
(0.114365 -0.435014 0)
(0.105045 -0.407323 0)
(0.114197 -0.363934 0)
(0.133723 -0.333854 0)
(0.157522 -0.319548 0)
(0.182677 -0.313567 0)
(0.207834 -0.310229 0)
(0.232657 -0.307004 0)
(0.257254 -0.3032 0)
(0.28186 -0.298822 0)
(0.306774 -0.293974 0)
(0.332199 -0.288654 0)
(0.35824 -0.282771 0)
(0.384966 -0.27626 0)
(0.412491 -0.269044 0)
(0.440917 -0.261002 0)
(0.470344 -0.251958 0)
(0.500699 -0.241692 0)
(0.532344 -0.230123 0)
(0.563557 -0.216584 0)
(0.593992 -0.20073 0)
(0.623083 -0.182107 0)
(0.649985 -0.160107 0)
(0.673632 -0.13446 0)
(0.692947 -0.105391 0)
(0.706586 -0.0732697 0)
(0.713309 -0.0385904 0)
(0.714331 -0.00207993 0)
(0.710306 0.0371708 0)
(0.699239 0.0805498 0)
(0.684357 0.129151 0)
(0.6715 0.178464 0)
(0.665213 0.223464 0)
(0.667442 0.264194 0)
(0.675484 0.306485 0)
(0.682498 0.350745 0)
(0.683863 0.393396 0)
(0.680141 0.435629 0)
(0.673987 0.479187 0)
(0.667538 0.523214 0)
(0.66462 0.567344 0)
(0.669362 0.6118 0)
(0.685009 0.656716 0)
(0.0249994 -0.0281589 0)
(0.116476 -0.287043 0)
(0.199813 -0.412519 0)
(0.187595 -0.422068 0)
(0.139007 -0.39848 0)
(0.129202 -0.372488 0)
(0.146452 -0.352822 0)
(0.172075 -0.341935 0)
(0.199845 -0.336821 0)
(0.228143 -0.333815 0)
(0.256725 -0.33102 0)
(0.285758 -0.327964 0)