/*--------------------------------*- C++ -*----------------------------------*\
| =========                 |                                                 |
| \\      /  F ield         | OpenFOAM: The Open Source CFD Toolbox           |
|  \\    /   O peration     | Version:  3.0.1                                 |
|   \\  /    A nd           | Web:      www.OpenFOAM.org                      |
|    \\/     M anipulation  |                                                 |
\*---------------------------------------------------------------------------*/
FoamFile
{
    version     2.0;
    format      ascii;
    class       volVectorField;
    location    "3.1";
    object      ddt0(U);
}
// * * * * * * * * * * * * * * * * * * * * * * * * * * * * * * * * * * * * * //

dimensions      [0 1 -2 0 0 0 0];

internalField   nonuniform List<vector> 
15984
(
(0.000377891377778 -1.24881052681e-05 -0.000161119257064)
(0.00108644782729 -7.5507560865e-05 -6.99358717989e-05)
(0.00140946193592 2.0757604357e-05 5.43112233426e-06)
(0.000998512160174 0.000134747450844 7.3719147183e-05)
(0.000109458514772 0.000222769628118 9.1792434822e-05)
(-0.000960997087191 0.000235459021025 9.7555105629e-05)
(-0.00197677107097 0.000163510643256 9.38529211457e-05)
(-0.00260283041946 4.95548924376e-05 7.85309192261e-05)
(-0.002815849129 -5.18651799221e-05 5.59822361825e-05)
(-0.00252804600884 -0.000149819777149 3.68372602508e-05)
(-0.00204991939001 -0.000153982083729 2.07331318506e-05)
(-0.00154246375636 -0.000129075584921 5.155644532e-06)
(-0.00110894687805 -9.51133694975e-05 -4.88399577134e-06)
(-0.000780436210444 -6.38686344708e-05 -1.02957785314e-05)
(-0.000547203940286 -4.00560238867e-05 -1.16515931226e-05)
(-0.000392519745649 -2.34297403694e-05 -1.00060321195e-05)
(-0.000299833291408 -1.22939917881e-05 -6.76983833527e-06)
(-0.00025174849309 -5.0784162361e-06 -4.36309078575e-06)
(-0.000226679037177 -1.16234106008e-06 -4.79947549097e-06)
(-0.000198384586996 2.14511142991e-07 -1.03581417853e-05)
(-0.000139715959273 -5.04388995113e-08 -2.08381468786e-05)
(-3.1768634442e-05 -9.17491175624e-07 -3.38967410778e-05)
(0.00012953048931 -1.63998557636e-06 -4.57973572617e-05)
(0.000331862814814 -1.91068030605e-06 -5.31111574108e-05)
(0.000551031255493 -1.7872571283e-06 -5.38641690679e-05)
(0.000759468726321 -1.78529432251e-06 -4.77709761584e-05)
(0.000931538654952 -1.78721015053e-06 -3.56749687392e-05)
(0.00104800664207 -2.10030950953e-06 -1.99298074884e-05)
(0.00110285908399 -2.86056136072e-06 -4.32541921519e-06)
(0.00110486598332 -3.90432409818e-06 7.86952073808e-06)
(0.00107061119365 -4.69229968911e-06 1.56374665763e-05)
(0.00101575750567 -4.9023786834e-06 1.99617936738e-05)
(0.000949783832789 -4.12717461395e-06 2.29407197442e-05)
(0.000874966001695 -3.25677955197e-06 2.69587495589e-05)
(0.000779184234823 -2.05130289839e-06 2.567172305e-05)
(0.000666774725199 -3.46313731612e-07 2.78704876815e-05)
(0.000545032319339 1.27437424564e-06 3.17858062514e-05)
(0.000404459399508 2.51097559444e-06 3.55889069501e-05)
(0.000247433397062 2.80869923247e-06 3.90883676419e-05)
(8.32566517386e-05 2.26324580074e-06 4.10960093983e-05)
(0.000294613411489 0.000256143548474 -0.000391744947522)
(0.00111423907815 0.000351662617065 -0.000580732109763)
(0.00145230075043 0.000727076709664 -0.000597259494823)
(0.00103186499324 0.00102982692427 -0.000535825012935)
(0.000125370941621 0.00122771308516 -0.000515738750042)
(-0.00095896488546 0.00125033824172 -0.000502497852896)
(-0.00198003690055 0.00108763687264 -0.000492527546102)
(-0.0026469897735 0.000806055170759 -0.000489156576915)
(-0.00283946084301 0.000403583062305 -0.000436957685718)
(-0.00253717267253 4.9178714175e-05 -0.000339981701142)
(-0.00203446413384 -0.000134152836631 -0.000230949171993)
(-0.00152141946709 -0.000186361103625 -0.000138511934115)
(-0.00109183092116 -0.000170231270859 -7.9878394767e-05)
(-0.000770682108361 -0.000129579100452 -4.62436662443e-05)
(-0.000544522091191 -8.77439032676e-05 -2.79830432394e-05)
(-0.000395053883177 -5.34169630096e-05 -1.71680180444e-05)
(-0.00030605095935 -2.82576626111e-05 -1.01158710544e-05)
(-0.0002607830885 -1.14038210583e-05 -6.65197500865e-06)
(-0.000237875081179 -1.75207609198e-06 -7.72617226697e-06)
(-0.000210801810394 1.97718195191e-06 -1.46645225783e-05)
(-0.000152125603863 1.81318795351e-06 -2.65090424413e-05)
(-4.30391104762e-05 -2.41320379015e-07 -4.05425933914e-05)
(0.000119963353226 -2.22542385038e-06 -5.25674919194e-05)
(0.000323852295952 -3.39294109324e-06 -5.93031245236e-05)
(0.000543853887629 -3.72017527673e-06 -5.9240595189e-05)
(0.000752687747102 -3.93170008107e-06 -5.23131764279e-05)
(0.000924957873753 -4.06918448582e-06 -3.94989775974e-05)
(0.00104134338555 -4.72026021064e-06 -2.33582579177e-05)
(0.0010962512021 -6.42805947713e-06 -7.99887976621e-06)
(0.00109898995155 -8.48485639909e-06 3.75718426662e-06)
(0.00106637849499 -1.00723526361e-05 1.09314749394e-05)
(0.00101395965958 -1.03710702627e-05 1.52365538598e-05)
(0.000950167301006 -8.65809733257e-06 1.95973867501e-05)
(0.000876855639436 -6.23618537039e-06 2.43035557998e-05)
(0.000782364254357 -5.07038323972e-06 2.58787277384e-05)
(0.000670447059079 -2.04838937075e-06 2.97253960397e-05)
(0.000548366338523 2.37393523913e-06 3.51192534936e-05)
(0.000406812308801 5.29857016515e-06 4.03396839912e-05)
(0.000248345202148 5.75899225619e-06 4.41992005914e-05)
(8.20960376509e-05 4.10701535528e-06 4.40706008456e-05)
(0.000304215711326 0.000708411352155 -0.000428939551527)
(0.00124940126117 0.00104191662917 -0.000684037508208)
(0.00157610447658 0.00164388195335 -0.000630152830904)
(0.00110168996268 0.00208646224289 -0.000530592917298)
(0.000158994717638 0.00235976832703 -0.000497428761782)
(-0.000961317532133 0.0023874890482 -0.000480898183971)
(-0.00201157331567 0.00214681249956 -0.000473935474028)
(-0.00272618269556 0.00171555246708 -0.000489613023396)
(-0.0029318073333 0.00108704829006 -0.000488691584619)
(-0.00261757189774 0.000470836919842 -0.000432497328574)
(-0.00206344659113 6.03262464417e-05 -0.00031801599632)
(-0.00150809098155 -0.000133179126047 -0.000200350277924)
(-0.00106103410368 -0.000180570871893 -0.000115660748881)
(-0.000737547398658 -0.000160469731665 -6.5593063687e-05)
(-0.00051622629176 -0.000117632279389 -3.72836120501e-05)
(-0.000373640907004 -7.44499702118e-05 -2.11365493923e-05)
(-0.000291238505501 -3.97438610425e-05 -1.13853318826e-05)
(-0.000251571854133 -1.53010782021e-05 -6.66067832657e-06)
(-0.000233226434155 -7.30810332754e-07 -7.65587992899e-06)
(-0.000209455135086 5.62225411516e-06 -1.50509418464e-05)
(-0.000152709016155 6.36671779701e-06 -2.77765066915e-05)
(-4.42645611428e-05 4.09117693387e-06 -4.24215451108e-05)
(0.000118981411137 1.27411934151e-06 -5.47595940287e-05)
(0.000323267554673 -9.21483870847e-07 -6.13091324563e-05)
(0.000543409407595 -2.16170653766e-06 -6.0990378115e-05)
(0.000752117327473 -2.77224788409e-06 -5.37091095925e-05)
(0.000924045259355 -3.53285474142e-06 -4.06286374382e-05)
(0.00103975037744 -4.56676655131e-06 -2.42388123409e-05)
(0.00109407196383 -6.71459362884e-06 -8.81700143078e-06)
(0.00109679261739 -9.13245710189e-06 2.59604685812e-06)
(0.00106482061169 -1.09905619972e-05 9.38567150835e-06)
(0.00101368742597 -1.12454286075e-05 1.36210250467e-05)
(0.000951150292867 -9.36775172076e-06 1.84550331362e-05)
(0.000877641401045 -6.02928680312e-06 2.29411635011e-05)
(0.000783188727801 -5.91599764002e-06 2.58864224335e-05)
(0.00067272813083 -2.08077647403e-06 3.22127859287e-05)
(0.000550782423358 1.67053739629e-06 3.65533261993e-05)
(0.000407800339144 5.77485393272e-06 4.18778932918e-05)
(0.000247876293552 6.85544588505e-06 4.54433648124e-05)
(8.136746669e-05 4.70844763381e-06 4.38676614467e-05)
(0.000399418131497 0.00104870876348 -0.000407357468562)
(0.00151424662141 0.00154640813067 -0.000586838470799)
(0.00180884698481 0.00228825295366 -0.000398645375637)
(0.00124846153795 0.0027961182681 -0.000222649308252)
(0.000222837916208 0.00311489621812 -0.000161524833179)
(-0.000985768090249 0.00314578692897 -0.000140388131567)
(-0.00211358876584 0.00285832766975 -0.000162388233682)
(-0.0028982681999 0.00233943157951 -0.000238178391951)
(-0.00314471148178 0.00156775610155 -0.000335355014427)
(-0.00280530280695 0.000789367331153 -0.000386632720423)
(-0.00217304719353 0.000232621064718 -0.000331001269743)
(-0.00154156235904 -6.37049659604e-05 -0.000226993169463)
(-0.00104895220386 -0.000166527156319 -0.000139618657336)
(-0.000708919134444 -0.000168941040595 -8.14161346335e-05)
(-0.000485620274186 -0.000131045527689 -4.6381307142e-05)
(-0.000347636011103 -8.50596361873e-05 -2.53326356343e-05)
(-0.000271808970184 -4.53507896955e-05 -1.25876034691e-05)
(-0.000238646806229 -1.64431358155e-05 -6.23729300735e-06)
(-0.000225908709204 1.11359927896e-06 -6.75765715384e-06)
(-0.000206324475459 9.11018353958e-06 -1.42479233866e-05)
(-0.000152145126904 1.03233390027e-05 -2.74527508073e-05)
(-4.47635026337e-05 7.8754098875e-06 -4.26692213845e-05)
(0.000118417019877 4.35029713217e-06 -5.54183343249e-05)
(0.000323053499593 1.17593486649e-06 -6.20498386621e-05)
(0.000543529213506 -6.95291618852e-07 -6.15126464002e-05)
(0.000752181425744 -1.85239408418e-06 -5.41802501118e-05)
(0.000923804742752 -3.2610417879e-06 -4.08669484652e-05)
(0.00103903609734 -4.76979977995e-06 -2.4366427984e-05)
(0.00109286392805 -7.15272900189e-06 -8.98872551539e-06)
(0.00109557548975 -9.79665938931e-06 2.14949598965e-06)
(0.00106422453084 -1.17225832988e-05 8.74272998407e-06)
(0.00101420279034 -1.19455259281e-05 1.2940483431e-05)
(0.000952748645158 -1.013796028e-05 1.79767493098e-05)
(0.000878874697133 -6.70484871974e-06 2.23262346443e-05)
(0.000784795610403 -6.51285396435e-06 2.61050669103e-05)
(0.000674644629095 -1.64192051176e-06 3.27896513864e-05)
(0.000552620145704 1.21834205797e-06 4.07504572396e-05)
(0.000409536841426 1.71738388289e-06 4.42607853631e-05)
(0.000247884653248 6.29311932566e-06 4.6113528672e-05)
(8.09447471022e-05 4.56924468437e-06 4.36075669468e-05)
(0.000552913057248 0.00125965951938 -0.000385838585987)
(0.00185155155173 0.00181264115798 -0.000441086241483)
(0.00210789208169 0.00259452357807 -9.99695073171e-05)
(0.00145745017863 0.00308794652287 0.00017437478577)
(0.000319083181874 0.00341948551034 0.000297515020527)
(-0.00103910613251 0.00345272216213 0.000315468508475)
(-0.00227279711738 0.00314493374187 0.000232125834624)
(-0.00312448810307 0.00260975674733 6.00345966354e-05)
(-0.00342065768161 0.00180387566134 -0.000141455382301)
(-0.00305860563647 0.000978666367771 -0.000306679729055)
(-0.00234074579513 0.000358327550948 -0.000324648169703)
(-0.00161537746307 5.76179696037e-06 -0.000247540243913)
(-0.00105992589082 -0.000137782256498 -0.00016096211261)
(-0.000689813416327 -0.00015944182766 -9.62925674756e-05)
(-0.00045781208137 -0.000129569085325 -5.52631874508e-05)
(-0.000321485031838 -8.57121682284e-05 -2.94293961287e-05)
(-0.000251353291129 -4.5462537594e-05 -1.35654928777e-05)
(-0.000224751564068 -1.54755644661e-05 -5.56896504383e-06)
(-0.000217946406022 2.99545343036e-06 -5.39663243018e-06)
(-0.000202908966388 1.15328099798e-05 -1.29724372198e-05)
(-0.000151616667087 1.29220234274e-05 -2.66235409263e-05)
(-4.5571047193e-05 1.02826802586e-05 -4.24479941636e-05)
(0.000117338394724 6.25830876742e-06 -5.56301835877e-05)
(0.000322376606166 2.63227056021e-06 -6.23009467186e-05)
(0.000543281104327 3.18800842563e-07 -6.18146165462e-05)
(0.000751909369253 -1.3454282135e-06 -5.44554653711e-05)
(0.000923341877895 -3.07886533167e-06 -4.10252724884e-05)
(0.00103821974791 -4.8889943527e-06 -2.44923132211e-05)
(0.00109167418275 -7.37832408369e-06 -9.21029262899e-06)
(0.00109445397443 -1.00227699506e-05 1.73941524235e-06)
(0.00106374131962 -1.18655101726e-05 8.14384801452e-06)
(0.0010147407775 -1.20336195999e-05 1.23390486936e-05)
(0.000954294807719 -1.03331347459e-05 1.74926541506e-05)
(0.000880078325715 -7.00780412403e-06 2.17647106396e-05)
(0.000786344121063 -6.66731737933e-06 2.62651875561e-05)
(0.000677108093641 -2.0478073508e-06 3.30032681088e-05)
(0.000552869575805 2.25976233193e-06 4.12982260579e-05)
(0.000410549847594 2.78169249321e-06 5.2796532824e-05)
(0.000249515573928 5.63686198324e-06 4.67778306832e-05)
(8.07556233751e-05 4.28355315924e-06 4.33626231853e-05)
(0.000728081241225 0.00130134943384 -0.000368397230591)
(0.00219297906845 0.00181987635629 -0.000302892030641)
(0.00240887088017 0.00254975421234 0.000167526266413)
(0.00166640010053 0.00292603872312 0.000495697422333)
(0.000413846493008 0.00322139750492 0.00064469913925)
(-0.00108505098215 0.00326064319887 0.000659374183721)
(-0.00242736165649 0.00299042016053 0.000543416564711)
(-0.00333485377833 0.00252760049235 0.00033278313247)
(-0.00370176094298 0.00179418736524 3.96591547654e-05)
(-0.00332735896621 0.00102141961069 -0.000226173254419)
(-0.00253484316939 0.000416541742433 -0.000313608406686)
(-0.00171308709297 5.41658859799e-05 -0.000263627744872)
(-0.00108632672652 -0.00010386825511 -0.000179251068085)
(-0.000679039841354 -0.000138468167743 -0.000109829726358)
(-0.000434405401143 -0.000116949804907 -6.28775898462e-05)
(-0.000297455999142 -7.8400795552e-05 -3.2910913939e-05)
(-0.000231854252003 -4.127383276e-05 -1.40424633343e-05)
(-0.00021132903318 -1.30865967069e-05 -4.53417032071e-06)
(-0.000210256937725 4.41107104431e-06 -3.793814746e-06)
(-0.000199698194492 1.24916536413e-05 -1.142892954e-05)
(-0.000151321056708 1.37357773494e-05 -2.54877732007e-05)
(-4.67025485922e-05 1.10247954125e-05 -4.18808510525e-05)
(0.00011597473083 6.92676692252e-06 -5.54138333798e-05)
(0.000321393990339 3.29509873472e-06 -6.24282425345e-05)
(0.00054266651726 7.17063048449e-07 -6.2003295475e-05)
(0.000751378047998 -1.14641575396e-06 -5.4662214371e-05)
(0.000922694776257 -2.96527768675e-06 -4.12158721351e-05)
(0.00103730261804 -4.86159653359e-06 -2.47015997648e-05)
(0.0010904952213 -7.26990022552e-06 -9.53152469237e-06)
(0.00109340373091 -9.72748565715e-06 1.20891875693e-06)
(0.00106331488276 -1.13765147124e-05 7.45641696278e-06)
(0.0010152354172 -1.14770705051e-05 1.16741698248e-05)
(0.000955693036102 -9.92311837807e-06 1.69124689422e-05)
(0.000881182755879 -6.90260200854e-06 2.1168448321e-05)
(0.000787725070302 -6.50259926965e-06 2.62797647638e-05)
(0.000679478597105 -2.46341666354e-06 3.30708348205e-05)
(0.000555341238038 1.67553222435e-06 4.12985923954e-05)
(0.000411439125824 5.52254256472e-06 5.34552671515e-05)
(0.000248932748354 4.77670257222e-06 4.69004489819e-05)
(8.06421844179e-05 3.74704773435e-06 4.34110610358e-05)
(0.000881804927928 0.00118435728201 -0.000357266758657)
(0.00248229614453 0.00160545381395 -0.000190399941059)
(0.00264546427804 0.00224677943808 0.000367969553958)
(0.00185958555808 0.00252703658138 0.000693476319735)
(0.000503958942063 0.00280079782639 0.000879057066297)
(-0.00111729231734 0.00284419385504 0.000893048886)
(-0.00255583383153 0.00260509602552 0.000743899237725)
(-0.00349597317518 0.00221207627357 0.000527834361548)
(-0.00395267430116 0.00159185992501 0.00019283140461)
(-0.00357006035033 0.000931214535048 -0.000155917570854)
(-0.00272370075277 0.000405558471755 -0.000301621610861)
(-0.0018151187944 7.8130920103e-05 -0.000275890531177)
(-0.00112022679134 -7.10596164801e-05 -0.000195326802488)
(-0.000675508292424 -0.000110538015243 -0.000121167999869)
(-0.000416079215041 -9.66279691296e-05 -6.90747224955e-05)
(-0.000277033500108 -6.53240492707e-05 -3.53663782484e-05)
(-0.000214810256394 -3.41067600843e-05 -1.4050503405e-05)
(-0.000199470112365 -1.00480679176e-05 -3.25545661898e-06)
(-0.000203486715427 4.94233183188e-06 -2.05634833682e-06)
(-0.000196967131765 1.18144951955e-05 -9.81917502144e-06)
(-0.000151247410099 1.27369730268e-05 -2.42830887897e-05)
(-4.79293356615e-05 1.02122434818e-05 -4.11522819828e-05)
(0.000114499529149 6.47528821442e-06 -5.51164623982e-05)
(0.000320238473612 3.15279282746e-06 -6.24177735047e-05)
(0.000541893161475 6.74386986148e-07 -6.20788153883e-05)
(0.000750732740551 -1.12193844235e-06 -5.4776989644e-05)
(0.000921980200714 -2.82166985126e-06 -4.13872312827e-05)
(0.0010363883413 -4.5783974645e-06 -2.49354927974e-05)
(0.00108940644715 -6.70295961319e-06 -9.90618719751e-06)
(0.00109247561869 -8.80880985164e-06 6.4699546434e-07)
(0.00106295719948 -1.01774232029e-05 6.76875172231e-06)
(0.00101567451662 -1.02195686112e-05 1.10246045576e-05)
(0.000956899958478 -8.8775999564e-06 1.63251139812e-05)
(0.000882128261635 -6.33314863031e-06 2.06087984083e-05)
(0.000788878080729 -5.99711948979e-06 2.62141936441e-05)
(0.000681466163362 -2.68253846037e-06 3.30800996332e-05)
(0.000557102851857 6.6713460021e-07 4.12233819667e-05)
(0.00041233583588 2.93982919111e-06 5.17879668353e-05)
(0.00024899111989 3.35532302319e-06 4.69169030407e-05)
(8.06189893887e-05 2.89492713456e-06 4.3596854274e-05)
(0.00101504669891 0.000933755575658 -0.000353315572575)
(0.00270513408645 0.00122797980733 -0.000117303803372)
(0.00282830211511 0.00175467668427 0.000519797113825)
(0.00206012493941 0.00193844364059 0.000836204997839)
(0.000611403451835 0.00217476554886 0.00105421222353)
(-0.00115643951119 0.00221592232964 0.00106660572649)
(-0.00268002168482 0.00201834344533 0.000907058359235)
(-0.00361693229292 0.00171589061637 0.000670068154302)
(-0.00414767542562 0.00123915841034 0.000300676608994)
(-0.0037655046194 0.000735331456666 -0.000100690629897)
(-0.00288342945889 0.000333803881694 -0.000290610951207)
(-0.00190600195276 7.65180969618e-05 -0.000284202811481)
(-0.00115361496212 -4.48251852241e-05 -0.000207154069536)
(-0.000675962993371 -7.96063801534e-05 -0.000129735373998)
(-0.000402841352924 -7.14999936396e-05 -7.35825439443e-05)
(-0.00026114889664 -4.86297496266e-05 -3.67619950539e-05)
(-0.000201283817611 -2.52104281791e-05 -1.37819561663e-05)
(-0.000189996902138 -6.99941834298e-06 -1.92802599367e-06)
(-0.00019810579364 4.34471091657e-06 -4.64080139413e-07)
(-0.00019487684181 9.48107460136e-06 -8.35117054407e-06)
(-0.000151333066811 1.00478299469e-05 -2.31369934255e-05)
(-4.90909717957e-05 7.93717677887e-06 -4.04246987061e-05)
(0.000113167838071 5.01516115006e-06 -5.46920238601e-05)
(0.0003191723537 2.24698644542e-06 -6.23978685698e-05)
(0.000541114300615 2.37915948261e-07 -6.21140357668e-05)
(0.000750097008154 -1.21514488163e-06 -5.48241631745e-05)
(0.000921315936735 -2.58882319312e-06 -4.15241223581e-05)
(0.00103559060982 -4.00341946201e-06 -2.51440043126e-05)
(0.00108850125188 -5.65949110984e-06 -1.02398020743e-05)
(0.00109172627843 -7.26663798134e-06 1.57615502546e-07)
(0.0010626813123 -8.28682757091e-06 6.1878681545e-06)
(0.00101603683092 -8.29482780441e-06 1.04834631953e-05)
(0.000957862631652 -7.25315503737e-06 1.58308204165e-05)
(0.000882861482916 -5.34237079606e-06 2.01652902071e-05)
(0.000789769591021 -5.12436571974e-06 2.61408913852e-05)
(0.000683008064935 -2.64945708653e-06 3.30795716054e-05)
(0.000558344639361 -2.15126522441e-07 4.12528158038e-05)
(0.000413012209836 1.15071398026e-06 5.176778572e-05)
(0.00024928851652 1.81218376483e-06 4.71893071027e-05)
(8.07307732418e-05 1.78941347198e-06 4.3832882549e-05)
(0.00111335304522 0.000583132178916 -0.00035728810379)
(0.00285563121577 0.000751869584601 -8.49206707049e-05)
(0.00295719277325 0.00110421769039 0.000630050080264)
(0.00222797262341 0.00119861062272 0.000935408916347)
(0.00070903632086 0.0013694717856 0.00108834499567)
(-0.00119243433105 0.00139887586126 0.00110106367381)
(-0.00277294982174 0.00126200694527 0.0010321439035)
(-0.00369898973311 0.00107496362048 0.000769298416827)
(-0.00428712020669 0.000777264961732 0.000377735102024)
(-0.00389832480108 0.000463766311908 -6.37261359286e-05)
(-0.00299736790324 0.000215082651055 -0.000282207080972)
(-0.00197303734095 5.30375423932e-05 -0.000288978661044)
(-0.00117965641993 -2.48716015465e-05 -0.000214632860475)
(-0.000677811505278 -4.80759127012e-05 -0.000135168450311)
(-0.00039432456393 -4.3873515909e-05 -7.64016326938e-05)
(-0.000250366467848 -2.99941542322e-05 -3.74939475702e-05)
(-0.000191967155019 -1.55534938462e-05 -1.32895352806e-05)
(-0.000183461000932 -4.32169977035e-06 -8.21122766498e-07)
(-0.000194426176879 2.64111997906e-06 7.82979334066e-07)
(-0.000193499636209 5.72774571663e-06 -7.23827043264e-06)
(-0.000151496868869 5.99784554782e-06 -2.22739757412e-05)
(-4.99570597824e-05 4.5568459049e-06 -3.9770080607e-05)
(0.000112127808059 2.73823142696e-06 -5.4446289978e-05)
(0.000318293518609 7.89472511106e-07 -6.22179038447e-05)
(0.000540544715614 -4.893911803e-07 -6.20230536437e-05)
(0.0007496244136 -1.39227777063e-06 -5.48165555314e-05)
(0.000920814338483 -2.26340006271e-06 -4.16036738369e-05)
(0.00103500317271 -3.17131904373e-06 -2.5284879176e-05)
(0.00108785566478 -4.21731597685e-06 -1.04868533668e-05)
(0.00109120395353 -5.21346875404e-06 -1.91965732502e-07)
(0.00106249433783 -5.83628486795e-06 5.77793968949e-06)
(0.00101629477986 -5.8351774094e-06 1.01055747327e-05)
(0.000958528050345 -5.18667331848e-06 1.54888936014e-05)
(0.000883351559894 -4.03002126419e-06 1.98733430674e-05)
(0.000790370341043 -3.92576250819e-06 2.60928809698e-05)
(0.000684057467905 -2.41684388602e-06 3.30914711192e-05)
(0.000559145663515 -9.52163814615e-07 4.13353923388e-05)
(0.000413534899203 -2.11398566187e-07 5.25002612568e-05)
(0.000249644153483 4.04330889358e-07 4.73636474509e-05)
(8.08342615777e-05 4.17627980931e-07 4.40463670058e-05)
(0.00116458997177 0.000181569477069 -0.000363248468446)
(0.00292829437001 0.000235413898909 -7.90441087627e-05)
(0.00304328299136 0.000356954776042 0.000675262646519)
(0.00229921623264 0.00038887106703 0.00101153830475)
(0.000751464439866 0.000446671748555 0.00113161066464)
(-0.00120329059052 0.00045690602601 0.00114568241936)
(-0.00281085957661 0.000411950165375 0.00111502469335)
(-0.00373877700638 0.000349644258589 0.000815638713735)
(-0.00435911550948 0.000251584788638 0.00042103083801)
(-0.00396390270206 0.000147424945575 -4.57853731749e-05)
(-0.00305525247571 6.71762242216e-05 -0.000277768415622)
(-0.002007597514 1.49973657951e-05 -0.000291052847382)
(-0.00119333135404 -9.91715608439e-06 -0.000218147836228)
(-0.000679000782777 -1.69987442848e-05 -0.00013776998223)
(-0.000390114256686 -1.52786365458e-05 -7.76847278124e-05)
(-0.000244917892448 -1.050533982e-05 -3.77719976692e-05)
(-0.00018726401423 -5.7006492428e-06 -1.28975702763e-05)
(-0.000180187372421 -2.06139287135e-06 -1.9431060636e-07)
(-0.000192611391235 1.27209878466e-07 1.4588321909e-06)
(-0.000192847783316 1.02818595575e-06 -6.64437582196e-06)
(-0.000151622363039 1.03428479284e-06 -2.18356391573e-05)
(-5.04449128847e-05 4.91565790501e-07 -3.94314226306e-05)
(0.000111550500317 -1.58862010947e-07 -5.43039554685e-05)
(0.000317807784876 -8.46463985658e-07 -6.20886038973e-05)
(0.000540238379408 -1.28510458126e-06 -6.19266569477e-05)
(0.00074938109598 -1.57806735329e-06 -5.47917725834e-05)
(0.000920554350521 -1.86672694111e-06 -4.16459165573e-05)
(0.00103469801924 -2.16605392214e-06 -2.53528444134e-05)
(0.00108752591788 -2.50564863137e-06 -1.0619727607e-05)
(0.00109094141102 -2.82339465297e-06 -3.74431487259e-07)
(0.00106240108827 -3.02104343409e-06 5.56794850598e-06)
(0.00101642198855 -3.03056965827e-06 9.9180274748e-06)
(0.000958852868452 -2.84558505588e-06 1.53131867853e-05)
(0.000883583244335 -2.51514536938e-06 1.97355817488e-05)
(0.000790659508949 -2.50855378094e-06 2.60740549057e-05)
(0.000684573847899 -2.05252259657e-06 3.30930977222e-05)
(0.000559532127523 -1.60811226636e-06 4.14106809482e-05)
(0.000413808734409 -1.36886673253e-06 5.34594332802e-05)
(0.000249845024815 -1.18616167429e-06 4.75563745897e-05)
(8.08822779781e-05 -1.31054187441e-06 4.41381424279e-05)
(0.0011641091189 -0.000234151651584 -0.000363956250045)
(0.00292871774947 -0.000290072278576 -7.9983506545e-05)
(0.00304367194755 -0.000410119294015 0.000675708312701)
(0.00229871235552 -0.000437693983908 0.00101359103926)
(0.000751449625782 -0.000491831918768 0.00113316624018)
(-0.00120327375773 -0.000501653420285 0.00114667878746)
(-0.00281156064677 -0.00046002541231 0.00111286332731)
(-0.0037384642286 -0.000398861093971 0.00081540678892)
(-0.00435731459131 -0.000297352140367 0.000419559212488)
(-0.0039611993665 -0.000183198525904 -4.6794237002e-05)
(-0.00305239871887 -9.0100899718e-05 -0.000278072059868)
(-0.00200553739999 -2.78656537683e-05 -0.000291022920252)
(-0.00119210912351 3.27394994738e-06 -0.000218040009462)
(-0.000678373472947 1.37523934631e-05 -0.000137665692353)
(-0.000389867063452 1.35721637572e-05 -7.76085952645e-05)
(-0.000244896951522 9.22224766476e-06 -3.77314252801e-05)
(-0.00018735753074 4.17753713362e-06 -1.289758718e-05)
(-0.000180314436856 4.27703550996e-08 -2.1392276141e-07)
(-0.000192728315745 -2.66341111453e-06 1.43149020183e-06)
(-0.000192931846755 -3.98462578477e-06 -6.67631867366e-06)
(-0.000151668778764 -4.24490003578e-06 -2.18659979462e-05)
(-5.04640639115e-05 -3.82484941247e-06 -3.94508289328e-05)
(0.000111545012455 -3.2080509078e-06 -5.43250084713e-05)
(0.000317810828962 -2.53783108166e-06 -6.21039895284e-05)
(0.000540248113813 -2.07307780246e-06 -6.19345384098e-05)
(0.00074938850539 -1.73122522911e-06 -5.47988700689e-05)
(0.000920561257788 -1.42087596136e-06 -4.16654379705e-05)
(0.00103471059994 -1.08256637594e-06 -2.53695237998e-05)
(0.00108754146687 -6.83435957748e-07 -1.06353314233e-05)
(0.00109095409406 -3.02456756516e-07 -3.84145932634e-07)
(0.00106240080662 -6.80112042371e-08 5.56337766963e-06)
(0.00101640242758 -9.67855852071e-08 9.91515494793e-06)
(0.000958814655621 -3.98970612582e-07 1.53113833525e-05)
(0.000883549870612 -9.19239093176e-07 1.97337867712e-05)
(0.000790627594235 -1.00320480641e-06 2.60649954471e-05)
(0.000684529390293 -1.62908539268e-06 3.30818918684e-05)
(0.000559507895795 -2.2370701213e-06 4.14128731347e-05)
(0.000413781816458 -2.47952011852e-06 5.37568657814e-05)
(0.000249786324862 -2.85483841062e-06 4.75566372189e-05)
(8.08489702508e-05 -3.16489780984e-06 4.41202253286e-05)
(0.00111195988708 -0.000632809691394 -0.000359255372415)
(0.00285626120291 -0.000804217561852 -8.77788666608e-05)
(0.0029579519847 -0.00115843949558 0.000630582972249)
(0.00222785239972 -0.00125068646521 0.000936432253466)
(0.000709116578171 -0.00141931476181 0.00109213618027)
(-0.00119204192705 -0.00144738731936 0.00110461768391)
(-0.00277232662534 -0.00131193861418 0.00103225848793)
(-0.00369755967578 -0.0011244018003 0.000767846365101)
(-0.00428148615816 -0.000820605999569 0.000373778464307)
(-0.00389018211667 -0.000497229246749 -6.66001577576e-05)
(-0.00298897281684 -0.000236364780932 -0.000283020126257)
(-0.00196700574804 -6.50097869911e-05 -0.000288904199598)
(-0.00117608066963 1.86509222596e-05 -0.000214320853425)
(-0.000675982229029 4.49949602845e-05 -0.000134886246714)
(-0.000393599555451 4.22391420301e-05 -7.61886968116e-05)
(-0.000250301388803 2.87470202334e-05 -3.73653542347e-05)
(-0.000192243517229 1.40749476308e-05 -1.32687798594e-05)
(-0.000183840495273 2.35832027574e-06 -8.71220410142e-07)
(-0.000194776717862 -5.11643171878e-06 7.02974525879e-07)
(-0.000193750514244 -8.61236925693e-06 -7.33430561875e-06)
(-0.000151636481472 -9.1372485525e-06 -2.236169581e-05)
(-5.00139368823e-05 -7.81485881879e-06 -3.9823188764e-05)
(0.000112109409865 -6.04025899471e-06 -5.45047443052e-05)
(0.000318295673315 -4.08699677429e-06 -6.22469860716e-05)
(0.000540572618515 -2.77408697431e-06 -6.20338305609e-05)
(0.000749651967941 -1.84791669368e-06 -5.48437045495e-05)
(0.000920837128882 -9.62289323872e-07 -4.1655492542e-05)
(0.00103503895705 -2.02371350353e-08 -2.533367435e-05)
(0.00108790045417 1.08422115524e-06 -1.05356109641e-05)
(0.00109124033151 2.13805667095e-06 -2.27566497455e-07)
(0.00106249335652 2.7934589891e-06 5.75814639957e-06)
(0.00101623682563 2.75248146508e-06 1.00935175647e-05)
(0.000958413562623 1.98723469812e-06 1.54796563092e-05)
(0.000883251477693 6.37529555525e-07 1.98686040701e-05)
(0.000790274869837 4.56674865956e-07 2.60656779903e-05)
(0.000683921699465 -1.21922509284e-06 3.3056175274e-05)
(0.00055906129201 -2.85748689191e-06 4.1327651676e-05)
(0.000413449757929 -3.60642693525e-06 5.30882561611e-05)
(0.000249480196323 -4.42909647698e-06 4.73515972032e-05)
(8.07411843634e-05 -4.88422322421e-06 4.3990109811e-05)
(0.00101291097626 -0.000978134748245 -0.000355954846048)
(0.00270405105631 -0.00127647209109 -0.000120619679728)
(0.00282866758799 -0.00180875413904 0.000518089954867)
(0.00205825935908 -0.0019937347257 0.000835822638237)
(0.000610383219392 -0.00222898845951 0.00106019288682)
(-0.00115435637852 -0.00226852773847 0.00107220780771)
(-0.00267754738233 -0.0020696576246 0.000905021735165)
(-0.00361304607611 -0.00176358523359 0.000665661514743)
(-0.00413752089549 -0.00127741285819 0.000294241732814)
(-0.00375193811998 -0.000764367733023 -0.000105010045723)
(-0.00286997841183 -0.00035202151642 -0.000291691070299)
(-0.00189644969504 -8.68370147001e-05 -0.000283973170058)
(-0.00114795636936 3.93502141171e-05 -0.000206613624206)
(-0.000673049998306 7.68146875965e-05 -0.000129248781053)
(-0.00040168286497 6.99715774953e-05 -7.3249213531e-05)
(-0.000261053813152 4.74361596981e-05 -3.65444380609e-05)
(-0.000201736895382 2.38041947175e-05 -1.37347647298e-05)
(-0.000190622142183 5.13214073243e-06 -1.99122638806e-06)
(-0.000198681727772 -6.7039344956e-06 -5.89789954363e-07)
(-0.000195290485147 -1.22286274388e-05 -8.50155546208e-06)
(-0.000151563368271 -1.30401823908e-05 -2.32531547485e-05)
(-4.91887855722e-05 -1.1043679517e-05 -4.05291909845e-05)
(0.000113144549361 -8.19349763522e-06 -5.47816475995e-05)
(0.000319195702026 -5.3923800059e-06 -6.24874220956e-05)
(0.000541152858545 -3.35444002145e-06 -6.21981434056e-05)
(0.000750122898295 -1.893211553e-06 -5.48919156193e-05)
(0.000921346356689 -5.14058286295e-07 -4.1617281738e-05)
(0.00103564830704 9.31541951114e-07 -2.52318364302e-05)
(0.0010885734896 2.64502628481e-06 -1.03248905918e-05)
(0.00109178279806 4.3015195185e-06 9.28058184637e-08)
(0.00106267666173 5.34246064445e-06 6.15009622178e-06)
(0.00101593922197 5.30543444826e-06 1.04572654346e-05)
(0.000957670648711 4.14965660066e-06 1.5808465814e-05)
(0.000882694061765 2.03925678139e-06 2.01478229447e-05)