/*--------------------------------*- C++ -*----------------------------------*\
| =========                 |                                                 |
| \\      /  F ield         | OpenFOAM: The Open Source CFD Toolbox           |
|  \\    /   O peration     | Version:  3.0.1                                 |
|   \\  /    A nd           | Web:      www.OpenFOAM.org                      |
|    \\/     M anipulation  |                                                 |
\*---------------------------------------------------------------------------*/
FoamFile
{
    version     2.0;
    format      ascii;
    class       volVectorField;
    location    "3.1";
    object      ddt0(rho,U);
}
// * * * * * * * * * * * * * * * * * * * * * * * * * * * * * * * * * * * * * //

dimensions      [1 -2 -2 0 0 0 0];

internalField   nonuniform List<vector> 
15984
(
(0.37721129969 -0.0124656180333 -0.160829311991)
(1.08449254324 -0.0753716592639 -0.069810020291)
(1.40692517564 0.0207202465051 0.00542134514386)
(0.996714847118 0.134504904433 0.0735864561733)
(0.109261398988 0.222368505016 0.0916272638674)
(-0.959267080914 0.235035052597 0.0973795600216)
(-1.97321295207 0.163216328806 0.0936839902531)
(-2.59814608846 0.0494657170342 0.0783895768437)
(-2.81078186345 -0.051771825179 0.0558814617618)
(-2.5234969039 -0.14955015917 0.0367709362482)
(-2.04623083812 -0.153704995681 0.020695793472)
(-1.53968874952 -0.128843356668 0.00514635034421)
(-1.10695198106 -0.0949422633824 -0.00487521668495)
(-0.779031863871 -0.0637537024984 -0.0102772541248)
(-0.546219286308 -0.039983943009 -0.0116306261719)
(-0.391813443407 -0.0233875790056 -0.0099880253951)
(-0.299293751122 -0.0122718688893 -0.00675765470777)
(-0.251295450118 -0.00506927790551 -0.0043552381975)
(-0.226271110877 -0.00116025070902 -0.00479083739362)
(-0.19802757208 0.000214123975992 -0.0103394986687)
(-0.139464567179 -5.03494548773e-05 -0.020800641112)
(-0.0317115620607 -0.000915841332829 -0.0338357315615)
(0.129297290519 -0.00163703455519 -0.0457149277798)
(0.331265405902 -0.00190724246429 -0.053015563945)
(0.550039388161 -0.00178404108773 -0.0537672190864)
(0.758101663623 -0.00178208209328 -0.0476849925557)
(0.929861933985 -0.00178399465282 -0.0356107589354)
(1.04612034566 -0.00209653036453 -0.0198939374936)
(1.10087409675 -0.00285541348617 -0.00431763459885)
(1.10287739315 -0.00389729761577 0.00785535641034)
(1.06868426422 -0.00468385497996 0.0156093212099)
(1.01392931244 -0.00489355586733 0.0199258653433)
(0.948074387249 -0.00411974700164 0.022899430047)
(0.873391221655 -0.00325091846062 0.0269102284096)
(0.77778184908 -0.00204761139604 0.0256255186159)
(0.665574655341 -0.00034569083592 0.0278203260198)
(0.544051364029 0.00127208026778 0.0317285978691)
(0.403731459672 0.00250645605684 0.0355248546831)
(0.246988081113 0.0028036439118 0.0390180188613)
(0.0831068110694 0.00225917199769 0.0410220473659)
(0.294083215686 0.255682604958 -0.391039956947)
(1.11223373983 0.351029715368 -0.579686943876)
(1.44968690727 0.725768075118 -0.596184539568)
(1.03000711614 1.02797260327 -0.534860220054)
(0.125145286414 1.22550326455 -0.514810447384)
(-0.957238785706 1.24808772545 -0.501593395089)
(-1.97647205402 1.08567843916 -0.491640694354)
(-2.64222584481 0.804604428677 -0.488276196555)
(-2.83435111692 0.402856824727 -0.436171378345)
(-2.5326072061 0.049090257373 -0.339369951851)
(-2.03080336404 -0.133911411992 -0.230533628148)
(-1.51868210105 -0.186025773171 -0.138262737332)
(-1.08986692887 -0.169925041206 -0.079734717731)
(-0.769295654215 -0.129345977213 -0.0461604772603)
(-0.543542280809 -0.0875860086741 -0.0279326909637)
(-0.394343033015 -0.0533208405566 -0.0171371252197)
(-0.305500262487 -0.0282068154421 -0.0100976677166)
(-0.260313842393 -0.0113833034235 -0.00664000451141)
(-0.237447044718 -0.00174892741472 -0.00771226769087)
(-0.210422486421 0.00197361973564 -0.0146381297239)
(-0.151851882444 0.00180992149725 -0.0264613312125)
(-0.0429617249575 -0.000240888679 -0.0404696239346)
(0.119747362368 -0.00222142081959 -0.052472878928)
(0.323269339422 -0.00338683651227 -0.0591963879842)
(0.542874978382 -0.00371348167454 -0.059133972082)
(0.751332992089 -0.00392462568277 -0.052219022244)
(0.923293071705 -0.00406186251348 -0.0394278866231)
(1.03946912386 -0.00471176634574 -0.023316217552)
(1.09427812547 -0.00641649178713 -0.00798448364316)
(1.09701195797 -0.00846958683984 0.00375042148037)
(1.06445920929 -0.0100542259016 0.0109117997393)
(1.01213473028 -0.0103524059125 0.0152091304625)
(0.948457194064 -0.00864251593156 0.0195621149617)
(0.87527748631 -0.00622496281659 0.0242598142217)
(0.780956168293 -0.00506125872548 0.0258321514365)
(0.669240398738 -0.00204470363689 0.0296718966672)
(0.547379398047 0.00236966187194 0.0350560464468)
(0.406080145485 0.00528903324468 0.0402670823914)
(0.247898253964 0.00574862679986 0.0441196551238)
(0.0819482889445 0.00409962272683 0.0439912869092)
(0.303668231037 0.707136472457 -0.428167611968)
(1.24715210632 1.04004091721 -0.682806111464)
(1.57326683032 1.64092219516 -0.629018285516)
(1.09970699884 2.0827067716 -0.529637889509)
(0.15870852466 2.35552071443 -0.496533383742)
(-0.959587154934 2.38319154533 -0.480032563139)
(-2.00795256142 2.14294835521 -0.473082416781)
(-2.72127516008 1.71246411916 -0.48873161768)
(-2.9265312497 1.08509205659 -0.487812143989)
(-2.61286176117 0.469989726565 -0.431719103622)
(-2.05973369563 0.0602177457023 -0.317443790425)
(-1.50537752148 -0.132939460303 -0.199989809053)
(-1.0591253801 -0.180246009911 -0.115452691568)
(-0.736220645204 -0.160181046227 -0.0654750734384)
(-0.515297497238 -0.117420619696 -0.0372165315834)
(-0.372968595218 -0.0743159984843 -0.0210985163484)
(-0.290714469062 -0.0396723453811 -0.0113648451379)
(-0.251119192951 -0.0152735497051 -0.00664869319376)
(-0.232806770127 -0.000729502032473 -0.00764210265956)
(-0.209078243867 0.00561212969003 -0.0150238546191)
(-0.152434250716 0.00635525422462 -0.0277265156297)
(-0.044184972173 0.00408380929272 -0.0423451950217)
(0.118767187242 0.0012718221809 -0.0546610368675)
(0.322685658956 -0.000919829097809 -0.0611987878749)
(0.542431306155 -0.00215781936721 -0.060880607263)
(0.750763595879 -0.00276726158678 -0.0536124432798)
(0.922382099522 -0.00352649923865 -0.040555513691)
(1.03787898075 -0.00455854998833 -0.0241951874443)
(1.09210281032 -0.00670251118351 -0.00880113317674)
(1.09481858016 -0.00911602286642 0.00259137359304)
(1.06290413182 -0.0109707834911 0.00936877817068)
(1.01186298857 -0.0112251913624 0.0135965090189)
(0.949438420752 -0.00935089382295 0.0184218171649)
(0.876061836394 -0.00601843726981 0.0228998737817)
(0.781779160491 -0.00590535175281 0.0258398321644)
(0.671517368819 -0.00207703289309 0.0321548097712)
(0.54979113715 0.00166752964256 0.0364875381566)
(0.407066398725 0.00576445945923 0.0418025232543)
(0.24743019298 0.00684310671077 0.0453615807102)
(0.0812210340392 0.00469997228983 0.0437887150635)
(0.398699257414 1.04682129454 -0.406624305272)
(1.51152104604 1.54362467022 -0.585782189372)
(1.80559119624 2.28413427463 -0.397927846444)
(1.24621430758 2.79108525554 -0.222248539753)
(0.222436786462 3.10928921645 -0.161234076183)
(-0.983993668391 3.14012431447 -0.140135421129)
(-2.10978451164 2.85318305382 -0.162095962289)
(-2.89305143789 2.33522072133 -0.23774968615)
(-3.13905167035 1.56493450645 -0.334751464407)
(-2.80025480045 0.787946955675 -0.385937024935)
(-2.16913721825 0.232202554333 -0.330405716371)
(-1.53878853261 -0.0635902899694 -0.22658474024)
(-1.04706490317 -0.166227497471 -0.139367458123)
(-0.707643958507 -0.168637129119 -0.0812696877306)
(-0.484746634168 -0.130809753159 -0.0462978652315)
(-0.3470104972 -0.0849065711867 -0.0252870522098)
(-0.271319893943 -0.0452691834658 -0.01256495371)
(-0.238217397998 -0.016413552468 -0.00622607044511)
(-0.22550221682 0.00111158739902 -0.00674549724289)
(-0.205953214747 0.00909378099701 -0.0142222819208)
(-0.151871373786 0.010304753818 -0.0274033429706)
(-0.0446830145758 0.00786123092357 -0.0425924263775)
(0.118203813811 0.00434246301199 -0.05531859288)
(0.322471990098 0.0011738142807 -0.0619381617513)
(0.542550891078 -0.00069404407378 -0.0614019355518)
(0.750827573081 -0.00184906366571 -0.0540827359321)
(0.922142008965 -0.00325517574362 -0.0407933959395)
(1.03716597756 -0.00476121796404 -0.024322573586)
(1.09089693926 -0.00713985810888 -0.00897254846112)
(1.09360363392 -0.00977902976949 0.00214562609811)
(1.06230911452 -0.011701487302 0.00872699345046)
(1.01237741513 -0.0119240286117 0.0129171918457)
(0.951033887071 -0.0101197161341 0.0179443937322)
(0.877292904004 -0.00669278329403 0.0222860512235)
(0.783383143154 -0.00650113380926 0.02605808267)
(0.673430408782 -0.00163896673397 0.0327306363862)
(0.551625545144 0.00121614817851 0.0406771146017)
(0.408799770443 0.00171429190304 0.044181125968)
(0.247438536444 0.0062817921199 0.0460305380602)
(0.080799075771 0.00456101993113 0.0435290887231)
(0.551917245208 1.25739087146 -0.385143659979)
(1.848218909 1.80937855215 -0.440292326571)
(2.10409788063 2.5898534396 -0.0997895627448)
(1.45482673302 3.0823881445 0.174060908938)
(0.318508819698 3.4133303362 0.296979487661)
(-1.03723563575 3.44650672012 0.314900632684)
(-2.26870621046 3.13927308512 0.231708018442)
(-3.11886408216 2.60505924032 0.0599265345409)
(-3.41450050542 1.80062867292 -0.14120074812)
(-3.05310154146 0.976905259018 -0.306127880286)
(-2.33653397873 0.357682846475 -0.324064037576)
(-1.61247085655 0.00575147661118 -0.247094846505)
(-1.05801869591 -0.137534293105 -0.160672485602)
(-0.688572363503 -0.15915494068 -0.0961193245315)
(-0.456988558984 -0.129335989092 -0.0551637757393)
(-0.32090663153 -0.0855579421603 -0.0293764455782)
(-0.250901023462 -0.0453807291381 -0.0135410836351)
(-0.224347155926 -0.0154477218403 -0.00555894567874)
(-0.21755424411 0.00299005505562 -0.00538692250256)
(-0.202543847507 0.0115120473683 -0.0129490915551)
(-0.151343860841 0.0128987612287 -0.0265756255161)
(-0.0454891040424 0.0102641687988 -0.0423715972739)
(0.117127129944 0.00624704079096 -0.0555300611291)
(0.321796311857 0.00262752904087 -0.0621888177268)
(0.542303224016 0.000318223424395 -0.0617033621124)
(0.750556000883 -0.00134301001324 -0.054357455793)
(0.921679969091 -0.00307332692136 -0.0409514349153)
(1.03635109027 -0.00488019774211 -0.0244482323122)
(1.08970932639 -0.00736504686859 -0.00919371692062)
(1.0924841271 -0.0100047330438 0.00173628322655)
(1.06182676234 -0.0118441565761 0.00812918911959)
(1.0129144248 -0.0120119633821 0.0123168393268)
(0.952577256971 -0.0103145389838 0.017461169545)
(0.87849435546 -0.0069951931276 0.021725537475)
(0.784928856673 -0.00665531891712 0.0262179146994)
(0.675889430814 -0.00204412282535 0.0329438681363)
(0.551874517331 0.00225569425417 0.0412238968122)
(0.40981094658 0.00277668512057 0.0527015100235)
(0.249066518933 0.00562671597308 0.0466936438489)
(0.0806102918351 0.00427584277618 0.0432845854122)
(0.72677070071 1.29900701487 -0.367734118777)
(2.18903159398 1.81660048711 -0.302346805462)
(2.40453484741 2.54516458999 0.167224717156)
(1.66340057712 2.92077184724 0.494805165923)
(0.413101550884 3.21559887459 0.643538661082)
(-1.08309789071 3.25477404608 0.658187310884)
(-2.42299241863 2.9850374256 0.542438418108)
(-3.32885106362 2.52305083057 0.332184124985)
(-3.69509745975 1.7909576642 0.0395877847128)
(-3.32137089366 1.019581443 -0.225766254185)
(-2.53028190655 0.415792256854 -0.313044118743)
(-1.710004731 0.0540684693164 -0.263153407815)
(-1.08437200079 -0.103681314979 -0.178928525345)
(-0.677818023719 -0.138218983109 -0.10963210132)
(-0.433623920299 -0.116739389839 -0.0627644694631)
(-0.296920901118 -0.0782597411668 -0.0328517060386)
(-0.231437077459 -0.0411995617028 -0.0140171961753)
(-0.210948778765 -0.0130630524527 -0.00452601358653)
(-0.209878599947 0.00440312550281 -0.00378698945238)
(-0.199338856209 0.0124691663261 -0.0114083622845)
(-0.151048779497 0.0137110510817 -0.025441901863)
(-0.046618568315 0.0110049488647 -0.0418054749412)
(0.115765919263 0.0069142964101 -0.0553141002377)
(0.320815461946 0.0032891648089 -0.0623158843178)
(0.541689739642 0.000715769385165 -0.0618917013317)
(0.750025630993 -0.00114435520603 -0.0545638324958)
(0.92103402915 -0.00295994321339 -0.0411416915011)
(1.03543560523 -0.0048528487478 -0.0246571421318)
(1.08853248007 -0.0072568176821 -0.0095143708461)
(1.09143576662 -0.00970997974176 0.00120674146258)
(1.06140108623 -0.0113560407628 0.00744299521452)
(1.0134081696 -0.0114564155514 0.0116531570148)
(0.953972961051 -0.00990526013836 0.0168820283822)
(0.87959679279 -0.00689017999391 0.0211303481626)
(0.786307314926 -0.00649089693058 0.0262324654618)
(0.678255661212 -0.00245898384124 0.0330113129014)
(0.554341724476 0.00167251585228 0.041224261993)
(0.410698619553 0.00551260237707 0.0533590581273)
(0.24848474008 0.00476810483826 0.0468160410207)
(0.0804970566193 0.00374030319164 0.0433329358632)
(0.880217655166 1.18222540842 -0.356623667391)
(2.47782811316 1.60256405993 -0.190057233329)
(2.64070243344 2.24273522721 0.367307207668)
(1.85623833916 2.52248796228 0.692228074726)
(0.503051763016 2.79575614282 0.877474688957)
(-1.1152809895 2.83907360982 0.8914411856)
(-2.55123317728 2.60040667606 0.742560168947)
(-3.4896806689 2.20809469657 0.526884289862)
(-3.94555916015 1.58899444398 0.192484315786)
(-3.56363531382 0.929538646539 -0.155637002182)
(-2.71879952225 0.404828714657 -0.301078876129)
(-1.81185269973 0.0779903745099 -0.275394107267)
(-1.11821107594 -0.0709317172414 -0.194975332119)
(-0.674292800909 -0.110339085836 -0.120949965631)
(-0.415330557071 -0.0964540782267 -0.0689504263621)
(-0.276535200315 -0.0652065339208 -0.035302759443)
(-0.214423768869 -0.0340453878442 -0.0140252229069)
(-0.199111200313 -0.0100299907732 -0.00324960145753)
(-0.203120560831 0.00493343133957 -0.00205265019372)
(-0.196612703621 0.0117932273407 -0.00980150483238)
(-0.15097527077 0.0127140458326 -0.0242393867102)
(-0.0478431480884 0.0101938602749 -0.0410782175412)
(0.11429337195 0.00646363108549 -0.0550172647528)
(0.319662023072 0.0031471157647 -0.0623054341146)
(0.540917773313 0.000673170838005 -0.0619670852258)
(0.749381483223 -0.00111992128896 -0.054678401145)
(0.920320736119 -0.00281659324073 -0.0413127421016)
(1.0345229721 -0.00457015884162 -0.0248906141681)
(1.08744566139 -0.0066908969546 -0.00988835900203)
(1.09050932169 -0.00879295692274 0.000645829519042)
(1.06104404328 -0.010159106958 0.00675656761517)
(1.01384647384 -0.0102011764895 0.0110047607827)
(0.955177708747 -0.00886162306876 0.0162957305045)
(0.880540593473 -0.00632175116915 0.0205717054387)
(0.787458246797 -0.00598632660535 0.0261670122515)
(0.680239646543 -0.00267771100289 0.0330205608677)
(0.556100164069 0.000665933366345 0.0411491866731)
(0.411593712751 0.00293453756755 0.0516947582653)
(0.248543005129 0.003349283646 0.0468324652011)
(0.0804739031093 0.00288971644725 0.0435183946265)
(1.01321959091 0.932074794989 -0.352679594683)
(2.70026491636 1.22576947381 -0.117092662932)
(2.82321117332 1.75151826704 0.518861479189)
(2.05641672644 1.93495445345 0.83469983369)
(0.610302865161 2.17085077989 1.0523145488)
(-1.15435802044 2.21193391674 1.06468595655)
(-2.67519760507 2.01471039597 0.905425639455)
(-3.61042176065 1.71280198949 0.668862024134)
(-4.14020958178 1.23692792004 0.30013539645)
(-3.75872763785 0.73400804922 -0.100509444282)
(-2.87824076675 0.333203233544 -0.290088031652)
(-1.9025724162 0.0763804452044 -0.283691443377)
(-1.15153918102 -0.0447444994337 -0.206781317442)
(-0.674746690082 -0.079463114881 -0.129501922496)
(-0.402116510262 -0.071371320913 -0.073450134176)
(-0.260679042238 -0.0485422399505 -0.036695846153)
(-0.200921761833 -0.0251650753104 -0.0137571652915)
(-0.189655040279 -0.00698682624733 -0.00192456003997)
(-0.197749323398 0.00433688743244 -0.000463247799456)
(-0.194526175333 0.00946400757798 -0.0083361424812)
(-0.151060771894 0.0100297434856 -0.0230953538328)
(-0.0490026948755 0.00792288925431 -0.040351944262)
(0.112964076329 0.00500613282607 -0.0545935902124)
(0.318597820729 0.00224294046887 -0.0622855650644)
(0.540140313474 0.000237486113209 -0.0620022422463)
(0.748746893421 -0.00121295929276 -0.0547254896825)
(0.919657667204 -0.00258416506013 -0.0414493867642)
(1.03372667582 -0.00399621516016 -0.0250987503687)
(1.0865420957 -0.00564930603912 -0.0102213734203)
(1.08976132902 -0.00725356025299 0.000157330361555)
(1.06076865205 -0.0082719136567 0.00617672953221)
(1.01420813575 -0.00827989948572 0.0104645933726)
(0.956138648343 -0.00724010149171 0.0158023265641)
(0.881272494707 -0.00533275623239 0.0201289954705)
(0.788348151891 -0.0051151433625 0.0260938419132)
(0.681778771524 -0.00264468895123 0.0330200337325)
(0.557339714979 -0.000214739660741 0.0411785674337)
(0.412268868181 0.00114864259543 0.0516746133429)
(0.24883986596 0.00180892187495 0.0471043789215)
(0.0805854857192 0.0017861926406 0.0437539981007)
(1.11134898493 0.582082528702 -0.35664497566)
(2.85049107235 0.750516217475 -0.0847678131233)
(2.95186982703 1.10223009835 0.628915989883)
(2.22396232298 1.19645315018 0.933725201932)
(0.707760117307 1.36700684173 1.08638606381)
(-1.19028790417 1.39635782538 1.09908170869)
(-2.76795849955 1.25973532875 1.03028604137)
(-3.69233226241 1.07302887698 0.767913796078)
(-4.27940410347 0.775866010121 0.377055196386)
(-3.89130863024 0.462931632691 -0.0636114706246)
(-2.99197408145 0.214695621672 -0.281699276226)
(-1.96948710809 0.0529421283657 -0.288458689025)
(-1.17753382208 -0.0248268308 -0.214246657465)
(-0.676591887681 -0.0479893914635 -0.134925223206)
(-0.393615053971 -0.0437945601757 -0.0762641503193)
(-0.249916006229 -0.0299401776285 -0.0374264795806)
(-0.191621852659 -0.0155255125492 -0.0132656298023)
(-0.183130907565 -0.00431392499879 -0.00081964909035)
(-0.194076329685 0.00263636416652 0.000781567208669)
(-0.19315144864 0.00571743515458 -0.00722524536576)
(-0.151224277793 0.00598704915033 -0.0222338891164)
(-0.049867225931 0.00454864330365 -0.0396985050755)
(0.111925916912 0.00273330199408 -0.0543482986592)
(0.317720566988 0.000788050580998 -0.0621059244209)
(0.539571753466 -0.000488511277131 -0.0619114239452)
(0.748275149855 -0.00138977272856 -0.0547178957703)
(0.919156970464 -0.00225932705771 -0.0415287949866)
(1.03314029747 -0.00316561187226 -0.0252393716969)
(1.08589767194 -0.00420972612314 -0.0104679800621)
(1.08923994555 -0.00520408596421 -0.000191621681151)
(1.0605820151 -0.00582578111185 0.00576753887118)
(1.01446561993 -0.00582467564209 0.0100873850326)
(0.956802870979 -0.005177338726 0.0154610151801)
(0.881761690937 -0.00402276838671 0.0198375738168)
(0.788947821525 -0.0039186971752 0.026045917944)
(0.682826286197 -0.00241249422525 0.0330319118605)
(0.558139297206 -0.000950450258136 0.0412609953427)
(0.4127906166 -0.000211018256226 0.0524057705515)
(0.249194862704 0.00040360297454 0.0472784054941)
(0.08068878781 0.000416876173018 0.0439670983652)
(1.1624937005 0.181242650594 -0.362594617708)
(2.92302345705 0.234990155245 -0.078901830758)
(3.03780506373 0.35631225551 0.674047170521)
(2.29507765953 0.38817110191 1.00971754304)
(0.750111781343 0.445867725647 1.12957373059)
(-1.20112455729 0.456083547258 1.1436200642)
(-2.80579999625 0.411208650811 1.11301763808)
(-3.73204724171 0.349014901992 0.814170570183)
(-4.35126922074 0.251131943017 0.420272989333)
(-3.95676847227 0.147159611737 -0.0457029987115)
(-3.04975454022 0.0670553470155 -0.27726860639)
(-2.00398511374 0.0149703875942 -0.290529146015)
(-1.1911841404 -0.0098993048579 -0.217755306)
(-0.677779031599 -0.0169681519422 -0.137522074313)
(-0.389412327891 -0.0152511406977 -0.0775449368627)
(-0.244477237706 -0.0104864345677 -0.0377040294417)
(-0.186927150865 -0.00569039259356 -0.0128743684277)
(-0.17986317179 -0.00205768387506 -0.000193965072886)
(-0.192264810734 0.000126980217661 0.00145620367266)
(-0.192500769286 0.00102633490525 -0.00663241964706)
(-0.151349546656 0.00103242286431 -0.0217963414727)
(-0.0503542019203 0.000490680724669 -0.0393604567456)
(0.111349647402 -0.000158576400829 -0.0542062203777)
(0.317235706432 -0.000844940785077 -0.0619768571494)
(0.539265969346 -0.00128279186616 -0.0618152008867)
(0.748032271004 -0.00157522731972 -0.0546931574947)
(0.918897450909 -0.00186336733965 -0.0415709616852)
(1.0328356911 -0.00216215556312 -0.0253072145446)
(1.08556852362 -0.00250113905579 -0.0106006151935)
(1.08897787754 -0.00281831317722 -0.000373759029008)
(1.06048893503 -0.00301560622917 0.00555792564006)
(1.01459260198 -0.00302511531473 0.00990017534317)
(0.957127105979 -0.0028404636514 0.0152856246251)
(0.881992959858 -0.00251061868655 0.019700060477)
(0.789236470182 -0.0025040389295 0.0260271258063)
(0.683341737626 -0.00204882847547 0.0330335355815)
(0.558525066163 -0.00160521797806 0.0413361484925)
(0.413063959128 -0.00136640306864 0.0533632162773)
(0.249395372654 -0.0011840269393 0.0474707858131)
(0.0807367178033 -0.00130818330224 0.0440587086351)
(1.16201372094 -0.23373017838 -0.363301128187)
(2.92344606076 -0.289550148744 -0.0798395366443)
(3.03819333493 -0.409381078742 0.674492036775)
(2.2945747004 -0.436906140284 1.011766587)
(0.750096996069 -0.490946608562 1.131126509)
(-1.20110770378 -0.500750368565 1.14461457838)
(-2.80650004161 -0.45919740003 1.11086025326)
(-3.73173508046 -0.398143152124 0.813939071011)
(-4.34947201168 -0.296816943066 0.4188040227)
(-3.95406999917 -0.182868804765 -0.0467100460306)
(-3.04690590266 -0.0899387656675 -0.277571701966)
(-2.00192868213 -0.0278155184007 -0.290499269259)
(-1.18996411121 0.00326805345847 -0.217647673573)
(-0.677152854005 0.0137276433696 -0.137417972737)
(-0.389165580602 0.0135477391684 -0.0774689414946)
(-0.244456335416 0.0092056518884 -0.0376635301564)
(-0.187020507802 0.00417002169428 -0.0128743859046)
(-0.179990010708 4.26946512276e-05 -0.000213541922509)
(-0.192381524589 -0.0026586165877 0.00142891090654)
(-0.192584681291 -0.00397745353507 -0.00666430500321)
(-0.151395879059 -0.00423725944665 -0.0218266456593)
(-0.0503733184379 -0.0038179649584 -0.0393798279599)
(0.11134416927 -0.00320227652784 -0.054227235524)
(0.317238745353 -0.00253326300459 -0.061992215185)
(0.539275686041 -0.00206934622489 -0.0618230681513)
(0.74803966723 -0.00172810895325 -0.0547002422174)
(0.918904346103 -0.00141831829022 -0.0415904479777)
(1.03284824909 -0.00108061763351 -0.0253238639091)
(1.08558404655 -0.000682205610527 -0.0106161909455)
(1.08899053806 -0.000301912119351 -0.000383455991895)
(1.06048865471 -6.78885398432e-05 0.00555336303242)
(1.0145730767 -9.6611144744e-05 0.00989730798852)
(0.957088962739 -0.000398252315097 0.0152838244491)
(0.881959646857 -0.000917584438598 0.0196982687436)
(0.78920461349 -0.00100139907064 0.0260180826724)
(0.683297360415 -0.00162615321271 0.0330223499165)
(0.558500878244 -0.00223304368664 0.0413383367518)
(0.413037089666 -0.00247505736859 0.0536601134663)
(0.249336778668 -0.00284970033418 0.0474710480377)
(0.080703470007 -0.00315920177329 0.0440408237784)
(1.10995835533 -0.631670632068 -0.358608711187)
(2.85111992951 -0.802769969234 -0.0876208646545)
(2.95262766952 -1.15635430368 0.629447922448)
(2.22384221369 -1.24843520402 0.93474665537)
(0.707840244063 -1.41676012865 1.09017044446)
(-1.18989618214 -1.44478192724 1.10262929292)
(-2.76733642001 -1.30957711872 1.03040041768)
(-3.69090492455 -1.12237811356 0.766464381323)
(-4.27377993865 -0.819128992303 0.373105675474)
(-3.88318060414 -0.496334339909 -0.0664803200776)
(-2.98359411217 -0.235939451964 -0.282510859583)
(-1.96346636831 -0.064892828509 -0.288384361479)
(-1.17396449798 0.0186173453999 -0.213935210214)
(-0.674765905648 0.0449139835923 -0.134643527774)
(-0.392891352311 0.0421631278914 -0.076051597933)
(-0.249851045155 0.0286952884148 -0.0372981177317)
(-0.191897715031 0.0140496267349 -0.0132449115288)
(-0.18350972377 0.00235407941713 -0.000869656555903)
(-0.194426238972 -0.00510722066119 0.000701706433822)
(-0.193401874552 -0.00859686677228 -0.00732110768855)
(-0.151363639276 -0.00912080167864 -0.0223214513581)
(-0.0499240004801 -0.00780079221574 -0.0397515172028)
(0.111907551091 -0.00602938633614 -0.0544066476856)
(0.317722717941 -0.00407963974467 -0.0621349544158)
(0.539599606647 -0.00276909303795 -0.0619221815425)
(0.748302654358 -0.00184458979267 -0.0547449959012)
(0.919179720317 -0.000960556495988 -0.0415805204386)
(1.03317601606 -2.01999236197e-05 -0.0252880790107)
(1.08594238445 0.00108227046797 -0.010516649939)
(1.08927625916 0.00213420921721 -0.000227158372505)
(1.06058103719 0.00278843190539 0.00574778121187)
(1.0144077724 0.00274752811397 0.0100753495856)
(0.956688591154 0.00198365861111 0.0154517945407)
(0.881661790789 0.000636382619978 0.019832843392)
(0.788852523539 0.000455853322498 0.0260187639736)
(0.682690763695 -0.00121703041841 0.0329966796258)
(0.558055078011 -0.0028523436834 0.0412532686589)
(0.412705628575 -0.00359993584656 0.0529927071948)
(0.249031201146 -0.00442112498874 0.0472663770544)
(0.0805958780967 -0.00487543273828 0.0439109424235)
(1.0110877277 -0.976374097873 -0.355314123732)
(2.69918376455 -1.27417444113 -0.120402564452)
(2.82357598519 -1.80549838069 0.517157392671)
(2.05455458595 -1.99014609 0.834318195026)
(0.609284507135 -2.22497620492 1.0582845032)
(-1.15227841881 -2.26444410174 1.07027769535)
(-2.67272758603 -2.0659320712 0.903392617633)
(-3.60654218345 -1.76041059122 0.664463263451)
(-4.13007397816 -1.27511370459 0.293712107973)
(-3.74518553175 -0.762992060614 -0.104821084822)
(-2.86481387328 -0.351388076882 -0.291166201476)
(-1.89303729442 -0.0866807932708 -0.283462207622)
(-1.14589078629 0.0392793812764 -0.206241847329)
(-0.671838940678 0.076676446515 -0.129016205757)
(-0.400960108939 0.069845655692 -0.0731174038441)
(-0.260584128911 0.0473507980815 -0.0364786804776)
(-0.201374020344 0.0237613717471 -0.0137100584511)
(-0.190279153976 0.00512290950383 -0.00198764661321)
(-0.198324219257 -0.00669186477313 -0.00058873128707)
(-0.194939072867 -0.0122066152389 -0.00848625669313)
(-0.151290659215 -0.0130167102375 -0.0232113062173)
(-0.0491003321966 -0.0110238005574 -0.0404562478968)
(0.112940827996 -0.00817874865229 -0.0546830522108)
(0.318621126984 -0.00538267273702 -0.0623749575002)
(0.540178801572 -0.00334840084349 -0.062086198465)
(0.748772737331 -0.00188980250086 -0.0547931201879)
(0.919688031521 -0.000513131641351 -0.0415423784073)
(1.03378427118 0.000929866619635 -0.0251864244358)
(1.08661420379 0.00264026685317 -0.0103063087861)
(1.08981774908 0.00429377861276 9.2637332036e-05)
(1.06076401179 0.00533284618836 0.00613902559981)
(1.01411070373 0.00529588660265 0.0104384427812)
(0.955947013677 0.00414218888487 0.0157800122467)
(0.88110537734 0.00203558729082 0.02011155971)
(0.788191747459 0.00174296238804 0.0260347277519)
(0.68155219466 -0.000887813846941 0.0329538365332)
(0.557201327574 -0.00349818218994 0.0411426589146)
(0.412123095199 -0.00477863116473 0.0522614222605)
(0.248549706824 -0.00587387977442 0.0469336622188)
(0.0804303552063 -0.0061288998142 0.0436842239373)
(0.877437645665 -1.21942892036 -0.359464879842)
(2.47325669991 -1.64542803019 -0.194290057403)
(2.63799924311 -2.29276268405 0.361971067641)
(1.8531171166 -2.57628702386 0.688251330713)
(0.50276575729 -2.85165274198 0.871006163874)
(-1.1119339773 -2.8927087428 0.885069647701)
(-2.54582051995 -2.64816995148 0.736581940792)
(-3.48139171474 -2.25028684759 0.519030181088)
(-3.93001080631 -1.62201925719 0.182091134832)
(-3.54528804686 -0.95248571446 -0.160642678258)
(-2.70115347643 -0.419010911862 -0.302043668185)
(-1.79949854186 -0.0861866809227 -0.274884779166)
(-1.11088474661 0.0664656780527 -0.194196460843)
(-0.670493735569 0.10792936427 -0.120303770068)
(-0.413807062323 0.0950555271965 -0.0684780826066)
(-0.276408917444 0.0640728148686 -0.0350000306398)
(-0.215035773258 0.0327299615236 -0.0139649282825)
(-0.19996506853 0.00829627980236 -0.0033255787574)
(-0.20390797399 -0.0071255988183 -0.0022161585874)
(-0.197176131114 -0.0143441299661 -0.0100018351327)
(-0.151290078176 -0.0154780048355 -0.0244040903427)
(-0.0479890833279 -0.0130816173082 -0.0412351337217)
(0.114258293255 -0.00942167502023 -0.055126387185)
(0.319696414553 -0.00608012374641 -0.0624398882629)
(0.540964314414 -0.00360708905598 -0.0620875092108)
(0.749415221755 -0.00179761199964 -0.0548001789586)
(0.920360490889 -9.04919063726e-05 -0.0414516716704)
(1.03460101571 0.00169077271482 -0.0250266016682)
(1.08754154561 0.00386097858523 -0.010008333973)
(1.09057860571 0.00600161471503 0.000549843862364)
(1.06102976878 0.00737388060672 0.00669109371556)
(1.01370947811 0.00736377187255 0.0109544000279)
(0.954908557465 0.00591394327172 0.0162511518665)
(0.880305499196 0.00317157772772 0.0205351941264)
(0.787243681485 0.00276262347696 0.0260681797089)
(0.679923732269 -0.000706511668094 0.0329087444125)
(0.555946662214 -0.00425779908195 0.0410886581856)
(0.411323658377 -0.00640341755589 0.0525587906355)
(0.248119877683 -0.00718099016601 0.0467346693866)
(0.0803457424611 -0.00694547531719 0.0433829353339)
(0.722718748092 -1.32866057722 -0.370198947901)
(2.17982227781 -1.85160068589 -0.307201960915)
(2.39728968447 -2.58757757541 0.159380124698)
(1.65911182216 -2.96918398433 0.487684134726)
(0.413080809497 -3.26480147547 0.635525873894)
(-1.07775352591 -3.30131975177 0.650380317918)
(-2.4146579377 -3.02571483984 0.534503670776)
(-3.31649680777 -2.55760476158 0.323877255115)
(-3.67453683514 -1.8169605802 0.0310184676792)
(-3.29795169606 -1.03558775742 -0.230231700407)
(-2.50948868565 -0.425719470793 -0.313460035807)
(-1.69561405417 -0.0601227345784 -0.262231546222)
(-1.07580758077 0.100098418839 -0.177931970876)
(-0.673353409872 0.136190878126 -0.10879191503)
(-0.431814817822 0.115472689204 -0.0621590513613)
(-0.296777178696 0.0771953408934 -0.0325369221404)
(-0.232187047455 0.0399892390363 -0.0139263348609)
(-0.212009950604 0.0114845029921 -0.00460974702204)
(-0.210859919409 -0.00639343308126 -0.00398007924009)
(-0.200033724516 -0.0147780354955 -0.0116337616291)
(-0.151441841179 -0.0161995061372 -0.0256954056599)
(-0.0468080000074 -0.0136056267871 -0.042021077141)
(0.115723961185 -0.00954632176302 -0.0554772122319)
(0.320852798099 -0.00595602239339 -0.0625273782967)
(0.54173617429 -0.0033717829285 -0.062075558006)