/*--------------------------------*- C++ -*----------------------------------*\
| =========                 |                                                 |
| \\      /  F ield         | OpenFOAM: The Open Source CFD Toolbox           |
|  \\    /   O peration     | Version:  3.0.1                                 |
|   \\  /    A nd           | Web:      www.OpenFOAM.org                      |
|    \\/     M anipulation  |                                                 |
\*---------------------------------------------------------------------------*/
FoamFile
{
    version     2.0;
    format      ascii;
    class       volScalarField;
    location    "3.1";
    object      p_rgh;
}
// * * * * * * * * * * * * * * * * * * * * * * * * * * * * * * * * * * * * * //

dimensions      [1 -1 -2 0 0 0 0];

internalField   nonuniform List<scalar> 
15984
(
4890.57644673
4890.49824294
4890.3256021
4890.17442522
4890.11410562
4890.15316762
4890.29892372
4890.55058759
4890.86858999
4891.1806771
4891.44541294
4891.64798591
4891.7931231
4891.89407486
4891.96323392
4892.0103168
4892.04300248
4892.06740359
4892.08770269
4892.10578898
4892.1207047
4892.12875597
4892.12469584
4892.10332357
4892.0611681
4891.99736764
4891.91383393
4891.81501636
4891.70714661
4891.59647652
4891.48794651
4891.38468037
4891.28821645
4891.19846147
4891.11959446
4891.05093292
4890.99364845
4890.94898643
4890.91850079
4890.90318199
4890.59166568
4890.53479952
4890.36793301
4890.21196032
4890.14940054
4890.18639575
4890.33150682
4890.58469214
4890.90294509
4891.2117522
4891.46892519
4891.66409149
4891.80366226
4891.90066582
4891.96707348
4892.01247916
4892.04411728
4892.06784373
4892.08774959
4892.10568378
4892.12061311
4892.1287471
4892.12476013
4892.10342489
4892.06128055
4891.99748687
4891.91392853
4891.81511412
4891.70729925
4891.59670984
4891.48824238
4891.38498738
4891.28845046
4891.19870562
4891.11965467
4891.05087185
4890.99344196
4890.94866133
4890.91815448
4890.90293754
4890.56184588
4890.5038808
4890.30079687
4890.10643349
4890.02259781
4890.05716342
4890.22023627
4890.50857168
4890.86730663
4891.20602202
4891.47869269
4891.67786042
4891.8162141
4891.91041546
4891.97381542
4892.01669207
4892.04650091
4892.0689943
4892.08814387
4892.10572341
4892.12056286
4892.1287602
4892.12487896
4892.10362767
4892.06152153
4891.99773839
4891.91418862
4891.8154009
4891.70766163
4891.59717548
4891.48878917
4891.38554733
4891.28894406
4891.19916742
4891.11995415
4891.051104
4890.9934034
4890.94842631
4890.9178933
4890.90283863
4890.50900729
4890.42896267
4890.1628189
4889.91599074
4889.80510859
4889.83669119
4890.02235322
4890.35817579
4890.78066447
4891.17247442
4891.47602818
4891.68828891
4891.82884413
4891.92143767
4891.98197659
4892.02200329
4892.04956907
4892.07045484
4892.08861093
4892.10567063
4892.12035724
4892.12861215
4892.1248651
4892.10373729
4892.06171102
4891.99797306
4891.91447176
4891.81573657
4891.70809282
4891.59772503
4891.48942907
4891.38620466
4891.28954805
4891.19972263
4891.12036761
4891.05132794
4890.99357476
4890.94828502
4890.91767875
4890.90270402
4890.43888331
4890.32053075
4889.98089881
4889.68709895
4889.55511093
4889.5830207
4889.7843624
4890.16128252
4890.65330506
4891.11171251
4891.45864683
4891.69163279
4891.8389488
4891.93169753
4891.99024871
4892.0276361
4892.05284093
4892.07199705
4892.08905355
4892.10552387
4892.12002372
4892.12833352
4892.12474307
4892.10377859
4892.06185794
4891.99819694
4891.91476864
4891.81610814
4891.70857261
4891.59832916
4891.4901246
4891.38691986
4891.29021873
4891.20033003
4891.12085011
4891.05161487
4890.99365943
4890.94830186
4890.91752714
4890.90256794
4890.36238003
4890.2002815
4889.79230533
4889.46494694
4889.32075672
4889.34431642
4889.55113116
4889.95558357
4890.50858515
4891.03500203
4891.43073283
4891.68926504
4891.84618875
4891.94060656
4891.9977472
4892.03298574
4892.05596213
4892.07343616
4892.08938593
4892.10529678
4892.11960049
4892.12797055
4892.12454801
4892.10375183
4892.06195818
4891.99839182
4891.91504986
4891.81647495
4891.70905106
4891.59892835
4891.4908103
4891.38762558
4891.29088627
4891.20092667
4891.12133971
4891.05192718
4890.99381038
4890.94882664
4890.91745
4890.90244026
4890.290446
4890.08805904
4889.62602797
4889.27968862
4889.13357446
4889.15233921
4889.35370367
4889.77030585
4890.3698609
4890.95593802
4891.39873556
4891.68324446
4891.85071865
4891.94777869
4892.00403484
4892.03760225
4892.05868417
4892.07465128
4892.08961557
4892.10500396
4892.11915607
4892.12757698
4892.12431244
4892.10368268
4892.0620175
4891.9985489
4891.91529286
4891.8168049
4891.70948586
4891.59947184
4891.49143018
4891.38826264
4891.29149174
4891.20146146
4891.12178766
4891.0522234
4890.99395027
4890.94886948
4890.91737422
4890.90232858
4890.23181224
4889.99751545
4889.49743249
4889.14336257
4889.00793995
4889.02238162
4889.20599319
4889.62335821
4890.25328945
4890.88651478
4891.36889174
4891.67616237
4891.85326166
4891.95306588
4892.00897718
4892.04103525
4892.06092974
4892.07558119
4892.08974975
4892.10471772
4892.11873743
4892.12721806
4892.12409004
4892.10360056
4892.06205084
4891.99866963
4891.91549052
4891.81707841
4891.70984775
4891.59992255
4891.49194255
4891.38878933
4891.29199117
4891.20190326
4891.1221632
4891.05248112
4890.99408782
4890.94895492
4890.91734264
4890.90225234
4890.19154305
4889.93543557
4889.41163133
4889.0537621
4888.93299126
4888.94431683
4889.10752922
4889.52273082
4890.17118857
4890.83582291
4891.346341
4891.67018019
4891.85454024
4891.95652262
4892.01233128
4892.04346513
4892.06236913
4892.07621221
4892.08982142
4892.10449849
4892.11842921
4892.12696294
4892.12392514
4892.10355113
4892.06208372
4891.9987651
4891.91564176
4891.81728604
4891.71011885
4891.60025624
4891.49231928
4891.38917598
4891.29235868
4891.20223297
4891.12244855
4891.05268937
4890.99421804
4890.94901846
4890.91734861
4890.9022226
4890.17170459
4889.90443172
4889.36914298
4889.00909117
4888.8963174
4888.90606341
4889.0576867
4889.47188111
4890.1294444
4890.80962414
4891.33455602
4891.66697131
4891.85510678
4891.95825438
4892.01403238
4892.04471065
4892.0630746
4892.07653691
4892.08986858
4892.1044022
4892.11829217
4892.12685289
4892.12386632
4892.10355428
4892.0621319
4891.99884532
4891.91575056
4891.8174231
4891.71029006
4891.60045876
4891.49254364
4891.38940651
4891.2925801
4891.20243884
4891.12263492
4891.05284227
4890.99433731
4890.9490769
4890.91740141
4890.90225633
4890.17298232
4889.90572134
4889.37023997
4889.00996941
4888.89695701
4888.90670781
4889.05861335
4889.47300314
4890.13064003
4890.81063074
4891.33521467
4891.66733355
4891.85529198
4891.95833801
4892.01406673
4892.0447271
4892.06310653
4892.07657331
4892.08991374
4892.10445896
4892.1183566
4892.12691933
4892.12393581
4892.10362476
4892.0622013
4891.99891379
4891.91581842
4891.81748963
4891.71035552
4891.6005225
4891.4926072
4891.38947175
4891.29264955
4891.20251429
4891.12271811
4891.05293649
4890.99444484
4890.94919048
4890.91750985
4890.90236239
4890.19532392
4889.93926367
4889.41498378
4889.05654858
4888.93509421
4888.946426
4889.11041734
4889.52614722
4890.1747511
4890.83877754
4891.34826619
4891.6712529
4891.85507869
4891.95676762
4892.01243148
4892.04351278
4892.06242345
4892.07631297
4892.08995542
4892.10466727
4892.11862022
4892.12716138
4892.124131
4892.10376079
4892.06229194
4891.99896943
4891.91584391
4891.81748416
4891.71031362
4891.6004466
4891.49250893
4891.38937101
4891.29256565
4891.20245814
4891.12269623
4891.05296946
4890.99453775
4890.94936458
4890.91767244
4890.90253889
4890.23794932
4890.00375474
4889.50330684
4889.14840445
4889.01215898
4889.02660613
4889.21117834
4889.62922842
4890.25911556
4890.89123313
4891.37193712
4891.6778522
4891.85412632
4891.95345787
4892.009138
4892.04111104
4892.06101902
4892.07573219
4892.0899683
4892.10499379
4892.11905092
4892.1275453
4892.12442812
4892.10394358
4892.06239017
4891.99900544
4891.9158228
4891.8174057
4891.71016723
4891.60023618
4891.49225509
4891.38911027
4891.29233193
4891.20227417
4891.12256967
4891.05293834
4890.99461114
4890.9495721
4890.91787754
4890.90277314
4890.29873194
4890.09663816
4889.63470334
4889.28751543
4889.14088538
4889.15961661
4889.36160169
4889.77874237
4890.37763308
4890.96212938
4891.40269369
4891.68546286
4891.85185013
4891.94829259
4892.00424771
4892.03766506
4892.05882901
4892.074856
4892.08991263
4892.10538045
4892.11957806
4892.12802739
4892.12477912
4892.10415239
4892.06248386
4891.99900957
4891.91574929
4891.81725367
4891.70992486
4891.5999028
4891.49186058
4891.38870475
4891.29195967
4891.20197162
4891.12234391
4891.05284383
4890.99465829
4890.94975664
4890.91811095
4890.90303753
4890.37248396
4890.21097702
4889.80374755
4889.47586772
4889.33141965
4889.35485471
4889.56189267
4889.96647655
4890.51829328
4891.04230171
4891.43536016
4891.69184361
4891.84752508
4891.94121528
4891.997954
4892.03313656
4892.0561255
4892.07368936
4892.0897537
4892.10576351
4892.12013268
4892.12853836
4892.12513432
4892.10433884
4892.06254166
4891.99896861
4891.91562088
4891.8170368
4891.70960055
4891.59946835
4891.49135018
4891.38818062
4891.29147334
4891.20156656
4891.12203402
4891.05269331
4890.9946699
4890.94977728
4890.91834541
4890.90331728
4890.45037771
4890.33294826
4889.99475557
4889.70095193
4889.56898905
4889.59664179
4889.7977203
4890.17433248
4890.66430724
4891.11973573
4891.46369511
4891.69452107
4891.84045247
4891.93236188
4891.99050824
4892.02781494
4892.05303038
4892.07229405
4892.08947713
4892.10607255
4892.12064832
4892.12900197
4892.12543114
4892.10447195
4892.06254575
4891.99887635
4891.91544215
4891.81677119
4891.70922098
4891.59896744
4891.49076317
4891.38757766
4891.29091274
4891.20108721
4891.12166858
4891.05250827
4890.99464794
4890.94936204
4890.91857269
4890.9035939
4890.52150799
4890.44259755
4890.17844821
4889.93215845
4889.82152129
4889.85270492
4890.03762456
4890.37239512
4890.79237825
4891.18087496
4891.48135995
4891.69136629
4891.83045246
4891.92214766
4891.98235354
4892.02219978
4892.04978674
4892.07078972
4892.08909275
4892.10628762
4892.12106182
4892.12936745
4892.12564178
4892.10452083
4892.06248669
4891.99873799
4891.91522943
4891.81648245
4891.70882344
4891.59844451
4891.490152
4891.38694972
4891.29033382
4891.20057861
4891.12129318
4891.05233019
4890.99467047
4890.94944027
4890.91883672
4890.90385855
4890.57498616
4890.51826192
4890.31748593
4890.12410832
4890.04069849
4890.07475461
4890.2367937
4890.52346123
4890.87932113
4891.21464301
4891.48421919
4891.68110015
4891.81790386
4891.91132435
4891.97419869
4892.01691921
4892.04674684
4892.06936342
4892.08868097
4892.10639871
4892.12133987
4892.12958629
4892.12573209
4892.10448596
4892.06236854
4891.99856962
4891.91501459
4891.81621152
4891.70845545
4891.59795867
4891.48957618
4891.38636183
4891.28980386
4891.20010341
4891.12097422
4891.05219483
4890.9945823
4890.94966296
4890.91914536
4890.90409992
4890.60517913
4890.54956763
4890.38520977
4890.2303145
4890.16821809
4890.20465332
4890.3486355
4890.59984672
4890.9151064
4891.22046812
4891.47460736
4891.66745997
4891.80555047
4891.90159227
4891.96753204
4892.01273261
4892.04438589
4892.06824169
4892.08831516
4892.10639495
4892.12141958
4892.12960468
4892.12564515
4892.10432159
4892.06217445
4891.99836714
4891.91480182
4891.81597122
4891.70813866
4891.59753959
4891.48907751
4891.38585223
4891.28936506
4891.19970136
4891.12076887
4891.05203935
4890.9946841
4890.94995554
4890.91947837
4890.90425473
4890.5901299
4890.5132168
4890.3430882
4890.19301241
4890.13319282
4890.17169597
4890.31630865
4890.5659336
4890.88087654
4891.18951059
4891.45117729
4891.65142649
4891.7950221
4891.89502751
4891.96365405
4892.01050629
4892.04320234
4892.06775684
4892.08823106
4892.1064727
4892.121494
4892.12959801
4892.12555803
4892.10418496
4892.06202261
4891.99821953
4891.91465561
4891.81582953
4891.70794498
4891.5972635
4891.48874654
4891.38551743
4891.28910446
4891.1994399
4891.12080321
4891.05208922
4890.9948612
4890.9502407
4890.91975974
4890.90438892
4890.56600186
4890.46384108
4890.27710245
4890.11749934
4890.05495552
4890.09505639
4890.24493778
4890.50240045
4890.82869682
4891.15204947
4891.42711132
4891.63825843
4891.78787571
4891.89220688
4891.96291209
4892.01057139
4892.04322438
4892.06753581
4892.0878413
4892.10636403
4892.12220545
4892.13150068
4892.12866455
4892.10815624
4892.06625541
4892.00200759
4891.91734201
4891.81694922
4891.7074705
4891.59547911
4891.48608601
4891.38235152
4891.28570795
4891.19554945
4891.1166702
4891.04813321
4890.99066817
4890.94580144
4890.91509793
4890.89961254
4890.56546848
4890.48109746
4890.31286749
4890.16554081
4890.11076452
4890.15129004
4890.29509736
4890.54075755
4890.85180816
4891.16418515
4891.43285729
4891.63998066
4891.78950506
4891.89215108
4891.96264145
4892.01014668
4892.04273889
4892.06684903
4892.08708697
4892.10562956
4892.12157486
4892.1310324
4892.12836789
4892.10797382
4892.06611337
4892.00190057
4891.91722219
4891.81679894
4891.70728818
4891.59526823
4891.48583726
4891.38207127
4891.28530107
4891.19540205
4891.11642165
4891.04780303
4890.99031725
4890.94542208
4890.91477904
4890.89946512
4890.52550649
4890.42703528
4890.23026905
4890.05818164
4889.99075603
4890.03040018
4890.18686573
4890.45526786
4890.7939773
4891.13226007
4891.41978656
4891.63729347
4891.79082058
4891.89592581
4891.96546581
4892.01207639
4892.04372513
4892.0670808
4892.08677545
4892.10510102
4892.12106706
4892.13066024
4892.12813821
4892.10786601
4892.06611137
4892.00189507
4891.91719307
4891.81672952
4891.70722953
4891.59526577
4891.48588438
4891.38211318
4891.28527764
4891.19554876
4891.11645695
4891.04763968
4890.99007625
4890.94512681
4890.91452965
4890.89941104
4890.46324045
4890.33856527
4890.09566653
4889.89055492
4889.80690174
4889.84394265
4890.01558401
4890.31314477
4890.69422908
4891.07564101
4891.39557645
4891.63214398
4891.79380813
4891.90109639
4891.97059769
4892.0155719
4892.04566612
4892.06773838
4892.08660242
4892.10449535
4892.12036009
4892.13007231
4892.12775538
4892.10767225
4892.06601434
4892.00185633
4891.91717823
4891.81672764
4891.70727769
4891.59539519
4891.48607609
4891.38231413
4891.28543179
4891.19580545
4891.11660209
4891.04764376
4890.98968261
4890.94482414
4890.91426794
4890.89926315
4890.38863684
4890.23724014
4889.95296484
4889.73186944
4889.64604083
4889.68135964
4889.85245319
4890.1617386
4890.57735188
4891.0040405
4891.36252686
4891.62287149
4891.79567138
4891.90635594
4891.9762095
4892.0195777
4892.04795117
4892.06858752
4892.0864195
4892.10379873
4892.11954522
4892.1293933
4892.12730718
4892.10742978
4892.06590782
4892.00183405
4891.91720637
4891.81679536
4891.70741571
4891.5956277
4891.48638089
4891.38263003
4891.28571237
4891.19614352
4891.11682415
4891.0477228
4890.98966245
4890.94449107
4890.91401177
4890.89908704
4890.30960937
4890.13611737
4889.82427823
4889.60384123
4889.5255626
4889.55802949
4889.71862353
4890.02188555
4890.45761925
4890.92553508
4891.3238616
4891.6103274
4891.79585047
4891.91122125
4891.98117091
4892.02371681
4892.05024618
4892.06938712
4892.08631654
4892.10309355
4892.11871919
4892.12870146
4892.12684589
4892.10718996
4892.065823
4892.00184847
4891.91728951
4891.81693382
4891.70763674
4891.59594738
4891.48677028
4891.38303704
4891.28609236
4891.19653681
4891.11711977
4891.04787147
4890.98965863
4890.94385635
4890.91380653
4890.89891956
4890.23630956
4890.0449269
4889.71961599
4889.5102704
4889.44582879
4889.4749405
4889.61800013
4889.90423708
4890.34701227
4890.84933256
4891.28476485
4891.59652632
4891.79476273
4891.9150193
4891.98580415
4892.0271721
4892.05232958
4892.07012878
4892.08607955
4892.10248543
4892.11795253
4892.12806396
4892.12642821
4892.10698638
4892.06577005
4892.00189735
4891.91741047
4891.81711712
4891.70790703
4891.59630021
4891.48719379
4891.38347778
4891.28651489
4891.19694253
4891.1174504
4891.04806427
4890.98970623
4890.94357717
4890.91366684
4890.89878056
4890.17684879
4889.97137087
4889.64147188
4889.44419725
4889.39060034
4889.41624228
4889.54420315
4889.81225677
4890.25653472
4890.78411928
4891.25054065
4891.58367324
4891.79310861
4891.9177872
4891.98937509
4892.03012356
4892.05396254
4892.07071824
4892.08592534
4892.10194408
4892.11733714
4892.12753853
4892.1260915
4892.10683669
4892.06575037
4892.00196381
4891.9175464
4891.81731254
4891.7081675
4891.59664394
4891.48759158
4891.38389106
4891.286913
4891.1973142
4891.11776726
4891.0482701
4890.98979856
4890.94352852
4890.91359952
4890.89868886
4890.13608476
4889.92001348
4889.58753213
4889.39637794
4889.3448902
4889.36765108
4889.48961639
4889.74664401
4890.19145936
4890.7368088
4891.22548216
4891.57405216
4891.79156371
4891.91956685
4891.99185612
4892.03205876
4892.05519477
4892.0711261
4892.08580969
4892.10153507
4892.11692883
4892.12717726
4892.1258743
4892.10675072
4892.06575727
4892.00203851
4891.91767421
4891.81748272
4891.70839443
4891.59692127
4891.48791115
4891.3842221
4891.28723275
4891.19761298
4891.11803111
4891.04846061
4890.98991845
4890.94366991
4890.91360139
4890.89864881
4890.11602468
4889.89397324
4889.55888438
4889.3681241
4889.31748554
4889.33870634
4889.45786224
4889.7115399
4890.15766909
4890.71231472
4891.21254966
4891.56904521
4891.79076546
4891.92048003
4891.99312096
4892.03309549
4892.05578954
4892.07134895
4892.08576717
4892.10135683
4892.116737
4892.12702205
4892.12579136
4892.10674032
4892.06579623
4892.00211264
4891.91777777
4891.81761003
4891.7085445
4891.5971063
4891.48811469
4891.38443215
4891.28743917
4891.19781048
4891.11821494
4891.04861343
4890.99004331
4890.94385528
4890.91365761
4890.89867838
4890.11733059
4889.89519637
4889.55961355
4889.36866369
4889.31776009
4889.33897691
4889.45839274
4889.7122442
4890.15858328
4890.71322506
4891.21320247
4891.56943417
4891.79097364
4891.92057845
4891.99316472
4892.03312319
4892.05580572
4892.07138206
4892.08581559
4892.10141745
4892.11680699
4892.12709193
4892.12586449
4892.106812
4892.06586584
4892.00218284
4891.91784819
4891.81767954
4891.70861293
4891.59717351
4891.48818228
4891.38450219
4891.2875136
4891.19789124
4891.11830373
4891.04871457
4890.99015766
4890.94399704
4890.91376973
4890.89878593
4890.13994424
4889.92363765
4889.58980298
4889.39794215
4889.34591164
4889.36866659
4889.49120074
4889.74885018
4890.19424546
4890.73950079
4891.2273981
4891.57520754
4891.79218753
4891.91986423
4891.99198267
4892.03211304
4892.05528648
4892.07122709
4892.08595411
4892.10171294
4892.11713723
4892.1273859
4892.12608337
4892.10696354
4892.06596836
4892.00224786
4891.91788371
4891.81768981
4891.70859589
4891.59712323
4891.48811263
4891.38443028
4891.28745433
4891.19785333
4891.1182957
4891.04876023
4890.99025644
4890.9440869
4890.91393513
4890.89896962
4890.18308423
4889.9770828
4889.64561099
4889.4472321
4889.39300519
4889.41864775
4889.54732064
4889.81632439
4890.261326
4890.78850034
4891.25360667
4891.58552461
4891.79407097
4891.91825988
4891.98960501
4892.03019754
4892.05408833
4892.07088714
4892.08616167
4892.10224162
4892.11765435
4892.12788196
4892.12644051
4892.10718869
4892.06609693
4892.00230865
4891.91789098
4891.81765152
4891.70850444
4891.59697285
4891.48792245
4891.38423312
4891.28727608
4891.19770842
4891.11819995
4891.04875772
4890.99034501
4890.9441792
4890.91415112
4890.89921579
4890.24472659
4890.05280949
4889.72624492
4889.51545525
4889.45038376
4889.4795033
4889.62334049
4889.91059465
4890.35401134
4890.85523934
4891.28880361
4891.598911
4891.79606153
4891.91564782
4891.98606825
4892.0273683
4892.05247254
4892.07035887
4892.08640507
4892.1028999
4892.11839882
4892.12853407
4892.12690635
4892.10746989
4892.06624554
4892.00236916
4891.91788189
4891.81758298
4891.7083629
4891.59675172
4891.48765267
4891.38394822
4891.28701205
4891.19748115
4891.1180392
4891.04872299
4890.99043707
4890.94438306
4890.91441361
4890.89950222
4890.31987272
4890.14614865
4889.83367242
4889.6119242
4889.533151
4889.56558913
4889.72670562
4890.03068152
4890.46640211
4890.93270066
4891.3286871
4891.61320635
4891.79739086
4891.91196582
4891.9815501
4892.02388306
4892.05043598
4892.06967207
4892.08670228
4892.1035898
4892.11927678
4892.12928955
4892.12744322
4892.10779399
4892.06641972
4892.00243783
4891.9178768
4891.81751385
4891.70820557
4891.59650766
4891.48733474
4891.38362439
4891.28671393
4891.19721018
4891.11785062
4891.04868029
4890.9905487
4890.94484758
4890.9147276
4890.89981645
4890.40034344
4890.24920083
4889.96515572
4889.74315928
4889.65703831
4889.6922696
4889.86342054
4890.17272033
4890.58773644
4891.01215472
4891.36785126
4891.62606196
4891.79739031
4891.90722461
4891.97650295
4892.0198146
4892.04817245
4892.06889944
4892.08690625
4892.10438536
4892.12020585
4892.13008975
4892.12801235
4892.10813762
4892.06660802
4892.00253166
4891.917898
4891.81747932
4891.70808652
4891.5962877
4891.48704436
4891.38331851
4891.28643965
4891.1969323
4891.11768016
4891.04865864
4890.99067893
4890.94558157
4890.91509078
4890.90014418
4890.47598862
4890.35205335
4890.11020323
4889.90494323
4889.82152625
4889.85854166
4890.02916814
4890.32635908
4890.70577778
4891.08430461
4891.40128016
4891.63552025
4891.79567092
4891.90194685
4891.97104187
4892.01580925
4892.04591887
4892.06812406
4892.08713753
4892.10515939
4892.12110684
4892.13086054
4892.12855618
4892.10848063
4892.06680607
4892.00263971
4891.91795865
4891.81749688
4891.70803502
4891.59614064
4891.48682658
4891.38308961
4891.28625023
4891.19668989
4891.11755865
4891.04868525
4890.99079439
4890.94600665
4890.91547233
4890.90045472
4890.53889362
4890.44152638
4890.2465256
4890.07488766
4890.0077924
4890.04708991
4890.20266634
4890.46987322
4890.80616584
4891.14120119
4891.42566482
4891.64082391
4891.79280128
4891.89683209
4891.96594311
4892.01234441
4892.04401125
4892.06751871
4892.08737677
4892.10584432
4892.12189146
4892.13152458
4892.12901086
4892.10876697
4892.06698221
4892.00275702
4891.91804588
4891.81757257
4891.70805703
4891.59608381
4891.48670598
4891.38296422
4891.28617641
4891.19651831
4891.11750272
4891.04878271
4890.99128914
4890.94640117
4890.91584305
4890.90072876
4890.57923681
4890.49609264
4890.33012782
4890.18365794
4890.12928864
4890.16933882
4890.31215724
4890.5560837
4890.86428469
4891.17323083
4891.43878884
4891.6435656
4891.79142579
4891.89321746
4891.96314389
4892.01039376
4892.04297964
4892.06725592
4892.08764171
4892.10633525
4892.12237845
4892.13188027
4892.12923341
4892.10885024
4892.06700919
4892.00279139
4891.9181151
4891.81768047
4891.70816152
4891.59613448
4891.48671914
4891.38299458
4891.28627093
4891.19644727
4891.11753504
4891.04903716
4890.99162119
4890.94678285
4890.91618421
4890.90084813
4890.57976733
4890.47888647
4890.29487483
4890.13632974
4890.07428465
4890.11385274
4890.2626415
4890.51809237
4890.84122672
4891.16095274
4891.43291868
4891.64167323
4891.78978697
4891.89298289
4891.9631628
4892.01065018
4892.04347498
4892.06793048
4892.08842525
4892.10711001
4892.1230631
4892.13240648
4892.12958749
4892.10907132
4892.06715775
4892.00290402
4891.91823135
4891.81781599
4891.70828571
4891.59624109
4891.48678447
4891.38308402
4891.2865334
4891.19649714
4891.11761711
4891.04926767
4890.99188097
4890.9470579
4890.91636278
4890.90073161
4890.62096867
4890.50227527
4890.31127265
4890.14594815
4890.08243537
4890.12324203
4890.27520965
4890.53271933
4890.8554256
4891.17306094
4891.44328142
4891.64744795
4891.7949482
4891.89714497
4891.96641498
4892.01297518
4892.04473636
4892.06824979
4892.08836205
4892.10771261
4892.12547103
4892.13734062
4892.13703231
4892.1182556
4892.07683102
4892.0116398
4891.92471013
4891.82112378
4891.7083168
4891.59360328
4891.48240066
4891.37781095
4891.2811263
4891.190026
4891.11135977
4891.04244956
4890.98447627
4890.93911142
4890.90794781
4890.89207047
4890.61759226
4890.52692959
4890.36825207
4890.22902366
4890.18071712
4890.22292712
4890.3637486
4890.59844926
4890.89217021
4891.18866721
4891.44707455
4891.64987458
4891.79303922
4891.89547902
4891.96504911
4892.01171261
4892.04340737
4892.06691303
4892.08703633
4892.10647414
4892.12439989
4892.1364873
4892.13637259
4892.11772427
4892.07635623
4892.01117988
4891.92420466
4891.82055349
4891.70781635
4891.59318395
4891.48210648
4891.37751427
4891.28041521
4891.18986055
4891.11100749
4891.04199198
4890.98411359
4890.93869406
4890.90763283
4890.89200618
4890.57567134
4890.46782938
4890.27359689
4890.10608749
4890.04730013
4890.08962419
4890.24257498
4890.50256328
4890.82571202
4891.14765786
4891.42466246
4891.63853389
4891.79238002
4891.89581948
4891.96643301
4892.01287615
4892.04397761
4892.06670244
4892.08632895
4892.10544527
4892.12330998
4892.13565676
4892.13589786
4892.1175419
4892.07635107
4892.01126957
4891.92428632
4891.82055961
4891.70773134
4891.59308879
4891.48199435
4891.37734869
4891.28015127
4891.18998195
4891.1109797
4891.04195843
4890.98393718
4890.93842146
4890.90742442
4890.89206754
4890.51123245
4890.36712864
4890.10602723
4889.892854
4889.81901701
4889.86051252
4890.02800211
4890.32636411
4890.70257025
4891.07415318
4891.38779033
4891.62438359
4891.78908182
4891.89934759
4891.96983436
4892.01562217
4892.04542396
4892.0668979
4892.08562696
4892.10441956
4892.12236699
4892.13488874
4892.13533731
4892.11714299
4892.07611319
4892.01106224
4891.92410127
4891.82036669
4891.70758503
4891.59303524
4891.48200157
4891.37735822
4891.28010272
4891.19021278
4891.11105556
4891.04193052
4890.98381561
4890.9381318
4890.90717583
4890.89190544
4890.43651824
4890.25808374
4889.93014639
4889.68653875
4889.60673974
4889.64535573
4889.82025831
4890.14322317
4890.56834289
4890.99102374
4891.34500386
4891.60822424
4891.78652331
4891.90216386
4891.97438532
4892.01891051
4892.04722646
4892.06719639
4892.08492509
4892.10319527
4892.12103757
4892.13377938
4892.1345665
4892.11666277
4892.07580353
4892.01085546
4891.92395203
4891.82023873
4891.70753697
4891.59307962
4891.48212757
4891.37749097
4891.28015818
4891.19051628
4891.11117845
4891.04191313
4890.98360571
4890.93782497
4890.90688114
4890.89166844
4890.35898072
4890.15289437
4889.77459922
4889.52350058
4889.4557856
4889.49077079
4889.65514364
4889.98087142
4890.43956474
4890.90726953
4891.30028895
4891.59079462
4891.78351051
4891.90492325
4891.97874366
4892.02225427
4892.04891212
4892.06751531
4892.08416649
4892.1019008
4892.11968123
4892.13265731
4892.13378396
4892.11618585
4892.07552726
4892.01069892
4891.92386202
4891.82020967
4891.70757609
4891.5932308
4891.48235609
4891.37773553
4891.28037075
4891.19084023
4891.11136197
4891.04194993
4890.98347464
4890.93752222
4890.90660834
4890.89142907
4890.28646931
4890.05895974
4889.65598333
4889.4195713
4889.36565192
4889.39559352
4889.54522176
4889.85290624
4890.32587874
4890.8300596
4891.25783079
4891.57350344
4891.77994216
4891.90735829
4891.98233552
4892.02553663
4892.05050412
4892.06770436
4892.08345326
4892.10069866
4892.11843843
4892.13164033
4892.13308506
4892.11577918
4892.07531099
4892.01059844
4891.92384854
4891.8202402
4891.70770164
4891.59345364
4891.48265816
4891.37805544
4891.28067596
4891.19117234
4891.11159189
4891.04204589
4890.98343305
4890.93748921
4890.90641221
4890.89122211
4890.22764295
4889.98575505
4889.57120116
4889.3475109
4889.31513824
4889.34044655
4889.45742993
4889.76171689
4890.23634783
4890.76632728
4891.22199151
4891.55840834
4891.77655117
4891.90910209
4891.98545471
4892.02786832
4892.05183496
4892.06793206
4892.08294369
4892.09971755
4892.11741839
4892.13081913
4892.13253469
4892.11547612
4892.07516509
4892.01056216
4891.92388152
4891.82033287
4891.70786511
4891.59370438
4891.48297693
4891.37838265
4891.28099278
4891.19148228
4891.11183845
4891.04217861
4890.98345624
4890.93738958
4890.9062847
4890.89106979
4890.18773025
4889.93802018
4889.52432744
4889.31346988
4889.2912814
4889.31362392
4889.40991627
4889.70415689
4890.17644215
4890.72142686
4891.19635391
4891.54737067
4891.77381538
4891.9101183
4891.98755167
4892.02963812
4892.05271288
4892.06803636
4892.08248899
4892.09917789
4892.11670826
4892.13025641
4892.13216913
4892.11528767
4892.07509448
4892.01057014
4891.92394816
4891.82043928
4891.70802801
4891.593928
4891.48324565
4891.37866683
4891.2812601
4891.19174684
4891.11205989
4891.04232478
4890.98352791
4890.93730651
4890.90623631
4890.89099369
4890.16837316
4889.91566835
4889.50409653
4889.29222324
4889.28118903
4889.30162646
4889.38721984
4889.67564978
4890.14685223
4890.6986641
4891.18330342
4891.54172894
4891.77236145
4891.91057741
4891.98861172
4892.03050496
4892.05320675
4892.06810228
4892.08226516
4892.0989064
4892.11637243
4892.12999769
4892.13201436
4892.11523562
4892.0750973
4892.01061656
4891.92402349
4891.82053748
4891.70815766
4891.59408807
4891.48342548
4891.3788541
4891.28145055
4891.19193039
4891.11222712
4891.04246061
4890.98363407
4890.93731827
4890.90627268
4890.8910099
4890.16977369
4889.91704771
4889.50386678
4889.29232953
4889.28083149
4889.30132051
4889.3888313
4889.67617656
4890.14775063
4890.69961352
4891.1839915
4891.54214735
4891.77255336
4891.91066631
4891.98863115
4892.03053308
4892.05321623
4892.0681371
4892.08231185
4892.09896114
4892.11644173
4892.13007115
4892.13208876
4892.11532403
4892.07516808
4892.0106867
4891.92409664
4891.82060989
4891.70822906
4891.59415842
4891.48349321
4891.37892739
4891.28153193
4891.19201644
4891.11232137
4891.04256953
4890.98375528
4890.93742114
4890.9063877
4890.89112067
4890.19186138
4889.94230734
4889.52488303
4889.31481017
4889.29050471
4889.31297454
4889.41114306
4889.70585731
4890.1791743
4890.72424684
4891.19837499
4891.54859668
4891.77445516
4891.91040505
4891.98765182
4892.02971067
4892.05277694
4892.06814638
4892.08265635
4892.09940433
4892.11691691
4892.13047468
4892.13239155
4892.11550939
4892.0753104
4892.01078823
4891.92416626
4891.82065486
4891.70824147
4891.59413691
4891.48345284
4891.37888493
4891.28149244
4891.19199937
4891.11233993
4891.04264774
4890.98388838
4890.93760448
4890.90657688
4890.89131981
4890.23419498
4889.99150219
4889.57332437
4889.35005236
4889.31519011
4889.34049003
4889.45998754
4889.7651817
4890.24110835
4890.77093579
4891.22523116
4891.56036024
4891.77757433
4891.90957117
4891.98565966
4892.02797029
4892.05193107
4892.06811884