/*--------------------------------*- C++ -*----------------------------------*\
| =========                 |                                                 |
| \\      /  F ield         | OpenFOAM: The Open Source CFD Toolbox           |
|  \\    /   O peration     | Version:  3.0.1                                 |
|   \\  /    A nd           | Web:      www.OpenFOAM.org                      |
|    \\/     M anipulation  |                                                 |
\*---------------------------------------------------------------------------*/
FoamFile
{
    version     2.0;
    format      ascii;
    class       surfaceVectorField;
    location    "2.1";
    object      ddt0(Uf);
}
// * * * * * * * * * * * * * * * * * * * * * * * * * * * * * * * * * * * * * //

dimensions      [0 1 -2 0 0 0 0];

internalField   nonuniform List<vector> 
22672
(
(0.000246129134838 3.28098140436e-05 -0.000174147375841)
(4.04459827271e-05 0.000231099760333 -0.000175054271013)
(0.000179186070657 0.000170865191309 -0.000455401309909)
(0.000679787771491 -6.15821660414e-05 -0.000168613488539)
(0.000356787475408 0.000104392991529 -0.000392115693013)
(0.00055401000509 0.000146837801934 -0.000514505489547)
(0.00114208078263 -8.33178958071e-05 -0.000140921398463)
(0.000939649943566 9.32640467875e-05 -0.000471755965915)
(0.0010706235878 0.000173223868141 -0.000534179174387)
(0.00150363981999 -4.2362343583e-05 -0.000108402968358)
(0.00141517874803 0.000181864627466 -0.000482032703497)
(0.00149300488209 0.000258776573973 -0.000526187237046)
(0.00168460105387 4.75396378042e-05 -8.4998211757e-05)
(0.00172920788811 0.000353238780484 -0.000479519111016)
(0.001766315617 0.000389293742612 -0.000521946025118)
(0.00165299829103 0.000151302172654 -7.33617525789e-05)
(0.00181040377997 0.000566402988635 -0.000476263891322)
(0.00181976403704 0.000542060714987 -0.000527582420486)
(0.00143188939813 0.000250215954953 -7.06331667334e-05)
(0.00167466535402 0.00076578288084 -0.000477755569133)
(0.00167428722783 0.000673972136203 -0.000541913323684)
(0.0010500748336 0.000335378162303 -7.29931021239e-05)
(0.00134141361006 0.000941527789089 -0.000483079892908)
(0.00133851853437 0.000794436476886 -0.000560378140874)
(0.000562538138187 0.000389249238686 -7.73679298071e-05)
(0.000867612878725 0.00106604000088 -0.000492298977011)
(0.000865215983925 0.000879232488499 -0.000581303122393)
(2.31857754749e-05 0.00040818782868 -7.89740693183e-05)
(0.000313927637487 0.0011306793623 -0.000499243871389)
(0.000313114554947 0.000923037612299 -0.000594875211447)
(-0.00051916638501 0.000391300048413 -7.60693560637e-05)
(-0.000267382435865 0.00113318446817 -0.000498795933425)
(-0.000266417145775 0.000924590361674 -0.000593747857877)
(-0.00101492270447 0.000338955735322 -7.07038984722e-05)
(-0.000827268658125 0.00107300195558 -0.000490939848212)
(-0.000824542694601 0.000883516082476 -0.000578197145897)
(-0.0014080533615 0.000254469043847 -6.79419781314e-05)
(-0.00131231179443 0.000951449574091 -0.000481327925315)
(-0.00130886685594 0.000800546377173 -0.000556050954753)
(-0.0016407239562 0.000156040596622 -7.0928271839e-05)
(-0.00165843631496 0.000776933165947 -0.000476420845694)
(-0.00165743356825 0.00068091912056 -0.000537649417468)
(-0.00168222567201 5.22735968544e-05 -8.38281196774e-05)
(-0.00180595332728 0.00057813451401 -0.000476098618785)
(-0.00181498802201 0.000549985585354 -0.00052478323256)
(-0.00150654351123 -3.78981566483e-05 -0.000109322297286)
(-0.00173267969355 0.000364419714049 -0.000481793242762)
(-0.00177031166227 0.00039682585405 -0.00052252687902)
(-0.00114566478815 -7.83002212508e-05 -0.000144032564641)
(-0.00142114823741 0.000193298123672 -0.000487093314017)
(-0.00150037058226 0.000266699190883 -0.000530974610857)
(-0.000679777525291 -5.48831545395e-05 -0.000173125543463)
(-0.00094292811642 0.000105996318567 -0.000479179372555)
(-0.00107618161716 0.000181844475023 -0.000543247475729)
(-0.000240254272452 4.26597591952e-05 -0.000178861442118)
(-0.000352262669114 0.000120146798749 -0.000399245004857)
(-0.000552663034043 0.000157440525357 -0.000525258018264)
(-3.7397414717e-05 0.000251227365802 -0.000178332700428)
(-0.00017816978347 0.000184344248786 -0.000466422023883)
(0.000118114411228 0.000336341065797 -0.000393022588185)
(-5.42675748665e-05 0.000654029639904 -0.000171515856315)
(0.00015319781355 0.000532660311657 -0.000516942862157)
(0.000633965023657 0.000292754825291 -0.00069525817039)
(0.00031200285061 0.000610206820697 -0.000695719811167)
(0.000550932710114 0.000532819707466 -0.000996976742737)
(0.00121064242894 0.000395732315814 -0.000812867270949)
(0.00104648801815 0.000724578664872 -0.000896863440483)
(0.00112996939943 0.000646161667384 -0.00118634633376)
(0.00164543046374 0.000625372738331 -0.000853148846155)
(0.0016228530335 0.00100291710169 -0.000935588650925)
(0.00158339152194 0.000883204570597 -0.00123914697232)
(0.0018581197005 0.000933511100398 -0.000870784790581)
(0.00198440089803 0.00140132942437 -0.00092871084421)
(0.00186025602685 0.00120586006274 -0.00124985317766)
(0.00182928665483 0.00125454385522 -0.000880657707876)
(0.00207542257555 0.00184625250057 -0.0009093281925)
(0.00191588483551 0.00155677307816 -0.00124586769047)
(0.00157662390312 0.00154082366425 -0.000890202295308)
(0.00190528511559 0.00225972673041 -0.000893413069469)
(0.0017523910967 0.00187969186852 -0.00124127114423)
(0.00115269960992 0.00176411149779 -0.000902385767795)
(0.00151834457174 0.00260523537289 -0.000888321071696)
(0.00139859151663 0.00214843812023 -0.00124378572347)
(0.000616105521512 0.00190455170154 -0.000914174918593)
(0.000978498949024 0.00285003981186 -0.000893645375751)
(0.000904372390075 0.00233856712791 -0.00125397633361)
(2.45051019331e-05 0.00195467586855 -0.000919065735496)
(0.000353806706923 0.00297784234176 -0.000900337387179)
(0.000328005326426 0.00243809430521 -0.00126307699693)
(-0.000570596351868 0.00191250726783 -0.000913666425573)
(-0.000300046630296 0.00298385330485 -0.000899668387)
(-0.000277459858051 0.00244290757449 -0.00126231565884)
(-0.00111699944359 0.00177841384046 -0.000901563875055)
(-0.00093271840085 0.00286658903967 -0.000891923503264)
(-0.000861064170141 0.00235199883639 -0.00125144542181)
(-0.00155436643385 0.00155900762186 -0.000889806792878)
(-0.00148661074722 0.0026292790074 -0.000886211084748)
(-0.00136820864682 0.00216809726611 -0.00124060214251)
(-0.00182069243826 0.00127436547059 -0.000881591192641)
(-0.00188931256558 0.00228752326792 -0.000892327301763)
(-0.00173708590174 0.00190280127338 -0.0012388715939)
(-0.00185994405975 0.000953555201956 -0.00087406374187)
(-0.00207313438899 0.00187541546526 -0.000910216459126)
(-0.0019144405444 0.00158137997642 -0.00124609608321)
(-0.00165263284859 0.000645416240192 -0.000859564259493)
(-0.00199065655339 0.00143049520587 -0.000932944807872)
(-0.00186832725302 0.00123093803666 -0.0012544976906)
(-0.00121710171446 0.000416655755937 -0.000822240121931)
(-0.00163128455667 0.00103265596321 -0.000943489158549)
(-0.00159511126692 0.0009089145217 -0.00124938487302)
(-0.000634405261217 0.000315908581886 -0.000705298833949)
(-0.00105068413696 0.000755852142908 -0.000907285365554)
(-0.00113899165253 0.000673103223861 -0.00120113510515)
(-0.000110210164671 0.000362913403397 -0.000398716263167)
(-0.000306159266514 0.000644094884599 -0.00070460554935)
(-0.000551450258589 0.000562208588462 -0.00101155850172)
(5.93802166305e-05 0.000690656598527 -0.000171843648279)
(-0.000152308793808 0.000565010304479 -0.000523797329389)
(0.000106658235134 0.000911559669153 -0.000474213079297)
(-7.59870906995e-05 0.00110991688686 -0.000144840937192)
(0.000178910536466 0.00104149879686 -0.000539012193519)
(0.000747384655542 0.00102011429953 -0.00089732508126)
(0.000414536365384 0.00118068855736 -0.000813957184731)
(0.000662900462901 0.00110408888777 -0.00118770061636)
(0.00145505610105 0.00130403990347 -0.00101958482046)
(0.00132953879449 0.00142645713348 -0.00101945652959)
(0.00134612309719 0.0013219553184 -0.00138963589855)
(0.00196961525771 0.00174293178218 -0.00101115064898)
(0.00202794564758 0.0018740266587 -0.000987455224469)
(0.00185809461883 0.00170050346878 -0.00137133945001)
(0.00220503187594 0.00226631597023 -0.000967254246129)
(0.00244159709715 0.00245589812186 -0.000887645977473)
(0.00215024533167 0.00218098111739 -0.00128221500726)
(0.00215043927491 0.00279009507943 -0.000922083554093)
(0.00252128899874 0.00307998383855 -0.000779722560879)
(0.00218866043615 0.00269006426076 -0.00117813341447)
(0.00184030624304 0.00324931006071 -0.000891531845858)
(0.00229014251415 0.00365518388973 -0.000692218699062)
(0.00198277731672 0.00315843467049 -0.00109062267741)
(0.00133804583305 0.00360413186269 -0.000879580679652)
(0.00181085721278 0.00413046777537 -0.000637796505616)
(0.0015723298544 0.0035458696097 -0.00103353136216)
(0.000713694059484 0.00382814279143 -0.000879807844337)
(0.00116116991865 0.00446734080217 -0.000615225609194)
(0.00101390718578 0.00382175587696 -0.00100723047377)
(3.0570704171e-05 0.00390890167128 -0.000880940038683)
(0.000420391644914 0.0046438283102 -0.000609449611724)
(0.000369356217181 0.00396784069627 -0.000998915045606)
(-0.000657454990868 0.00384251773609 -0.000877925464691)
(-0.000351386382746 0.00465294869442 -0.000607587764266)
(-0.000306250902362 0.00397594534345 -0.000996639937996)
(-0.00129462762618 0.00363011573438 -0.000876570712957)
(-0.00110311136816 0.00449263771633 -0.000610723705056)
(-0.000960324415097 0.0038443754553 -0.00100157945161)
(-0.00181424009552 0.00328265585672 -0.000888731593633)
(-0.00177151635225 0.00416726492395 -0.000632061329372)
(-0.00153530565108 0.00357907292829 -0.00102594077011)
(-0.00214086977376 0.00282682588844 -0.000920952568248)
(-0.00227110256915 0.00369769760116 -0.000687602730923)
(-0.00196449123394 0.00319737463396 -0.00108410812926)
(-0.00220762864503 0.0023041369352 -0.000969097525127)
(-0.0025185300981 0.00312427307973 -0.000777904901057)
(-0.00218659780189 0.00273147611151 -0.00117445227128)
(-0.00197790068227 0.00178131304429 -0.00101686970693)
(-0.00244841827798 0.0025008157521 -0.000889450247758)
(-0.00215901213328 0.00222353004562 -0.00128383505617)
(-0.00146195969275 0.0013434246867 -0.00102853440217)
(-0.00203703786376 0.00191983492552 -0.000993253086329)
(-0.00187106575351 0.00174410662175 -0.0013789249988)
(-0.000746983940688 0.00106121113452 -0.000906592080955)
(-0.0013335750436 0.00147344690496 -0.00102812543448)
(-0.00135603326696 0.00136682072781 -0.00140145697714)
(-9.68370180051e-05 0.000954479858672 -0.000477732934462)
(-0.000407297520683 0.00122944049794 -0.000820450699631)
(-0.000663324847978 0.00115074306132 -0.00119874932336)
(8.27628125206e-05 0.00115951597742 -0.000141344117012)
(-0.000177199636519 0.00108960212895 -0.000539872023015)
(0.000195029694162 0.00138263508308 -0.000484585042626)
(-3.48210420394e-05 0.00146792119195 -0.000112432395243)
(0.000264305350723 0.00145903860325 -0.000531276283667)
(0.00102525372985 0.00159227547476 -0.000936088633064)
(0.000644309868337 0.00161247013563 -0.000853862207918)
(0.000899389056525 0.00155260835019 -0.00124075441382)
(0.00190191883671 0.00199855638703 -0.000987326933603)
(0.00176837842086 0.00193812272532 -0.00101040874279)
(0.00172391658137 0.00182898559834 -0.00137124555729)
(0.0025145198582 0.00257999463547 -0.000863950552961)
(0.0026089609318 0.00248423840003 -0.000863155584646)
(0.00231981221867 0.00229165229643 -0.00121214512153)
(0.00276729472931 0.00324882559636 -0.000700114292222)
(0.00307895775073 0.00316786380815 -0.000629542544514)
(0.0026342631647 0.00286636794436 -0.000961855947442)
(0.00266225453919 0.00390865030732 -0.000549857705848)
(0.00313510201151 0.00388827037594 -0.000393675313555)
(0.00264205458203 0.00346984576341 -0.000708815141834)
(0.00225676060326 0.00448520091653 -0.00043848335882)
(0.00282013837613 0.00454573504676 -0.000203040559661)
(0.00236715385228 0.00402458865481 -0.000499045449108)
(0.00163016724338 0.00493094714224 -0.000373441435158)
(0.0022162778977 0.00509027813815 -7.24586017601e-05)
(0.00186284815594 0.00448414236123 -0.000354815485435)
(0.000866923813524 0.00521315697325 -0.000344867376581)
(0.00141631168764 0.00547972656692 -2.33354855923e-06)
(0.00119629065468 0.00481265577291 -0.000276696434305)
(4.00670241998e-05 0.00531560455005 -0.000336097337307)
(0.000513865572727 0.00568544586616 2.64491175912e-05)
(0.00043748782186 0.0049873064476 -0.000245768527741)
(-0.000793463018065 0.00523287826423 -0.000340386004631)
(-0.000423706809838 0.00569671751911 2.99537925039e-05)
(-0.000355125023096 0.00499810160062 -0.000241504101733)
(-0.00157428295643 0.00496644774931 -0.000366214321471)
(-0.00134134528996 0.00551157096782 6.24538067424e-06)
(-0.00112691012439 0.00484278086267 -0.00026610366459)
(-0.00222401784298 0.00453030227959 -0.000430932466662)
(-0.00216675269243 0.00513643066929 -6.18294304694e-05)
(-0.00181559714987 0.00452809259007 -0.000340792582215)
(-0.00265043525847 0.00395775069281 -0.000544555063732)
(-0.00279705570431 0.00459785904331 -0.000194234852965)
(-0.0023439901439 0.00407523056006 -0.000485832812854)
(-0.00276952340341 0.00329914454117 -0.000698257623688)
(-0.00313135828108 0.00394188820353 -0.000388949543963)
(-0.00263814713889 0.00352277068808 -0.000699788740877)
(-0.00252301276604 0.00263107773968 -0.000865833627159)
(-0.0030856028372 0.00322171619241 -0.000628360807112)
(-0.002642500647 0.00292045285307 -0.000957543243773)
(-0.00190902169858 0.00205070236978 -0.000992844118641)
(-0.00261795436186 0.00253915057257 -0.000865608430789)
(-0.00233294097765 0.00234713135656 -0.00121323194139)
(-0.0010240748334 0.00164562669785 -0.00094198405316)
(-0.00177204074663 0.00199437151859 -0.00101562264778)
(-0.00173410877746 0.00188578403 -0.00137715122089)
(-0.000183936191761 0.00143666190252 -0.000484061882181)
(-0.000636097126128 0.00166965072078 -0.000856589875752)
(-0.000899591890145 0.00161062067298 -0.00124493329774)
(4.26775911097e-05 0.00152496386717 -0.000104536100066)
(-0.000262013705838 0.00151729295491 -0.000524361891072)
(0.00036685441063 0.00169473020307 -0.000481709560535)
(5.57429067628e-05 0.00164816415045 -8.92282406205e-05)
(0.000394955114453 0.00173049533258 -0.000527501365716)
(0.00142411602544 0.00195216095822 -0.000928182317649)
(0.000953337710932 0.00182424760992 -0.000870821450414)
(0.00122222993129 0.00182728739813 -0.00125042116583)
(0.00248409070308 0.00241091499568 -0.000886237393837)
(0.00229266844043 0.00217293571635 -0.000965392989477)
(0.00220450195763 0.00211884457142 -0.00128107650185)
(0.00319781141985 0.00304938187482 -0.000628747576198)
(0.00327861490141 0.00273673774713 -0.000697550662506)
(0.00289451165247 0.00260400905389 -0.000960155780858)
(0.00346242826644 0.00377475411553 -0.000323103565847)
(0.00380438823095 0.0034329913171 -0.000321259304799)
(0.00323398000291 0.00320430904004 -0.000533378335962)
(0.003294884469 0.00448554555549 -4.68581673687e-05)
(0.00382477964811 0.00415547024698 4.60296424601e-05)
(0.00320499523423 0.0038337719498 -0.000114453583701)
(0.00277600560426 0.00510606974267 0.000162984197399)
(0.00341566578686 0.00480903068998 0.000337983102307)
(0.00284920471013 0.00441327002006 0.000228941530679)
(0.0020001809189 0.00559066374243 0.000298649284839)
(0.00267559169837 0.00535556152276 0.000544860434331)
(0.00223325740756 0.00489735328256 0.0004724810293)
(0.00106435698528 0.00590126287317 0.000368982945613)
(0.00170685559686 0.00575095897188 0.000665069081647)
(0.00143190108109 0.00524881858822 0.000616956185012)
(5.19994800798e-05 0.0060148302729 0.000392500247402)
(0.000620208442853 0.00595997487062 0.000716513528463)
(0.000525627024227 0.0054371003884 0.00068400143551)
(-0.000969378410759 0.00592421403149 0.000376585177809)
(-0.000505678551102 0.00597228613314 0.000721438549983)
(-0.000419585754028 0.00544937061676 0.000690472630608)
(-0.001929205903 0.00563226047891 0.000310630271675)
(-0.00161210596383 0.0057860874729 0.000678294795035)
(-0.00134338978264 0.00528384332904 0.000633783350204)
(-0.002735924367 0.00515807380214 0.000174868183228)
(-0.00261507581048 0.00540679129248 0.000561267943701)
(-0.0021744879796 0.00494833071204 0.000493658540999)
(-0.00328073155115 0.00454075722051 -3.86293331963e-05)
(-0.00338920749898 0.00486544360538 0.000349817340019)
(-0.00282143896373 0.00447028987232 0.000247175076476)
(-0.00346422527318 0.00383034109706 -0.000319052727388)
(-0.00382057468813 0.0042119753895 5.15329276502e-05)
(-0.00319964604719 0.00389173209791 -0.000101913205184)
(-0.0032059550454 0.00310550184064 -0.000628135610742)
(-0.00381062901153 0.00348893694691 -0.000319866962116)
(-0.00324128928974 0.00326248973177 -0.000525858902213)
(-0.00249067837159 0.00246828490166 -0.000888386959924)
(-0.00328682335144 0.00279364382801 -0.000698282388676)
(-0.00290689314272 0.00266366930605 -0.00095660334315)
(-0.00142240457501 0.0020106066157 -0.000930228470369)
(-0.00229566087572 0.00223111414248 -0.000967730737872)
(-0.00221435389809 0.00217997460815 -0.00128061744031)
(-0.000355038550545 0.00175330841577 -0.000477064093637)
(-0.000944548274053 0.001883132417 -0.000870481867041)
(-0.00122213631096 0.00188935070299 -0.00124814748641)
(-4.73115723269e-05 0.00170624067225 -7.78012870593e-05)
(-0.000392272477657 0.00179226286413 -0.000512876750372)
(0.000580949455515 0.00177645550241 -0.000478340130499)
(0.000159745165694 0.00161804631479 -7.75331424952e-05)
(0.000548483634628 0.00178465551772 -0.000533313286329)
(0.00187039420183 0.00204362700935 -0.000908032122242)
(0.00127535877063 0.00179689234014 -0.000880396867226)
(0.00157399343722 0.00188317078411 -0.0012460331835)
(0.00310958553379 0.00249108673842 -0.000776706258146)
(0.00281775626225 0.00211928407031 -0.000918889258126)
(0.0027146211658 0.00215711807346 -0.00117534866011)
(0.00391945584019 0.00310628904133 -0.000390062391107)
(0.00393994470867 0.00263216397187 -0.000544681743786)
(0.00349926240316 0.0026114841715 -0.000704457007101)
(0.00418541982632 0.00379648281251 4.78739035081e-05)
(0.00451609717138 0.00326558290675 -4.12051745356e-05)
(0.00386427418774 0.00317519974955 -0.000110132891475)
(0.00394440088689 0.00446191950603 0.000430870912136)
(0.00449054327146 0.00391453947695 0.000433938923611)
(0.00379410188084 0.00376424099278 0.000455349329514)
(0.0033079570404 0.00504269940035 0.000719859339239)
(0.00399161426283 0.00450194112405 0.000801841781882)
(0.00335625391982 0.00430542241859 0.000900227481388)
(0.00238027889219 0.00550076507445 0.00091128023114)
(0.0031201273346 0.00500470746939 0.00107114782204)
(0.00262661860393 0.0047649030077 0.00121843632109)
(0.00126609196976 0.00579450104149 0.0010125996645)
(0.00198578203753 0.00537291696415 0.00123107757259)
(0.00168339965971 0.00510185447812 0.00141750140394)
(6.47793356603e-05 0.00590169466858 0.00104545183104)
(0.0007213835954 0.00556599891162 0.00129853435457)
(0.000619130780386 0.00528205174696 0.00151059508091)
(-0.0011478480505 0.00581793904167 0.00102314816721)
(-0.000582437239674 0.00557748444621 0.0013045128813)
(-0.000488038154434 0.00529441488241 0.00151955047535)
(-0.00229289239003 0.00554394342956 0.000928932467061)
(-0.00187053501298 0.00540584189165 0.00124860959926)
(-0.00157405835707 0.00513772766433 0.0014420137636)
(-0.00326115914225 0.0050964955268 0.000736217100492)
(-0.00304866525703 0.00505379232964 0.00109375483468)
(-0.00255654269802 0.00481811385836 0.00124986201156)
(-0.0039292454365 0.00451773832632 0.000439979600866)
(-0.0039629817802 0.00455655933322 0.000815855270906)
(-0.00332561882156 0.00436346331192 0.00092280771472)
(-0.00418712589523 0.00385140947264 5.07186929219e-05)
(-0.00448684576194 0.00396915450035 0.00043811029256)
(-0.00378867134225 0.00382172721366 0.00046649510722)
(-0.00392703799202 0.0031610666082 -0.00039001374005)
(-0.00452230373934 0.00331850022068 -4.19790683373e-05)
(-0.0038709473024 0.00323192843118 -0.000103828299096)
(-0.00311533712739 0.00254697511199 -0.000777626166624)
(-0.00394711313726 0.00268564104277 -0.000546116978775)
(-0.0035103427623 0.00266903576322 -0.000699947197543)
(-0.00186801429034 0.0021005322912 -0.000907984134545)
(-0.00281993406061 0.00217380092589 -0.000920119464814)
(-0.002723634593 0.00221590908642 -0.0011716429347)
(-0.000568983579859 0.00183321999127 -0.000471219060464)
(-0.00126626059095 0.00185207941972 -0.000877974933075)
(-0.00157350962213 0.00194265054381 -0.001239244263)
(-0.000151294977922 0.00167222172144 -6.39570581953e-05)
(-0.00054547460937 0.00184332312346 -0.000513793755996)
(0.000780490321922 0.00164305956835 -0.000479589879222)
(0.000258594939979 0.00140064921433 -7.47701348407e-05)
(0.000680196828802 0.00164181768157 -0.000547249993777)
(0.00228486047987 0.00187516571733 -0.00089125400311)
(0.00156189384573 0.00154720195998 -0.000889489115903)
(0.00189737657672 0.00172160652988 -0.0012408057745)
(0.00368608346385 0.0022605687912 -0.000686864743765)
(0.00327731133053 0.00181075439953 -0.000887195352205)
(0.00318378547824 0.00195209048643 -0.00108584493357)
(0.00457801585926 0.00279085689713 -0.000195824527214)
(0.00451708095471 0.00222623208831 -0.000431087877921)
(0.00405512625918 0.00233605329798 -0.000490639266584)
(0.00483970598747 0.00338578147243 0.000344859845567)
(0.00513654739572 0.00274437996544 0.000172265114033)
(0.00444489641714 0.00281756491981 0.000239028963956)
(0.00453182972818 0.00396121645489 0.000804909793357)
(0.00507142353803 0.00327340280284 0.000726790637775)
(0.00433604793163 0.00332352964259 0.000908654648899)
(0.00379031422999 0.0044740966156 0.00115313026468)
(0.00450462727026 0.00375545882834 0.0011557654055)
(0.00382959774222 0.00379725090308 0.00142486731114)
(0.00272371759401 0.00488445992488 0.00139094516349)
(0.00351180920256 0.00417376937915 0.00149620488858)
(0.00299728028803 0.00421058943376 0.00181098229587)
(0.00144677573412 0.00514578245464 0.00151701226266)
(0.00223483278125 0.00448202258641 0.00164672013161)
(0.00191935502845 0.00451442448275 0.00206049326851)
(7.65734559014e-05 0.00524025441822 0.00155759540482)
(0.000811369216998 0.00463700017099 0.00171122012296)
(0.000706388274036 0.0046757752022 0.00217742718625)
(-0.00130638977346 0.0051655526487 0.00152997431335)
(-0.000652293682978 0.00464551701658 0.00171763477465)
(-0.000551795071741 0.00468598303308 0.0021881601426)
(-0.00262017509706 0.00492090482916 0.00141343196688)
(-0.00210231648799 0.00450648150697 0.00166585450911)
(-0.00178979482255 0.00454396371331 0.00209219129939)
(-0.0037374588403 0.00452116748412 0.00117339300509)
(-0.00342957673747 0.00421133335149 0.00151995228688)
(-0.00291625515125 0.00425540463758 0.0018545411417)
(-0.00451655244072 0.00401208839298 0.000813985962601)
(-0.00447209019209 0.00380083676096 0.00117076061358)
(-0.00379721592004 0.00384898308903 0.00145244890716)
(-0.00484235065207 0.00343618006484 0.000345412531301)
(-0.00506762685357 0.00332114083226 0.000730062392594)
(-0.00433115748427 0.00337624545507 0.000917616192893)
(-0.00458538428198 0.00284054955789 -0.000198082307063)
(-0.00514310015917 0.00279104883672 0.000168869192775)
(-0.0044515308061 0.00286923661489 0.000240248393249)
(-0.00369108636336 0.0023108644515 -0.000688610276966)
(-0.00452355115305 0.00227304510795 -0.000434250695587)
(-0.00406542041728 0.00238766820888 -0.000488940764078)
(-0.00228190332281 0.00192612946739 -0.000890110263345)
(-0.00327913414581 0.00185777407467 -0.000888562281429)
(-0.00319206982453 0.00200419173956 -0.0010819251559)
(-0.000768940726856 0.00169383463812 -0.000470712930807)
(-0.00155295774332 0.00159434707535 -0.000885985252657)
(-0.0018966963915 0.00177395835536 -0.00123131219148)
(-0.000250461500701 0.00144683766885 -6.01560105171e-05)
(-0.000677272384527 0.00169328757756 -0.000525077034562)
(0.000956221218783 0.00131415905851 -0.000484669371521)
(0.000343767775455 0.0010248475745 -7.72017587743e-05)
(0.000800599167567 0.00131083135239 -0.000565679145054)
(0.0026299973762 0.00149127044628 -0.000885430464997)
(0.00178430828229 0.00112838068763 -0.000901287364632)
(0.00216549166152 0.0013714948803 -0.00124269361867)
(0.00416080071258 0.00178213841437 -0.00063141848636)
(0.00363056261589 0.00131182085648 -0.000874873102458)
(0.00357042095081 0.0015435564226 -0.00102789899134)
(0.00512191230821 0.00218513487933 -6.29982366739e-05)
(0.00496089306134 0.00160038314921 -0.000365666069174)
(0.00451390211722 0.0018311950538 -0.000345143039248)
(0.00538519330302 0.00264103038676 0.000554195906241)
(0.00561850539361 0.0019661762109 0.000308515420797)
(0.00492788828213 0.00219804395415 0.000485404710535)
(0.00503512206971 0.0030823987982 0.00107764624992)
(0.00552719672874 0.00234032371079 0.00091788460896)
(0.00479575596529 0.00258715192546 0.00122843212859)
(0.00420920211194 0.00347258883408 0.00149884002939)
(0.00491397382624 0.00267931339784 0.00139392558338)
(0.00424402166821 0.00295564760375 0.001817986617)
(0.00301479064701 0.0037963015091 0.00175197985669)
(0.00383605035023 0.00296898818572 0.00174988200139)
(0.00331963464472 0.0032770215796 0.0022845724633)
(0.00160624469368 0.00401235749383 0.0018409279919)
(0.00243912109053 0.00319695532241 0.00188897426742)
(0.00212906438287 0.00352447786077 0.00255173681977)
(8.47035751816e-05 0.00408778520255 0.00187125949278)
(0.000883925622424 0.00331362295396 0.00195252974531)
(0.000782878023889 0.00365164349962 0.00268414272944)
(-0.00144992790089 0.00402535803898 0.00185351497041)
(-0.000711201700093 0.00331866922185 0.00195760886833)
(-0.000612104463316 0.00365758939122 0.00269418874771)
(-0.00289847364174 0.00382154830407 0.00177237482912)
(-0.0022939043484 0.00321206956567 0.00190745088393)
(-0.00198468924851 0.00354335801911 0.00258318910691)
(-0.00414740586804 0.00350735898326 0.00151731989537)
(-0.00374354233076 0.00299418011088 0.00177354914837)
(-0.00322694904402 0.00330750718982 0.0023264650778)
(-0.00501631084891 0.00312254152231 0.00108683704358)
(-0.00487560202074 0.00271129153665 0.00140906367048)
(-0.00420487491634 0.00299452571806 0.00184763612649)
(-0.0053876965359 0.0026827289317 0.000553519054068)
(-0.00552102632927 0.00237593096966 0.000921136794239)
(-0.00478902141248 0.00262972892085 0.00123835564803)
(-0.00512933072798 0.00222676644755 -6.72991957493e-05)
(-0.00562467484171 0.00200221284503 0.00030451378267)
(-0.00493456917387 0.00224080568722 0.000484162736671)
(-0.00416594679946 0.00182378076324 -0.00063420270005)
(-0.00496735685766 0.00163683433984 -0.000369963273619)
(-0.00452406004749 0.00187360343323 -0.000345450284676)
(-0.00262737448743 0.00153286544606 -0.000884437270742)
(-0.00363274842318 0.00134816379542 -0.00087692760648)
(-0.00357882098982 0.00158585068318 -0.00102499559895)
(-0.000945368205439 0.0013552991907 -0.000475428332368)
(-0.00177602035848 0.00116451436284 -0.000897997004293)
(-0.00216532113121 0.00141350564255 -0.0012332792658)
(-0.000335965545611 0.00106008646753 -6.24872519499e-05)
(-0.000797928024817 0.00135182415522 -0.000542891181433)
(0.00107989528096 0.000847000242168 -0.000493819751885)
(0.000397284550427 0.000545854349932 -8.17305368727e-05)
(0.000884890450691 0.000844428638976 -0.000586655264045)
(0.00287276522071 0.000956868399404 -0.000890730002092)
(0.00192285675737 0.000599709815482 -0.000913007835021)
(0.00235377148786 0.000883380612721 -0.0012528835559)
(0.00449443787472 0.00113597267094 -0.000609120685272)
(0.00385138198446 0.000694199660429 -0.000875570908079)
(0.00384347444579 0.00098968011965 -0.00100221207045)
(0.00550744113804 0.00138608713311 5.84758829648e-06)
(0.00523879989494 0.000842337121452 -0.00033804304955)
(0.00483853055251 0.00116692114254 -0.000269205687564)
(0.00577624965447 0.00167010141189 0.000672204123516)
(0.00592363650992 0.0010333039364 0.00037658662446)
(0.00527466288523 0.00139615630462 0.000626603960899)
(0.00539950805827 0.00194231666366 0.00123416394243)
(0.005815363431 0.00122705763795 0.00101465231278)
(0.00512802740521 0.00164007066141 0.00142238245338)
(0.00451627283656 0.0021874973844 0.00164496755538)
(0.00517200154501 0.0014013693457 0.00151358848941)
(0.0045454229229 0.00186970874079 0.00205813984525)
(0.00324306428118 0.00239058841078 0.00188687641211)
(0.00405205309021 0.00155805257878 0.00183307406021)
(0.003567604319 0.00207737911824 0.00254416595173)
(0.00172636287684 0.00252151212405 0.00200057602083)
(0.00257082826061 0.00167688284088 0.00199737999288)
(0.00228267343516 0.00222993389493 0.00286401775221)
(8.96208005193e-05 0.00256763829105 0.00203887912086)
(0.000930320693768 0.00173843385604 0.00207357065185)
(0.000836900631797 0.0023087465253 0.00301672212913)
(-0.00155871120134 0.00252874468008 0.00201154478185)
(-0.000749649091936 0.00174130021873 0.00207860770028)
(-0.000656022388634 0.00231217422539 0.00302314919931)
(-0.0031159247142 0.00240495659581 0.00190862520319)
(-0.0024174672703 0.00168308728839 0.00201446170129)
(-0.00212695897777 0.0022396316431 0.00289312077755)
(-0.00444673657742 0.00220887862346 0.00166529292348)
(-0.0039515558706 0.00156971904385 0.0018586329498)
(-0.00346461789581 0.00209495447077 0.00258647382701)
(-0.00537602046124 0.00196857900447 0.00124336342114)
(-0.00512868837179 0.00141781412789 0.00152983986047)
(-0.00449948289421 0.00189387806603 0.00208810542425)
(-0.00577645706029 0.00169844776632 0.000672131522841)
(-0.00580634194064 0.00124682979702 0.00101882816784)
(-0.00511734871685 0.00166811254618 0.0014329036919)
(-0.00551455405441 0.00141513317824 1.84970479981e-06)
(-0.00592871497189 0.00105401492046 0.000372525993262)
(-0.00528021660693 0.00142528305516 0.00062654959679)
(-0.00450031107116 0.00116549706383 -0.000612688180049)
(-0.00524488134228 0.000864443276901 -0.000343243986529)
(-0.00484880148436 0.00119652229742 -0.000269450027315)
(-0.00287091916998 0.000986402375134 -0.000890487340031)
(-0.00385373828153 0.000717017285506 -0.00087815503374)
(-0.00385223254091 0.00101941567788 -0.00100055317165)
(-0.00106987280905 0.000876074085557 -0.000485055923875)
(-0.00191515493554 0.000622620224297 -0.000910299647114)
(-0.00235436285492 0.000912857990301 -0.0012447559629)