/*--------------------------------*- C++ -*----------------------------------*\
| =========                 |                                                 |
| \\      /  F ield         | OpenFOAM: The Open Source CFD Toolbox           |
|  \\    /   O peration     | Version:  3.0.1                                 |
|   \\  /    A nd           | Web:      www.OpenFOAM.org                      |
|    \\/     M anipulation  |                                                 |
\*---------------------------------------------------------------------------*/
FoamFile
{
    version     2.0;
    format      ascii;
    class       volScalarField;
    location    "8.4";
    object      ddt0(k);
}
// * * * * * * * * * * * * * * * * * * * * * * * * * * * * * * * * * * * * * //

dimensions      [0 2 -3 0 0 0 0];

internalField   nonuniform List<scalar> 
7968
(
-2.96396666898e-05
-3.61162248493e-05
-4.36429347723e-05
-4.93778781261e-05
-5.35947737666e-05
-5.6495635896e-05
-5.84909193029e-05
-5.94007889226e-05
-5.91965351466e-05
-5.83038049995e-05
-5.8319961548e-05
-5.9231259401e-05
-5.94467820448e-05
-5.85409175746e-05
-5.65440735319e-05
-5.3638774734e-05
-4.9415606611e-05
-4.36741048736e-05
-3.61410962185e-05
-2.96544017368e-05
-3.61170011114e-05
-6.35541124229e-05
-8.60182380167e-05
-0.000101368161815
-0.000110979788115
-0.000115975885055
-0.000118515441541
-0.000119485280141
-0.000119566657809
-0.000119570152018
-0.00011958655486
-0.00011959833639
-0.000119524181568
-0.00011855567666
-0.000116017173725
-0.000111020921837
-0.000101408079243
-8.60535844534e-05
-6.35829402764e-05
-3.61314018861e-05
-4.36434230696e-05
-8.6019185845e-05
-0.000117560031067
-0.000138219649772
-0.00015067338769
-0.000156793781835
-0.000159746307958
-0.000161262608852
-0.000162497161171
-0.000163948873062
-0.000163965087719
-0.000162521066074
-0.000161285465623
-0.000159765644905
-0.00015681427406
-0.000150698191193
-0.000138244987101
-0.000117583004974
-8.6039280997e-05
-4.36542078655e-05
-4.93776117445e-05
-0.000101374550022
-0.000138227362702
-0.000161107449613
-0.000173890183287
-0.000179233794385
-0.00018093981943
-0.000177309359483
-0.000177952838274
-0.000179428361247
-0.000179439618696
-0.000177964464766
-0.000177316080953
-0.000180947899968
-0.000179230785933
-0.000173892921242
-0.000161113403343
-0.000138233638687
-0.00010138118033
-4.93854444169e-05
-5.35942268024e-05
-0.000110994366447
-0.000150696155563
-0.000173908904247
-0.000185078461564
-0.000186473550034
-0.00018870975298
-0.000188719715476
-0.000189389516444
-0.000190610153774
-0.000190618170724
-0.00018939335411
-0.000188714981671
-0.000188701016643
-0.000186460167333
-0.000185053627766
-0.000173893631541
-0.000150685243998
-0.000110988292609
-5.35997265978e-05
-5.64952400292e-05
-0.000116002463354
-0.00015683878276
-0.000179281696896
-0.000186494807039
-0.000191455952175
-0.000193526344459
-0.000193454107702
-0.000193349598503
-0.000193956687671
-0.000193962710565
-0.000193349209308
-0.000193442535518
-0.000193508188134
-0.000191435281561
-0.000186472413197
-0.000179251987515
-0.000156816486111
-0.000115991060749
-5.65008392786e-05
-5.84848665654e-05
-0.000118549710943
-0.000159814733538
-0.000181018391319
-0.000188759261971
-0.000193554587952
-0.000194379280526
-0.000192875752188
-0.000191284623131
-0.000190954265444
-0.00019095938389
-0.00019128276085
-0.000192862650124
-0.000194358037444
-0.000193530788896
-0.000188735966856
-0.00018099192852
-0.00015978752174
-0.000118535481105
-5.84895641529e-05
-5.93827822322e-05
-0.000119518009923
-0.000161344622361
-0.000177386397565
-0.000188792061311
-0.000193514035502
-0.00019291097296
-0.00018953458436
-0.000186263290701
-0.000184743652074
-0.000184749261991
-0.00018626427647
-0.000189527006073
-0.000192896147655
-0.00019349657906
-0.000188775586762
-0.000177370977492
-0.000161326016147
-0.000119508433495
-5.93868173635e-05
-5.91630112172e-05
-0.00011958836511
-0.000162575385724
-0.000178030357166
-0.00018947240759
-0.000193429055995
-0.000191347009537
-0.000186294608995
-0.000181273000112
-0.000178456149711
-0.000178463922705
-0.000181281068598
-0.000186298990499
-0.000191348652635
-0.00019343066197
-0.000189475261575
-0.000178034142005
-0.000162577711813
-0.000119587189882
-5.9163293568e-05
-5.82622294283e-05
-0.000119575675726
-0.000164000608645
-0.000179488197669
-0.000190681289542
-0.000194032403645
-0.00019101772899
-0.000184783217125
-0.000178470769456
-0.000174679670084
-0.000174691166258
-0.000178488695953
-0.000184803710753
-0.000191041047809
-0.000194059107898
-0.000190710006771
-0.000179516251505
-0.000164026057221
-0.000119581750705
-5.82514525281e-05
-5.82866016739e-05
-0.000119577704201
-0.000163987166079
-0.000179470529782
-0.000190660804172
-0.000194014431905
-0.000191008803653
-0.000184787939073
-0.000178490429264
-0.000174710538394
-0.000174725106593
-0.000178518106402
-0.000184824385199
-0.000191052704828
-0.000194064111991
-0.000190712169144
-0.000179518268771
-0.000164028533419
-0.000119587453596
-5.82620891587e-05
-5.92077783415e-05
-0.000119584309787
-0.000162525697297
-0.000177972902915
-0.00018940871456
-0.00019337227027
-0.000191311363093
-0.000186292139925
-0.000181306935278
-0.000178515202997
-0.000178531070635
-0.000181341352386
-0.000186340761219
-0.000191370465484
-0.00019343781817
-0.000189476761029
-0.000178037617193
-0.000162585166878
-0.000119603662693
-5.91847344687e-05
-5.94335101545e-05
-0.000119511277973
-0.000161277010752
-0.000177306357769
-0.000188706405535
-0.000193436937118
-0.000192861517769
-0.000189528275575
-0.000186303273916
-0.000184812739215
-0.000184828926112
-0.000186339795545
-0.000189580058033
-0.000192923342787
-0.000193504562882
-0.000188777562282
-0.000177377476664
-0.00016134190675
-0.000119539034328
-5.94201780386e-05
-5.85390092109e-05
-0.000118549801937
-0.000159754119962
-0.0001809244109
-0.000188677030611
-0.000193482485571
-0.000194332706118
-0.000192871844064
-0.000191327150622
-0.000191025521847
-0.000191041655435
-0.000191363128768
-0.000192920704874
-0.000194387691796
-0.000193540405408
-0.000188739534262
-0.000181000563954
-0.000159811628341
-0.000118578930102
-5.85350637307e-05
-5.65542767868e-05
-0.000116023640531
-0.000156809926654
-0.000179208538655
-0.000186431737778
-0.000191403140964
-0.000193495286483
-0.000193459084382
-0.000193395134689
-0.000194030207974
-0.000194046316433
-0.00019343013689
-0.000193503894115
-0.000193542499448
-0.000191449009655
-0.000186477800272
-0.000179260353025
-0.000156851486905
-0.000116046770564
-5.65558421466e-05
-5.36581280746e-05
-0.000111044600078
-0.000150710725539
-0.00017388540631
-0.000185020697965
-0.000186442481159
-0.000188701083687
-0.000188739392529
-0.000189441277966
-0.000190682678682
-0.000190699327848
-0.00018947670294
-0.000188783606216
-0.000188746414702
-0.000186481650199
-0.000185054753462
-0.000173918749479
-0.0001507381242
-0.000111061474508
-5.36634048565e-05
-4.94438308865e-05
-0.000101452607854
-0.00013828211051
-0.000161131220816
-0.000173887366573
-0.000179224552472
-0.000180953540862
-0.000177344471256
-0.000178011854113
-0.000179500758025
-0.000179518760896
-0.000178050666383
-0.00017739346364
-0.00018101148304
-0.000179266714549
-0.000173922143195
-0.000161159627415
-0.000138303831567
-0.000101466815911
-4.94524239242e-05
-4.37099456558e-05
-8.61128995648e-05
-0.00011764051326
-0.000138274046515
-0.000150704454401
-0.000156816508764
-0.000159776857699
-0.000161313942304
-0.000162568203396
-0.000164025489452
-0.000164046202118
-0.000162615058635
-0.000161373012006
-0.00015983259305
-0.000156863130927
-0.000150743533295
-0.000138304497765
-0.00011766346099
-8.61294592387e-05
-4.37231162688e-05
-3.61813057634e-05
-6.36444196397e-05
-8.61042582658e-05
-0.000101434821455
-0.000111027178148
-0.000116015788446
-0.000118556063763
-0.000119533032874
-0.000119620259873
-0.00011962450049
-0.000119642365953
-0.000119661742209
-0.00011958820179
-0.000118611518764
-0.000116065260298
-0.000111069885164
-0.000101468977812
-8.613055564e-05
-6.36660146955e-05
-3.61989647648e-05
-2.96967577094e-05
-3.61818248582e-05
-4.37047787867e-05
-4.94323593559e-05
-5.36422219381e-05
-5.65392144487e-05
-5.85301132689e-05
-5.94340932478e-05
-5.92193306753e-05
-5.83138277926e-05
-5.83252098447e-05
-5.92463872284e-05
-5.94728822659e-05
-5.8573595985e-05
-5.65815643257e-05
-5.36804081187e-05
-4.94644643062e-05
-4.3731729464e-05
-3.62050149897e-05
-2.97159248524e-05
-8.59480787057e-06
-2.59410387112e-05
-4.31040792544e-05
-5.68723287467e-05
-6.62993822134e-05
-7.17923895653e-05
-7.27173013965e-05
-6.86510098014e-05
-6.12951642049e-05
-5.4155777999e-05
-5.41782554587e-05
-6.13631876059e-05
-6.87565865044e-05
-7.2838671177e-05
-7.19032413039e-05
-6.63945100969e-05
-5.69468064927e-05
-4.31632609905e-05
-2.59874278955e-05
-8.62935901758e-06
-2.59313339779e-05
-8.94638096719e-05
-0.000136694584731
-0.000173070966451
-0.000198237168852
-0.000214507040254
-0.00022307316314
-0.000225071607833
-0.000222416899878
-0.000219638971722
-0.000219662853936
-0.000222476785672
-0.000225165549516
-0.000223187546691
-0.00021462741934
-0.000198353651205
-0.000173174881093
-0.000136781980425
-8.95294849852e-05
-2.59691088165e-05
-4.30958423106e-05
-0.000136698107617
-0.000202169718557
-0.000252311438795
-0.000287754687002
-0.000310738904428
-0.000323749512206
-0.00032976225852
-0.000326608771275
-0.000324914299748
-0.000324921267619
-0.00032661165227
-0.000329803670585
-0.000323815322394
-0.000310819252857
-0.000287839126245
-0.000252390244315
-0.000202235417088
-0.000136746174815
-4.31220711913e-05
-5.68639893083e-05
-0.000173081820009
-0.000252326441602
-0.000310096936309
-0.000348972852879
-0.000372604409985
-0.000382269820053
-0.000392243502663
-0.000395513751494
-0.000396710689806
-0.000396717952946
-0.000395516205914
-0.000392250795252
-0.000382285646563
-0.000372635015805
-0.000349008284356
-0.000310136614285
-0.000252356513283
-0.000173101994327
-5.68766759809e-05
-6.62969585548e-05
-0.000198258122173
-0.000287787911756
-0.000348995831544
-0.000384995250863
-0.000408514215515
-0.000417730737534
-0.00042278768745
-0.000425109473821
-0.00042662242161
-0.000426628106422
-0.000425105902747
-0.000422772325848
-0.000417705319362
-0.000408483945713
-0.000384963875593
-0.000348996544965
-0.000287789748364
-0.000198256375791
-6.62953038074e-05
-7.17842900065e-05
-0.000214530890541
-0.000310788481663
-0.000372652678868
-0.000408548283575
-0.000425194612463
-0.000430332029624
-0.000431053511931
-0.000431080813696
-0.000431263857336
-0.000431267247345
-0.000431075417142
-0.000431027865955
-0.000430289527415
-0.000425146102419
-0.000408504125637
-0.000372635945199
-0.000310776065476
-0.000214521705049
-7.17795830368e-05
-7.2686684484e-05
-0.0002230857076
-0.000323808670951
-0.000382331372986
-0.000417806795346
-0.000430384694321
-0.000431213738313
-0.000427624545613
-0.000423557790907
-0.000422398290146
-0.000422401647373
-0.000423550157968
-0.000427599759976
-0.000431169784497
-0.000430334598162
-0.000417764243504
-0.000382310364145
-0.000323793643636
-0.000223079703271
-7.26785027101e-05
-6.85847534179e-05
-0.00022505506055
-0.000329829525549
-0.000392353392836
-0.000422915497291
-0.000431168115519
-0.000427693229618
-0.000419275601108
-0.000412419943331
-0.000409170724873
-0.000409175329211
-0.000412417151529
-0.000419263819662
-0.000427668961803
-0.00043113758493
-0.000422888680592
-0.000392333254304
-0.000329818036713
-0.000225056820582
-6.85655072857e-05
-6.11890879459e-05
-0.000222386863919
-0.000326691672795
-0.000395642981641
-0.000425266297684
-0.000431235163635
-0.000423678435042
-0.000412481697907
-0.00040260061552
-0.000397158272443
-0.000397166659034
-0.00040261122979
-0.000412491338441
-0.000423687297816
-0.000431245484363
-0.000425275876925
-0.000395648990099
-0.000326682917451
-0.000222384723591
-6.11420645526e-05
-5.40324304706e-05
-0.000219585546302
-0.000324961626028
-0.000396815767859
-0.000426764262569
-0.000431429996078
-0.00042252387127
-0.000409248286025
-0.000397191883928
-0.00039033128794
-0.000390345570509
-0.000397221273488
-0.000409289292958
-0.000422574293104
-0.000431489180231
-0.000426824987899
-0.000396869045154
-0.000324992775222
-0.000219582811191
-5.39437244919e-05
-5.4073553827e-05
-0.000219598378176
-0.00032493316427
-0.000396773152726
-0.000426716471995
-0.000431385669385
-0.000422501348822
-0.000409251672461
-0.000397221238211
-0.000390378344264
-0.000390399234546
-0.00039727007713
-0.000409323706455
-0.000422592003531
-0.00043149221306
-0.000426824094781
-0.000396870150583
-0.000324999222235
-0.00021959791868
-5.39539416319e-05
-6.12912746089e-05
-0.000222416582319
-0.000326602810378
-0.00039552481018
-0.000425133646694
-0.000431122475574
-0.000423609813909
-0.000412475807271
-0.000402664182899
-0.000397267596581
-0.000397292824981
-0.000402727552948
-0.000412572253679
-0.00042372964593
-0.000431255287906
-0.000425270137095
-0.000395650643123
-0.000326698127687
-0.00022242684293
-6.11741673621e-05
-6.87104871708e-05
-0.000225108856557
-0.000329762068824
-0.00039222134992
-0.00042274922817
-0.000431016071754
-0.000427601759289
-0.000419271282489
-0.000412503456495
-0.00040930645989
-0.000409333559458
-0.00041257188093
-0.000419375732592
-0.000427729771198
-0.000431151741011
-0.000422886726864
-0.00039234712671
-0.000329859907863
-0.000225128628334
-6.86231603356e-05
-7.28128635663e-05
-0.000223146218114
-0.000323772565206
-0.000382247693421
-0.000417656789282
-0.000430237410407
-0.000431119953605
-0.000427621888733
-0.000423644053623
-0.000422539968177
-0.000422566922826
-0.000423712436178
-0.000427722367271
-0.000431232686536
-0.000430352153591
-0.000417770444552
-0.000382349778638
-0.000323865650013
-0.000223180848941
-7.27585458844e-05
-7.19019774911e-05
-0.000214610851087
-0.00031079526701
-0.000372601408969
-0.000408436903678
-0.0004250849628
-0.000430264103489
-0.000431058429024
-0.000431168463542
-0.000431422114498
-0.000431447485922
-0.000431232853175
-0.000431145643419
-0.00043035560217
-0.000425172838931
-0.0004085233012
-0.00037269773109
-0.000310876608703
-0.00021464768781
-7.18708191423e-05
-6.64084680457e-05
-0.000198369090312
-0.000287850757409
-0.000349005493222
-0.000384948221583
-0.000408463051145
-0.000417709205653
-0.00042281597999
-0.000425201355641
-0.000426758811624
-0.000426784640063
-0.000425261252184
-0.000422895135366
-0.0004177868532
-0.000408533944051
-0.000385010699925
-0.000349085868661
-0.000287918031695
-0.000198401981293
-6.63929931298e-05
-5.69738003085e-05
-0.000173224082217
-0.000252444444777
-0.000310177314491
-0.000349014677923
-0.000372634549189
-0.000382308195682
-0.000392304907756
-0.00039561637965
-0.000396847926462
-0.000396874188206
-0.000395678105014
-0.00039238681261
-0.000382391195631
-0.000372726559219
-0.000349100664591
-0.00031025575107
-0.000252503636303
-0.000173254495271
-5.69693681663e-05
-4.31967416061e-05
-0.000136854010735
-0.000202323100589
-0.000252437063853
-0.000287850704664
-0.000310818956453
-0.000323827319452
-0.000329848437343
-0.000326723032363
-0.000325051505619
-0.000325076752539
-0.000326784330067
-0.000329944217339
-0.000323937222604
-0.00031092922818
-0.000287950709865
-0.000252519159537
-0.000202381016686
-0.000136887145904
-4.32037292329e-05
-2.60123933052e-05
-8.96065966902e-05
-0.000136850674594
-0.000173209877475
-0.00019835349337
-0.000214609645871
-0.00022316961723
-0.000225162888239
-0.000222509159161
-0.000219730715757
-0.000219758637698
-0.000222582166236
-0.00022527033703
-0.000223292701967
-0.000214730336471
-0.000198458858984
-0.000173292045395
-0.000136908306829
-8.96430672195e-05
-2.602896606e-05
-8.64861971716e-06
-2.60325504118e-05
-4.32064745216e-05
-5.69665569163e-05
-6.63826933369e-05
-7.18665500142e-05
-7.27799520708e-05
-6.86929076324e-05
-6.13021895309e-05
-5.41300895596e-05
-5.41461408e-05
-6.13527408289e-05
-6.87737640169e-05
-7.28766261381e-05
-7.19597509613e-05
-6.64606748822e-05
-5.70265175949e-05
-4.32512111834e-05
-2.60647559617e-05
-8.67251835331e-06
3.06407599385e-06
-1.78679449548e-05
-3.47458284103e-05
-4.68512395406e-05
-5.1117437133e-05
-4.61803957319e-05
-3.15776804963e-05
-1.23453370546e-05
3.28855789196e-06
1.1647031312e-05
1.16448914403e-05
3.26544168181e-06
-1.24045427911e-05
-3.16804271374e-05
-4.62828812137e-05
-5.12175744954e-05
-4.69194588556e-05
-3.47957866119e-05
-1.78965478693e-05
3.02797623304e-06
-1.78259448885e-05
-9.22043545958e-05
-0.000144235983672
-0.000184997758556
-0.000213556203669
-0.000230171897336
-0.000234628402747
-0.000228052063137
-0.000217025726426
-0.000208563613507
-0.000208590836652
-0.00021711104654
-0.000228188935633
-0.000234814747591
-0.000230364525236
-0.000213721142269
-0.000185123229328
-0.000144329846361
-9.22678927027e-05
-1.78857332443e-05
-3.47186658869e-05
-0.000144242891258
-0.000219389257517
-0.000282010473127
-0.000331457544403
-0.000366795704452
-0.000389027072764
-0.000392998856732
-0.000395084732277
-0.000394838388492
-0.000394868182408
-0.000395157567628
-0.000393063522074
-0.000389184516928
-0.000366967131224
-0.000331609339081
-0.000282125546305
-0.000219464191459
-0.000144275470141
-3.47459804996e-05
-4.68178002456e-05
-0.000185002767765
-0.000282029895557
-0.000360238314485
-0.000419222129086
-0.00045569763276
-0.000483829590345
-0.000497874604732
-0.000504122612249
-0.000507023655488
-0.000507045707879
-0.000504166549818
-0.000497919433219
-0.000483910342886
-0.000455790684922
-0.000419322170406
-0.000360310258509
-0.000282062089341
-0.000185001681066
-4.68058492862e-05
-5.1092051277e-05
-0.000213573817352
-0.000331499713746
-0.000419250251669
-0.000478192030736
-0.000515880675531
-0.000538949103262
-0.00055162707144
-0.000558597359761
-0.000562211338195
-0.000562227239264
-0.000558622425693
-0.000551653353502
-0.000538981333557
-0.00051591669139
-0.000478247533972
-0.000419284016329
-0.000331500547054
-0.0002135347427
-5.10223811467e-05
-4.61308286851e-05
-0.000230190239975
-0.000366850125079
-0.000455737574055
-0.000515911029028
-0.000549292230866
-0.000566089722225
-0.000573778791122
-0.000577730840455
-0.000580555267076
-0.000580568643709
-0.000577749464754
-0.000573810108853
-0.000566129873244
-0.000549306050026
-0.000515912655294
-0.00045574142536
-0.00036684011698
-0.000230130973721
-4.60177666359e-05
-3.15272512441e-05
-0.000234627518281
-0.000389077170164
-0.000483897515017
-0.000539018449965
-0.000566133456111
-0.000576352113912
-0.000578326606004
-0.000578165482258
-0.00057826922402
-0.000578279340128
-0.00057817847904
-0.000578371047819
-0.000576433912947
-0.000566183217199
-0.000539004698978
-0.000483885355148
-0.000389067071657
-0.000234558439499
-3.13419210711e-05
-1.23109990746e-05
-0.000228028873696
-0.000393023971262
-0.00049795810291
-0.000551732075061
-0.000573867479479
-0.000578379633974
-0.000574913573906
-0.000569873037618
-0.000566960231628
-0.000566968929014
-0.000569887947516
-0.00057497460673
-0.000578499806429
-0.000573967811918
-0.000551737017278
-0.000497941530898
-0.000392989192276
-0.000227932979039
-1.20361714218e-05
3.31985476031e-06
-0.000216962422848
-0.000395063673751
-0.000504185440097
-0.000558713309433
-0.000577846807899
-0.000578267115213
-0.000569930216503
-0.000560482870671
-0.000554855588744
-0.000554866993958
-0.000560509970855
-0.000570017816668
-0.000578427213885
-0.000577993368165
-0.000558758692259
-0.000504207561845
-0.000395069523839
-0.000216849960223
3.66382789403e-06
1.17078556241e-05
-0.000208456624714
-0.000394793139329
-0.000507067280883
-0.000562313956607
-0.000580661643239
-0.000578372506253
-0.000567043143239
-0.000554899434689
-0.000547622429553
-0.000547639293012
-0.000554945063224
-0.000567164503228
-0.000578577674252
-0.00058085386391
-0.000562399577436
-0.000507120667927
-0.000394811955285
-0.000208337207652
1.20780091699e-05
1.17328338867e-05
-0.000208455327187
-0.000394789740615
-0.000507043780715
-0.000562279074642
-0.000580627999229
-0.000578352001692
-0.000567048158337
-0.000554931339029
-0.000547671622875
-0.000547695325414
-0.000554996251397
-0.000567199976989
-0.000578595600295
-0.000580859626681
-0.000562399629879
-0.000507125030348
-0.000394825245686
-0.000208349087802
1.20917265972e-05
3.36673265055e-06
-0.000216971962498
-0.000395057574414
-0.000504119632744
-0.000558612708467
-0.000577742650662
-0.000578194837831
-0.000569929399902
-0.000560557554822
-0.000554977279435
-0.000555004788571
-0.000560634037598
-0.000570102428812
-0.000578468110283
-0.000578003568708
-0.000558755748822
-0.000504217980347
-0.000395105914943
-0.000216888524842
3.69022953327e-06
-1.22972697813e-05
-0.000228053792887
-0.00039296562846
-0.000497849081678
-0.000551599431964
-0.000573740971097
-0.000578309817576
-0.000574940283296
-0.000569996548913
-0.000567137856171
-0.000567163706757
-0.000570068375851
-0.00057510571425
-0.000578574313788
-0.000573994538753
-0.000551741141449
-0.000497960397596
-0.000393033496783
-0.000228000376176
-1.20218969343e-05
-3.15779326334e-05
-0.000234685790745
-0.000389075387678
-0.000483832440755
-0.00053891507905
-0.000566038453898
-0.000576323150833
-0.00057839510613
-0.000578323353171
-0.000578470186265
-0.00057849230402
-0.000578382271786
-0.000578529960572
-0.000576537090129
-0.000566230667746
-0.000539029695962
-0.000483938398878
-0.000389162135104
-0.00023465267498
-3.13511733796e-05
-4.62077872701e-05
-0.000230250247389
-0.000366873986724
-0.000455734737248
-0.000515867671653
-0.000549240363684
-0.000566082289343
-0.000573845372764
-0.000577858967417
-0.000580715526111
-0.000580737987446
-0.000577914861101
-0.000573950682928
-0.000566226367052
-0.000549360216311
-0.000515964934891
-0.000455823712031
-0.000366949633741
-0.000230228505235
-4.60327831456e-05
-5.11560869443e-05
-0.000213630851865
-0.000331541544321
-0.000419277567917
-0.000478226228923
-0.000515888040724
-0.000538952420312
-0.000551655467643
-0.000558664095618
-0.000562306210799
-0.000562333500002
-0.000558731186633
-0.000551753862999
-0.000539061943288
-0.000515988624931
-0.000478333333586
-0.000419374037665
-0.000331598445459
-0.000213607967568
-5.1033303441e-05
-4.68712154138e-05
-0.000185054201636
-0.000282085515987
-0.000360296753962
-0.000419284097294
-0.00045576397522
-0.000483888073271
-0.000497929521715
-0.000504197350593
-0.000507120398611
-0.000507152574725
-0.000504277558078
-0.000498038346897
-0.000484014953643
-0.000455884063614
-0.000419405085662
-0.000360385536222
-0.000282125423783
-0.000185034087417
-4.67896541062e-05
-3.4749584646e-05
-0.000144281554797
-0.000219445762594
-0.00028208044558
-0.00033153824339
-0.000366890591521
-0.000389130249167
-0.00039307778867
-0.000395184610429
-0.000394954994645
-0.000394993176121
-0.000395281379823
-0.00039320530995
-0.000389305741556
-0.000367058145149
-0.00033167163334
-0.000282163651132
-0.000219475258144
-0.000144271134068
-3.47037812569e-05
-1.78419856339e-05
-9.22415233445e-05
-0.000144280801666
-0.000185049291681
-0.000213608502901
-0.000230228325593
-0.00023468669079
-0.000228098554054
-0.000217063090646
-0.000208596559291
-0.000208637904242
-0.000217173976742
-0.000228256667032
-0.000234866570754
-0.000230392160464
-0.000213730171999
-0.000185119918438
-0.000144310540968
-9.22395933703e-05
-1.78216673253e-05
3.06416823578e-06
-1.78891872104e-05
-3.4764159434e-05
-4.68500888404e-05
-5.10862180614e-05
-4.60981329203e-05
-3.14349526118e-05
-1.21248210175e-05
3.58147179322e-06
1.19875011422e-05
1.19734844354e-05
3.54032824493e-06
-1.2192202008e-05
-3.15228527372e-05
-4.6183097122e-05
-5.11499436284e-05
-4.6891195709e-05
-3.47848520156e-05
-1.78945653231e-05
3.0678829893e-06
3.59213498559e-06
-2.09947796777e-05
-3.67929533704e-05
-4.18146225716e-05
-3.65616547831e-05
-1.90735407769e-05
-5.38222124195e-07
1.1146808632e-05
1.46598498707e-05
1.48479710396e-05
1.48742001046e-05
1.4718143074e-05
1.12266014559e-05
-4.60866496734e-07
-1.89798631086e-05
-3.65318914535e-05
-4.17774975042e-05
-3.6768978659e-05
-2.09507160609e-05
3.57833212839e-06
-2.08834160863e-05
-0.000100969812974
-0.000151485116748
-0.000186650175052
-0.000207232573242
-0.000211709379745
-0.000200992485193
-0.000182687992756
-0.000169255834681
-0.000163465089662
-0.0001634674755
-0.000169274862048
-0.000182738110237
-0.000201075194614
-0.000211810347342
-0.000207298714027
-0.000186657779328
-0.00015146725427
-0.000100963715097
-2.09416769992e-05
-3.67303832455e-05
-0.000151455696597
-0.000231594603274
-0.00029734670718
-0.000350411224603
-0.000389488629471
-0.000412458679837
-0.000415887956061
-0.000415197978789
-0.000413884507309
-0.000413913675807
-0.000415286392877
-0.000416050801623
-0.000412651285633
-0.000389659458507
-0.000350503759874
-0.000297353500508
-0.000231539176632
-0.000151391612217
-3.6694471762e-05
-4.17288965772e-05
-0.000186617172894
-0.000297356970694
-0.000389064621212
-0.00046234326926
-0.000513667384891
-0.000549457898189
-0.000568539386647
-0.000577880263036
-0.000581805118241
-0.000581836354154
-0.00057796035937
-0.000568677832144
-0.000549621654382
-0.000513788865414
-0.000462407059405
-0.00038905199655
-0.000297263246893
-0.000186475681685
-4.15959791745e-05
-3.65132076755e-05
-0.000207224368288
-0.000350460004787
-0.000462379841502
-0.000541369744372
-0.000595420863668
-0.000629716410483
-0.000649349441842
-0.000660037862047
-0.000665161739757
-0.000665186132282
-0.000660099495446
-0.000649487635471
-0.000629924100043
-0.000595585529833
-0.000541419810871
-0.000462344481823
-0.000350335850415
-0.000206999851209
-3.62119015737e-05
-1.90249428823e-05
-0.000211727496084
-0.000389571767948
-0.000513733133326
-0.000595450670592
-0.000644628347883
-0.000672235893661
-0.000686533858311
-0.000693592778187
-0.000697147544277
-0.000697166286274
-0.000693643270363
-0.000686703925649
-0.000672551311593
-0.000644935836872
-0.000595595932829
-0.000513699689246
-0.000389448910379
-0.000211430917276
-1.85621092204e-05
-6.30490852698e-07
-0.000201045571058
-0.000412544291212
-0.000549534100939
-0.000629757240911
-0.000672247618332
-0.000692309943956
-0.000699625810276
-0.000701339898137
-0.000701740584458
-0.000701754389834
-0.000701379294443
-0.000699827549959
-0.000692742163741
-0.000672711338269
-0.000630041723233
-0.000549569722417
-0.000412447678978
-0.000200679663638
5.04559187218e-08
1.09772880275e-05
-0.000182795748981
-0.000415925155599
-0.000568593449693
-0.000649384032609
-0.000686541997976
-0.000699628284945
-0.000699906224388
-0.000695643220754
-0.000692527337578
-0.000692536618716
-0.00069567840024
-0.000700131404875
-0.000700135545309
-0.000687118331614
-0.000649764892642
-0.000568703283504
-0.000415849853853
-0.000182356228607
1.18156229213e-05
1.44959455023e-05
-0.000169388772027
-0.000415237881842
-0.000577919414602
-0.000660060246103
-0.000693597846336
-0.000701354980357
-0.000695665022834
-0.000686279230989
-0.000680208355017
-0.000680218297011
-0.000686323399339
-0.000695924027037
-0.000701918323611
-0.000694237234115
-0.000660493368723
-0.000578064279731
-0.000415148037893
-0.000168914990436
1.54146800417e-05
1.47503600344e-05
-0.000163531847042
-0.000413892432901
-0.000581816503495
-0.000665158957705
-0.000697129190767
-0.000701755206123
-0.000692581677346
-0.000680256143961
-0.000672480837979
-0.000672495961862
-0.000680317636185
-0.000692876526988
-0.000702372129048
-0.000697821914732
-0.000665636674841
-0.000581992636345
-0.000413819887451
-0.000163090789513
1.56766801347e-05
1.48498747542e-05
-0.00016344544155
-0.000413858050327
-0.000581785557498
-0.00066511331618
-0.000697081237724
-0.000701725840076
-0.000692582934622
-0.000680285637381
-0.000672526607736
-0.000672547087028
-0.000680361424291
-0.000692902884343
-0.00070237917336
-0.000697819730002
-0.000665633454661
-0.000581993091981
-0.00041381938688
-0.000163068211534
1.57210440414e-05
1.47629467633e-05
-0.000169176075369
-0.000415173137076
-0.000577843216819
-0.000659934392903
-0.00069345706012
-0.000701255823139
-0.000695657378535
-0.000686354471918
-0.000680327317879
-0.000680347841195
-0.000686430544648
-0.000695987814649
-0.000701937981622
-0.000694233978249
-0.000660487911926
-0.000578067808751
-0.000415152333553
-0.000168859799375
1.5528968732e-05
1.13247140769e-05
-0.000182574779493
-0.000415893708862
-0.00056851833697
-0.000649257288436
-0.000686424368564
-0.000699591380345
-0.000699999575093
-0.000695844430153
-0.000692778584369
-0.00069278734754
-0.000695889173419
-0.000700284547319
-0.000700233430732
-0.000687171139672
-0.000649792632559
-0.000568727749601
-0.000415878040664
-0.000182290645145
1.19815256712e-05
-3.19558293202e-07
-0.000200870666918
-0.000412456786022
-0.000549460107316
-0.000629692290341
-0.000672247703152
-0.000692434007057
-0.00069989215435
-0.000701701236228
-0.000702132592912
-0.00070212476348
-0.000701699626869
-0.000700091819998
-0.000692954454017
-0.000672853808006
-0.000630115992026
-0.000549605740803
-0.000412476378933
-0.000200611392642
2.42357260569e-07
-1.88336081815e-05
-0.000211583969195
-0.000389455991663
-0.000513646059415
-0.000595415029295
-0.000644698632125
-0.000672429855395
-0.00068685146643
-0.000693968584034
-0.000697521994969
-0.000697514094257
-0.000693957382323
-0.000686984820384
-0.000672793630966
-0.000645099130007
-0.00059566407457
-0.0005137102201
-0.000389440309431
-0.000211344693777
-1.83620217257e-05
-3.63790611997e-05
-0.000207071974387
-0.000350303497271
-0.000462259855382
-0.000541310938403
-0.000595465113014
-0.000629864672594
-0.000649576014663
-0.000660293490177
-0.000665417583259
-0.000665427585721
-0.000660323525643
-0.000649698895329
-0.000630103422846
-0.000595686884285
-0.000541427865804
-0.00046229717311
-0.000350240106628
-0.000206850807575
-3.60276528731e-05
-4.163450687e-05
-0.000186429277338
-0.000297156848618
-0.000388909918843
-0.000462255145711
-0.000513649283366
-0.000549515279348
-0.000568652747595
-0.00057801595816
-0.000581954483176
-0.000581988156356
-0.000578106158542
-0.000568807575564
-0.000549715464497
-0.000513807578281
-0.000462351690744
-0.000388924128955
-0.00029706748579
-0.000186242997333
-4.13895740321e-05
-3.66371492332e-05
-0.000151242278225
-0.000231357822961
-0.00029714291039
-0.000350270068804