/*--------------------------------*- C++ -*----------------------------------*\
| =========                 |                                                 |
| \\      /  F ield         | OpenFOAM: The Open Source CFD Toolbox           |
|  \\    /   O peration     | Version:  3.0.1                                 |
|   \\  /    A nd           | Web:      www.OpenFOAM.org                      |
|    \\/     M anipulation  |                                                 |
\*---------------------------------------------------------------------------*/
FoamFile
{
    version     2.0;
    format      ascii;
    class       volScalarField;
    location    "8.4";
    object      p_rgh;
}
// * * * * * * * * * * * * * * * * * * * * * * * * * * * * * * * * * * * * * //

dimensions      [1 -1 -2 0 0 0 0];

internalField   nonuniform List<scalar> 
7968
(
5361.74519273
5361.67744872
5361.49351673
5361.29678309
5361.12944479
5361.02711823
5360.98476239
5360.98690326
5361.00536715
5361.01880225
5361.01866727
5361.0049579
5360.98618257
5360.98366875
5361.02564421
5361.12771061
5361.29492088
5361.49154925
5361.67547731
5361.74318168
5361.67740349
5361.6560398
5361.49709271
5361.29759732
5361.11793083
5360.99874981
5360.94016007
5360.93344318
5360.94797871
5360.95906851
5360.95896247
5360.94764942
5360.93283484
5360.93919142
5360.9974121
5361.11633131
5361.29587627
5361.49527248
5361.65422859
5361.67556302
5361.49353313
5361.49713073
5361.34860401
5361.14809412
5360.96453213
5360.83535872
5360.76621562
5360.75146606
5360.75925802
5360.76632901
5360.76625769
5360.75903457
5360.75102961
5360.7654495
5360.83426548
5360.96317786
5361.14660984
5361.34701954
5361.49555848
5361.49192253
5361.29702578
5361.2978017
5361.14823244
5360.94825612
5360.77152205
5360.65293297
5360.59806153
5360.60137832
5360.62682707
5360.64517995
5360.64518531
5360.62680889
5360.60122224
5360.59755121
5360.65219312
5360.7705316
5360.94711467
5361.14696749
5361.29653296
5361.29568497
5361.12994727
5361.11835403
5360.9648496
5360.77168411
5360.61645396
5360.52785876
5360.50615596
5360.54009128
5360.59011686
5360.62245834
5360.62252653
5360.59027685
5360.54021592
5360.50607325
5360.52750272
5360.61583728
5360.77089041
5360.96390847
5361.11739627
5361.12889309
5361.02791966
5360.99945133
5360.835894
5360.65327752
5360.52801611
5360.47901378
5360.49807826
5360.56860855
5360.64485563
5360.69202779
5360.69214575
5360.64514927
5360.56895081
5360.49828737
5360.47897838
5360.52774346
5360.65280844
5360.83527278
5360.99880617
5361.02718062
5360.98585218
5360.94113531
5360.76694691
5360.59856864
5360.50642545
5360.49817676
5360.55873816
5360.66543615
5360.77158852
5360.83530828
5360.83546668
5360.77199939
5360.66592879
5360.5591541
5360.49838638
5360.5064251
5360.59833131
5360.76661943
5360.94080295
5360.98544958
5360.98813501
5360.93454842
5360.75226661
5360.60188253
5360.54034782
5360.568678
5360.66540102
5360.80847048
5360.94460028
5361.02184871
5361.02201907
5360.94506548
5360.80906061
5360.66590671
5360.56902199
5360.54053592
5360.60193242
5360.75220694
5360.93451482
5360.98806229
5361.00660083
5360.94903609
5360.75999359
5360.62724053
5360.59025893
5360.64478968
5360.77134691
5360.94437694
5361.09956645
5361.18428406
5361.18443455
5361.09998449
5360.94493228
5360.77184008
5360.64513211
5360.59049443
5360.62739837
5360.7600982
5360.94923848
5361.0067999
5361.01990572
5360.9599826
5360.76693659
5360.6454667
5360.62246496
5360.69177974
5360.83486216
5361.02140797
5361.18403205
5361.2719926
5361.2721115
5361.184355
5361.02182418
5360.83522078
5360.69201622
5360.62263506
5360.64562562
5360.76712801
5360.96033986
5361.02030693
5361.0194928
5360.95962781
5360.76665022
5360.64530534
5360.62239472
5360.691764
5360.83487527
5361.02137861
5361.18390555
5361.27178651
5361.27187766
5361.18414537
5361.02166796
5360.83509198
5360.69187875
5360.62247827
5360.64543061
5360.76688796
5360.96007985
5361.02002517
5361.00535649
5360.94794187
5360.75910189
5360.62668115
5360.58994994
5360.64461508
5360.77125806
5360.94421486
5361.09915614
5361.18365936
5361.18373505
5361.09935487
5360.94444776
5360.77142767
5360.64470238
5360.59002096
5360.62682133
5360.75939328
5360.94847603
5361.00597633
5360.98606652
5360.93266428
5360.75069085
5360.60075747
5360.53959724
5360.56815287
5360.66495699
5360.80796119
5360.94380168
5361.02076655
5361.02084211
5360.94400417
5360.80821031
5360.66516546
5360.56829867
5360.53974012
5360.60097604
5360.75106897
5360.93327968
5360.98673929
5360.98299697
5360.93848129
5360.76462528
5360.5966488
5360.50504313
5360.49710139
5360.55780402
5360.66441292
5360.77029313
5360.83372846
5360.83380625
5360.77050115
5360.6646851
5360.55808203
5360.4973385
5360.50527831
5360.59693436
5360.76505238
5360.93911383
5360.98366969
5361.02438621
5360.99611808
5360.83289958
5360.65076994
5360.52597242
5360.4773058
5360.49655985
5360.56706382
5360.64310197
5360.69003911
5360.69011308
5360.64330303
5360.5673601
5360.49688197
5360.47759713
5360.52625381
5360.65109231
5360.83330335
5360.99666738
5361.02495814
5361.12583197
5361.1144327
5360.96126107
5360.76857665
5360.61379216
5360.52557201
5360.50411461
5360.53812245
5360.5880338
5360.62024377
5360.62031377
5360.58823354
5360.53841836
5360.50443377
5360.52586316
5360.61405371
5360.76884983
5360.96156066
5361.11480763
5361.12620245
5361.29247131
5361.29338837
5361.1441689
5360.94466085
5360.76836371
5360.65016033
5360.59553978
5360.59906282
5360.62452493
5360.64285597
5360.6429178
5360.62470503
5360.5993312
5360.59577216
5360.65038711
5360.76853853
5360.9448047
5361.14427691
5361.29351213
5361.29257268
5361.48862306
5361.49232541
5361.34416626
5361.14411149
5360.96097824
5360.83220293
5360.76339164
5360.74888558
5360.75680602
5360.76398154
5360.76403418
5360.75695947
5360.74911693
5360.7636125
5360.83234712
5360.96102671
5361.14408674
5361.34404811
5361.49217433
5361.48842214
5361.67215491
5361.65095464
5361.4924343
5361.29341396
5361.11419854
5360.99543534
5360.93722251
5360.93080441
5360.94553409
5360.95677008
5360.95681198
5360.94565724
5360.93098637
5360.9373785
5360.99547198
5361.11410753
5361.293223
5361.49210949
5361.65056116
5361.67168166
5361.73971144
5361.67219649
5361.48873276
5361.29245071
5361.1255461
5361.02364548
5360.98168186
5360.98415262
5361.00286922
5361.01650001
5361.01653024
5361.0029586
5360.98428991
5360.98179376
5361.02363894
5361.12542029
5361.2922124
5361.48833966
5361.67169654
5361.73909354
5361.56743601
5361.47887296
5361.29912461
5361.1279367
5361.00705778
5360.93704187
5360.92271193
5360.94612215
5360.97560238
5360.99374798
5360.99361906
5360.97521269
5360.94542673
5360.9216199
5360.9355712
5361.00533175
5361.1260391
5361.2971208
5361.47684057
5361.56532175
5361.47887275
5361.42208156
5361.25965177
5361.08066653
5360.94661285
5360.86113273
5360.83300722
5360.84932126
5360.87836499
5360.8954762
5360.89538787
5360.87808601
5360.84876874
5360.83211058
5360.85988709
5360.94511337
5361.07898642
5361.2578501
5361.42022509
5361.47694123
5361.29922492
5361.25973515
5361.08178313
5360.8877014
5360.74343641
5360.65003754
5360.61269079
5360.61795199
5360.64341522
5360.66050876
5360.66049372
5360.64333024
5360.61765551
5360.61213291
5360.64914401
5360.74229487
5360.88635236
5361.08028696
5361.25816843
5361.29754195
5361.12829317
5361.08092495
5360.88786316
5360.6868162
5360.55095539
5360.47639933
5360.46556172
5360.49559496
5360.53629367
5360.56169637
5360.56174093
5360.536392
5360.49564232
5360.4654837
5360.47591124
5360.55024092
5360.68586473
5360.88672616
5361.07970277
5361.12688179
5361.00768921
5360.9471107
5360.74378033
5360.55111955
5360.4412066
5360.40786375
5360.43729385
5360.5073637
5360.57617517
5360.61577884
5360.61588365
5360.57645179
5360.50768958
5360.43748222
5360.40777997
5360.44089911
5360.55055691
5360.74300917
5360.9462283
5361.00661864
5360.9379763
5360.86189965
5360.65055509
5360.47669339
5360.40798201
5360.42075956
5360.49723705
5360.61028939
5360.7121342
5360.76614855
5360.766298
5360.71255996
5360.61084003
5360.49769144
5360.42098366
5360.40799276
5360.47644588
5360.65011758
5360.86134552
5360.93724847
5360.92389568
5360.83402816
5360.61334839
5360.46592743
5360.43747551
5360.49728472
5360.62202365
5360.77554811
5360.89969619
5360.96427224
5360.9644368
5360.90016568
5360.77624441
5360.62267519
5360.49773832
5360.43774428
5360.46603513
5360.61321573
5360.83378846
5360.9235313
5360.94735134
5360.85047029
5360.61864455
5360.49597011
5360.50750521
5360.61026331
5360.77546659
5360.95161259
5361.08873476
5361.16203614
5361.16220609
5361.08920096
5360.95227496
5360.7761787
5360.61081323
5360.50789421
5360.4961843
5360.61871763
5360.85051037
5360.94736938
5360.97682942
5360.8793771
5360.64399025
5360.5365834
5360.57622508
5360.71198018
5360.89955058
5361.08863052
5361.23744404
5361.3182346
5361.31839384
5361.23787427
5361.08920879
5360.90013082
5360.71245909
5360.57657833
5360.53682717
5360.64421424
5360.87966503
5360.97710667
5360.99484205
5360.89632802
5360.66093895
5360.56187838
5360.61574232
5360.76594906
5360.96402363
5361.16177683
5361.31804877
5361.40280315
5361.40293483
5361.31840311
5361.16223803
5360.96444817
5360.76625707
5360.61596732
5360.56206046
5360.66117688
5360.89673826
5360.99528221
5360.99447306
5360.89602445
5360.6607606
5360.56178849
5360.6157304
5360.76597357
5360.96401833
5361.16172693
5361.31793885
5361.402633
5361.40273452
5361.31820745
5361.16206646
5360.96429979
5360.76612884
5360.61582619
5360.56189002
5360.66096317
5360.89648966
5360.99499782
5360.97567086
5360.87839582
5360.64335279
5360.5362308
5360.57611566
5360.71202713
5360.89951264
5361.08844202
5361.23707797
5361.31771011
5361.31778943
5361.23729055
5361.08870153
5360.89971525
5360.71211072
5360.57617263
5360.53632366
5360.64358523
5360.87893206
5360.97627009
5360.94537416
5360.84866486
5360.61734502
5360.49518747
5360.507099
5360.61007979
5360.77532053
5360.95120366
5361.08805181
5361.16114054
5361.16120793
5361.08823592
5360.95145879
5360.77556374
5360.61023902
5360.50724007
5360.49536766
5360.61767975
5360.84932037
5360.94602682
5360.92102743
5360.83148589
5360.6113747
5360.46462561
5360.43652297
5360.49658587
5360.62141451
5360.77477359
5360.89860833
5360.96295779
5360.96302251
5360.89880595
5360.77510479
5360.62176192
5360.49688267
5360.43680524
5360.46494879
5360.61181547
5360.83217031
5360.9217377
5360.9344164
5360.85869327
5360.6478682
5360.47457291
5360.40634887
5360.41941999
5360.49603084
5360.60898025
5360.71056448
5360.7643977
5360.76446823
5360.71079417
5360.60934874
5360.49644945
5360.41981297
5360.40672964
5360.47495065
5360.64834195
5360.85931972
5360.93505839
5361.00361118
5360.94334099
5360.74048794
5360.54839572
5360.4389651
5360.40594164
5360.43556371
5360.50561022
5360.57427417
5360.61372782
5360.613799
5360.57449324
5360.50597988
5360.43600347
5360.4063608
5360.43937588
5360.54878827
5360.74090887
5360.94382336
5361.00408301
5361.12382185
5361.07669577
5360.88406871
5360.68354516
5360.54813844
5360.47391163
5360.46339074
5360.49345724
5360.53410367
5360.5594399
5360.55951071
5360.53432008
5360.49381187
5360.46385331
5360.47428875
5360.54850352
5360.6838726
5360.88436387
5361.07697896
5361.12406669
5361.29452909
5361.25515818
5361.07762494
5360.88399318
5360.74015237
5360.64712473
5360.61009158
5360.6155258
5360.64104424
5360.65813718
5360.65819943
5360.6412372
5360.61582159
5360.61043856
5360.64742564
5360.74040077
5360.88416549
5361.077715
5361.25519623
5361.29448784
5361.47394219
5361.41727432
5361.25526887
5361.07671665
5360.94306647
5360.85797441
5360.83020674
5360.84679819
5360.87599094
5360.89321021
5360.89325407
5360.87612757
5360.84700601
5360.83042373
5360.85812065
5360.94312955
5361.07667766
5361.25513277
5361.41706861
5361.47363483
5361.56238999
5361.47393087
5361.29460416
5361.12376225
5361.00327946
5360.93365416
5360.91970049
5360.94341998
5360.97312858
5360.99143334
5360.99145555
5360.97321042
5360.94358058
5360.91986368
5360.93374614
5361.00327939
5361.12366838
5361.29437622
5361.47359853
5361.56192477
5361.20036581
5361.11477238
5360.94869488
5360.82273495
5360.75074303
5360.73153342
5360.75385795
5360.79012515
5360.81258033
5360.81940319
5360.81930211
5360.81231522
5360.78962652
5360.75298397
5360.7302084
5360.74909738
5360.82089662
5360.94675745
5361.11273626
5361.19824848
5361.11475851
5361.08707258
5360.95021251
5360.83235107
5360.75065413
5360.71203885
5360.71515905
5360.74151526
5360.75986953
5360.76178929
5360.76172834
5360.75968067
5360.74108698
5360.71438381
5360.71089795
5360.74924312
5360.83077361
5360.94850517
5361.08523481
5361.11285413
5360.94891783
5360.95039522
5360.74285714
5360.57335708
5360.45404247
5360.38120981
5360.34577774
5360.33176944
5360.32259158
5360.31817751
5360.31817383
5360.32256136
5360.3316632
5360.34541509
5360.38054003
5360.45309917
5360.57219607
5360.74149893
5360.94886932
5360.94725134
5360.82320142
5360.83264989
5360.57354135
5360.37533634
5360.25098908
5360.19191228
5360.17837272
5360.19654743
5360.22295837
5360.24053816
5360.24060406
5360.22311433
5360.1966797
5360.17834241
5360.19165723
5360.25045645
5360.37457066
5360.57254846
5360.83154745
5360.82184898
5360.75146136
5360.75116226
5360.4543622
5360.2511256
5360.14721326
5360.12160889
5360.15521641
5360.2216414
5360.28864431
5360.32855232
5360.32867372
5360.28895953
5360.22201481
5360.15548493
5360.12165951
5360.14702317
5360.25072956
5360.45375685
5360.75042879
5360.7505278
5360.73246439
5360.71278924
5360.38161016
5360.19212893
5360.12170072
5360.14388358
5360.22804127
5360.33919196
5360.43942601
5360.49832709
5360.49848833
5360.43984782
5360.33973422
5360.22853615
5360.1441972
5360.12179875
5360.19206628
5360.38137077
5360.71242231
5360.73198231
5360.75487807
5360.7160849
5360.34614616
5360.17860093
5360.1553433
5360.22806967
5360.35930241
5360.51183211
5360.64423796
5360.71843661
5360.71860991
5360.64470181
5360.51243725
5360.35989892
5360.22853575
5360.15561974
5360.17873554
5360.34620976
5360.71606785
5360.75481278
5360.79102625
5360.74238374
5360.33196792
5360.19671092
5360.22171954
5360.33916025
5360.5117593
5360.70169428
5360.85876644
5360.94447259
5360.94463285
5360.85919637
5360.70227233
5360.51233356
5360.33963783
5360.22204221
5360.19693355
5360.33223741
5360.74269449
5360.79134625
5360.81331906
5360.76040617
5360.32277206
5360.22306154
5360.28863203
5360.4392706
5360.64401228
5360.85861014
5361.0313104
5361.1247835
5361.12491974
5361.03166217
5360.85907056
5360.64446575
5360.4396321
5360.28886117
5360.22322006
5360.32299572
5360.7609456
5360.81385013
5360.82003093
5360.76214198
5360.3182943
5360.24057237
5360.32844641
5360.49803102
5360.71806501
5360.94415342
5361.12465011
5361.22216798
5361.22227361
5361.12492934
5360.94444931
5360.71832067
5360.49819655
5360.32849662
5360.24058179
5360.31840042
5360.76268846
5360.82058196
5360.81984615
5360.7620067
5360.31822311
5360.24055136
5360.32846909
5360.49808371
5360.7180988
5360.94412487
5361.12459709
5361.22207134
5361.22213931
5361.12469644
5360.94426569
5360.71817699
5360.49806697
5360.32835348
5360.24041591
5360.31820948
5360.76246894
5360.8203253
5360.81263003
5360.7598211
5360.32247025
5360.22290683
5360.28860641
5360.43931628
5360.64403115
5360.85846135
5361.03092764
5361.12426074
5361.12424796
5361.03101295
5360.8585293
5360.64403455
5360.43923775
5360.2884401
5360.22273012
5360.32242499
5360.76029374
5360.81311049
5360.78961519
5360.74099361
5360.33130892
5360.19623159
5360.22143544
5360.33899548
5360.51155656
5360.70128541
5360.85802664
5360.94346015
5360.94349899
5360.85811803
5360.70138247
5360.51161703
5360.33899628
5360.22136005
5360.19614082
5360.33132612
5360.74162903
5360.79017628
5360.7525582
5360.71387232
5360.34472023
5360.1775583
5360.15458162
5360.2274844
5360.35870155
5360.5110091
5360.64306519
5360.71695973
5360.71701345
5360.64321164
5360.51120355
5360.35890889
5360.22765054
5360.15468167
5360.17765386
5360.34495569
5360.71459883
5360.75324008
5360.72931905
5360.70986023
5360.3793888
5360.19044003
5360.12033817
5360.14274231
5360.22693808
5360.3379149
5360.43783698
5360.49644686
5360.49651638
5360.43802914
5360.33820461
5360.2272749
5360.14305112
5360.12059733
5360.19072738
5360.37980121
5360.7105764
5360.73001856
5360.74766249
5360.74765857
5360.4514514
5360.24876361
5360.14524533
5360.11990317
5360.15361073
5360.2199452
5360.28673011
5360.32644158
5360.32651212
5360.28694071
5360.2202737
5360.15400406
5360.12029125
5360.14560186
5360.24915576
5360.45193578
5360.74828194
5360.74828285
5360.81898172
5360.82870397
5360.57009922
5360.37241008
5360.24848147
5360.18972646
5360.17634569
5360.1945403
5360.22087222
5360.23836525
5360.23843483
5360.22108325
5360.19488554
5360.17677455
5360.19018711
5360.24890949
5360.37284275
5360.57055777
5360.82918012
5360.81942943
5360.94450028
5360.94610522
5360.73904039
5360.569972
5360.45105365
5360.37857609
5360.34341331
5360.32954535
5360.3204316
5360.31604406
5360.31611236
5360.32064763
5360.32992165
5360.34387149
5360.37904168
5360.4514849
5360.57035785
5360.73937036
5360.94640482
5360.94471632
5361.11023587
5361.08264327
5360.94619975
5360.8287434
5360.74739509
5360.70914648
5360.7126374
5360.73927605
5360.75776075
5360.7597713
5360.75982911
5360.75794859
5360.73955466
5360.71294619
5360.70942618
5360.74759516
5360.82886103
5360.94628413
5361.0826992
5361.11020876
5361.19582516
5361.11025859
5360.94451853
5360.81884966
5360.7472618
5360.72850388
5360.75124195
5360.7878388
5360.81047963
5360.81741089
5360.81743459
5360.81058955
5360.78805952
5360.75152992
5360.72877508
5360.74747371
5360.81898638
5360.94454654
5361.11019309
5361.19565126
5360.71010408
5360.62491467
5360.49141668
5360.37752754
5360.30410883
5360.2623481
5360.24029883
5360.21971399
5360.19246323
5360.16803096
5360.16796383
5360.19225697
5360.21931853
5360.23968266
5360.26122832
5360.30264878
5360.37581367
5360.48956543
5360.62288881
5360.70802395
5360.62485629
5360.61606404
5360.51528845
5360.41900887
5360.33785167
5360.25746804
5360.16387055
5360.05475228
5359.95111544
5359.8884715
5359.88841633
5359.95099419
5360.05453378
5360.16344421
5360.25670988
5360.33679608
5360.41770438
5360.51377143
5360.6143028
5360.62303908
5360.49169506
5360.51553493
5360.29827141
5360.10935236
5359.95711816
5359.83629129
5359.73935118
5359.65494976
5359.58919985
5359.55341534
5359.55342351
5359.58919466
5359.65485155
5359.73911712
5359.83579263
5359.95635487
5360.10836682
5360.2970701
5360.51405556
5360.49006764
5360.37795235
5360.41932035
5360.10943679
5359.88475236
5359.73272446
5359.64290453
5359.59947791
5359.58472626
5359.58342294
5359.58531683
5359.58538809
5359.58358409
5359.58486847
5359.5994976
5359.64271471
5359.73228053
5359.88412151
5360.10863267
5360.4183117
5360.37673032
5360.30464818
5360.33810422
5359.95721553
5359.73276264
5359.61743572
5359.58168982
5359.60309478
5359.65514626
5359.71037702
5359.74444072
5359.74454277
5359.71061833
5359.65541878
5359.60329983
5359.58174515
5359.61728503
5359.73241051
5359.95678133
5360.33766149
5360.30394327
5360.26289132
5360.25751634
5359.83633815
5359.64295351
5359.58171916
5359.60559962
5359.68819036
5359.79829093
5359.89966565
5359.95929971
5359.95938827
5359.89986792
5359.7985099
5359.68836316
5359.60570279
5359.58172074
5359.64282345
5359.83620378
5360.25764794
5360.26274001
5360.24080902
5360.16360964
5359.73927961
5359.59949424
5359.60312503
5359.68820561
5359.82874378
5359.99128
5360.13335059
5360.21398844
5360.21404049
5360.13344412
5359.99131597
5359.82870874
5359.68815609
5359.60309649
5359.59943765
5359.73930743
5360.16415108
5360.24100617
5360.219966
5360.05414682
5359.65472951
5359.58467478
5359.65514492
5359.79828769
5359.99126922
5360.19946305
5360.37433874
5360.47100416
5360.47100844
5360.37430562
5360.1992917
5359.99096361
5359.79798556
5359.65493618
5359.58452967
5359.65471147
5360.05485822
5360.22047909
5360.19245422
5359.95048147
5359.58895253
5359.58332736
5359.71032897
5359.89961127
5360.13327666
5360.37428817
5360.57216221
5360.6801974
5360.68016562
5360.57202532
5360.37397382
5360.13273132
5359.8990395
5359.70986375
5359.58296051
5359.58871447
5359.95100388
5360.19304026
5360.16801248
5359.88788846
5359.55318484
5359.58519297
5359.74433869
5359.95916268
5360.21384035
5360.47085602
5360.6802358
5360.79468295
5360.79458274
5360.67983538
5360.47033106
5360.21304203
5359.95832502
5359.74360054
5359.58455664
5359.55266823
5359.88808179
5360.16842301
5360.16796558
5359.88796696
5359.55320457
5359.58522185
5359.74436597
5359.95917016
5360.21379776
5360.47073772
5360.67999829
5360.79437747
5360.79426341
5360.67958057
5360.47003024
5360.2127957
5359.95811967
5359.74341414
5359.58437018
5359.5524656
5359.88785635
5360.1681741
5360.19219805
5359.9505592
5359.58890468
5359.58331524
5359.71032224
5359.89954477
5360.13307355
5360.37394074
5360.57150493
5360.67933353
5360.67919758
5360.57106379
5360.37307918
5360.13201103
5359.89843548
5359.70932258
5359.58241868
5359.5881259
5359.95036165
5360.19232362
5360.2191249
5360.05394249
5359.65440016
5359.58441973
5359.65493322
5359.79800566
5359.99077771
5360.19866215
5360.37317692
5360.4695557
5360.46942
5360.37274264
5360.19791609
5359.98982897
5359.79705429
5359.65410685
5359.5836817
5359.65377655
5360.05388149
5360.2193692
5360.23915202
5360.16261588
5359.738396
5359.59877308
5359.60252379
5359.68756055
5359.82786536
5359.99001985
5360.13166126
5360.21196473
5360.21187583
5360.13136865
5359.98951995
5359.82726465
5359.68699393
5359.60204917
5359.59833958
5359.73810031
5360.16287517
5360.2395883
5360.26041126
5360.25555794
5359.83469221
5359.64161763
5359.58059518
5359.60448942
5359.68691901
5359.79666535
5359.89762506
5359.95693069
5359.95689709
5359.89751364
5359.79648405
5359.68674002
5359.60436987
5359.58048454
5359.64151246
5359.83474311
5360.25606005
5360.26092319
5360.30134032
5360.33519323
5359.95481874
5359.73077092
5359.61575447
5359.58013979
5359.60147793
5359.65327942
5359.70818297
5359.74199101
5359.74200813
5359.70823025
5359.6533675
5359.60162409
5359.58031326
5359.61589952
5359.73092054
5359.95513342
5360.33584795
5360.30190642
5360.37404441
5360.41570202
5360.10640402
5359.88219911
5359.7305102
5359.64092919
5359.59756972
5359.58273059
5359.58126214
5359.58301301
5359.58305572
5359.58139462
5359.58295944
5359.59788148
5359.64126861
5359.73083026
5359.88256122
5360.10687316
5360.41635228
5360.37454535
5360.48743465
5360.51150161
5360.29476581
5360.10632316
5359.9544955
5359.8339863
5359.73725334
5359.65290448
5359.587157
5359.55136544
5359.55142012
5359.58733565
5359.65321639
5359.73769647
5359.8344808
5359.95498972
5360.10681335
5360.29525587
5360.51203175
5360.48782787
5360.62053811
5360.61195145
5360.51158231
5360.41574544
5360.33504103
5360.25509759
5360.16184389
5360.05291329
5359.94936274
5359.88677292
5359.88683969
5359.94959897
5360.05336771
5360.16245979
5360.25575123
5360.33563568
5360.41622357
5360.51194922
5360.61226876
5360.62079746
5360.705658
5360.62070868
5360.48752422
5360.37405104
5360.30114098
5360.25990335
5360.23831033
5360.21799713
5360.19086644
5360.16650198
5360.16654495
5360.19102579
5360.21829517
5360.23873709
5360.26037512
5360.30157907
5360.37441896
5360.48780039
5360.62091365
5360.70582586
5360.22195751
5360.12079145
5359.99452397
5359.83194359
5359.68196933
5359.52867364
5359.38122528
5359.23662793
5359.1117803
5359.03592588
5359.03582415
5359.11148175
5359.23611061
5359.38046946
5359.52757272
5359.68051135
5359.8301411
5359.99255858
5360.11859757
5360.219702
5360.12083467
5360.09542686
5359.9712509
5359.77800038
5359.54963175
5359.2851713
5358.98784041
5358.69063796
5358.44260488
5358.30151397
5358.30136496
5358.44233768
5358.69021522
5358.98724962
5359.28435457
5359.54856529
5359.77670033
5359.96972371
5360.09355714
5360.11876904
5359.99497867
5359.97141014
5359.73027709
5359.46035164
5359.20666287
5358.97137256
5358.75729929
5358.57046325
5358.44190275
5358.3773346
5358.37731635
5358.44182935
5358.57027503
5358.75696592
5358.9707697
5359.20579785
5359.45930563
5359.72906798
5359.9698928
5359.99298568
5359.83250184
5359.7780093
5359.46030454
5359.17647012
5358.96028133
5358.80098943
5358.69338013
5358.62829706
5358.59756554
5358.58639233
5358.58642595
5358.59760481
5358.62824863
5358.69316891
5358.80055529
5358.95965228
5359.17570751
5359.4594673
5359.77706451
5359.83087545
5359.68245345
5359.54937733
5359.20654939
5358.96024358
5358.80516742
5358.72898377
5358.71677748
5358.75111272
5358.80267394
5358.83712557
5358.83713899
5358.80264851
5358.75094377
5358.71642555
5358.72847343
5358.80457127
5358.95958011
5359.20590107
5359.54896178
5359.68147647
5359.52888516
5359.28453608
5358.97115352
5358.80094116
5358.72900576
5358.73401479
5358.80966737
5358.93241836
5359.05491507
5359.12739773
5359.12731967
5359.05461807
5358.93181422
5358.80879014
5358.73302696
5358.72808343
5358.80016956
5358.97056568
5359.28456144
5359.52856165
5359.38109933
5358.98679731
5358.75695945
5358.69335467
5358.71687626
5358.80976061
5358.97390876
5359.17694263
5359.36005833
5359.46336087
5359.46316321
5359.35940677
5359.17574786
5358.97228796
5358.80805956
5358.71538026
5358.69227159
5358.75627472
5358.9870055
5359.38121775
5359.23619201
5358.68943154
5358.57016556
5358.62830266
5358.75129342
5358.93263779
5359.17711326
5359.44515477
5359.67602599
5359.80189329
5359.80162166
5359.67511903
5359.44349527
5359.17480228
5358.9302146
5358.74914806
5358.62671644
5358.56905214
5358.68938996
5359.23645089
5359.11125023
5358.44148572
5358.4417222
5358.59762097
5358.80290836
5359.05522442
5359.36037018
5359.67617172
5359.94541838
5360.08961777
5360.08934133
5359.94441409
5359.67427973
5359.35765377
5359.05229281
5358.80021983
5358.59551559
5358.44006889
5358.44091088
5359.11132135
5359.03549445
5358.3005809
5358.37723165
5358.58646596
5358.8373653
5359.12770771
5359.46367765
5359.80204229
5360.08963205
5360.24316395
5360.24273268
5360.0884787
5359.7999577
5359.46065522
5359.1244214
5358.83427172
5358.58394705
5358.37514538
5358.29947054
5359.03519919
5359.03553722
5358.3006941
5358.37722639
5358.5864708
5358.83733805
5359.1275964
5359.463444
5359.801743
5360.08928415
5360.24261086
5360.24225956
5360.08801038
5359.79949751
5359.46023333
5359.12408955
5358.83400195
5358.58370644
5358.37489406
5358.29915582
5359.03490214
5359.11125388
5358.44168018
5358.44165114
5358.59756236
5358.8027636
5359.0548621
5359.35965907
5359.67522025
5359.94429527
5360.08829851
5360.0878975
5359.94295582
5359.6728655
5359.35642228
5359.05132418
5358.79943969
5358.59482106
5358.43934918
5358.44009669
5359.11047186
5359.23583099
5358.6895185
5358.56991625
5358.62802992
5358.75089736
5358.931929
5359.17594628
5359.44354583
5359.67398327
5359.79958632
5359.79917072
5359.67265743
5359.44122759
5359.17289945
5358.92870865
5358.74796128
5358.62565707
5358.56795168
5358.68819028
5359.23516834
5359.3799954
5358.98639158
5358.75632793
5358.69267522
5358.71607364
5358.80860526
5358.97220151
5359.17457548
5359.35707096
5359.45999756
5359.45967632
5359.3560323
5359.1727359
5358.96983185
5358.80616993
5358.71390631
5358.69095604
5358.75494697
5358.98558676
5359.37963101
5359.52679299
5359.2832286
5358.9698194
5358.79970655
5358.72772468
5358.73067187
5358.80755821
5358.9296584
5359.05153101
5359.12360913
5359.12338492
5359.05083989
5358.9284743
5358.80609308
5358.73013829
5358.72643633
5358.79868575
5358.96904651
5359.28298522
5359.52674123
5359.67935473
5359.54705978
5359.20446136
5358.95842793
5358.80344212
5358.72686924
5358.71449676
5358.74828305
5358.79929553
5358.83335842
5358.8332456
5358.7989518
5358.74773473
5358.71384883
5358.72645505
5358.80288845
5358.95800908
5359.20426193
5359.547267
5359.67950822
5359.82859979
5359.77479764
5359.45756606
5359.17412443
5358.95816027
5358.79891489
5358.69116917
5358.62575377
5358.59465248
5358.58322407
5358.58318643
5358.59456359
5358.62562943
5358.69106803
5358.79883945
5358.95811953
5359.17417858
5359.45781293
5359.77529643
5359.82882211
5359.99064999
5359.96756107
5359.72701316
5359.45756158
5359.20421141
5358.96916396
5358.75521009
5358.56828503
5358.43957293
5358.37490911
5358.3749105
5358.43960583
5358.56839507
5358.75546215
5358.96947238
5359.20454807
5359.45795054
5359.72749402
5359.96812575
5359.99097641
5360.11641428
5360.09136312
5359.96775668
5359.77504319
5359.54715538
5359.28309078
5358.98601825
5358.68891702
5358.4409164
5358.29986849
5358.29989274
5358.44108521
5358.68927764
5358.98662711
5359.28384658
5359.54793896
5359.77574538
5359.9683355
5360.09185519
5360.1168093
5360.21750491
5360.11663676
5359.99075624
5359.82864869
5359.67930126
5359.52657561
5359.37957513
5359.23523095
5359.11052543
5359.03476598
5359.03480206
5359.11066594
5359.23553255
5359.38006011
5359.52720549
5359.67999497
5359.82933944
5359.99130175
5360.11705344
5360.21789303
5359.88054713
5359.73360969
5359.54766473
5359.23963286
5358.92076325
5358.59083303
5358.27900026
5358.00907409
5357.80915413
5357.70154868
5357.70130213
5357.80849921
5358.00797767
5358.27753183
5358.58902985
5358.91864713
5359.2372549
5359.54509741
5359.73088697
5359.877707
5359.73385819
5359.6206443
5359.37651261
5358.95893225
5358.47371883
5357.93968041
5357.40599203
5356.93151204
5356.57877656
5356.39316308
5356.39266578
5356.57819249
5356.93035107
5357.40451194
5357.93800881
5358.47193521
5358.95704458
5359.3744732
5359.61834311
5359.73103989
5359.54845597
5359.37642215
5359.06712282
5358.63446204
5358.21250039
5357.82597526
5357.49945804
5357.25639472
5357.10491781
5357.03520668
5357.03511193
5357.10465406
5357.25581532
5357.49847842
5357.82469123
5358.21101517
5358.63296144
5359.06565908
5359.3746467
5359.54537751
5359.2410961
5358.95846525
5358.63414181
5358.23358537
5357.90293533
5357.64388662
5357.46596462
5357.37032431
5357.33540482
5357.32670376
5357.32665629
5357.33520478
5357.36981322
5357.46502948
5357.64257864
5357.90148549
5358.23223476
5358.63308823
5358.95736005
5359.23759287
5358.92170756
5358.47313958
5358.2123362
5357.90293137
5357.67102934
5357.52923727
5357.48789675
5357.53539156
5357.61950956
5357.67601011
5357.67585356
5357.61894722
5357.53426179
5357.48618432
5357.52595422
5357.6690721
5357.90113466
5358.21077965