/*--------------------------------*- C++ -*----------------------------------*\
| =========                 |                                                 |
| \\      /  F ield         | OpenFOAM: The Open Source CFD Toolbox           |
|  \\    /   O peration     | Version:  3.0.1                                 |
|   \\  /    A nd           | Web:      www.OpenFOAM.org                      |
|    \\/     M anipulation  |                                                 |
\*---------------------------------------------------------------------------*/
FoamFile
{
    version     2.0;
    format      ascii;
    class       volVectorField;
    location    "8.4";
    object      U;
}
// * * * * * * * * * * * * * * * * * * * * * * * * * * * * * * * * * * * * * //

dimensions      [0 1 -1 0 0 0 0];

internalField   nonuniform List<vector> 
7968
(
(0.00348380091801 0.00348718805025 -0.00511816082729)
(0.0101333639523 0.00274056312986 -0.00499141057433)
(0.0165693115324 0.00220011821187 -0.00411484149281)
(0.0209751185658 0.0018511807526 -0.00293734218712)
(0.0226471828175 0.00182760796173 -0.00117969098775)
(0.0216352498136 0.00195530162679 -0.000511628254588)
(0.0187896181306 0.00233077408989 0.000101626893675)
(0.0143004699984 0.00289255982942 0.000403503241271)
(0.00880071960332 0.00349006826054 0.000419106161262)
(0.00296174403164 0.0038787502319 0.000332288329625)
(-0.00291916133213 0.00387922980658 0.000332795810351)
(-0.00876073967047 0.00349117108176 0.000420485385517)
(-0.0142655910446 0.00289331377115 0.000405965865986)
(-0.0187621888837 0.00233062678103 0.000104982335465)
(-0.0216160327207 0.00195464512017 -0.000508425759354)
(-0.0226333963524 0.0018269581893 -0.00117650929735)
(-0.0209690705671 0.00185029336343 -0.00293528872918)
(-0.0165659200582 0.00219943027901 -0.00411407731641)
(-0.0101324722318 0.00273978472699 -0.00499168069262)
(-0.00348374067776 0.00348636738703 -0.0051187665972)
(0.00273810907368 0.0101373011509 -0.00498970463448)
(0.00985844319696 0.00986073330224 -0.00834962219395)
(0.0170925914648 0.00977384243161 -0.00880756233902)
(0.0221180098197 0.0100415593949 -0.00801567398179)
(0.0242507834864 0.0106781658475 -0.00619843410881)
(0.0233247145634 0.0112492608919 -0.0049992828544)
(0.0203887602964 0.0119550272459 -0.00380846812757)
(0.0155540074349 0.0126718036956 -0.00285729449762)
(0.00955755597023 0.0133067541648 -0.00233000048931)
(0.00320981678322 0.0137020954929 -0.0021701592052)
(-0.00316181825348 0.013701047209 -0.00216872600976)
(-0.009511929577 0.0133037137166 -0.00232577176088)
(-0.0155139022477 0.0126670495225 -0.00285072897475)
(-0.0203571710951 0.011949271368 -0.00380127405516)
(-0.0233018922021 0.0112433571316 -0.00499299299718)
(-0.0242339759767 0.0106737746175 -0.00619144368865)
(-0.0221102469518 0.0100376789935 -0.00801160137263)
(-0.0170882448143 0.00977092923703 -0.00880545189141)
(-0.00985709736292 0.00985834670602 -0.0083491353919)
(-0.00273805955751 0.0101357997716 -0.00499080492434)
(0.00219829059054 0.0165704238599 -0.00411253111193)
(0.00977259200307 0.0170913675437 -0.00880621874577)
(0.0176624032573 0.017660014229 -0.00937332085005)
(0.023086402117 0.0184675445447 -0.00834491570602)
(0.0255544687376 0.019538083451 -0.00637328285737)
(0.0247236634406 0.0203994423972 -0.00477477380033)
(0.0217969381133 0.0211950215258 -0.00337929126789)
(0.0168472897826 0.0219307996546 -0.00219826460245)
(0.010505648023 0.0225434405426 -0.00142169722631)
(0.00356593353714 0.0229049341879 -0.00111689544557)
(-0.00351336213762 0.0229032585903 -0.00111556750982)
(-0.0104562146445 0.0225386748151 -0.00141760673546)
(-0.0168043239625 0.0219236198946 -0.00219175087099)
(-0.0217630131411 0.0211865395553 -0.00337228682432)
(-0.0246985156803 0.0203906410946 -0.00476848828774)
(-0.0255364145145 0.0195316198882 -0.00636600788923)
(-0.0230770851858 0.0184619903151 -0.00834054032672)
(-0.0176573185383 0.0176559748916 -0.00937082096189)
(-0.0097708639419 0.017088536466 -0.00880559143995)
(-0.00219840730449 0.0165694782022 -0.00411385446204)
(0.00184987088423 0.0209734489064 -0.00293487209469)
(0.0100412689367 0.022112917836 -0.00801300315997)
(0.018470897463 0.0230800228198 -0.00834381225042)
(0.0242473664026 0.0242401095133 -0.00697997609771)
(0.0268938556465 0.0255567753472 -0.00476110369858)
(0.026058192774 0.0265230097319 -0.00292575645131)
(0.0230148161957 0.0272849909837 -0.0014773248324)
(0.0178642959607 0.0279142636379 -0.000322624190473)
(0.0111980648049 0.0284072626999 0.000406497375299)
(0.00381376070889 0.0286809199486 0.00069709807378)
(-0.00375880150672 0.0286788706734 0.000698258489462)
(-0.0111462609013 0.0284014373701 0.000410169733817)
(-0.0178190029117 0.0279055195302 -0.000316769948275)
(-0.0229786312445 0.0272747086493 -0.00147082007478)
(-0.0260308676877 0.0265123025698 -0.00291969129216)
(-0.0268741027831 0.0255487538943 -0.00475396225999)
(-0.0242363859365 0.0242335038888 -0.00697556406187)
(-0.0184647229138 0.023075615884 -0.00834122841277)
(-0.010038670015 0.0221105847913 -0.00801227618352)
(-0.00184974398155 0.0209742570102 -0.0029362872291)
(0.0018277912971 0.0226380166664 -0.00117715282198)
(0.0106797199218 0.0242377866192 -0.00619504736712)
(0.0195432830682 0.0255413904883 -0.00637161411227)
(0.0255655410164 0.0268809114051 -0.00476076064939)
(0.0283133413546 0.0282994734471 -0.00234207876648)
(0.0274445411034 0.0293443179675 -0.00030027379949)
(0.0242192290003 0.0300292976363 0.00134814947399)
(0.0187683946943 0.0305292726917 0.00272455554847)
(0.0117686935555 0.0308957575485 0.00350146521299)
(0.00401275448147 0.0311035556651 0.00377323509052)
(-0.00395598311011 0.0311010804803 0.00377453287192)
(-0.0117152558911 0.0308886895111 0.00350556384729)
(-0.0187216629145 0.0305186634027 0.00273156187708)
(-0.024181764887 0.0300169352087 0.00135570509629)
(-0.0274160005006 0.0293320293008 -0.000293709385822)
(-0.0282928578455 0.0282902787366 -0.00233476248312)
(-0.0255534042081 0.0268729314908 -0.00475578664419)
(-0.0195361214716 0.0255362063529 -0.00636819032881)
(-0.0106761481206 0.0242352605333 -0.00619302633093)
(-0.00182766416619 0.0226399438082 -0.001177578522)
(0.00195643922924 0.0216225256867 -0.000510252222968)
(0.0112520923364 0.023307838856 -0.00499795825369)
(0.0204061280893 0.0247067822392 -0.00477500716917)
(0.0265329562606 0.0260419227093 -0.00292715823637)
(0.0293588215626 0.0274278283684 -0.000301987089985)
(0.0283864876466 0.0283696035688 0.00196235688636)
(0.0249823454574 0.028936720064 0.00377775881662)
(0.0193169692114 0.029314067567 0.00526608432035)
(0.012071557296 0.0295772417856 0.00623154249632)
(0.00410825457302 0.0297373272394 0.00652544558593)
(-0.00405120565463 0.0297346540386 0.00652651733522)
(-0.0120177399769 0.0295694351093 0.00623641941139)
(-0.0192698507905 0.0293025320521 0.00527305265109)
(-0.0249441217335 0.0289232702781 0.00378512661791)
(-0.0283569087206 0.0283562413261 0.00196877777215)
(-0.0293370466538 0.0274173278277 -0.000294591045725)
(-0.0265196118155 0.0260329182841 -0.00292241454266)
(-0.0203977034077 0.0247008221109 -0.00477151196176)
(-0.0112475883628 0.0233048893154 -0.0049953814948)
(-0.00195610150883 0.0216245463516 -0.000510323476523)
(0.00233377969772 0.0187732633398 0.000101833578182)
(0.0119610184135 0.0203684751996 -0.00380896861901)
(0.0212051831614 0.0217773044136 -0.00338094165391)
(0.0272978375005 0.0229966320427 -0.00148007592836)
(0.0300459760203 0.024201338658 0.00134487955872)
(0.0289550583518 0.0249647524976 0.00377586592077)
(0.02540633677 0.0253880601036 0.00573978472167)
(0.0195810140429 0.0256158917745 0.00738768698262)
(0.0122093674199 0.0257671272851 0.00822018073502)
(0.004140418028 0.0258793726777 0.00834776934159)
(-0.00408477003665 0.0258765558444 0.00834816882228)
(-0.0121567807966 0.0257589858954 0.00822188722338)
(-0.0195346611845 0.0256031501485 0.00739519678684)
(-0.0253688176283 0.0253734909836 0.00574713981379)
(-0.0289259037307 0.0249501259349 0.00378267956249)
(-0.030024277873 0.0241890804466 0.00135272884781)
(-0.0272846513726 0.0229859712819 -0.00147524784094)
(-0.0211964331261 0.021769784796 -0.00337699230586)
(-0.0119559973985 0.0203641276718 -0.00380552019905)
(-0.00233343458546 0.018774355708 0.000102322114164)
(0.00289726517901 0.0142829941763 0.000403177428661)
(0.012681373843 0.0155339115751 -0.00286034395483)
(0.0219450858597 0.0168282320377 -0.00220219797215)
(0.0279309122855 0.0178473293709 -0.000327444093613)
(0.0305490226887 0.0187527624486 0.00271867542897)
(0.0293349276114 0.0193020526635 0.00526092894524)
(0.0256362199495 0.0195666505355 0.007383823033)
(0.0197060526794 0.0196903765282 0.00870544311551)
(0.012222009181 0.019731817722 0.00912797284026)
(0.00411303445625 0.0197970787716 0.00918459247624)
(-0.00406149152625 0.0197942424557 0.00918481760586)
(-0.0121730953357 0.0197233837519 0.00912881415221)
(-0.019663209424 0.0196772495152 0.00870774482886)
(-0.0256011898734 0.0195507827942 0.0073912669543)
(-0.0293081357806 0.0192859183113 0.00526746909461)
(-0.0305291086989 0.0187381801527 0.00272615566881)
(-0.0279190243431 0.0178343320536 -0.000322757923584)
(-0.0219372034583 0.0168181445604 -0.00219795919751)
(-0.0126769190891 0.0155270709919 -0.00285634031567)
(-0.00289741145179 0.014281829916 0.000404084065447)
(0.00349497868223 0.00878340293344 0.000420103607371)
(0.0133183970881 0.00954113343239 -0.0023341927384)
(0.0225602978889 0.0104911352769 -0.00142699064386)
(0.028426460688 0.0111862421292 0.000400282168452)
(0.0309176755437 0.0117592939587 0.00349457051624)
(0.0296003549894 0.0120640190831 0.00622278508785)
(0.0257890282504 0.012202839335 0.00821907170783)
(0.0197494918188 0.0122159406073 0.00912804475465)
(0.0121846818503 0.0121766039685 0.0094219878981)
(0.00407880401778 0.0121968395525 0.00945295914997)
(-0.00403357549907 0.0121943245985 0.00945315286919)
(-0.0121419868746 0.0121687766753 0.00942272020759)
(-0.0197124022135 0.0122032011417 0.00912939612418)
(-0.0257593486042 0.0121869968649 0.00822145066175)
(-0.0295777707908 0.0120471989551 0.00622764233223)
(-0.0309014275046 0.0117432716802 0.00349966969187)
(-0.0284175953597 0.0111715785526 0.000403749931065)
(-0.0225551492166 0.0104788027818 -0.00142396839765)
(-0.0133159909235 0.00953194083303 -0.00233119614595)
(-0.00349565616727 0.00877935533859 0.000421057485066)
(0.00388307302941 0.00294281065175 0.000334874520563)
(0.0137129921032 0.00319637175284 -0.00217289557121)
(0.0229208859579 0.00355665770444 -0.00112130999158)
(0.028699338084 0.00380820882265 0.000691468942027)
(0.0311244119709 0.00401121412315 0.00376733148199)
(0.0297588572378 0.00410953426953 0.00652056039443)
(0.0259003037591 0.00414393674429 0.00834748450498)
(0.0198141914854 0.00411789152834 0.0091853296292)
(0.0122055364795 0.00408284056267 0.00945339961303)
(0.00407677171506 0.004079386441 0.00946240989713)
(-0.00403766045463 0.0040774467514 0.00946257048358)
(-0.0121689962919 0.00407663628503 0.00945397854182)
(-0.0197829315555 0.00410729724829 0.00918636610895)
(-0.0258759396412 0.0041301070323 0.00834881133664)
(-0.029741201088 0.00409444266352 0.00652202994285)
(-0.0311125268427 0.00399618426577 0.00376986179798)
(-0.0286945292248 0.0037942270427 0.000692763865664)
(-0.0229196574876 0.00354428557572 -0.00112077201653)
(-0.0137135049686 0.00318670234063 -0.002172567471)
(-0.00388397480119 0.00293711724852 0.000335281100247)
(0.00388347929696 -0.00294178889711 0.000334524589169)
(0.0137090812203 -0.00317447081212 -0.00217024590597)
(0.0229151890224 -0.00351914543682 -0.00111881439817)
(0.0286926929743 -0.00375977378562 0.000694024330012)
(0.0311166958191 -0.00395146886996 0.00377030942426)
(0.0297506618786 -0.00404274497535 0.00652296405012)
(0.0258919866708 -0.00407346912895 0.0083481043388)
(0.0198067205714 -0.00404872702021 0.00918539454827)
(0.0122002538686 -0.0040204670602 0.00945319827166)
(0.00407399161726 -0.00402522947727 0.00946197457202)
(-0.00403871245195 -0.00402634722668 0.00946209224043)
(-0.0121676258614 -0.00402428358128 0.00945359283152)
(-0.0197793507383 -0.00405559493146 0.00918596528991)
(-0.0258713322695 -0.00408257491933 0.00834850132245)
(-0.0297365166729 -0.00405285339242 0.00652249703579)
(-0.0311082205161 -0.00396190968147 0.00377064088369)
(-0.0286912996034 -0.00376958340038 0.000693166791672)
(-0.0229172772244 -0.00352799004591 -0.00112087108688)
(-0.013712025618 -0.0031815203594 -0.00217294721621)
(-0.00388452926798 -0.00294627693249 0.000333792347475)
(0.00349539891755 -0.00878446471628 0.000419184308078)
(0.0133078141494 -0.00952210397337 -0.00232737718248)
(0.0225450376415 -0.0104585317979 -0.0014203560803)
(0.0284087457791 -0.0111433799539 0.000407035664418)
(0.0308966596309 -0.0117064228492 0.00350303540769)
(0.0295772909798 -0.0120041659092 0.00623307613869)
(0.0257655716213 -0.0121393389376 0.008221641923)
(0.0197275225608 -0.0121528424689 0.00912856620975)
(0.0121680273677 -0.0121191332529 0.00942164386658)
(0.00406945969716 -0.0121453704134 0.00945221938254)
(-0.00403679592829 -0.0121454639965 0.00945227563012)
(-0.0121378915768 -0.012119886679 0.00942172349369)
(-0.0197022515754 -0.0121548108716 0.00912842074568)
(-0.0257465556898 -0.0121421139552 0.00822107175412)
(-0.0295646131094 -0.0120072585987 0.00623118446876)
(-0.0308895458045 -0.0117098459768 0.00350220997579)
(-0.0284085961741 -0.0111462432001 0.000405215017046)
(-0.0225484174437 -0.0104607835329 -0.00142380228911)
(-0.01331173309 -0.00952344717773 -0.00233187378408)
(-0.00349674829587 -0.00878490549073 0.000417221478018)
(0.00289637922358 -0.0142863545425 0.000402140782383)
(0.0126672459745 -0.0155197335984 -0.00285230942545)
(0.0219247158503 -0.0168032747334 -0.00219381954929)
(0.0279068341376 -0.0178131906961 -0.000318752128077)
(0.0305197042827 -0.018710249298 0.0027311284861)
(0.0293025867285 -0.0192532125022 0.00527317393848)
(0.0256015768795 -0.0195137049432 0.00739554788788)
(0.0196731430225 -0.0196380009491 0.00870775434598)
(0.0121958534325 -0.0196834813666 0.00912823356285)
(0.0040973368942 -0.0197529786427 0.00918452410964)
(-0.00406655601125 -0.0197522688313 0.00918440741327)
(-0.0121668348116 -0.0196817819012 0.00912786928506)
(-0.0196481711832 -0.0196358030917 0.0087073050654)
(-0.0255821523301 -0.0195109248362 0.00739592634119)
(-0.0292892282444 -0.0192497959197 0.00527293589664)
(-0.0305119035698 -0.01870688783 0.00273159460345)
(-0.0279058024048 -0.0178089762977 -0.000319781661436)
(-0.0219271334645 -0.0167982885521 -0.0021965578858)
(-0.0126704009141 -0.0155140514225 -0.00285626521671)
(-0.00289785515338 -0.0142812363642 0.000399615718362)
(0.00233162636399 -0.0187771753442 0.00010077891955)
(0.0119466232969 -0.0203588855952 -0.00380209257803)
(0.0211838379093 -0.0217596950241 -0.00337322210651)
(0.027271656851 -0.0229714635731 -0.00147155844104)
(0.03001340492 -0.024169939392 0.00135679917484)
(0.0289186576443 -0.0249275336455 0.003787063406)
(0.0253674138579 -0.0253477359675 0.00574981034004)
(0.0195428636274 -0.0255754348471 0.00739425120251)
(0.0121779550707 -0.0257300797904 0.00822196894357)
(0.00412079648176 -0.025845965264 0.00834868254596)
(-0.00409054407572 -0.0258449019623 0.00834841881791)
(-0.0121487949025 -0.0257272122109 0.00822144024973)
(-0.0195166129919 -0.025570852892 0.00739646009135)
(-0.0253463625028 -0.0253417696384 0.00575221567603)
(-0.0289034237139 -0.0249202429384 0.00378915819304)
(-0.0300037036763 -0.0241622759656 0.00135949856448)
(-0.0272685346807 -0.0229625172642 -0.00147078470728)
(-0.0211840540239 -0.0217496344931 -0.00337403848886)
(-0.0119479824455 -0.0203479332423 -0.00380392356236)
(-0.0023325900586 -0.0187674114153 9.88984205376e-05)
(0.0019536656225 -0.0216252298657 -0.000511887655955)
(0.011238594804 -0.0233009442631 -0.00499295322375)
(0.0203851471771 -0.0246942248944 -0.00476850019669)
(0.0265061039891 -0.0260236478947 -0.00291953802867)
(0.0293256722632 -0.0274051784527 -0.000292355156916)
(0.0283493527734 -0.0283421015151 0.00197103531458)
(0.0249425850007 -0.0289069563306 0.00378573371062)
(0.0192777939198 -0.0292847936068 0.00527094096278)
(0.0120390921127 -0.0295508881196 0.00623163142067)
(0.00408758485156 -0.0297139351418 0.00652507073646)
(-0.00405697263563 -0.0297128746608 0.00652498764632)
(-0.0120089741117 -0.0295477111264 0.00623289552217)
(-0.0192500469816 -0.0292797268266 0.00527370484416)
(-0.0249194920624 -0.0288999846913 0.00378944823842)
(-0.0283319274578 -0.0283334244059 0.00197471611682)
(-0.0293137856819 -0.0273959056146 -0.000288025675677)
(-0.0265006334546 -0.0260126516692 -0.00291705111966)
(-0.0203829406452 -0.0246819487982 -0.00476745481714)
(-0.0112379768285 -0.0232876732457 -0.00499270440116)
(-0.00195374098554 -0.0216130891833 -0.000512657310574)
(0.00182448030723 -0.0226392937935 -0.00117947152153)
(0.01066660641 -0.0242317073513 -0.00619158413352)
(0.0195231460422 -0.0255317445173 -0.00636580215352)
(0.0255397098622 -0.0268672994311 -0.00475330458779)
(0.028281948365 -0.0282832294534 -0.0023335031664)
(0.0274095564513 -0.0293243852217 -0.000292116895405)
(0.0241817285836 -0.0300079380052 0.00135599975532)
(0.0187312048116 -0.0305087167867 0.00272981078732)
(0.0117370669627 -0.0308782802124 0.00350465981846)
(0.00399256017614 -0.0310893624181 0.00377374306215)
(-0.00396142439759 -0.0310884342356 0.00377376343704)
(-0.0117060393626 -0.0308754750767 0.00350506484999)
(-0.0187017756557 -0.0305038984817 0.0027326941918)
(-0.0241565066596 -0.0300009875888 0.00136012526154)
(-0.0273897677211 -0.0293155271806 -0.0002877738154)
(-0.028267601621 -0.0282736502884 -0.0023283345433)
(-0.0255316168527 -0.0268557105816 -0.00474960122015)
(-0.0195185656066 -0.0255189322775 -0.00636338244769)
(-0.0106643190717 -0.024218089317 -0.00618982900942)
(-0.00182386575269 -0.0226267534569 -0.00117928583854)
(0.00184481066618 -0.0209683630736 -0.00293594211563)
(0.010027853301 -0.02210617447 -0.00801028512645)
(0.0184504251724 -0.0230729895461 -0.00833945670298)
(0.0242216709481 -0.0242314835165 -0.00697452451031)
(0.0268626970768 -0.0255464090327 -0.00475502410809)
(0.0260241894547 -0.0265104895779 -0.0029210321332)
(0.0229788881473 -0.0272724263775 -0.00147374816093)
(0.0178289410446 -0.0279034103904 -0.00032126268078)
(0.0111685857442 -0.0284000637985 0.000404486506722)
(0.00379523021812 -0.0286773256703 0.00069238576142)
(-0.00376320810657 -0.0286767572705 0.000692481530139)
(-0.0111361343227 -0.0283981187782 0.000405370723131)
(-0.0177977647646 -0.0278996616675 -0.000318757570649)
(-0.0229516858434 -0.0272665921356 -0.00146980363411)
(-0.0260022581672 -0.0265025789053 -0.00291643929122)
(-0.0268458845951 -0.0255377401098 -0.0047490423627)
(-0.0242113311172 -0.0242210252961 -0.00696953638093)
(-0.0184437723609 -0.0230615792711 -0.00833548407795)
(-0.0100239941355 -0.0220943696656 -0.00800676669759)
(-0.00184344715235 -0.0209574625113 -0.00293401490108)
(0.00219236239932 -0.0165627880698 -0.00411158897392)
(0.00975874904939 -0.0170843715334 -0.00880307195624)
(0.0176420334875 -0.0176543722326 -0.00936990324219)
(0.023061917723 -0.0184616155065 -0.00834086954578)
(0.0255256906869 -0.0195312639083 -0.00636875795748)
(0.0246928403856 -0.0203910963976 -0.00477110518081)
(0.0217645632453 -0.0211865433648 -0.00337648863415)
(0.0168154603707 -0.0219239457326 -0.00219784465991)
(0.010479094758 -0.0225397893102 -0.00142508818751)
(0.00354946703809 -0.0229042801942 -0.00112352400075)
(-0.00351649304193 -0.0229039546631 -0.00112372716321)
(-0.0104453595406 -0.0225384721269 -0.00142482373647)
(-0.0167825564907 -0.0219209757757 -0.00219573807203)
(-0.0217353616077 -0.0211816256884 -0.00337275933417)
(-0.0246688197488 -0.0203842850448 -0.00476664994675)
(-0.0255065889414 -0.0195240980893 -0.00636261121937)
(-0.0230497917479 -0.0184531260991 -0.00833554319978)
(-0.0176339126577 -0.0176453991701 -0.0093654953836)
(-0.00975401652903 -0.0170754267732 -0.00879919059311)
(-0.00219066517404 -0.0165546066974 -0.00410900220831)
(0.00273074759917 -0.0101289241756 -0.00498556715724)
(0.00984306675883 -0.00985422235233 -0.00834556225076)
(0.0170716986284 -0.00976968467002 -0.00880511905108)
(0.0220943632758 -0.0100378273032 -0.00801313016494)
(0.024224190309 -0.0106740615988 -0.00619553513865)
(0.023296975858 -0.0112445186451 -0.00499639165044)
(0.0203600932591 -0.0119502157708 -0.00380605914441)
(0.0155266483872 -0.0126683118531 -0.00285712047582)
(0.00953587026643 -0.0133055200428 -0.00233336556393)
(0.00319733533865 -0.0137027503318 -0.00217669822871)
(-0.0031629603908 -0.013702577465 -0.00217700396989)
(-0.00950048727828 -0.0133047305602 -0.00233335197675)
(-0.0154917694603 -0.0126663667682 -0.00285520492592)
(-0.0203287569705 -0.0119468962143 -0.00380229043958)
(-0.0232710012142 -0.0112399559238 -0.00499188660646)
(-0.024202609606 -0.0106695478961 -0.00618918493707)
(-0.0220807943371 -0.0100324707902 -0.00800728528833)
(-0.0170624370341 -0.00976435673003 -0.0088003857254)
(-0.00983773016325 -0.00984906524928 -0.00834151172239)
(-0.00272882494986 -0.0101242866273 -0.00498245397053)
(0.00347670524531 -0.00348215683228 -0.00511231784836)
(0.0101185474557 -0.00273710745642 -0.00498686705723)
(0.0165496432983 -0.00219845227308 -0.00411413745263)
(0.0209542891613 -0.00185038310988 -0.00293778389686)
(0.0226257418624 -0.0018278187228 -0.0011811083094)
(0.0216136615386 -0.00195584437978 -0.000513136353275)
(0.0187683851462 -0.00233194086859 9.97992256844e-05)
(0.0142810788001 -0.00289449524957 0.000401025368751)
(0.00878575869216 -0.0034918534288 0.000416349451109)
(0.00295379617558 -0.00387959754336 0.000329134470058)
(-0.00291783774863 -0.00387961684852 0.000328913673559)
(-0.00874868876108 -0.00349182994154 0.000416035865185)
(-0.0142441554367 -0.00289414201102 0.000401846156613)
(-0.0187345529415 -0.00233106486204 0.000102119847371)
(-0.0215852850684 -0.00195448950743 -0.000510157478494)
(-0.0226018604261 -0.00182629210987 -0.00117753288565)
(-0.0209385003683 -0.00184882755665 -0.00293340500235)
(-0.0165388784262 -0.00219703274809 -0.00411072446564)
(-0.0101123485284 -0.00273589532544 -0.00498389929246)
(-0.00347444433545 -0.00348115216601 -0.00510920016744)
(0.00459907051895 0.00460249924526 -0.0213925757861)
(0.01262861056 0.00567129581245 -0.0212256167382)
(0.0185680894984 0.00678760828348 -0.0183917746783)
(0.021705873176 0.0077464466988 -0.0148129936738)
(0.0223333011614 0.00846014229209 -0.0112420041826)
(0.0207546401787 0.00895635965403 -0.00832669101497)
(0.017417679162 0.00935076977236 -0.00644589186608)
(0.0128243638999 0.00976792697786 -0.00552303874281)
(0.00767599456121 0.0102013845997 -0.00542556405683)
(0.00253745708205 0.0105074222613 -0.00567776028453)
(-0.00249053675832 0.0105067130708 -0.00567498298464)
(-0.00763171789562 0.0101992931985 -0.00541758130319)
(-0.0127857662888 0.00976446764069 -0.00550981869191)
(-0.0173873212162 0.00934633414099 -0.00642931969463)
(-0.0207323906693 0.00895171626839 -0.00831008604658)
(-0.0223174206948 0.00845586882959 -0.0112270295588)
(-0.0216951433356 0.00774312504635 -0.0148012822493)
(-0.0185619332426 0.00678505749675 -0.018383803744)
(-0.0126255163216 0.00566896511214 -0.0212200663091)
(-0.00459908731076 0.00459980484121 -0.0213893247203)
(0.00567160259278 0.0126276655619 -0.0212195227829)
(0.0138945645845 0.0138902961357 -0.0225685879497)
(0.0194925556669 0.0155916597349 -0.0203771536611)
(0.0224911840345 0.0174820835244 -0.0171874233524)
(0.0230341032001 0.0191426497908 -0.0137993131358)
(0.0214844561725 0.0204248083379 -0.0107355485916)
(0.0181629932805 0.0214138216426 -0.00831846764251)
(0.0135138740286 0.0221980980689 -0.00662524804795)
(0.00819331586777 0.0227334145978 -0.00574830227428)
(0.00274410753953 0.0230049242731 -0.00546494923925)
(-0.00269291974473 0.0230027923508 -0.00546176944971)
(-0.00814456494874 0.0227274180744 -0.00573895898718)
(-0.0134703817895 0.0221891372103 -0.00661039847699)
(-0.0181273074994 0.0214029344186 -0.00830070548408)
(-0.0214570817111 0.0204138338824 -0.0107180196932)
(-0.0230138692192 0.0191328483773 -0.0137837917955)
(-0.0224770435947 0.0174742880651 -0.0171751987754)
(-0.0194835789421 0.0155853941563 -0.020368844158)
(-0.0138894147659 0.0138849179536 -0.0225632880731)
(-0.0056706741581 0.0126233822489 -0.0212187705988)
(0.00678915915747 0.0185629595678 -0.0183842438359)
(0.0155973324915 0.0194840560345 -0.0203747889437)
(0.0214955620611 0.0214859824949 -0.0178705788199)
(0.0244749559861 0.0237621020156 -0.0142484143917)
(0.0249402605029 0.0257775973437 -0.0104175028251)
(0.023328148513 0.0273172827317 -0.00687661792818)
(0.0199432225097 0.0284273629365 -0.00391179702323)
(0.0151347115703 0.0292313774055 -0.00159380532863)
(0.00937836946603 0.0297910957116 -8.37571923234e-05)
(0.00318206193508 0.0300768763754 0.000594183799097)
(-0.00312824391576 0.0300741789859 0.000597152758001)
(-0.00932693559769 0.0297834532688 -7.5044184534e-05)
(-0.0150886059618 0.0292198474433 -0.00158053045406)
(-0.0199047674538 0.0284138221476 -0.00389612210633)
(-0.0232978565718 0.0273040763107 -0.00686092946181)
(-0.0249173978762 0.0257662010856 -0.01040329136)
(-0.0244586280035 0.0237531838881 -0.0142370512406)
(-0.0214848988257 0.0214790051311 -0.0178628425684)
(-0.0155908865069 0.0194782885829 -0.0203703157378)
(-0.00678787066234 0.0185586764522 -0.0183844402306)
(0.00774835951523 0.0216943075474 -0.0148038122185)
(0.017489040979 0.022477805279 -0.017182950113)
(0.0237721459122 0.0244618456585 -0.0142467975856)
(0.0267488901434 0.0267363192981 -0.0100981512801)
(0.0270314137586 0.0286477936114 -0.00578095528132)
(0.0251611300379 0.0300538052718 -0.00187543867297)
(0.0214887632565 0.030962329041 0.00139353530387)
(0.0163772019465 0.0315202675405 0.00398314184475)
(0.0102368121927 0.0318624691577 0.00573122846235)
(0.0034997346522 0.0320366733375 0.00656295718072)
(-0.00344391068046 0.032033695339 0.00656577002016)
(-0.0101837189247 0.0318540051262 0.00573947622431)
(-0.0163293624281 0.0315075516485 0.00399565863778)
(-0.0214479793565 0.0309476793241 0.00140793717457)
(-0.0251284220089 0.03003951091 -0.00186100428698)
(-0.0270066282677 0.0286354431143 -0.00576758086913)
(-0.026730867057 0.0267267363531 -0.0100869398172)
(-0.0237602004683 0.0244545982605 -0.0142390455219)
(-0.0174811336559 0.0224725109006 -0.0171785917739)
(-0.00774649070835 0.0216913234277 -0.0148035088693)
(0.00846277569794 0.022314988641 -0.0112331305675)
(0.0191506355705 0.0230155741785 -0.0137949513224)
(0.0257885370815 0.0249238363298 -0.0104156936199)
(0.0286604735106 0.0270168910747 -0.0057806531922)
(0.0286983361941 0.0286846498259 -0.00110751492023)
(0.0265314239319 0.0298308163873 0.00306651938465)
(0.0225936210345 0.0305028131723 0.00643172054165)
(0.0172130886236 0.0308254362422 0.00899576452561)
(0.0107632842916 0.0309649638764 0.010758480957)
(0.00368299663325 0.0310259345481 0.0116008807597)
(-0.00362635984167 0.0310228821911 0.0116035458695)
(-0.0107095595514 0.030956294774 0.0107662813172)
(-0.0171646778532 0.0308126600248 0.00900733213224)
(-0.0225522138229 0.0304882241897 0.00644524030809)
(-0.0264978663366 0.0298163628866 0.00308042251327)
(-0.0286722930184 0.0286721244136 -0.00109425319636)
(-0.0286412654305 0.0270070133266 -0.00576955675014)
(-0.025775646308 0.0249167429823 -0.0104074433487)
(-0.0191419043377 0.0230112493009 -0.0137894905176)
(-0.00846003825427 0.0223136570121 -0.0112311917534)
(0.00896055534157 0.0207296697035 -0.00832336776067)
(0.0204351438167 0.0214611666943 -0.0107345969314)
(0.0273304900862 0.0233088693679 -0.0068766958687)
(0.0300678311412 0.0251452251826 -0.0018765051496)
(0.0298448765681 0.0265172651366 0.00306526836114)
(0.0274520953322 0.027438448171 0.00736513506429)
(0.0232941340317 0.0279205295817 0.010738248936)
(0.0176968230959 0.0281071364192 0.0132266283593)
(0.0110591781614 0.028169313973 0.014820676999)
(0.0037826408807 0.0281844520729 0.0156398221966)
(-0.00372619121588 0.0281815164631 0.0156425380297)
(-0.0110057986607 0.0281610468036 0.0148277530509)
(-0.0176487150339 0.0280947554713 0.0132373297553)
(-0.0232529385693 0.027906203182 0.0107509388387)
(-0.0274185410716 0.0274242334952 0.00737849460688)
(-0.0298186176255 0.0265047584705 0.00307833403837)
(-0.0300483253899 0.0251348806275 -0.00186519693117)
(-0.0273171511646 0.0233017279162 -0.00686766004147)
(-0.0204260049119 0.021457179434 -0.0107274348656)
(-0.00895716134547 0.0207292781897 -0.00831850815952)
(0.00935746684982 0.0173887403631 -0.00645043510922)
(0.021427568238 0.0181367937543 -0.00832328991864)
(0.0284442555956 0.0199225380297 -0.00391530999463)
(0.0309792041885 0.021472590322 0.00138981691596)
(0.0305187452901 0.0225799736339 0.00642794371436)
(0.0279351997666 0.0232817981542 0.0107357884397)
(0.0236254273635 0.0236128830732 0.0140607996481)
(0.0179286963579 0.0237525269939 0.016494127013)
(0.0111937578209 0.0237999290747 0.0182109935834)
(0.00382922098271 0.0238191690187 0.0190207407933)
(-0.00377378811841 0.0238163610072 0.0190233786076)
(-0.0111417108151 0.0237919580997 0.0182187485993)
(-0.0178822559907 0.0237407408395 0.0165043372329)
(-0.0235857502213 0.0235988353558 0.014072722812)
(-0.0279029663306 0.0232675817885 0.0107484798267)
(-0.0304936837579 0.0225671019308 0.00644069658698)
(-0.0309604793209 0.0214615256316 0.00140122714789)
(-0.0284313357243 0.019914556016 -0.00390580521684)
(-0.0214188735556 0.0181318136702 -0.00831475972084)
(-0.00935365607806 0.0173871008235 -0.0064431205938)
(0.00977726618964 0.0127962693719 -0.00553507833126)
(0.0222147850497 0.0134889229271 -0.00663640453679)
(0.0292521182256 0.0151154807351 -0.00160139390329)
(0.031540540061 0.0163627391033 0.00397593607224)
(0.0308442044708 0.017201594238 0.00898859021615)
(0.0281239393116 0.0176872676713 0.0132207009695)
(0.0237664811061 0.017919512378 0.01649042944)
(0.0180303716296 0.0180206898269 0.0191247362947)
(0.0112551677523 0.0180614518266 0.0208851372624)
(0.00384461106307 0.0180816043884 0.0216381416412)
(-0.00379198013197 0.0180788814829 0.021640344943)
(-0.0112059506166 0.0180537036925 0.020891956063)
(-0.0179869432937 0.0180091941114 0.0191353080941)
(-0.0237301180859 0.0179058617344 0.0165013163686)