/*--------------------------------*- C++ -*----------------------------------*\
| =========                 |                                                 |
| \\      /  F ield         | OpenFOAM: The Open Source CFD Toolbox           |
|  \\    /   O peration     | Version:  3.0.1                                 |
|   \\  /    A nd           | Web:      www.OpenFOAM.org                      |
|    \\/     M anipulation  |                                                 |
\*---------------------------------------------------------------------------*/
FoamFile
{
    version     2.0;
    format      ascii;
    class       surfaceScalarField;
    location    "0.15";
    object      alphaPhi;
}
// * * * * * * * * * * * * * * * * * * * * * * * * * * * * * * * * * * * * * //

dimensions      [0 3 -1 0 0 0 0];

internalField   nonuniform List<scalar> 
15214
(
1.75805e-06
-1.75805e-06
4.59926e-06
-2.84121e-06
7.44697e-06
-2.84771e-06
1.01152e-05
-2.66826e-06
1.2685e-05
-2.56981e-06
1.52408e-05
-2.55576e-06
1.7824e-05
-2.58318e-06
2.04487e-05
-2.62471e-06
2.31184e-05
-2.66971e-06
2.58346e-05
-2.7162e-06
2.85997e-05
-2.76509e-06
3.14171e-05
-2.8174e-06
3.42906e-05
-2.87352e-06
3.7224e-05
-2.93335e-06
4.02205e-05
-2.99656e-06
4.32832e-05
-3.06271e-06
4.64144e-05
-3.13121e-06
4.96158e-05
-3.20136e-06
5.2888e-05
-3.27221e-06
5.62306e-05
-3.34262e-06
5.96418e-05
-3.41115e-06
6.31177e-05
-3.47592e-06
6.66523e-05
-3.53462e-06
7.02367e-05
-3.58441e-06
7.38584e-05
-3.6217e-06
7.75001e-05
-3.64174e-06
8.11385e-05
-3.63836e-06
8.47425e-05
-3.60401e-06
8.8272e-05
-3.52949e-06
9.1675e-05
-3.40302e-06
9.48835e-05
-3.20843e-06
9.78065e-05
-2.92302e-06
0.000100322
-2.51573e-06
0.000102265
-1.94267e-06
0.000103392
-1.12753e-06
0.000103331
6.14687e-08
0.000101436
1.89459e-06
9.6981e-05
4.45539e-06
8.91446e-05
7.83631e-06
7.70401e-05
1.21045e-05
5.99786e-05
1.70614e-05
3.81414e-05
2.18362e-05
1.37038e-05
2.44358e-05
-7.17888e-06
2.29285e-05
-7.82937e-06
7.86473e-06
-1.36371e-05
1.77235e-06
-3.5304e-06
4.61654e-06
-5.6854e-06
7.47019e-06
-5.70136e-06
1.01472e-05
-5.34525e-06
1.27253e-05
-5.14794e-06
1.52894e-05
-5.11987e-06
1.78813e-05
-5.17511e-06
2.05147e-05
-5.25804e-06
2.31926e-05
-5.34761e-06
2.59166e-05
-5.44023e-06
2.86893e-05
-5.5378e-06
3.15142e-05
-5.6423e-06
3.43952e-05
-5.75447e-06
3.73359e-05
-5.8741e-06
4.03399e-05
-6.00056e-06
4.34102e-05
-6.13295e-06
4.65491e-05
-6.27015e-06
4.97585e-05
-6.41072e-06
5.30391e-05
-6.55285e-06
5.63908e-05
-6.69429e-06
5.98118e-05
-6.8322e-06
6.32988e-05
-6.9629e-06
6.68461e-05
-7.08188e-06
7.04453e-05
-7.18363e-06
7.40847e-05
-7.26114e-06
7.7748e-05
-7.30498e-06
8.14125e-05
-7.3029e-06
8.50485e-05
-7.23999e-06
8.86175e-05
-7.09851e-06
9.20704e-05
-6.85591e-06
9.53429e-05
-6.4809e-06
9.83492e-05
-5.92929e-06
0.000100975
-5.14157e-06
0.000103074
-4.04211e-06
0.000104488
-2.54105e-06
0.000105118
-5.69061e-07
0.000104982
2.03092e-06
0.000103981
5.45652e-06
0.000101768
1.00494e-05
9.76483e-05
1.62239e-05
9.03656e-05
2.43442e-05
7.81041e-05
3.40977e-05
5.96631e-05
4.28744e-05
3.74959e-05
4.50883e-05
1.42711e-05
3.23188e-05
-2.84776e-06
1.78063e-06
-5.31103e-06
4.61504e-06
-8.51982e-06
7.45375e-06
-8.54007e-06
1.01191e-05
-8.01056e-06
1.26892e-05
-7.71806e-06
1.52474e-05
-7.67812e-06
1.78343e-05
-7.76202e-06
2.04625e-05
-7.88621e-06
2.31347e-05
-8.01982e-06
2.58526e-05
-8.15815e-06
2.86191e-05
-8.30423e-06
3.14377e-05
-8.46094e-06
3.43125e-05
-8.62929e-06
3.72474e-05
-8.80898e-06
4.02459e-05
-8.99906e-06
4.33112e-05
-9.19822e-06
4.64458e-05
-9.4048e-06
4.96518e-05
-9.61671e-06
5.29303e-05
-9.83132e-06
5.62814e-05
-1.00454e-05
5.97038e-05
-1.02547e-05
6.31948e-05
-1.04539e-05
6.67495e-05
-1.06366e-05
7.03606e-05
-1.07947e-05
7.40175e-05
-1.0918e-05
7.7705e-05
-1.09925e-05
8.14024e-05
-1.10002e-05
8.50825e-05
-1.09201e-05
8.87114e-05
-1.07274e-05
9.22452e-05
-1.03897e-05
9.56247e-05
-9.86044e-06
9.87696e-05
-9.07416e-06
0.000101573
-7.94525e-06
0.000103903
-6.37157e-06
0.0001056
-4.23796e-06
0.000106447
-1.41611e-06
0.000106216
2.26204e-06
0.000104665
7.00684e-06
0.000101649
1.30657e-05
9.71869e-05
2.0686e-05
9.1446e-05
3.0085e-05
8.42406e-05
4.13031e-05
7.39132e-05
5.3188e-05
5.75808e-05
6.14062e-05
3.15287e-05
5.83621e-05
2.34286e-05
1.79224e-06
-7.10327e-06
4.61565e-06
-1.13432e-05
7.4332e-06
-1.13576e-05
1.00808e-05
-1.06582e-05
1.26394e-05
-1.02767e-05
1.51899e-05
-1.02286e-05
1.77703e-05
-1.03424e-05
2.03917e-05
-1.05076e-05
2.30564e-05
-1.06846e-05
2.57664e-05
-1.08682e-05
2.85248e-05
-1.10626e-05
3.13356e-05
-1.12717e-05
3.42028e-05
-1.14965e-05
3.71306e-05
-1.17368e-05
4.01226e-05
-1.19911e-05
4.31823e-05
-1.22579e-05
4.63124e-05
-1.25349e-05
4.95154e-05
-1.28196e-05
5.27926e-05
-1.31086e-05
5.61449e-05
-1.33976e-05
5.95716e-05
-1.36814e-05
6.30707e-05
-1.3953e-05
6.66385e-05
-1.42044e-05
7.02692e-05
-1.44254e-05
7.39537e-05
-1.46025e-05
7.76784e-05
-1.47173e-05
8.14256e-05
-1.47474e-05
8.51728e-05
-1.46674e-05
8.88922e-05
-1.44468e-05
9.25461e-05
-1.40435e-05
9.60806e-05
-1.33949e-05
9.94205e-05
-1.2414e-05
0.000102469
-1.09935e-05
0.000105109
-9.01191e-06
0.000107204
-6.33261e-06
0.000108577
-2.78901e-06
0.000109003
1.83582e-06
0.000108169
7.84075e-06
0.00010569
1.55448e-05
0.000101174
2.52014e-05
9.44288e-05
3.68307e-05
8.56748e-05
5.00571e-05
7.47696e-05
6.40869e-05
5.95042e-05
7.66572e-05
3.55478e-05
8.23166e-05
5.20235e-05
1.80657e-06
-8.90984e-06
4.61603e-06
-1.41527e-05
7.406e-06
-1.41476e-05
1.003e-05
-1.32822e-05
1.25733e-05
-1.28199e-05
1.51135e-05
-1.27689e-05
1.76851e-05
-1.2914e-05
2.02973e-05
-1.31197e-05
2.2952e-05
-1.33393e-05
2.56516e-05
-1.35677e-05
2.83995e-05
-1.38105e-05
3.12e-05
-1.40722e-05
3.40574e-05
-1.4354e-05
3.6976e-05
-1.46554e-05
3.99597e-05
-1.49748e-05
4.30122e-05
-1.53103e-05
4.61366e-05
-1.56594e-05
4.93358e-05
-1.60188e-05
5.26117e-05
-1.63845e-05
5.59657e-05
-1.67516e-05
5.93981e-05
-1.71138e-05
6.29081e-05
-1.7463e-05
6.64932e-05
-1.77896e-05
7.01494e-05
-1.80816e-05
7.38692e-05
-1.83223e-05
7.76418e-05
-1.84899e-05
8.14534e-05
-1.8559e-05
8.52878e-05
-1.85018e-05
8.9124e-05
-1.8283e-05
9.29297e-05
-1.78492e-05
9.66551e-05
-1.71204e-05
0.000100233
-1.59917e-05
0.000103583
-1.43441e-05
0.000106622
-1.20502e-05
0.00010925
-8.96131e-06
0.000111336
-4.87409e-06
0.00011267
5.01267e-07
0.000112947
7.56341e-06
0.000111712
1.67799e-05
0.000108265
2.86485e-05
0.000101703
4.3393e-05
9.13096e-05
6.04504e-05
7.70373e-05
7.83594e-05
5.90859e-05
9.46078e-05
3.47715e-05
0.00010663
8.09265e-05
1.82323e-06
-1.07331e-05
4.61521e-06
-1.69447e-05
7.37158e-06
-1.6904e-05
9.96694e-06
-1.58775e-05
1.24915e-05
-1.53444e-05
1.5019e-05
-1.52965e-05
1.75794e-05
-1.54743e-05
2.01798e-05
-1.57202e-05
2.2822e-05
-1.59815e-05
2.55086e-05
-1.62543e-05
2.82435e-05
-1.65454e-05
3.10313e-05
-1.686e-05
3.38766e-05
-1.71993e-05
3.67839e-05
-1.75627e-05
3.97574e-05
-1.79483e-05
4.28011e-05
-1.8354e-05
4.59185e-05
-1.87768e-05
4.91129e-05
-1.92132e-05
5.23871e-05
-1.96587e-05
5.57431e-05
-2.01077e-05
5.91824e-05
-2.0553e-05
6.27051e-05
-2.09857e-05
6.63108e-05
-2.13953e-05
6.9997e-05
-2.17677e-05
7.37584e-05
-2.20837e-05
7.75876e-05
-2.2319e-05
8.14762e-05
-2.24475e-05
8.54149e-05
-2.24405e-05
8.93885e-05
-2.22566e-05
9.33681e-05
-2.18289e-05
9.73088e-05
-2.10611e-05
0.000101158
-1.98405e-05
0.000104867
-1.80535e-05
0.000108397
-1.55807e-05
0.000111698
-1.22619e-05
0.00011467
-7.84626e-06
0.000117131
-1.9592e-06
0.00011879
5.90442e-06
0.000119207
1.63621e-05
0.000117356
3.05001e-05
0.00011189
4.88589e-05
0.000101476
7.08641e-05
8.5384e-05
9.44517e-05
6.40519e-05
0.00011594
3.69911e-05
0.000133691
0.000127468
1.84169e-06
-1.25748e-05
4.61222e-06
-1.97152e-05
7.32935e-06
-1.96211e-05
9.8917e-06
-1.84399e-05
1.23945e-05
-1.78473e-05
1.49068e-05
-1.78088e-05
1.74535e-05
-1.8021e-05
2.00395e-05
-1.83062e-05
2.26664e-05
-1.86085e-05
2.53373e-05
-1.89252e-05
2.80567e-05
-1.92648e-05
3.08293e-05
-1.96326e-05
3.36602e-05
-2.00302e-05
3.6554e-05
-2.04564e-05
3.95152e-05
-2.09095e-05
4.25481e-05
-2.13869e-05
4.56568e-05
-2.18856e-05
4.88452e-05
-2.24016e-05
5.21168e-05
-2.29302e-05
5.54745e-05
-2.34654e-05
5.89207e-05
-2.39992e-05
6.24574e-05
-2.45224e-05
6.60855e-05
-2.50234e-05
6.98046e-05
-2.54868e-05
7.36119e-05
-2.5891e-05
7.75041e-05
-2.62112e-05
8.14794e-05
-2.64228e-05
8.55348e-05
-2.64959e-05
8.96584e-05
-2.63802e-05
9.38233e-05
-2.59937e-05
9.79936e-05
-2.52314e-05
0.000102144
-2.3991e-05
0.000106273
-2.21825e-05
0.000110391
-1.96981e-05
0.000114481
-1.63525e-05
0.00011847
-1.18351e-05
0.00012221
-5.69935e-06
0.000125488
2.62682e-06
0.000128051
1.37993e-05
0.000128591
2.996e-05
0.000125636
5.18152e-05
0.000116959
7.95415e-05
0.000100356
0.000111055
7.50301e-05
0.000141265
4.25826e-05
0.000166133
0.000175716
1.86138e-06
-1.44361e-05
4.6062e-06
-2.24601e-05
7.27884e-06
-2.22937e-05
9.8044e-06
-2.09654e-05
1.22828e-05
-2.03256e-05
1.47773e-05
-2.03033e-05
1.73076e-05
-2.05512e-05
1.98763e-05
-2.0875e-05
2.24852e-05
-2.12173e-05
2.51376e-05
-2.15777e-05
2.78387e-05
-2.19658e-05
3.05936e-05
-2.23875e-05
3.34075e-05
-2.2844e-05
3.62852e-05
-2.33342e-05
3.92317e-05
-2.3856e-05
4.22517e-05
-2.44069e-05
4.53498e-05
-2.49836e-05
4.85304e-05
-2.55822e-05
5.17979e-05
-2.61977e-05
5.51561e-05
-2.68236e-05
5.86087e-05
-2.74518e-05
6.2159e-05
-2.80727e-05
6.58101e-05
-2.86745e-05
6.95631e-05
-2.92399e-05
7.34184e-05
-2.97463e-05
7.73779e-05
-3.01707e-05
8.14461e-05
-3.0491e-05
8.56244e-05
-3.06742e-05
8.99013e-05
-3.06571e-05
9.42531e-05
-3.03455e-05
9.8664e-05
-2.96423e-05
0.00010315
-2.84773e-05
0.00010776
-2.67918e-05
0.000112534
-2.44727e-05
0.000117473
-2.12917e-05
0.000122533
-1.68943e-05
0.000127636
-1.08029e-05
0.00013274
-2.47689e-06
0.000138246
8.26837e-06
0.000142398
2.58132e-05
0.000142601
5.16155e-05
0.000134214
8.79269e-05
0.000114458
0.000130811
8.33416e-05
0.000172382
4.64773e-05
0.00020288
0.000222063
1.88167e-06
-1.63178e-05
4.59624e-06
-2.51746e-05
7.2196e-06
-2.49171e-05
9.70517e-06
-2.3451e-05
1.21567e-05
-2.27772e-05
1.46309e-05
-2.27775e-05
1.71418e-05
-2.30621e-05
1.96903e-05
-2.34235e-05
2.2278e-05
-2.3805e-05
2.49091e-05
-2.42088e-05
2.75891e-05
-2.46458e-05
3.03234e-05
-2.51218e-05
3.31175e-05
-2.56381e-05
3.59765e-05
-2.61932e-05
3.89057e-05
-2.67852e-05
4.19102e-05
-2.74114e-05
4.49952e-05
-2.80686e-05
4.81657e-05
-2.87528e-05
5.1427e-05
-2.94589e-05
5.47838e-05
-3.01804e-05
5.82411e-05
-3.09091e-05
6.18039e-05
-3.16355e-05
6.54767e-05
-3.23474e-05
6.9263e-05
-3.30261e-05
7.31664e-05
-3.36497e-05
7.71948e-05
-3.41991e-05
8.13581e-05
-3.46543e-05
8.56584e-05
-3.49745e-05
9.00831e-05
-3.50818e-05
9.46191e-05
-3.48815e-05
9.92845e-05
-3.43077e-05
0.000104143
-3.33355e-05
0.000109272
-3.19209e-05
0.000114717
-2.9918e-05
0.00012049
-2.70648e-05
0.000126621
-2.30256e-05
0.000133186
-1.73683e-05
0.000140146
-9.4382e-06
0.000146671
6.76079e-07
0.000144993
1.69352e-05
0.000125688
3.03087e-05
0.000106804
3.26133e-05
0.000100617
6.84653e-05
7.71858e-05
0.000163147
4.40406e-05
0.000233919
0.000265453
1.9019e-06
-1.82197e-05
4.58139e-06
-2.78541e-05
7.15123e-06
-2.74869e-05
9.59417e-06
-2.58939e-05
1.20165e-05
-2.51995e-05
1.44677e-05
-2.52287e-05
1.69562e-05
-2.55506e-05
1.94812e-05
-2.59485e-05
2.20447e-05
-2.63685e-05
2.46514e-05
-2.68155e-05
2.73073e-05
-2.73016e-05
3.00181e-05
-2.78326e-05
3.27894e-05
-2.84094e-05
3.56267e-05
-2.90306e-05
3.85357e-05
-2.96941e-05
4.15218e-05
-3.03975e-05
4.45908e-05
-3.11376e-05
4.77485e-05
-3.19105e-05
5.10008e-05
-3.27112e-05
5.43536e-05
-3.35332e-05
5.7813e-05
-3.43685e-05
6.13858e-05
-3.52083e-05
6.5078e-05
-3.60395e-05
6.88949e-05
-3.68431e-05
7.28448e-05
-3.75996e-05
7.69412e-05
-3.82954e-05
8.11965e-05
-3.89097e-05
8.56103e-05
-3.93883e-05
9.01718e-05
-3.96433e-05
9.48911e-05
-3.96008e-05
9.98297e-05
-3.92462e-05
0.000105083
-3.85891e-05
0.000110726
-3.75642e-05
0.000116795
-3.59861e-05
0.000123336
-3.36061e-05
0.000130423
-3.0115e-05
0.000137806
-2.47705e-05
0.000141086
-1.63983e-05
0.000110341
-2.48947e-06
4.80544e-05
2.84414e-06
2.0824e-05
5.48706e-07
2.13214e-05
2.69202e-06
3.44641e-05
1.03871e-05
5.59139e-05
4.99614e-05
3.79225e-05
0.000241685
0.000301553
-8.11942e-26
9.03039e-27
-2.3859e-25
6.92382e-26
-2.02918e-25
8.86904e-26
-9.6016e-26
4.04772e-26
-2.95285e-26
1.02819e-26
-7.37681e-27
1.46761e-27
-1.59862e-27
7.22207e-29
-2.54725e-28
-2.09983e-27
-3.13504e-29
-7.09169e-28
-3.10321e-30
-1.24702e-28
-2.56432e-31
-1.55661e-29
-1.83038e-32
-1.53258e-30
-1.16334e-33
-1.26334e-31
-6.75383e-35
-9.09566e-33
-3.63251e-36
-5.89423e-34
-1.82886e-37
-3.52355e-35
-8.904e-39
-1.96839e-36
-4.15927e-40
-1.06505e-37
-1.88194e-41
-5.55392e-39
-8.17103e-43
-2.82561e-40
-3.41103e-44
-1.39016e-41
-1.33494e-45
-6.65784e-43
-4.96032e-47
-3.00142e-44
-1.71155e-48
-1.30547e-45
-5.44022e-50
-5.30721e-47
-1.60623e-51
-2.00954e-48
-4.33364e-53
-7.11879e-50
-1.04837e-54
-2.31722e-51
-2.3248e-56
-6.81324e-53
-4.54201e-58
-1.8416e-54
-7.99972e-60
-4.41644e-56
-1.20462e-61
-9.63516e-58
-1.58804e-63
-1.7863e-59
-1.71654e-65
-2.9314e-61
-1.55641e-67
-4.0173e-63
-1.08466e-69
-4.63728e-65
-5.3445e-72
-4.2529e-67
-1.60023e-74
-2.91446e-69
-2.1893e-77
-1.3364e-71
-3.64649e-74
-5.61107e-24
1.22922e-24
-1.83494e-23
8.87835e-24
-1.58472e-23
1.24877e-23
-7.08338e-24
5.71143e-24
-2.13272e-24
1.35304e-24
-5.24545e-25
1.77937e-25
-1.09643e-25
4.35761e-27
-1.71329e-26
-1.62335e-25
-2.10419e-27
-4.86427e-26
-2.11366e-28
-8.39201e-27
-1.79525e-29
-1.06008e-27
-1.32341e-30
-1.07255e-28
-8.67121e-32
-9.12325e-30
-5.16979e-33
-6.76069e-31
-2.86626e-34
-4.47885e-32
-1.50625e-35
-2.72711e-33
-7.63119e-37
-1.5612e-34
-3.74965e-38
-8.50867e-36
-1.79815e-39
-4.47318e-37
-8.3526e-41
-2.27441e-38
-3.74795e-42
-1.11697e-39
-1.59922e-43
-5.2765e-41
-6.48201e-45
-2.36994e-42
-2.4523e-46
-1.01183e-43
-8.62823e-48
-4.03927e-45
-2.80083e-49
-1.5035e-46
-8.27435e-51
-5.19652e-48
-2.20972e-52
-1.64564e-49
-5.28612e-54
-4.73739e-51
-1.11565e-55
-1.236e-52
-2.04589e-57
-2.87821e-54
-3.23247e-59
-5.94141e-56
-4.30015e-61
-1.0613e-57
-4.72704e-63
-1.63991e-59
-4.14818e-65
-2.13159e-61
-2.87431e-67
-2.27729e-63
-1.52035e-69
-1.93148e-65
-5.66539e-72
-1.22943e-67
-1.09113e-74
-5.31038e-70
-1.76906e-72
-1.76881e-22
6.12582e-23
-6.3726e-22
3.99814e-22
-5.58989e-22
6.08186e-22
-2.40535e-22
2.78318e-22
-7.04116e-23
6.21052e-23
-1.71285e-23
7.47763e-24
-3.49832e-24
-4.504e-25
-5.43866e-25
-5.5035e-24
-6.74817e-26
-1.53097e-24
-6.91445e-27
-2.62774e-25
-6.03055e-28
-3.37543e-26
-4.58389e-29
-3.51066e-27
-3.103e-30
-3.08696e-28
-1.90719e-31
-2.37203e-29
-1.08915e-32
-1.63017e-30
-5.87149e-34
-1.02825e-31
-3.03476e-35
-6.08484e-33
-1.51614e-36
-3.40845e-34
-7.33639e-38
-1.83686e-35
-3.42957e-39
-9.494e-37
-1.53976e-40
-4.73156e-38
-6.57244e-42
-2.24849e-39
-2.65412e-43
-1.0194e-40
-9.99586e-45
-4.35376e-42
-3.4998e-46
-1.73649e-43
-1.13003e-47
-6.47017e-45
-3.32245e-49
-2.22464e-46
-8.83403e-51
-6.99509e-48
-2.10488e-52
-2.0078e-49
-4.42918e-54
-5.18495e-51
-8.11531e-56
-1.19353e-52
-1.28689e-57
-2.41176e-54
-1.708e-59
-4.27901e-56
-1.87687e-61
-6.43685e-58
-1.66413e-63
-8.12295e-60
-1.15744e-65
-8.35737e-62
-6.09987e-68
-6.77024e-64
-2.23105e-70
-4.10864e-66
-4.16918e-73
-1.69715e-68
-6.53881e-71
-3.9673e-21
1.9526e-21
-1.47208e-20
1.06977e-20
-1.28872e-20
1.64391e-20
-5.19513e-21
7.41356e-21
-1.45805e-21
1.52765e-21
-3.51079e-22
1.61076e-22
-6.97572e-23
-1.04369e-22
-1.0846e-23
-1.14089e-22
-1.3661e-24
-2.98814e-23
-1.43433e-25
-5.13462e-24
-1.28975e-26
-6.745e-25
-1.01444e-27
-7.2507e-26
-7.1257e-29
-6.62606e-27
-4.54545e-30
-5.30855e-28
-2.6885e-31
-3.81526e-29
-1.49966e-32
-2.50935e-30
-7.96942e-34
-1.54564e-31
-4.08361e-35
-8.97985e-33
-2.01084e-36
-4.98919e-34
-9.54612e-38
-2.64585e-35
-4.32225e-39
-1.34608e-36
-1.85748e-40
-6.49676e-38
-7.53051e-42
-2.98286e-39
-2.84144e-43
-1.28442e-40
-9.9656e-45
-5.16652e-42
-3.20913e-46
-1.93696e-43
-9.40569e-48
-6.67229e-45
-2.49427e-49
-2.10106e-46
-5.90682e-51
-6.0431e-48
-1.23412e-52
-1.55669e-49
-2.24002e-54
-3.5664e-51
-3.48815e-56
-7.18052e-53
-4.57696e-58
-1.2607e-54
-4.94077e-60
-1.87351e-56
-4.27943e-62
-2.32214e-58
-2.90994e-64
-2.32951e-60
-1.52721e-66
-1.82395e-62
-5.69682e-69
-1.06627e-64
-1.12531e-71
-4.23871e-67
-1.84216e-69
-7.09268e-20
4.74523e-20
-2.45795e-19
2.01878e-19
-2.09524e-19
2.81055e-19
-7.82767e-20
1.21818e-19
-2.0864e-20
2.2866e-20
-4.93698e-21
1.95896e-21
-9.62315e-22
-2.62509e-21
-1.50795e-22
-1.60176e-21
-1.93899e-23
-4.01239e-22
-2.09696e-24
-6.95319e-23
-1.95407e-25
-9.39936e-24
-1.59826e-26
-1.05072e-24
-1.16988e-27
-1.00437e-25
-7.79288e-29
-8.43501e-27
-4.79761e-30
-6.37349e-28
-2.7828e-31
-4.40334e-29
-1.53117e-32
-2.83492e-30
-8.06795e-34
-1.72079e-31
-4.07196e-35
-9.87746e-33
-1.96681e-36
-5.41785e-34
-9.0185e-38
-2.81558e-35
-3.91866e-39
-1.38854e-36
-1.59552e-40
-6.4665e-38
-6.04964e-42
-2.8144e-39
-2.12381e-43
-1.14741e-40
-6.81646e-45
-4.32475e-42
-1.99184e-46
-1.49478e-43
-5.2358e-48
-4.75109e-45
-1.22297e-49
-1.36542e-46
-2.50797e-51
-3.51453e-48
-4.45146e-53
-8.03279e-50
-6.68472e-55
-1.61885e-51
-8.34437e-57
-2.81226e-53
-8.4073e-59
-4.13578e-55
-6.66518e-61
-5.04041e-57
-4.14186e-63
-4.93485e-59
-2.0631e-65
-3.74761e-61
-8.57861e-68
-2.09506e-63
-2.11949e-70
-7.97314e-66
-3.94555e-68
-9.75591e-19
8.53811e-19
-2.88807e-18
2.65919e-18
-2.32987e-18
3.03481e-18
-8.3033e-19
1.2096e-18
-2.13851e-19
2.0789e-19
-4.95364e-20
1.16315e-20
-9.59733e-21
-3.52292e-20
-1.53017e-21
-1.59118e-20
-2.02378e-22
-3.88191e-21
-2.26871e-23
-6.84873e-22
-2.20332e-24
-9.59345e-23
-1.88632e-25
-1.12184e-23
-1.44506e-26
-1.12915e-24
-1.00944e-27
-1.00072e-25
-6.52516e-29
-7.97731e-27
-3.94151e-30
-5.83504e-28
-2.25612e-31
-3.94504e-29
-1.22552e-32
-2.50739e-30
-6.36091e-34
-1.49771e-31
-3.13097e-35
-8.50139e-33
-1.46014e-36
-4.53925e-34
-6.40776e-38
-2.29598e-35
-2.62322e-39
-1.08619e-36
-9.98595e-41
-4.80903e-38
-3.4985e-42
-1.98019e-39
-1.11783e-43
-7.51678e-41
-3.23029e-45
-2.62903e-42
-8.3699e-47
-8.37521e-44
-1.91074e-48
-2.41005e-45
-3.79611e-50
-6.21023e-47
-6.39587e-52
-1.4237e-48
-8.90763e-54
-2.85223e-50
-9.83693e-56
-4.91135e-52
-8.0139e-58
-7.14234e-54
-4.23278e-60
-8.55534e-56
-1.10099e-62
-8.17499e-58
-1.65372e-65
-5.98873e-60
-4.24897e-67
-3.16629e-62
-2.66811e-69
-1.13055e-64
-6.58331e-67
-8.98687e-18
9.64223e-18
-2.18737e-17
2.19983e-17
-1.64201e-17
2.044e-17
-5.95087e-18
7.06159e-18
-1.57058e-18
1.07003e-18
-3.61129e-19
-5.30015e-20
-7.06999e-20
-3.01249e-19
-1.15888e-20
-1.14707e-19
-1.59013e-21
-2.7747e-20
-1.86061e-22
-5.03174e-21
-1.89499e-23
-7.35632e-22
-1.70458e-24
-9.05287e-23
-1.37866e-25
-9.6277e-24
-1.01312e-26
-9.07575e-25
-6.88555e-28
-7.6737e-26
-4.36371e-29
-5.9435e-27
-2.6038e-30
-4.25445e-28
-1.46902e-31
-2.83429e-29
-7.83494e-33
-1.77648e-30
-3.94509e-34
-1.04253e-31
-1.87047e-35
-5.76445e-33
-8.28245e-37
-2.98199e-34
-3.41219e-38
-1.44146e-35
-1.29919e-39
-6.49538e-37
-4.52571e-41
-2.70322e-38
-1.43182e-42
-1.03972e-39
-4.06556e-44
-3.66438e-41
-1.02239e-45
-1.17156e-42
-2.23762e-47
-3.38358e-44
-4.13303e-49
-8.76188e-46
-6.21258e-51
-2.00002e-47
-6.90574e-53
-3.98688e-49
-4.25959e-55
-6.80655e-51
1.34868e-55
-9.80554e-53
6.79764e-57
-1.15217e-54
1.05556e-58
-1.06721e-56
8.91354e-61
-7.42179e-59
3.23231e-63
-3.61321e-61
-1.70584e-68
-1.1542e-63
-8.67419e-66
-5.14638e-17
6.53128e-17
-1.02664e-16
1.1546e-16
-7.19929e-17
9.04284e-17
-2.81239e-17
2.54656e-17
-8.13394e-18
2.90153e-18
-1.93505e-18
-2.27985e-18
-3.90188e-19
-1.76535e-18
-6.63749e-20
-6.141e-19
-9.52094e-21
-1.49246e-19
-1.17071e-21
-2.80028e-20
-1.25612e-22
-4.29489e-21
-1.19359e-23
-5.58371e-22
-1.0212e-24
-6.30705e-23
-7.94692e-26
-6.32527e-24
-5.69853e-27
-5.70351e-25
-3.79919e-28
-4.69274e-26
-2.36732e-29
-3.55653e-27
-1.38602e-30
-2.49988e-28
-7.62044e-32
-1.63778e-29
-3.93041e-33
-1.00197e-30
-1.89237e-34
-5.72259e-32
-8.46708e-36
-3.04387e-33
-3.50203e-37
-1.50886e-34
-1.32494e-38
-6.91305e-36
-4.5666e-40
-2.92864e-37
-1.41356e-41
-1.14009e-38
-3.86919e-43
-4.04403e-40
-9.16523e-45
-1.30524e-41
-1.81369e-46
-3.78859e-43
-2.76363e-48
-9.80949e-45
-2.55948e-50
-2.23213e-46
5.60995e-51
-4.4448e-48
5.58805e-52
-7.53307e-50
1.51052e-53
-1.06862e-51
2.60679e-55
-1.22232e-53
3.14041e-57
-1.08661e-55
2.50279e-59
-7.0031e-58
1.09269e-61
-2.95117e-60
6.91512e-65
-7.24996e-63
-8.97498e-65
-2.52113e-16
3.68178e-16
-3.18742e-16
4.08487e-16
-2.16348e-16
2.92639e-16
-9.39393e-17
5.90539e-17
-3.02714e-17
1.79974e-18
-7.73665e-18
-1.32556e-17
-1.63652e-18
-7.48557e-18
-2.90582e-19
-2.50727e-18
-4.37235e-20
-6.1562e-19
-5.66714e-21
-1.19547e-19
-6.43164e-22
-1.92302e-20
-6.49017e-23
-2.64287e-21
-5.8827e-24
-3.17858e-22
-4.84846e-25
-3.39109e-23
-3.67793e-26
-3.25317e-24
-2.57908e-27
-2.84812e-25
-1.6816e-28
-2.28371e-26
-1.02184e-29
-1.6913e-27
-5.79192e-31
-1.16059e-28
-3.05235e-32
-7.39309e-30
-1.49049e-33
-4.36767e-31
-6.7142e-35
-2.39772e-32
-2.76709e-36
-1.21395e-33
-1.03514e-37
-5.69624e-35
-3.46292e-39
-2.45336e-36
-1.02341e-40
-9.64453e-38
-2.5786e-42
-3.47017e-39
-5.21176e-44
-1.12701e-40
-7.18687e-46
-3.27509e-42
-3.47409e-49
-8.50663e-44
1.40082e-47
-1.93845e-45
5.84611e-49
-3.82504e-47
1.57344e-50
-6.40936e-49
3.1441e-52
-8.90025e-51
4.75485e-54
-9.82092e-53
5.38236e-56
-8.23427e-55
4.21839e-58
-4.67255e-57
1.94311e-60
-1.40482e-59
2.67129e-63
-3.51067e-63
-6.92547e-64
-9.05351e-16
1.35224e-15
-1.05484e-15
1.06874e-15
-4.62411e-16
6.20262e-16
-2.38812e-16
6.49685e-17
-8.53555e-17
-3.49128e-17
-2.36899e-17
-4.71486e-17
-5.28895e-18
-2.42012e-17
-9.82512e-19
-8.03392e-18
-1.55094e-19
-1.99147e-18
-2.11779e-20
-3.97565e-19
-2.5405e-21
-6.66352e-20
-2.71278e-22
-9.63008e-21
-2.60718e-23
-1.22376e-21
-2.27955e-24
-1.3832e-22
-1.82043e-25
-1.41004e-23
-1.33878e-26
-1.30126e-24
-9.10146e-28
-1.0997e-25
-5.72481e-29
-8.53476e-27
-3.33016e-30
-6.10834e-28
-1.78503e-31
-4.03658e-29
-8.79198e-33
-2.46558e-30
-3.94751e-34
-1.38672e-31
-1.59936e-35
-7.21572e-33
-5.76921e-37
-3.43966e-34
-1.81153e-38
-1.50452e-35
-4.67955e-40
-6.01349e-37
-8.87206e-42
-2.17412e-38
-5.66935e-44
-7.10239e-40
1.38318e-43
-2.07758e-41
8.79498e-45
-5.38271e-43
3.33913e-46
-1.21991e-44
9.55029e-48
-2.3801e-46
2.18189e-49
-3.92335e-48
3.9875e-51
-5.29271e-50
5.77623e-53
-5.57694e-52
6.33782e-55
-4.231e-54
4.92539e-57
-1.85447e-56
2.32634e-59
-1.81912e-61
3.97283e-62
7.06844e-62
-3.65069e-63
1.95542e-06
-2.01751e-05
4.64277e-06
-3.05415e-05
7.19967e-06
-3.00438e-05
9.64022e-06
-2.83345e-05
1.20739e-05
-2.76332e-05
1.45425e-05
-2.76973e-05
1.70492e-05
-2.80573e-05
1.9592e-05
-2.84912e-05
2.21731e-05
-2.89497e-05
2.47983e-05
-2.94407e-05
2.74738e-05
-2.99771e-05
3.02058e-05
-3.05646e-05
3.30001e-05
-3.12037e-05
3.58628e-05
-3.18933e-05
3.87998e-05
-3.26311e-05
4.18173e-05
-3.3415e-05
4.49215e-05
-3.42419e-05
4.81193e-05
-3.51082e-05
5.14173e-05
-3.60092e-05
5.48225e-05
-3.69384e-05
5.83426e-05
-3.78887e-05
6.19859e-05
-3.88516e-05
6.57599e-05
-3.98135e-05
6.96727e-05
-4.07558e-05
7.37374e-05
-4.16644e-05
7.79725e-05
-4.25305e-05
8.23895e-05
-4.33267e-05
8.6984e-05
-4.39828e-05
9.17562e-05
-4.44155e-05
9.67535e-05
-4.45981e-05
0.000102076
-4.45689e-05
0.000107821
-4.43344e-05
0.000114037
-4.37795e-05
0.000120758
-4.27075e-05
0.000127997
-4.08497e-05
0.000135024
-3.71929e-05
0.00013026
-2.98078e-05
6.88882e-05
-1.00695e-05
1.02487e-05
-8.8536e-07
5.25876e-06
-1.95822e-07
4.88804e-06
1.66869e-07
5.36428e-06
1.1922e-06
9.44045e-06
4.38354e-06
2.25162e-05
1.98468e-05
3.45838e-05
0.000220484
0.000307799
2.67092e-05
1.99205e-06
-2.21672e-05
4.65776e-06
-3.32072e-05
7.17486e-06
-3.25609e-05
9.58902e-06
-3.07487e-05
1.20102e-05
-3.00544e-05
1.44715e-05
-3.01586e-05
1.69709e-05
-3.05568e-05
1.95056e-05
-3.10259e-05
2.20783e-05
-3.15224e-05
2.46955e-05
-3.20579e-05
2.73639e-05
-3.26455e-05
3.00898e-05
-3.32905e-05
3.28794e-05
-3.39933e-05
3.57389e-05
-3.47528e-05
3.86749e-05
-3.55671e-05
4.16939e-05
-3.6434e-05
4.4803e-05
-3.7351e-05
4.80095e-05
-3.83147e-05
5.1321e-05
-3.93207e-05
5.47457e-05
-4.03631e-05
5.82926e-05
-4.14356e-05
6.19712e-05
-4.25302e-05
6.57905e-05
-4.36328e-05
6.97618e-05
-4.47272e-05
7.39035e-05
-4.58061e-05
7.82361e-05
-4.68631e-05
8.27661e-05
-4.78567e-05
8.74892e-05
-4.87058e-05
9.24308e-05
-4.93572e-05
9.76799e-05
-4.98472e-05
0.00010335
-5.02387e-05
0.000109504
-5.04884e-05
0.000116163
-5.04389e-05
0.000123322
-4.9867e-05
0.000129984
-4.75803e-05
0.000118385
-4.04152e-05
4.22686e-05
-1.3143e-05
2.64597e-06
-2.02577e-06
1.14499e-06
-6.80814e-09
8.52478e-07
-1.94244e-08
8.26575e-07
4.86231e-08
1.40723e-06
3.34319e-07
3.64614e-06
1.37077e-06
1.28444e-05
8.58536e-06
2.93533e-05
0.000128321
0.000311883
2.28053e-05
2.02706e-06
-2.41942e-05
4.6649e-06
-3.5845e-05
7.13765e-06
-3.50337e-05
9.52267e-06
-3.31337e-05
1.19283e-05
-3.246e-05
1.43784e-05
-3.26087e-05
1.68662e-05
-3.30446e-05
1.93882e-05
-3.35479e-05
2.19483e-05
-3.40825e-05
2.45533e-05
-3.46629e-05
2.72101e-05
-3.53024e-05
2.99256e-05
-3.60059e-05
3.27059e-05
-3.67737e-05
3.55579e-05
-3.76047e-05
3.84882e-05
-3.84974e-05
4.15041e-05
-3.94499e-05
4.46132e-05
-4.04601e-05
4.78235e-05
-4.1525e-05
5.11435e-05
-4.26408e-05
5.45823e-05
-4.3802e-05
5.81503e-05
-4.50036e-05
6.18581e-05
-4.6238e-05
6.57162e-05
-4.74909e-05
6.97396e-05
-4.87506e-05
7.39513e-05
-5.00177e-05
7.83697e-05
-5.12815e-05
8.2995e-05
-5.2482e-05
8.78329e-05
-5.35437e-05
9.29465e-05
-5.44708e-05
9.84528e-05
-5.53535e-05
0.000104439
-5.62251e-05
0.000110923
-5.69724e-05
0.000117894
-5.74102e-05
0.000124626
-5.66256e-05
0.000113058
-4.96632e-05
3.18919e-05
-1.64308e-05
2.70622e-06
-2.36599e-06
3.6034e-07
-2.31613e-07
1.58974e-07
-4.66969e-09
1.03502e-07
1.64937e-10
1.10683e-07
1.06006e-08
2.83651e-07
7.31749e-08
9.88564e-07
3.64643e-07
5.58785e-06
3.26584e-06
1.60764e-05
2.60475e-05
0.000297324
2.24722e-05
2.05967e-06
-2.62539e-05
4.66327e-06
-3.84486e-05
7.08748e-06
-3.74579e-05
9.44076e-06
-3.5487e-05
1.18277e-05
-3.48469e-05
1.42623e-05
-3.50433e-05
1.67338e-05
-3.55161e-05
1.92386e-05
-3.60527e-05
2.17814e-05
-3.66253e-05
2.43695e-05
-3.7251e-05
2.70103e-05
-3.79432e-05
2.97106e-05
-3.87061e-05
3.24769e-05
-3.95401e-05
3.53162e-05
-4.04441e-05
3.82358e-05
-4.1417e-05
4.12433e-05
-4.24575e-05
4.4347e-05
-4.35637e-05
4.75554e-05
-4.47335e-05
5.08779e-05
-4.59632e-05
5.43245e-05
-4.72486e-05
5.79068e-05
-4.85859e-05
6.16362e-05
-4.99674e-05
6.55249e-05
-5.13796e-05
6.95922e-05
-5.28178e-05
7.38634e-05
-5.42889e-05
7.83507e-05
-5.57688e-05
8.30513e-05
-5.71826e-05
8.79956e-05
-5.8488e-05
9.3285e-05
-5.97602e-05
9.90305e-05
-6.10989e-05
0.000105263
-6.24578e-05
0.000111959
-6.36695e-05
0.000118372
-6.38417e-05
0.000112444
-5.30445e-05
3.28055e-05
-2.23175e-05
2.91946e-06
-3.08838e-06
3.9173e-07
-3.98332e-07
5.98267e-08
4.96577e-10
2.06619e-08
8.28827e-10
1.11378e-08
9.19415e-10
1.18258e-08
2.56787e-09
4.37161e-08
1.45694e-08
2.13922e-07
9.57339e-08
1.87691e-06
1.32009e-06
8.89989e-06
1.76431e-05
0.000282113
1.9706e-05
2.08918e-06
-2.83431e-05
4.65202e-06
-4.10115e-05
7.02386e-06
-3.98297e-05
9.34289e-06
-3.7806e-05
1.17076e-05
-3.72116e-05
1.41222e-05
-3.74579e-05
1.65725e-05
-3.79664e-05
1.90552e-05
-3.85354e-05
2.15759e-05
-3.9146e-05
2.41424e-05
-3.98176e-05
2.67622e-05
-4.0563e-05
2.94421e-05
-4.13861e-05
3.21892e-05
-4.22871e-05
3.50105e-05
-4.32654e-05
3.79137e-05
-4.43202e-05
4.09069e-05
-4.54507e-05
4.3999e-05
-4.66557e-05
4.7199e-05
-4.79336e-05
5.05171e-05
-4.92813e-05
5.39641e-05
-5.06957e-05
5.75526e-05
-5.21744e-05
6.12946e-05
-5.37093e-05
6.52043e-05
-5.52893e-05
6.93053e-05
-5.69189e-05
7.36217e-05
-5.86053e-05
7.81569e-05
-6.0304e-05
8.29149e-05
-6.19407e-05
8.79628e-05
-6.35359e-05
9.34212e-05
-6.52186e-05
9.93523e-05
-6.703e-05
0.00010574
-6.88458e-05
0.000112188
-7.01452e-05
0.000109766
-6.16085e-05
4.15076e-05
-3.34093e-05
3.52501e-06
-4.71805e-06
5.49062e-07
-6.64236e-07
4.00895e-08
-5.78325e-09
8.32267e-09
1.95144e-09
2.21632e-09
6.4875e-10
9.13763e-10
3.86288e-10
5.40158e-10
9.46409e-10
2.82873e-09
4.01358e-09
4.64391e-08
2.69455e-08
8.33025e-07
4.75661e-07
7.94187e-06
1.05083e-05
0.000265005
1.83565e-05
2.11489e-06
-3.0458e-05
4.63042e-06
-4.3527e-05
6.94635e-06
-4.21457e-05
9.22863e-06
-4.00883e-05
1.15675e-05
-3.95505e-05
1.39573e-05
-3.98477e-05
1.63812e-05
-4.03902e-05
1.88366e-05
-4.09909e-05
2.13302e-05
-4.16395e-05
2.38699e-05
-4.23573e-05
2.64634e-05
-4.31565e-05
2.91176e-05
-4.40403e-05
3.18396e-05
-4.50091e-05
3.4637e-05
-4.60627e-05
3.75176e-05
-4.72008e-05
4.04902e-05
-4.84232e-05
4.35637e-05
-4.97293e-05
4.67481e-05
-5.1118e-05
5.00539e-05
-5.2587e-05
5.3493e-05
-5.41348e-05
5.70784e-05
-5.57598e-05
6.08226e-05
-5.74535e-05
6.47425e-05
-5.92092e-05
6.88649e-05
-6.10413e-05
7.32079e-05
-6.29483e-05
7.7768e-05
-6.48641e-05
8.2571e-05
-6.67436e-05
8.772e-05
-6.86849e-05
9.33116e-05
-7.08101e-05
9.93414e-05
-7.30598e-05
0.000105717
-7.52187e-05
0.000108082
-7.2552e-05
5.94967e-05
-5.28876e-05
4.97697e-06
-8.22436e-06
7.62899e-07
-1.1471e-06
4.10546e-08
-6.53396e-08
4.97197e-09
2.90926e-09
8.15896e-10
7.54315e-10
1.21102e-10
2.51549e-10
-4.91605e-11
1.5093e-10
-1.07324e-10
3.51214e-10
1.07894e-10
1.65719e-09
6.70571e-09
1.53624e-08
2.86893e-07
1.76818e-07
5.54182e-06
5.10196e-06
0.000242969
2.01373e-05
2.13617e-06
-3.25941e-05
4.5978e-06
-4.59886e-05
6.85456e-06
-4.44024e-05
9.09756e-06
-4.23313e-05
1.14066e-05
-4.18595e-05
1.37665e-05
-4.22076e-05
1.61586e-05
-4.27824e-05
1.85816e-05
-4.34138e-05
2.10426e-05
-4.41005e-05
2.35502e-05
-4.48649e-05
2.61117e-05
-4.5718e-05
2.87343e-05
-4.66629e-05
3.14252e-05
-4.77e-05
3.41922e-05
-4.88297e-05
3.70435e-05
-5.00522e-05
3.99882e-05
-5.13679e-05
4.30357e-05
-5.27768e-05
4.61964e-05
-5.42787e-05
4.94813e-05
-5.58719e-05
5.2903e-05
-5.75565e-05
5.64749e-05
-5.93317e-05
6.02097e-05
-6.11883e-05
6.41278e-05
-6.31273e-05
6.82567e-05
-6.51702e-05
7.26043e-05
-6.72959e-05
7.71685e-05
-6.94283e-05
8.20104e-05
-7.15855e-05
8.72447e-05
-7.39192e-05
9.28967e-05
-7.64621e-05
9.89487e-05
-7.91102e-05
0.000104719
-8.09993e-05
8.39141e-05
-7.14363e-05
8.37587e-06
-1.52886e-05
1.21525e-06
-1.82456e-06
9.74573e-08
-1.75727e-07
3.53482e-09
3.25846e-09
3.04388e-10
9.92697e-10
1.52105e-11
2.34434e-10
-5.51238e-11
1.05373e-10
-4.61656e-11
4.96847e-11
-3.69169e-11
1.3247e-10
2.68682e-10
7.70894e-10
1.97588e-10