/*--------------------------------*- C++ -*----------------------------------*\
| =========                 |                                                 |
| \\      /  F ield         | OpenFOAM: The Open Source CFD Toolbox           |
|  \\    /   O peration     | Version:  3.0.1                                 |
|   \\  /    A nd           | Web:      www.OpenFOAM.org                      |
|    \\/     M anipulation  |                                                 |
\*---------------------------------------------------------------------------*/
FoamFile
{
    version     2.0;
    format      ascii;
    class       surfaceVectorField;
    location    "3";
    object      Uf;
}
// * * * * * * * * * * * * * * * * * * * * * * * * * * * * * * * * * * * * * //

dimensions      [0 1 -1 0 0 0 0];

internalField   nonuniform List<vector> 
22672
(
(0.000311601808926 8.03677717747e-05 -0.000287672196848)
(7.17759211679e-05 0.000324399290731 -0.000284403974077)
(0.000184179986965 0.00019609711442 -0.000636002577228)
(0.000816752941657 4.72599454747e-06 -0.000295360623086)
(0.000474316430283 0.000219135237479 -0.000483310639208)
(0.000645047713465 0.00017507252604 -0.000724287955494)
(0.00134383717923 -2.60712498088e-05 -0.00025088968292)
(0.00111995043646 0.000187134474671 -0.00053595974889)
(0.00123731354088 0.000180894843844 -0.000714220239877)
(0.00175696727894 -2.00438444361e-05 -0.000175780604317)
(0.00165693982454 0.000207100103437 -0.000493373897517)
(0.00172506864724 0.000209442772 -0.000620231589787)
(0.00196978857546 1.62891881017e-05 -9.24779567539e-05)
(0.00202014810736 0.000274718646498 -0.000412847342033)
(0.00204332740854 0.000256026851771 -0.000487541147665)
(0.00194310715454 6.56927803635e-05 -1.31934072762e-05)
(0.00212967093393 0.000365624891831 -0.000314634933672)
(0.00212315777278 0.000308067798461 -0.000338944482723)
(0.00168718237778 0.000114452979392 5.50920918197e-05)
(0.00197853427773 0.00045243837358 -0.000218080850935)
(0.00195619391272 0.000352300329275 -0.0001965144289)
(0.00123867644262 0.00015354309582 0.000106928229046)
(0.00159192997258 0.000523082054551 -0.000131889016631)
(0.00156548520994 0.000384867598636 -7.4576802847e-05)
(0.000662848230704 0.000175511626165 0.000135645997174)
(0.00102861187427 0.000566474530634 -7.05258113532e-05)
(0.00100727130735 0.000402573655073 9.35310388293e-06)
(3.00170129841e-05 0.000178009947502 0.000142061003082)
(0.000365140560937 0.000579010359312 -4.1636546114e-05)
(0.000355387959688 0.000405572811269 5.3820339999e-05)
(-0.000581638412305 0.000161999526553 0.000130360558731)
(-0.000315747407232 0.000562882920936 -4.35933145758e-05)
(-0.000310560859754 0.000395067285553 4.87720005036e-05)
(-0.00110144986721 0.000128901322597 9.99742060133e-05)
(-0.000932673356758 0.000520730108749 -7.32291476605e-05)
(-0.000915225359005 0.000372266482172 -9.19178720256e-07)
(-0.00147866276177 8.3209881197e-05 5.25632568444e-05)
(-0.00142093036474 0.000454402959046 -0.000128942078231)
(-0.00139683591693 0.000338843888304 -7.71906332751e-05)
(-0.00167143157041 3.33414353984e-05 -5.35106479826e-06)
(-0.0017279168962 0.000372663222256 -0.000201359079663)
(-0.00170503114706 0.000297260425559 -0.000179895035976)
(-0.00166307969538 -1.23393265775e-05 -7.07600139261e-05)
(-0.00182288875883 0.000286284153153 -0.000280417426192)
(-0.00181198257605 0.000251696442161 -0.000294636702963)
(-0.00145667666531 -4.23441521487e-05 -0.000139049956868)
(-0.00169595488521 0.000206033759572 -0.000360206391688)
(-0.00171090338444 0.000205696090807 -0.000412437508546)
(-0.00109239477531 -4.3579209732e-05 -0.000200383638996)
(-0.00136561955875 0.000152530232514 -0.000425767571312)
(-0.00142127567665 0.000168856166216 -0.000516812872841)
(-0.00064578162152 -1.31524254634e-05 -0.000234896650167)
(-0.000900734066105 0.000141911342487 -0.000458432776146)
(-0.00100293415953 0.000148368583242 -0.000588525277468)
(-0.000231987948204 5.49916275719e-05 -0.000222614680838)
(-0.000355484101918 0.000173391970774 -0.000406097767824)
(-0.000509282427401 0.000144139036072 -0.000587186477859)
(-3.5821434933e-05 0.000265466556122 -0.000220030071618)
(-0.000138520712924 0.000160228144833 -0.000497455059088)
(0.000214131427894 0.000483143756696 -0.000480042416438)
(-3.02263965746e-06 0.000825838425172 -0.000288519733968)
(0.000173518752832 0.000660425469756 -0.000715572110433)
(0.000795294325283 0.000423923311233 -0.000723909765012)
(0.000423142361283 0.000787663165491 -0.00072655614895)
(0.00065753668566 0.000651216575842 -0.00114969241772)
(0.00143746796377 0.000444708390498 -0.000778443963487)
(0.00119439864207 0.000828981152806 -0.000876436285712)
(0.00132643686981 0.00070214375241 -0.00128402181808)
(0.00193846983797 0.000530261758799 -0.000730440635233)
(0.00182124680598 0.000943844180948 -0.000851307861885)
(0.00186937594055 0.000807901298475 -0.00123774729083)
(0.00219984061613 0.000657496536811 -0.000635004318952)
(0.00223783593952 0.0011138877878 -0.00075225595437)
(0.00222021615669 0.000947860621777 -0.0011005410627)
(0.00218190321142 0.000790348256478 -0.000519522377332)
(0.00236041733197 0.00129743548043 -0.000616673897457)
(0.00230957553938 0.00109002825918 -0.000913874126829)
(0.00189637628143 0.000902368209765 -0.000405061959386)
(0.00218529333761 0.00145363689429 -0.000475973719515)
(0.00212735657269 0.00120572252132 -0.000715672352238)
(0.00138921057776 0.000979395251443 -0.000309343057031)
(0.00174790537386 0.00156643692648 -0.000349669254939)
(0.00170057960727 0.00128447779686 -0.00053618978447)
(0.000734515738989 0.00101405752331 -0.000247808354641)
(0.00111611580829 0.00162555568779 -0.000257720420694)
(0.00108992308727 0.00132230172346 -0.000404386836025)
(1.84080406522e-05 0.00100744545288 -0.000227290863772)
(0.000377906069655 0.00163257151118 -0.000211686710947)
(0.00037688193068 0.00132280030497 -0.000337453922698)
(-0.000672520721609 0.000963678201644 -0.000247183020967)
(-0.000374997365358 0.00159368321437 -0.000214337598421)
(-0.000351087572917 0.00129205501252 -0.000339871997962)
(-0.00126054903859 0.000885977254292 -0.000302145431905)
(-0.00105685549096 0.00151438555168 -0.000261327876891)
(-0.00101154726079 0.00123384652551 -0.000405627626238)
(-0.00168241413927 0.000780437603196 -0.000382864414738)
(-0.00159589001142 0.00139870654884 -0.000343980011702)
(-0.00153554518512 0.00115004424078 -0.000522439045117)
(-0.00189311050166 0.000658131398708 -0.000476425441057)
(-0.00193361835104 0.00125474846096 -0.000450117878317)
(-0.00186902714419 0.0010441081862 -0.000671389496723)
(-0.0018703972957 0.000532454468493 -0.000569863803954)
(-0.00203577442563 0.00109365676905 -0.000564802383212)
(-0.0019822190669 0.000922478115212 -0.000830086504791)
(-0.00161715649544 0.000424034093914 -0.000646924006132)
(-0.00188705748846 0.000929389129242 -0.000673663260486)
(-0.00186753761463 0.000794258532841 -0.000976596906456)
(-0.00117328189913 0.000357890447015 -0.000683816708461)
(-0.00150467699314 0.000790492833544 -0.000752669229518)
(-0.00154621674425 0.000679091788156 -0.00108183797347)
(-0.000624255640266 0.000347073558268 -0.000629633893804)
(-0.0009605459288 0.000702612924873 -0.00076818612358)
(-0.00107894619611 0.000596317393231 -0.00110972864863)
(-0.00014378194774 0.000401145302695 -0.000403513158605)
(-0.000305964991789 0.000672616017025 -0.000628874139377)
(-0.000517258597302 0.000555864067523 -0.000979698575625)
(3.13569968536e-05 0.000701461238007 -0.000228025484206)
(-0.000129257515188 0.000559742894474 -0.00057977716633)
(0.00018336949871 0.00111382875999 -0.000535033466481)
(-3.64555232831e-05 0.0013512980718 -0.000245373166272)
(0.000182883779605 0.00123888726522 -0.000708830532877)
(0.000843740323675 0.00117256880838 -0.00087908266965)
(0.000445163067451 0.00142147570567 -0.000791036321601)
(0.000718143932664 0.00130332339539 -0.00129418474967)
(0.00157965865909 0.00130510326633 -0.00094930018411)
(0.00133404153255 0.00155254496056 -0.000958596593728)
(0.00146637101259 0.00143141168838 -0.00145948341929)
(0.00214053857106 0.00150141532758 -0.000873123181022)
(0.00203632991561 0.00175924654299 -0.000894487116837)
(0.00205345802947 0.00162591624796 -0.00137628338448)
(0.00241904612364 0.00172474175765 -0.000733925532875)
(0.00248164876393 0.00201046265105 -0.000738019579414)
(0.00241489702752 0.00185311608179 -0.00117508333539)
(0.00238155830319 0.00192905508653 -0.00057312523964)
(0.00258826887251 0.00225490658975 -0.000545893457381)
(0.00248595102492 0.00206867291905 -0.000919984018183)
(0.00204993552578 0.00208418389076 -0.000420581015068)
(0.00236576252609 0.0024476654901 -0.000359882915886)
(0.00226491628731 0.00223630829473 -0.000662406379309)
(0.00148231931754 0.00217803464401 -0.000298046618602)
(0.0018642104995 0.00257459172005 -0.000204399306353)
(0.00178942349926 0.00234343408168 -0.000440539015503)
(0.000762533826342 0.00220923123573 -0.000221598777)
(0.00116404375053 0.0026294583011 -9.66405108018e-05)
(0.00112763926933 0.00238851952019 -0.000284117469033)
(-1.63310417578e-05 0.00218450113317 -0.000198733445595)
(0.000361325359699 0.00262171600796 -4.71695144754e-05)
(0.000365762637722 0.00237977891419 -0.000210279942676)
(-0.000764643896008 0.0021113736633 -0.000228482454344)
(-0.000449554904891 0.0025615462768 -5.67865231188e-05)
(-0.000406628279763 0.00232679664903 -0.000219550535078)
(-0.00140131618761 0.00199577478754 -0.000303162456688)
(-0.0011822770631 0.00245684168198 -0.000119582161304)
(-0.00110624081982 0.00223637361553 -0.000305784213726)
(-0.00185952743365 0.00184377595017 -0.000411233475281)
(-0.00176357198298 0.00231214291637 -0.000225406299402)
(-0.00166312796123 0.00211191396923 -0.000455225566161)
(-0.00209101737273 0.00166353085352 -0.000538494820473)
(-0.00213290799549 0.00213352609565 -0.000363047023057)
(-0.00202203959642 0.00195623796716 -0.000647288218413)
(-0.00206781291099 0.00146648543435 -0.000668601839744)
(-0.00225160617855 0.00192787196178 -0.000517015343978)
(-0.00215040927129 0.00177484981006 -0.000857420253903)
(-0.00178787148591 0.00127439807117 -0.000779408483872)
(-0.00209670490099 0.00170742805459 -0.000670170933358)
(-0.00203628410817 0.00157825552715 -0.00105798101802)
(-0.0012876202091 0.00111623716283 -0.000837038644637)
(-0.00167873467143 0.00150165751366 -0.000792528486354)
(-0.00169685511154 0.00138981406915 -0.00121141667814)
(-0.000659208965941 0.00101154830254 -0.000767426369154)
(-0.00106848513347 0.00133964993625 -0.000836877585083)
(-0.00119003556355 0.00123510912128 -0.00126544901728)
(-0.00011440993674 0.000959664805722 -0.000453386464979)
(-0.000317614043412 0.00123459624675 -0.000681481613478)
(-0.000563200710915 0.00113097829707 -0.0011067800506)
(6.17699134738e-05 0.0011633454994 -0.000189934121149)
(-0.000136519402828 0.00106642383012 -0.000576294697677)
(0.000200752485536 0.00165349970935 -0.000501376021392)
(-3.46307812294e-05 0.00177655778702 -0.000174124303922)
(0.000211594301472 0.00173092921654 -0.000626013293884)
(0.000960009347624 0.00179902140391 -0.000870550245679)
(0.000528482015507 0.00193316539912 -0.000758813757057)
(0.000827527758062 0.00185126127884 -0.00127094760588)
(0.0017910482854 0.00200548945683 -0.000903783526455)
(0.00153342640757 0.00212449859717 -0.0009023743083)
(0.00166680897614 0.00202527462287 -0.00140299350836)
(0.00239982577255 0.00226649293554 -0.000759383515229)
(0.00230153958639 0.00238002167205 -0.00077028247576)
(0.00229851311003 0.0022660570321 -0.00122955339232)
(0.00267361471097 0.00253688179118 -0.00054998750392)
(0.00275621031218 0.00266167039278 -0.000537683740701)
(0.00265773550358 0.00253209052071 -0.00092499728182)
(0.00259175788636 0.00276770296929 -0.000332651133627)
(0.00282384354137 0.00291653846973 -0.000281707444355)
(0.00268931192797 0.00277382042173 -0.000579775487729)
(0.00219416063995 0.00293013090765 -0.000143701207171)
(0.00253487427494 0.00310423853081 -5.46005366653e-05)
(0.00240842490505 0.00295392455594 -0.000258976080663)
(0.00155312901826 0.00301662655009 -2.99319855244e-06)
(0.00195675306115 0.0032132738995 0.000122747262539)
(0.0018676494684 0.00306134278652 2.34926441746e-06)
(0.000765680942183 0.00303234540481 7.77887517226e-05)
(0.00118526218543 0.00324703447148 0.000235655240218)
(0.0011459460824 0.00309740904436 0.000169871790005)
(-7.30536137007e-05 0.00298946667947 9.47774080012e-05)
(0.000322301134584 0.00321929498851 0.0002795602295)
(0.000333644129215 0.00307455589229 0.000241155472992)
(-0.000872726273837 0.00289885307182 5.21137699217e-05)
(-0.000538494679801 0.00314482546022 0.000258793302884)
(-0.000480845528567 0.00300565990721 0.000216393343676)
(-0.0015546685898 0.00276723975117 -4.18260040177e-05)
(-0.0013140946122 0.00303316994558 0.000180786666489)
(-0.00121724305698 0.00289928636483 0.000105613855154)
(-0.00205027324544 0.00259837850785 -0.000177219847178)
(-0.00193393652005 0.00288792565144 5.40575472782e-05)
(-0.00180787663278 0.00275873866301 -8.01783611718e-05)
(-0.00230995472348 0.00239662359733 -0.000341567546563)
(-0.00233720981752 0.00270899250923 -0.000111948942135)
(-0.00219749583634 0.00258538211727 -0.000315785310224)
(-0.00229771692932 0.00216999715409 -0.000518584437592)
(-0.00248009234966 0.00250016361764 -0.000303430064636)
(-0.00234969739443 0.00238295898984 -0.00058452991712)
(-0.00200239148431 0.00193769979946 -0.00068329093584)
(-0.00233079779184 0.00226892920652 -0.000505668337625)
(-0.0022453543087 0.00216044415072 -0.000856827149101)
(-0.0014531313523 0.00172836375781 -0.000792367426801)
(-0.00188890459045 0.00204027572271 -0.000683684643499)
(-0.00189289228805 0.00194092906984 -0.00108787896357)
(-0.00074598201327 0.00156439016038 -0.000750932829407)
(-0.00122005310786 0.00184122160931 -0.000777907115184)
(-0.00134403434939 0.001751437391 -0.00120872168943)
(-0.000124045274083 0.00143679651555 -0.000418029269648)
(-0.000378480505922 0.00168732255715 -0.000641507845654)
(-0.000644535470141 0.00161181447044 -0.00107466376118)
(6.19970988026e-05 0.00153796184877 -0.000124681629786)
(-0.000157006346556 0.00149670699762 -0.000498662067808)
(0.000264577848204 0.00203742917238 -0.000431562039588)
(-2.55551758162e-06 0.00201836845144 -9.46555143554e-05)
(0.000257971876773 0.00207119698753 -0.000506389238224)
(0.00112971762042 0.0022384726203 -0.000790637819678)
(0.000653537462571 0.00222751787749 -0.000679243967203)
(0.000970041524677 0.0022290159227 -0.0011594929017)
(0.00204496931318 0.00247662336414 -0.000768873257605)
(0.00176012089414 0.00244036912776 -0.000782886501988)
(0.00189919296568 0.00241865469122 -0.00123112275763)
(0.00268313981558 0.002750233312 -0.000548582701233)
(0.00257688511604 0.00269608496509 -0.000580578048944)
(0.00256849448771 0.00266223506131 -0.000954234187054)
(0.0029313985824 0.00301439366834 -0.000269403681137)
(0.00302240312007 0.00295738677487 -0.000277521879813)
(0.00291282108356 0.00291818248201 -0.000543975389668)
(0.00278822927407 0.00322448918416 -3.65684739385e-06)
(0.00303508228984 0.00317828646748 2.82217426804e-05)
(0.00289096863599 0.00313999365139 -0.000118578788026)
(0.0023120913697 0.00335772783814 0.000211847933045)
(0.00267029002172 0.00332461729401 0.000282553607869)
(0.00253953484129 0.00329544464925 0.000255759160932)
(0.0015960120032 0.00341356736548 0.00036139570131)
(0.00201412531802 0.00339451487477 0.000468654421809)
(0.00192700662932 0.00337710621022 0.00053483849324)
(0.000744383098881 0.00340360731581 0.000437426717995)
(0.0011775957065 0.00339515051826 0.000574260499152)
(0.00114421287717 0.00338992740758 0.000703512997681)
(-0.000145037669704 0.00334475547505 0.000443576124383)
(0.000266182605874 0.00334681678886 0.000605991638559)
(0.000284976608525 0.00335021754679 0.000761899100564)
(-0.000985852912754 0.00325022687598 0.000387466199452)
(-0.000630267182538 0.00326680394829 0.000573085202827)
(-0.0005654074911 0.00327315720793 0.000718836838523)
(-0.00170419429649 0.00312611121866 0.000276670217785)
(-0.00143567119683 0.00316497682451 0.000484221917137)
(-0.00133245490991 0.00316810803796 0.000586534508842)
(-0.0022354011017 0.00297252479463 0.000119328452322)
(-0.00208551634034 0.00304198555357 0.000344766766984)
(-0.00195317827082 0.00303704122405 0.000377146808908)
(-0.00252571232595 0.00278893908225 -7.38114602083e-05)
(-0.00251993128645 0.00289416434025 0.000161563823071)
(-0.00237325319568 0.00287883420459 0.000105139192332)
(-0.00253248883837 0.00257792485657 -0.000290513964669)
(-0.00269011058872 0.00271972142401 -5.51864978772e-05)
(-0.00255256717317 0.00269399334055 -0.000212781602485)
(-0.00223390364876 0.00235270243559 -0.000506062045284)
(-0.00255557971296 0.00251917161455 -0.000294729191754)
(-0.00246411760809 0.00248801521448 -0.00054882800794)
(-0.00164894562411 0.00213662980064 -0.000669224331882)
(-0.00210282085234 0.00231094786513 -0.000520500181938)
(-0.0021050301542 0.00227949043404 -0.000855630664552)
(-0.000873678116026 0.00194950484344 -0.000668482131431)
(-0.0013895992554 0.00211553244273 -0.000663168336153)
(-0.00151834798389 0.00209146872558 -0.00104957890741)
(-0.000172088014134 0.00177501533126 -0.000348160205792)
(-0.000472745360717 0.00194601940302 -0.000557758836406)
(-0.000749099319829 0.00194161549673 -0.000960287554325)
(3.58914037146e-05 0.00175172933987 -5.19900854635e-05)
(-0.000190512305497 0.00179358444108 -0.000385855880689)
(0.000352772659966 0.00218767553844 -0.000342337441971)
(4.40605783994e-05 0.002032934624 -1.7310161383e-05)
(0.000310583559242 0.00219121012245 -0.000367339169506)
(0.00131508798262 0.00240794644409 -0.000671492649513)
(0.000787168680207 0.00225914376564 -0.000575689452557)
(0.0011166163057 0.00236564392388 -0.000993941451788)
(0.00229518078623 0.00263630739441 -0.000594591293327)
(0.00197176662875 0.00245958633894 -0.000636505400054)
(0.00212312252587 0.00254340951309 -0.000999310144833)
(0.002943675891 0.00287753038931 -0.000309517227525)
(0.00281757638526 0.00267816598207 -0.000376495043258)
(0.00281866685808 0.00275437593154 -0.000630576128988)
(0.00315349969068 0.00309318372377 2.01035440035e-05)
(0.00324000538774 0.00288570609837 -2.33345384332e-05)
(0.00313915868682 0.00296398284011 -0.000138143006616)
(0.00293978585261 0.00324847569258 0.000314432197944)
(0.00319193102174 0.00304332540707 0.000311264931916)
(0.00305900937084 0.0031342184998 0.000348675127635)
(0.00238695264279 0.00333052866026 0.000539360096633)
(0.00275414017921 0.00313215649137 0.000575562365848)
(0.0026368487884 0.00324136471837 0.000745294330847)
(0.00160281069342 0.00334469971726 0.000681519219652)
(0.00202912298938 0.00315401909649 0.00075338825951)
(0.00195633466968 0.00328299109016 0.00102463810129)
(0.000701342464069 0.00330720278824 0.000742825419717)
(0.0011415766526 0.00312021055923 0.000841284496806)
(0.00112056366582 0.00326661872955 0.00117640857634)
(-0.000221491958644 0.00323833143881 0.000735500717004)
(0.000199881369766 0.00305558674961 0.000856484021943)
(0.000226009990475 0.00321191120036 0.00121406482213)
(-0.00108650706702 0.00315195179717 0.000669840920513)
(-0.000713199194794 0.00297851885683 0.00081273420181)
(-0.000647526978905 0.00313499528021 0.00115330049531)
(-0.00182798943815 0.00305256825905 0.000552318466336)
(-0.00153144841686 0.00289831416071 0.000719567135811)
(-0.00143363605455 0.00304510185363 0.00100814523848)
(-0.00238582511834 0.00293698032941 0.000387002137733)
(-0.00219821624962 0.00281268229213 0.000579671339801)
(-0.00207574446449 0.00294217867775 0.000787139036414)
(-0.00270416252259 0.00279998798793 0.000180188785402)
(-0.00265586990944 0.00271389031922 0.000393800160103)
(-0.00252122235872 0.00282222955894 0.00049861140256)
(-0.00273448699648 0.00263803351909 -5.94017249622e-05)
(-0.00285124768532 0.00259473846069 0.000167762275667)
(-0.00272618982979 0.00268204376076 0.000155307294292)
(-0.00244271297688 0.00245681114914 -0.000309167328408)
(-0.0027362935542 0.00245091037567 -9.16800037076e-05)
(-0.00265606845753 0.00252244213761 -0.000223513039785)
(-0.00183756512432 0.00227150349823 -0.000514444186209)
(-0.00228408622361 0.00229162028904 -0.00034784592877)
(-0.00229661141305 0.00235575381976 -0.000585820637533)
(-0.00101168845215 0.0020955617245 -0.000552445041128)
(-0.00154366618941 0.00212990397029 -0.000527352256131)
(-0.00168123741769 0.00219757502363 -0.000840248641135)
(-0.000240261952609 0.00190702806529 -0.000261588716078)
(-0.000573311673165 0.00197326753623 -0.000454439874267)
(-0.000854234044038 0.00205969051608 -0.00079867512045)
(-2.87202034623e-06 0.0017681369877 1.79337781062e-05)
(-0.000228470609997 0.00189889370519 -0.000256669899792)
(0.000440063193805 0.00208556573759 -0.00025066217197)
(9.23275809222e-05 0.00182170660135 5.154983239e-05)
(0.000356809932944 0.0020715374115 -0.000228835145002)
(0.00147793982686 0.00229111474429 -0.000540702203098)
(0.000904085601849 0.00202941130832 -0.000467362654426)
(0.00124001361231 0.00223942941218 -0.00080814404365)
(0.00249952610785 0.002480167769 -0.000418409149984)
(0.00213933924992 0.00219217905394 -0.000490705763245)
(0.00230430008782 0.00238548337173 -0.000754178764158)
(0.00314347788164 0.00266311469639 -9.03123541661e-05)
(0.00299631837181 0.00235234721251 -0.000190926088773)
(0.0030138638091 0.00254374242 -0.000318132671844)
(0.00330779402014 0.00281137618146 0.00026782684948)
(0.0033879564643 0.00249007819543 0.00019099320284)
(0.00330664029477 0.00269046824232 0.00023131219295)
(0.00302958510115 0.00290180621624 0.000572395099821)
(0.00328309893176 0.00257922893157 0.000536324992204)
(0.00317198378361 0.00279786277715 0.000742305906626)
(0.00241113829554 0.00292990542193 0.000789590528725)
(0.00278337609566 0.00261021206027 0.000793520627163)
(0.00268805040796 0.00285109701357 0.00114039181041)
(0.00157452516049 0.00290394828465 0.000913153536664)
(0.00200421590941 0.00258923526836 0.000951954378312)
(0.00195155227692 0.00285175203862 0.00140139756742)
(0.000641602737536 0.00284345584605 0.000954943099031)
(0.001082880633 0.0025284105863 0.00101530675191)
(0.00107663078978 0.00280840313599 0.00152472299365)
(-0.00029481205758 0.00277120478236 0.000933717506749)
(0.00013014160422 0.00245524409795 0.00101123383182)
(0.00016241312955 0.00274361877779 0.00153675800051)
(-0.00116486171889 0.00270092574157 0.000862460417108)
(-0.000780539319264 0.00238775327504 0.000958654838239)
(-0.000718419228575 0.00267361993965 0.00146081572052)
(-0.00191289821627 0.00263511335756 0.000746920009276)
(-0.00159435454865 0.00233414212287 0.000867491862104)
(-0.00150897323597 0.0026069179567 0.00131220891285)
(-0.00248472271237 0.0025670663933 0.000586469362171)
(-0.00226401573806 0.0022898641382 0.000736688438465)
(-0.00216041188316 0.00254121884143 0.00109464291288)
(-0.0028239063447 0.00248722718918 0.000381373650367)
(-0.00273484724232 0.00224399154297 0.000561395633657)
(-0.00262241156115 0.00246940553071 0.000809082547551)
(-0.00287580646166 0.00238744726174 0.000135483996921)
(-0.00294988191648 0.00218546748838 0.000340779780619)
(-0.00284759302418 0.00238477784553 0.000461171099855)
(-0.00259734382011 0.00226703919913 -0.00013035860407)
(-0.00285515428452 0.00210611747205 7.70868087768e-05)
(-0.00279495547175 0.00228405761729 6.63301464429e-05)
(-0.0019858757564 0.002133151402 -0.000360753998692)
(-0.0024116164687 0.00200794383484 -0.000192399947553)
(-0.00243975110389 0.00217308186394 -0.000327791837924)
(-0.00112986935472 0.00199229773382 -0.000429347089269)
(-0.00166029250757 0.00189650097368 -0.000395147321285)
(-0.00180705019363 0.00206003822786 -0.000622603722344)
(-0.000307567405907 0.00181983854258 -0.000174917380083)
(-0.000659756537652 0.00177360754337 -0.000350304444036)
(-0.00093970373337 0.00194986623276 -0.000622642323235)
(-4.26847733546e-05 0.00159067822278 7.91738115697e-05)
(-0.000261299469747 0.00179806563837 -0.000130108864517)
(0.000514313796571 0.0017499727493 -0.000165150650066)
(0.000133544145588 0.00141210152142 0.000107274215965)
(0.000392541821097 0.00172826041481 -0.00010470839054)
(0.001601913688 0.00191493710443 -0.000417366214573)
(0.00099053795956 0.00157297566259 -0.0003709197893)
(0.00132946749655 0.00186854915339 -0.000631163815215)
(0.0026432257269 0.00204823384229 -0.000263222702034)
(0.00225142878701 0.00168333918601 -0.000366430877142)
(0.00242966824822 0.00197173955759 -0.000532471655989)
(0.00327224319736 0.00216259772834 9.03794682332e-05)
(0.00310580514196 0.00177851440652 -4.42430124606e-05)
(0.00314290269824 0.00207075567116 -5.51840718999e-05)
(0.00339359439431 0.00224070540203 0.000459491345564)
(0.00346575186509 0.00184669685859 0.000351097331647)
(0.00340809887985 0.0021524242792 0.00052203080231)
(0.00306061266478 0.00227028046874 0.000757450519546)
(0.00331450068374 0.00187502282508 0.000692179465902)
(0.00322786399782 0.00219938464505 0.00103718855588)
(0.00239143042948 0.00225227670572 0.000955884476749)
(0.00276712457847 0.00186074093609 0.000932515458507)
(0.00269520995683 0.00220445640434 0.00141865411717)
(0.00151887663759 0.00219640489619 0.00105410759355)
(0.00194993245998 0.00181156526583 0.0010666933408)
(0.00191727966636 0.00217214275785 0.00165022456263)
(0.000572685156917 0.00212294132456 0.00107159748469)
(0.00101128284152 0.001738583087 0.00110031782591)
(0.00101837428184 0.00211048392071 0.00173601972625)
(-0.00035909280106 0.00205474161107 0.00103617116331)
(6.41024658564e-05 0.00166784364183 0.00107514340108)
(0.000100188269337 0.00204315195149 0.00171917910574)
(-0.00121711403497 0.00200431771841 0.000963686283236)
(-0.000828736000733 0.00161500146386 0.0010154534054)
(-0.000773006993698 0.00198526229142 0.00163077365436)
(-0.00195697948927 0.00197276044149 0.000857260291293)
(-0.00162405631962 0.00158681628218 0.00093153261803)
(-0.00155426473823 0.00194423878048 0.00148719180184)
(-0.00253082575891 0.00195112728139 0.000711614709951)
(-0.00228465117649 0.00157834110295 0.000816808056965)
(-0.00220332907231 0.00191646382952 0.00128536969594)
(-0.00288263076633 0.00192698854372 0.000520801763909)
(-0.00275923145728 0.00157760011861 0.000660379090356)
(-0.00267250313446 0.00189231893514 0.00101819669758)
(-0.00295289222043 0.00188948152262 0.000282382592474)
(-0.00298743516539 0.00157218864366 0.000455515884831)
(-0.00291141369358 0.00186251629742 0.000683540433394)
(-0.00269034652995 0.00183329401698 1.50454652938e-05)
(-0.00291064131848 0.00155267497191 0.000199073412884)
(-0.00287388022432 0.00182089967214 0.000290896813588)
(-0.00208314896148 0.00175838307006 -0.000226793270145)
(-0.00248065426977 0.00151538174795 -7.27619606402e-05)
(-0.00252646375811 0.00176723242512 -0.000114635595668)
(-0.00121589559739 0.00166541308635 -0.000316104676051)
(-0.00173155564363 0.00145814621802 -0.000285689840088)
(-0.00188735987768 0.00170382156361 -0.000428898815035)
(-0.000363698755654 0.0015324003819 -9.62132523834e-05)
(-0.000720424283603 0.00138086956983 -0.000261248564059)
(-0.000998132186286 0.00162996496614 -0.000459459125769)
(-7.507012441e-05 0.00124724870634 0.000125919264251)
(-0.000285753415532 0.00150678534214 -2.02693948124e-05)
(0.000565351593474 0.00122520189121 -9.84949232684e-05)
(0.000160306960262 0.000859065822577 0.000142579489423)
(0.000414520716428 0.00120433097885 -1.23153564887e-05)
(0.00167800032511 0.00133139219307 -0.000319984451868)
(0.00103879863442 0.000951057904691 -0.000301916281271)
(0.00138077336 0.00130002835307 -0.000490730342673)
(0.00272269985771 0.00140330541516 -0.000147451187569)
(0.00230581037872 0.00100200864995 -0.000279953819782)
(0.0024972858056 0.00135635896127 -0.000363368298843)
(0.00333163162521 0.00145221536972 0.000216474850954)
(0.00314964821669 0.00103333339518 5.13499608353e-05)
(0.00320631174783 0.00139927678861 0.000136249996982)
(0.00341772926447 0.0014709727921 0.000583785451985)
(0.0034832277072 0.00104182315276 0.000448497018529)
(0.00344773311881 0.00142404538273 0.00071877686629)
(0.00304449095929 0.00145573256545 0.000867244404863)
(0.00330028022665 0.00102481099498 0.00077908958995)
(0.00323403398448 0.00142345034342 0.00122345097085)
(0.0023409962224 0.00141039018591 0.00104332432256)
(0.00272284807171 0.000983703727853 0.00100223608847)
(0.00266766459111 0.00139559752561 0.00158053280056)
(0.00144844822638 0.00134417897447 0.00111290357315)
(0.0018850080427 0.000926206620136 0.00111377219777)
(0.0018633567283 0.00134646191121 0.00177790749427)
(0.000503987986188 0.00127411455665 0.0011038637423)
(0.000942758382239 0.000861058355421 0.0011206242763)
(0.000954213761384 0.0012826608092 0.00182198579384)
(-0.000409505270208 0.00121902636104 0.00105442564318)
(1.07333174219e-05 0.000806280904262 0.00107725213424)
(4.50552143318e-05 0.00122421365264 0.00177505675737)
(-0.00124311258527 0.00118879831936 0.000983299740196)
(-0.000857293709551 0.000772695473609 0.00101199475159)
(-0.000808803872124 0.0011832262789 0.00167591398605)
(-0.00196353835169 0.00118402333443 0.000891080383702)
(-0.00162755358906 0.000765052553619 0.000935598346518)
(-0.00156990159999 0.00116547850618 0.00154219007548)
(-0.00252977744321 0.00119661827539 0.00076557243737)
(-0.00227144406579 0.00078038002344 0.000837263122521)
(-0.00220678988325 0.00116766544399 0.00136420063888)
(-0.00288611664544 0.00121451399152 0.000595093211278)
(-0.00274138449906 0.000809801998652 0.000699424420931)
(-0.00267494452908 0.00118053834083 0.00112413766779)
(-0.00296953713864 0.00122687713093 0.00037220670524)
(-0.00297501007511 0.000842403030679 0.000512019303188)
(-0.00292123631449 0.00119422121269 0.000813206322676)
(-0.00272222341278 0.0012258929451 0.00011126598695)
(-0.00291077508511 0.000869941813433 0.000267561308964)
(-0.00289549836598 0.0012015834571 0.000435419519778)
(-0.00212783149183 0.00120636868162 -0.000131658530583)
(-0.00249505035496 0.00088375329295 1.4252528494e-10)
(-0.00255788557969 0.00119767227875 3.72365040494e-05)
(-0.00126249546559 0.00116526195974 -0.000230833728095)
(-0.00175655264252 0.000879149767599 -0.000213851564703)
(-0.00192155063583 0.00118033395742 -0.000286339696677)
(-0.000398936521573 0.0010868717591 -3.91160474244e-05)
(-0.000749595645675 0.000852540736872 -0.000201348598395)