/*--------------------------------*- C++ -*----------------------------------*\
| =========                 |                                                 |
| \\      /  F ield         | OpenFOAM: The Open Source CFD Toolbox           |
|  \\    /   O peration     | Version:  3.0.1                                 |
|   \\  /    A nd           | Web:      www.OpenFOAM.org                      |
|    \\/     M anipulation  |                                                 |
\*---------------------------------------------------------------------------*/
FoamFile
{
    version     2.0;
    format      ascii;
    class       surfaceScalarField;
    location    "4.4";
    object      alphaPhi;
}
// * * * * * * * * * * * * * * * * * * * * * * * * * * * * * * * * * * * * * //

dimensions      [0 3 -1 0 0 0 0];

internalField   nonuniform List<scalar> 
45932
(
9.10254965645e-06
5.27664570901e-06
-1.43792145012e-05
1.6451475703e-05
6.25170410552e-06
-1.36006388893e-05
1.68795845862e-05
1.29371998393e-05
-1.33652977183e-05
9.809429483e-06
1.97120367888e-05
-1.26419112665e-05
-1.23454059814e-06
2.36543396614e-05
-1.26103886714e-05
-1.31459383619e-05
2.38909319847e-05
-1.19795700671e-05
-2.25904279842e-05
2.0235055358e-05
-1.07906277682e-05
-2.67171071559e-05
1.35644955292e-05
-9.437893107e-06
-2.51364145682e-05
6.05443701753e-06
-7.63520938921e-06
-2.01869876656e-05
6.21346541789e-07
-5.57084051721e-06
-1.4608060156e-05
-1.86682793661e-06
-3.71214769315e-06
-9.84683324382e-06
-2.42613990704e-06
-2.33511395506e-06
-6.31487171196e-06
-2.12788842235e-06
-1.40408127085e-06
-3.89245980816e-06
-1.58187572208e-06
-8.40544183241e-07
-2.30281562511e-06
-1.07903132142e-06
-5.10618052262e-07
-1.28853109352e-06
-7.04827080923e-07
-3.09461574588e-07
-6.59800766121e-07
-4.55376136761e-07
-1.73358394887e-07
-2.81817362654e-07
-2.96798096505e-07
-8.11867531193e-08
-6.92399143579e-08
-1.99653137416e-07
-1.29277375945e-08
3.28039592733e-08
-1.40546266343e-07
3.84977983213e-08
6.743096149e-08
-1.03678152749e-07
6.90457299753e-08
6.45561230087e-08
-8.0507597481e-08
8.33763081125e-08
4.0829895606e-08
-6.69207430675e-08
9.06413804534e-08
2.98515457598e-09
-5.97094108478e-08
9.75487125174e-08
-3.22988875762e-08
-5.74187864048e-08
9.26973112798e-08
-4.4115192398e-08
-6.04006561803e-08
7.22104712551e-08
-2.4367635217e-08
-6.59136610846e-08
4.61585367251e-08
1.3418122208e-08
-7.20148913824e-08
3.42201786244e-08
7.14836472841e-08
-7.87060584628e-08
2.06305662883e-08
1.56241782045e-07
-8.69289617798e-08
2.16047990055e-09
2.61924596384e-07
-9.12152037969e-08
-1.44774007189e-08
3.59537854801e-07
-8.94740002495e-08
-8.14766745916e-09
4.15576669317e-07
-8.03612001571e-08
2.43158709806e-08
4.30901117688e-07
-6.80676296917e-08
5.27387947905e-08
4.1358791538e-07
-5.53373281829e-08
7.26483261631e-08
3.74006810512e-07
-4.40255296025e-08
8.3606439366e-08
3.17211352139e-07
-3.21011856808e-08
8.88976791367e-08
2.35959174067e-07
-2.24706852519e-08
1.03723036595e-07
1.3146488459e-07
-2.44406107929e-08
1.28930955114e-07
-4.70315797888e-08
1.78488229927e-07
8.95506896261e-06
1.56539912427e-05
-1.93324161502e-05
1.73509186321e-05
2.17020893667e-05
-2.38462074348e-05
1.79698761224e-05
3.69423572461e-05
-2.46240842311e-05
1.04585148582e-05
5.09512412982e-05
-2.37278606804e-05
-1.14044434382e-06
5.8685759517e-05
-2.34324579939e-05
-1.35761394701e-05
5.89647899989e-05
-2.2638182494e-05
-2.35058208152e-05
5.14633781339e-05
-2.12986880616e-05
-2.7709973289e-05
3.7484553873e-05
-1.97159576623e-05
-2.56991745711e-05
2.09642403725e-05
-1.69206607167e-05
-2.02902017022e-05
8.1737339524e-06
-1.29614104139e-05
-1.44701118472e-05
1.13972970009e-06
-8.8266796046e-06
-9.64100344354e-06
-1.78759520062e-06
-5.46766926284e-06
-6.13057570423e-06
-2.44430706114e-06
-3.19400934302e-06
-3.7599058144e-06
-2.15392017295e-06
-1.79861785481e-06
-2.21907812799e-06
-1.60307640752e-06
-1.0167755305e-06
-1.23989582259e-06
-1.09940774865e-06
-5.84593606468e-07
-6.32921876252e-07
-7.30018136827e-07
-3.32324069693e-07
-2.67930133999e-07
-4.83856631202e-07
-1.7792615172e-07
-6.31208210793e-08
-3.29893989437e-07
-7.45624711137e-08
3.48565492363e-08
-2.33762936908e-07
-4.75564706235e-09
6.68930427162e-08
-1.74942411281e-07
3.92321344638e-08
6.30512413053e-08
-1.36914046608e-07
6.02521234886e-08
3.83674774996e-08
-1.14879258514e-07
7.26457601209e-08
-1.08264399957e-09
-1.04865912709e-07
8.46096845735e-08
-3.87987022915e-08
-1.0200414269e-07
8.23038066459e-08
-5.08783914475e-08
-1.08056786826e-07
5.97370937864e-08
-3.0544091919e-08
-1.18100552481e-07
3.18523227343e-08
7.50006032193e-09
-1.29153962801e-07
1.90929963263e-08
6.65100262345e-08
-1.41256566657e-07
3.53731779845e-09
1.53304908189e-07
-1.52846327249e-07
-2.08813150956e-08
2.64627975632e-07
-1.59455429193e-07
-4.30863938439e-08
3.67889709461e-07
-1.5552034774e-07
-3.72180291865e-08
4.27980061258e-07
-1.42291906137e-07
1.83909179814e-09
4.43850273438e-07
-1.2593594825e-07
4.19986513279e-08
4.25952226982e-07
-1.06773269966e-07
6.93367705434e-08
3.84984529556e-07
-8.9527794519e-08
8.64751383251e-08
3.26142252606e-07
-7.24871950062e-08
9.9235017989e-08
2.40694141296e-07
-5.93941465015e-08
1.22377235335e-07
1.27894549172e-07
-6.24787059621e-08
1.50838601429e-07
-9.04488664255e-08
1.71307611251e-07
1.02200418976e-05
2.58191034158e-05
-2.03851602261e-05
1.99684558774e-05
3.74628494475e-05
-2.55091560459e-05
2.04415430562e-05
5.99244773778e-05
-2.34552540844e-05
1.18376519354e-05
7.95865371066e-05
-2.00314156913e-05
-1.0362200693e-06
9.01452396713e-05
-1.85856256733e-05
-1.47308921614e-05
9.04115049303e-05
-1.77520673964e-05
-2.57032085219e-05
7.98381059029e-05
-1.74024558555e-05
-3.01984218434e-05
5.99275162167e-05
-1.79478265994e-05
-2.76166160591e-05
3.59711681794e-05
-1.75887963898e-05
-2.13037575906e-05
1.67880091275e-05
-1.49271850663e-05
-1.4753566409e-05
5.38573336987e-06
-1.07962295606e-05
-9.54758479568e-06
-7.56602266798e-08
-6.91793511055e-06
-5.90592665331e-06
-1.98459459699e-06
-4.10137410169e-06
-3.53186173313e-06
-2.19209846438e-06
-2.33588506372e-06
-2.03754355178e-06
-1.78586219776e-06
-1.31152855125e-06
-1.11180194197e-06
-1.27753532199e-06
-7.47609505069e-07
-5.47834959915e-07
-8.63796500394e-07
-4.30184018124e-07
-2.12756460858e-07
-5.76235712244e-07
-2.42695373565e-07
-2.73957492584e-08
-3.93795546877e-07
-1.21455982439e-07
5.9258756589e-08
-2.78888343456e-07
-4.1526686646e-08
8.41004668457e-08
-2.06571313472e-07
6.7890263468e-09
7.53996866009e-08
-1.60707830839e-07
3.24959732201e-08
4.72119441271e-08
-1.34478554876e-07
4.77881060945e-08
4.64130755446e-09
-1.23903703917e-07
6.16091081196e-08
-3.51559022737e-08
-1.21505286506e-07
5.92983882611e-08
-4.90927867223e-08
-1.29971929524e-07
3.58509858661e-08
-2.95766302386e-08
-1.44057096021e-07
6.43788564094e-09
7.63001537822e-09
-1.5919313615e-07
-7.17150361012e-09
6.63147261152e-08
-1.75370496684e-07
-2.45759510506e-08
1.54344173863e-07
-1.89181487972e-07
-5.16998604233e-08
2.68284264193e-07
-1.95678673274e-07
-7.7722033904e-08
3.7420725983e-07
-1.90080649413e-07
-7.13669003907e-08
4.35965581952e-07
-1.75470270964e-07
-2.85827636501e-08
4.51354903994e-07
-1.57202896712e-07
1.58766568607e-08
4.32216502593e-07
-1.36012626885e-07
4.83791164894e-08
3.89954797863e-07
-1.15788045392e-07
6.85258663781e-08
3.2868659224e-07
-9.69594922914e-08
8.57461177336e-08
2.39104561347e-07
-8.27544076401e-08
1.12946793363e-07
1.22556390666e-07
-8.48461518556e-08
1.38915012229e-07
-1.04979087154e-07
1.37080663025e-07
1.29735784873e-05
3.31187014347e-05
-2.0273192137e-05
2.45682025859e-05
4.85553585444e-05
-2.26871721878e-05
2.45577978068e-05
7.53582167801e-05
-1.54233653135e-05
1.4114457287e-05
9.78611385041e-05
-7.83129539711e-06
-9.35887708136e-07
0.000109841863238
-4.64629188014e-06
-1.67906184312e-05
0.000110120794261
-3.85458681578e-06
-2.95165986176e-05
9.78009550377e-05
-5.23692155053e-06
-3.46464794411e-05
7.46386515823e-05
-9.58132741961e-06
-3.12855066313e-05
4.63067417211e-05
-1.36966190385e-05
-2.35277598322e-05
2.31934477318e-05
-1.41632373776e-05
-1.57760631373e-05
8.94870211798e-06
-1.13146929927e-05
-9.82031601812e-06
1.63250657067e-06
-7.66393070525e-06
-5.83791733232e-06
-1.26047339448e-06
-4.70652675021e-06
-3.35720344742e-06
-1.93755754988e-06
-2.73525163736e-06
-1.86368846894e-06
-1.72716283135e-06
-1.55221014953e-06
-9.76527815785e-07
-1.28360775439e-06
-8.81083403388e-07
-4.53947790577e-07
-8.79168634409e-07
-5.07202678684e-07
-1.51186279675e-07
-5.87243569533e-07
-2.91748954744e-07
1.18473510597e-08
-3.98422021779e-07
-1.58403290304e-07
8.62881238066e-08
-2.81328831623e-07
-7.19971896759e-08
1.02607322583e-07
-2.04529413282e-07
-1.83586195226e-08
8.81277166999e-08
-1.56498973833e-07
1.02727436532e-08
5.55314710659e-08
-1.29389087938e-07
2.75083622444e-08
9.36336117034e-09
-1.19816927396e-07
4.20824562974e-08
-3.30261447015e-08
-1.18877941861e-07
3.97625745444e-08
-4.86512299123e-08
-1.28995734773e-07
1.46481884758e-08
-3.00064925364e-08
-1.45281411862e-07
-1.74225978622e-08
6.81456224948e-09
-1.63263422997e-07
-3.27544661025e-08
6.49930575733e-08
-1.81320215953e-07
-5.22335864536e-08
1.54828122563e-07
-1.95984810106e-07
-8.30369341745e-08
2.71525686233e-07
-2.01766214224e-07
-1.10614850817e-07
3.79747219913e-07
-1.94989604578e-07
-1.03316506524e-07
4.42778217038e-07
-1.80302123808e-07
-5.82017668061e-08
4.58028069048e-07
-1.61742004085e-07
-1.07115554487e-08
4.38162882218e-07
-1.40816959612e-07
2.46711373147e-08
3.94941005292e-07
-1.19896889757e-07
4.73350951726e-08
3.31697492408e-07
-1.01072220219e-07
6.73625262072e-08
2.38776070105e-07
-8.6536782423e-08
9.67089770604e-08
1.19961157538e-07
-8.64118718307e-08
1.20380413872e-07
-9.60606235169e-08
1.11036793363e-07
1.67699208169e-05
3.63982313602e-05
-2.00494772013e-05
3.04697334707e-05
5.30295896174e-05
-1.81740599561e-05
2.9762266703e-05
8.06705110755e-05
-4.60486287465e-06
1.70253741928e-05
0.000102837992218
7.7600223344e-06
-8.45360860591e-07
0.000114677653168
1.30349266822e-05
-1.95134653045e-05
0.000114994483682
1.3794390633e-05
-3.43882693663e-05
0.000102587493075
1.00882181448e-05
-4.03315696304e-05
7.93170700628e-05
1.26481765178e-06
-3.61156444828e-05
5.02933015688e-05
-8.20255097345e-06
-2.66392719842e-05
2.62090052282e-05
-1.24919804647e-05
-1.73638535999e-05
1.10222411955e-05
-1.1348985951e-05
-1.04309200066e-05
2.89453931225e-06
-8.19497964121e-06
-5.9399143042e-06
-5.49395012716e-07
-5.20209086108e-06
-3.259774513e-06
-1.55006971162e-06
-3.06762657585e-06
-1.72123055626e-06
-1.51271596823e-06
-1.75298564761e-06
-8.52128694659e-07
-1.16543122854e-06
-9.87272599024e-07
-3.6366669554e-07
-8.06806085428e-07
-5.60818542839e-07
-9.10586740347e-08
-5.38196139077e-07
-3.21649954347e-07
5.12732228747e-08
-3.6133258677e-07
-1.79416620164e-07
1.12628585421e-07
-2.53503515784e-07
-8.91768279566e-08
1.20387445705e-07
-1.80582364408e-07
-3.17027188953e-08
9.96081846696e-08
-1.34543083483e-07
-1.17397254881e-09
6.258121878e-08
-1.09867505976e-07
1.75075954048e-08
1.28996723363e-08
-1.01782577521e-07
3.16489157294e-08
-3.20996193014e-08
-1.02719061903e-07
2.88413976757e-08
-4.96027768988e-08
-1.13306569576e-07
1.81385089998e-09
-3.18444510602e-08
-1.3023231735e-07
-3.28090419597e-08
4.24605574162e-09
-1.48770630079e-07
-5.05864446449e-08
6.27912181192e-08
-1.66980952203e-07
-7.28886870254e-08
1.54959248096e-07
-1.81408296497e-07
-1.0674921279e-07
2.74427076899e-07
-1.86008429459e-07
-1.35229997597e-07
3.84692329586e-07
-1.78701474294e-07
-1.26556988957e-07
4.48857257188e-07
-1.64818167726e-07
-7.96512971719e-08
4.64100102529e-07
-1.47389115616e-07
-2.95963526655e-08
4.43960419791e-07
-1.27301181483e-07
6.62583667315e-09
4.00058057675e-07
-1.08323722728e-07
3.23341135888e-08
3.35388688662e-07
-9.07473374122e-08
5.43515421062e-08
2.40289850001e-07
-7.66831489455e-08
8.52512035528e-08
1.19879246701e-07
-7.46133377455e-08
1.086124489e-07
-7.67968198912e-08
1.00609822851e-07
2.09387269401e-05
3.5259513565e-05
-1.98000388883e-05
3.66725694389e-05
5.06114758931e-05
-1.33157448169e-05
3.5144890342e-05
7.59303991076e-05
6.26777197103e-06
1.99952156442e-05
9.5225180723e-05
2.27624650416e-05
-7.53884536452e-07
0.000105707017195
2.97197137282e-05
-2.22790733832e-05
0.000106109642218
3.0409997896e-05
-3.93734695806e-05
9.50070708164e-05
2.4674780246e-05
-4.6275509558e-05
7.42777568215e-05
1.19412965201e-05
-4.13321751048e-05
4.79102542485e-05
-2.56034914957e-06
-3.01297939545e-05
2.56484452474e-05
-1.06418684683e-05
-1.9251407465e-05
1.13597857702e-05
-1.12159619028e-05
-1.12406876067e-05
3.48484314518e-06
-8.6010363003e-06
-6.16094134707e-06
-9.5024460327e-09
-5.61964502377e-06
-3.22805694138e-06
-1.13344723614e-06
-3.34950772248e-06
-1.61488084775e-06
-1.2202614609e-06
-1.90562557674e-06
-7.4680937084e-07
-9.68095349172e-07
-1.06540137551e-06
-2.83684308614e-07
-6.78334523796e-07
-5.91590555975e-07
-3.72522664205e-08
-4.51452231702e-07
-3.33170373006e-07
8.65525746284e-08
-2.98444648157e-07
-1.86688114666e-07
1.36402013396e-07
-2.08586447499e-07
-9.47626980961e-08
1.36503537644e-07
-1.45473327431e-07
-3.52074786018e-08
1.09696256778e-07
-1.05107831693e-07
-2.62539910085e-09
6.81278884466e-08
-8.43785732216e-08
1.60816186805e-08
1.53322567514e-08
-7.82284978553e-08
2.92433222481e-08
-3.21740027032e-08
-8.05568054306e-08
2.53451228635e-08
-5.13935320308e-08
-9.05705070551e-08
-3.51646529495e-09
-3.44288215199e-08
-1.06445021361e-07
-4.07533653486e-08
1.46421184749e-09
-1.23603975549e-07
-6.10625529103e-08
6.07435359351e-08
-1.40121803853e-07
-8.61424747628e-08
1.55002585191e-07
-1.53352325873e-07
-1.22319503383e-07
2.77029140409e-07
-1.56568956697e-07
-1.51470358834e-07
3.8903995076e-07
-1.49454901834e-07
-1.41261099423e-07
4.54174138343e-07
-1.37157009377e-07
-9.27979983863e-08
4.69645736255e-07
-1.21957817457e-07
-4.09037503393e-08
4.49102095063e-07
-1.04625868542e-07
-2.12982206583e-09
4.04963517105e-07
-8.79315510458e-08
2.37515077518e-08
3.39346952364e-07
-7.27988648162e-08
4.76755999458e-08
2.42972611492e-07
-6.01530889203e-08
7.98508386544e-08
1.21206387538e-07
-5.6957139482e-08
1.04110834029e-07
-5.53468339446e-08
9.97509772528e-08
2.47630753433e-05
3.00322582073e-05
-1.95358490417e-05
4.21816888322e-05
4.22534271583e-05
-9.0605808502e-06
3.99429041802e-05
6.29717985864e-05
1.51973628594e-05
2.26686166622e-05
7.77459368714e-05
3.47535050145e-05
-6.4269562971e-07
8.59173382225e-05
4.31009637294e-05
-2.47012767794e-05
8.63768197264e-05
4.37913782418e-05
-4.37748833757e-05
7.77515864064e-05
3.63290806491e-05
-5.16319602135e-05
6.14255156897e-05
2.07092640619e-05
-4.61910107869e-05
4.01075700885e-05
2.36167489167e-06
-3.34820456148e-05
2.19153504178e-05
-8.97591673747e-06
-2.11355844581e-05
1.00474452776e-05
-1.10341491934e-05
-1.20985064416e-05
3.35763511441e-06
-8.90988682016e-06
-6.44153104327e-06
2.94922071286e-07
-5.96140724111e-06
-3.24326082681e-06
-7.56957519224e-07
-3.57476116062e-06
-1.54178242663e-06
-9.01445049263e-07
-2.02029300076e-06
-6.64279534232e-07
-7.3168503783e-07
-1.11390704404e-06
-2.18160086874e-07
-5.19137631504e-07
-6.05311254619e-07
5.97058907268e-09
-3.43471437244e-07
-3.32106779918e-07
1.16950869004e-07
-2.26192164991e-07
-1.83229063023e-07
1.56402747596e-07
-1.55472846874e-07
-9.25627359147e-08
1.49408608229e-07
-1.06071462525e-07
-3.24056850891e-08
1.17806640166e-07
-7.47646706838e-08
1.26039362581e-09
7.22205198258e-08
-5.8863266542e-08
2.00721707485e-08
1.68298549569e-08
-5.47143231985e-08
3.18776269915e-08
-3.28764921044e-08
-5.75203638967e-08
2.66705892602e-08
-5.35089383239e-08
-6.60050178022e-08
-3.93323935258e-09
-3.72106806006e-08
-7.93229834442e-08
-4.34218024439e-08
-1.21331877886e-09
-9.35797782829e-08
-6.60245279329e-08
5.95456263215e-08
-1.07201412313e-07
-9.36834754534e-08
1.55039141786e-07
-1.17449166901e-07
-1.31401402519e-07
2.79274329735e-07
-1.19694427293e-07
-1.6111447263e-07
3.9270601023e-07
-1.13503710083e-07
-1.49387211863e-07
4.58618984463e-07
-1.03458310543e-07
-9.96150781678e-08
4.74281587248e-07
-9.13691303183e-08
-4.62528821495e-08
4.53557145374e-07
-7.76438378107e-08
-6.2562949948e-09
4.09264283625e-07
-6.4278588197e-08
2.06447375492e-08
3.43062181876e-07
-5.24055062872e-08
4.58162910031e-08
2.45945476917e-07
-4.21376356024e-08
7.91080120952e-08
1.22933594869e-07
-3.86184211703e-08
1.04674132114e-07
-3.55307217781e-08
1.03112088929e-07
2.78937410754e-05
2.15605548352e-05
-1.94220565316e-05
4.65140004625e-05
2.97484635273e-05
-6.11532135482e-06
4.38817624293e-05
4.42848576334e-05
2.13191543504e-05
2.49828353871e-05
5.38673286263e-05
4.27775142691e-05
-4.90917070281e-07
5.93518949204e-05
5.20391688733e-05
-2.66591591543e-05
5.97617865581e-05
5.27832476845e-05
-4.73160545225e-05
5.40626734761e-05
4.43457751067e-05
-5.58896849282e-05
4.31542029794e-05
2.68449168789e-05
-5.01300567751e-05
2.84594245076e-05
5.88845153995e-06
-3.62770511566e-05
1.57717424002e-05
-7.70944206847e-06
-2.27579842742e-05
7.39520750274e-06
-1.08668603429e-05
-1.28690740481e-05
2.59594173732e-06
-9.12723306816e-06
-6.71412680965e-06
3.50209184236e-07
-6.2102439581e-06
-3.28122413158e-06
-4.50729346232e-07
-3.73913404422e-06
-1.49588187952e-06
-5.87115546315e-07
-2.09967071535e-06
-6.04898707793e-07
-4.85359365127e-07
-1.13730588034e-06
-1.68877563947e-07
-3.4583962821e-07
-6.09314955595e-07
4.15200218446e-08
-2.28671783194e-07
-3.25194151808e-07
1.39132266827e-07
-1.4875936302e-07
-1.75043054274e-07
1.7144686998e-07
-1.01460816107e-07
-8.63256648295e-08
1.59942550293e-07
-6.79779613214e-08
-2.6588897487e-08
1.23712033455e-07
-4.67691288942e-08
8.23494040278e-09
7.50298646096e-08
-3.63106323847e-08
2.61294853037e-08
1.76306386852e-08
-3.39881132629e-08
3.66730154116e-08
-3.37729774084e-08
-3.63827123243e-08
3.02657827984e-08
-5.55391115447e-08
-4.26257735405e-08
-1.61393745947e-09
-3.97125360946e-08
-5.20526647356e-08
-4.30988738995e-08
-3.61622129978e-09
-6.20902161587e-08
-6.75892570472e-08
5.79074620222e-08
-7.16323003537e-08
-9.70973801894e-08
1.55023703438e-07
-7.83143068759e-08
-1.36256405066e-07
2.81081982405e-07
-7.95620901221e-08
-1.66196144402e-07
3.95592246001e-07
-7.4879033666e-08
-1.53140257902e-07
4.62066523368e-07
-6.77047897092e-08
-1.02232305544e-07
4.77859219072e-07
-5.93672202875e-08
-4.77972689743e-08
4.57085256846e-07
-4.99401252999e-08
-6.92933995439e-09
4.12665746659e-07
-4.07054219685e-08
2.08505915e-08
3.46125344243e-07
-3.26566462625e-08
4.67988007283e-08
2.48435935806e-07
-2.54594523596e-08
8.10178858898e-08
1.24437937457e-07
-2.23635252456e-08
1.07743995277e-07
-1.85552029972e-08
1.07456913748e-07
3.0069171998e-05
1.10199608655e-05
-1.9528587137e-05
4.94223775784e-05
1.50506121661e-05
-4.65537006948e-06
4.66331194899e-05
2.24419442205e-05
2.4632145496e-05
2.66345728747e-05
2.70479359164e-05
4.68179077524e-05
-3.29130938425e-07
2.98949716196e-05
5.6420600226e-05
-2.79460488645e-05
3.01310486961e-05
5.72475966724e-05
-4.97006406544e-05
2.72480147851e-05
4.85692068054e-05
-5.87451454625e-05
2.19029149033e-05
3.02957707692e-05
-5.28385835392e-05
1.45291308458e-05
8.02366999204e-06
-3.82395943412e-05
8.09456154519e-06
-6.92185115538e-06
-2.39272609526e-05
3.83251030115e-06
-1.0749667655e-05
-1.34394194874e-05
1.37041770525e-06
-9.26233736541e-06
-6.92631912614e-06
2.06635790033e-07
-6.36953781388e-06
-3.3200841429e-06
-2.14079393193e-07
-3.84289009939e-06
-1.47019003233e-06
-2.89893064207e-07
-2.14711728248e-06
-5.66731026322e-07
-2.40906290418e-07
-1.1479107647e-06
-1.36430766924e-07
-1.70672341436e-07
-6.05465189968e-07
6.36303431034e-08
-1.12231058285e-07
-3.16500536186e-07
1.5429542153e-07
-7.25858709949e-08
-1.66838477695e-07
1.81554705816e-07
-4.89660137139e-08
-7.97550607215e-08
1.66733549174e-07
-3.20459730153e-08
-2.11124592063e-08
1.27510162618e-07
-2.19369263313e-08
1.43893925003e-08
7.67490241796e-08
-1.71161733464e-08
3.15650966451e-08
1.79730186137e-08
-1.64260843807e-08
4.12127220578e-08
-3.45271311696e-08
-1.78705898181e-08
3.3986869342e-08
-5.7089628126e-08
-2.11072663422e-08
1.04242261531e-09
-4.15497381305e-08
-2.58889757628e-08
-4.17061416344e-08
-5.37408001183e-09
-3.08102068754e-08
-6.7459568979e-08
5.6673167718e-08
-3.53804543524e-08
-9.83042369439e-08
1.55038035922e-07
-3.82619473405e-08
-1.38423210541e-07
2.82380702073e-07
-3.84819631181e-08
-1.68429181378e-07
3.97598136948e-07
-3.57175280263e-08
-1.54385296099e-07
4.64414579163e-07
-3.18916961868e-08
-1.02635173813e-07
4.80265756898e-07
-2.77135396831e-08
-4.75086119535e-08
4.59500233028e-07
-2.3096799738e-08
-6.07831137984e-09
4.14971407495e-07
-1.86984224237e-08
2.25254019411e-08
3.48247872849e-07
-1.46929495149e-08
4.87666772515e-08
2.5016334455e-07
-1.10213648738e-08
8.36528545586e-08
1.25447126628e-07
-8.83354359308e-09
1.11186938593e-07
-4.28411784106e-09
1.11170375744e-07
3.11549237645e-05
-4.46289871774e-07
-1.96886665755e-05
5.09009149722e-05
-4.89433816876e-07
-4.20597906052e-06
4.80399732986e-05
-5.53814670093e-07
2.58566702219e-05
2.74081436675e-05
-5.69273847974e-07
4.82490111283e-05
-2.43452703299e-07
-5.79138876922e-07
5.81256632642e-05
-2.855970766e-05
-5.65126833001e-07
5.90123680382e-05
-5.08727922832e-05
-5.41424910968e-07
5.01024923561e-05
-6.01441604815e-05
-5.00777714399e-07
3.16750480925e-05
-5.41882863072e-05
-4.12159406785e-07
8.98535700438e-06
-3.92314163149e-05
-2.92439598684e-07
-6.56991101667e-06
-2.45271909369e-05
-1.77181922049e-07
-1.06945649372e-05
-1.37359369352e-05
-9.47577878272e-08
-9.32609863809e-06
-7.03876256287e-06
-4.56640082289e-08
-6.4448868407e-06
-3.34235690481e-06
-1.91402419743e-08
-3.89135151625e-06
-1.45833956788e-06
-6.05404208973e-09
-2.16785843865e-06
-5.47863119382e-07
9.13887447364e-11
-1.15147407696e-06
-1.20337731264e-07
2.28120828364e-09
-6.00478040982e-07
7.53213054306e-08
3.00742374204e-09
-3.10897619498e-07
1.61293271721e-07
2.99407161347e-09
-1.61553268868e-07
1.85720273583e-07
2.41043567905e-09
-7.58058965899e-08
1.69934536903e-07
1.59252031274e-09
-1.7855808709e-08
1.29317763881e-07
6.98509782773e-10
1.7978246048e-08
7.74918982262e-08
-1.80972987407e-10
3.48879678446e-08
1.80555084677e-08
-8.51920934257e-10
4.38600717908e-08
-3.4975786192e-08
-1.03570635108e-09
3.61945628657e-08
-5.78867893457e-08
-9.6516283891e-10
2.76681287444e-09
-4.2458056558e-08
-7.06586425833e-10
-4.06140987275e-08
-6.21832386171e-09
-6.2338343762e-11
-6.69918859274e-08
5.61063095027e-08
7.82817519212e-10
-9.84934674109e-08
1.55156667803e-07
1.82911653273e-09
-1.39147919149e-07
2.83121931269e-07
2.59759154616e-09
-1.69051845499e-07
3.98648853839e-07
3.2093431267e-09
-1.54460899671e-07
4.65589052355e-07
3.41965178819e-09
-1.02257980307e-07
4.81428736078e-07
3.23571792418e-09
-4.67934404037e-08
4.60644981183e-07
2.79591653912e-09
-5.11008878866e-09
4.16096927964e-07
2.2510729005e-09
2.36016807489e-08
3.49253707434e-07
1.82007565267e-09
5.03367397223e-08
2.50956695567e-07
1.71467300466e-09
8.55672015359e-08
1.25887979947e-07
2.76856147974e-09
1.1346717668e-07
8.28426881187e-09
1.13313844842e-07
3.11464570778e-05
-1.18902549299e-05
-1.97025195879e-05
5.08894608389e-05
-1.60124085413e-05
-4.22006543101e-06
4.80292418465e-05
-2.3541924514e-05
2.58482974102e-05
2.74020221613e-05
-2.81956779085e-05
4.82535922115e-05
-2.41527173056e-07
-3.10565409803e-05
5.81209030713e-05
-2.85491959304e-05
-3.12627495781e-05
5.90052314614e-05
-5.08573074752e-05
-2.83326803327e-05
5.00993823602e-05
-6.01225898417e-05
-2.28864315057e-05
3.16509054204e-05
-5.41603667473e-05
-1.53277418837e-05
8.95330262671e-06
-3.92036829278e-05
-8.65910403193e-06
-6.59006046147e-06
-2.4506242737e-05
-4.17368108663e-06
-1.07009718095e-05
-1.37229245957e-05
-1.55294547459e-06
-9.32515091961e-06
-7.03155366938e-06
-2.94794709483e-07
-6.44225290177e-06
-3.33871883945e-06
1.77184407498e-07
-3.88916674603e-06
-1.45664390763e-06
2.78218364142e-07
-2.16634996183e-06
-5.47181659901e-07
2.41245711637e-07
-1.15061704923e-06
-1.20114291534e-07
1.75402354841e-07
-6.00188055516e-07
7.53307690293e-08
1.18350320392e-07
-3.10788515624e-07
1.61193220026e-07
7.85956291737e-08
-1.61465829682e-07
1.85528379085e-07
5.38457234498e-08
-7.57733368997e-08
1.69724342623e-07
3.52932262966e-08
-1.79001216659e-08
1.29111673672e-07
2.33157962808e-08
1.79919662895e-08
7.73497462017e-08
1.67330790225e-08
3.48449490986e-08
1.79991826729e-08
1.46692902387e-08
4.38270642981e-08
-3.49617098867e-08
1.56869642954e-08
3.62363197273e-08
-5.78082958872e-08
1.90714592253e-08
2.8078723123e-09
-4.23040505749e-08
2.43526046504e-08
-4.05664077685e-08
-6.00457083256e-09
3.05325776067e-08
-6.68986997472e-08
5.63806935576e-08
3.6758498587e-08
-9.83665720158e-08
1.5539893614e-07
4.17039647749e-08
-1.38899704245e-07
2.83268195771e-07
4.34297513e-08
-1.6870860675e-07
3.98702422689e-07
4.18362990361e-08
-1.54068466768e-07
4.65550692248e-07
3.84035070047e-08
-1.01838713753e-07
4.81323912528e-07
3.38476532495e-08
-4.63897517721e-08
4.60504358211e-07
2.83544886891e-08
-4.7401733705e-09
4.15925548517e-07
2.28338980681e-08
2.39991330978e-08
3.49056969569e-07
1.79650474561e-08
5.07302087821e-08
2.50751209245e-07
1.40549760404e-08
8.59717557e-08
1.25742128683e-07
1.39336578476e-08
1.13844631366e-07
2.04376450276e-08
1.13583117232e-07
3.00420919694e-05
-2.2364458544e-05
-1.9567909606e-05
4.93854977839e-05
-3.06557988966e-05
-4.70003939624e-06
4.66002954392e-05
-4.53504285871e-05
2.4593677772e-05
2.66167134463e-05
-5.50231275746e-05
4.68109998604e-05
-3.2289064016e-07
-6.05165666032e-05
5.6399569491e-05
-2.79174436191e-05
-6.08894902096e-05
5.7221271161e-05
-4.96549955765e-05
-5.51279266512e-05
4.85327958677e-05
-5.86792312458e-05
-4.40803592417e-05
3.021812802e-05
-5.27550073338e-05
-2.91853112761e-05
7.9332893273e-06
-3.81578155794e-05
-1.62771835473e-05
-6.97915149227e-06
-2.38659429604e-05
-7.69857260187e-06
-1.07670104187e-05
-1.34013544935e-05
-2.75819377504e-06
-9.25936006468e-06
-6.90528120034e-06
-4.29097001517e-07
-6.36178332379e-06
-3.3093882131e-06
4.17663612987e-07
-3.83637891663e-06
-1.46516357859e-06
5.76676106676e-07
-2.14268445259e-06
-5.64705994369e-07
4.85845765269e-07
-1.14505752375e-06
-1.35782375548e-07
3.50601485307e-07
-6.04121590244e-07
6.3640331675e-08
2.34946666536e-07
-3.16018863383e-07
1.53912907029e-07
1.5491139025e-07
-1.66589352266e-07
1.81008372612e-07
1.06394614486e-07
-7.96463935402e-08
1.66091290038e-07
7.1382426392e-08
-2.11746817925e-08
1.26894179362e-07
4.80693930947e-08
1.44409966003e-08
7.63101455518e-08
3.57607252617e-08
3.15543458339e-08
1.77897255231e-08
3.20189004694e-08
4.11693567495e-08
-3.44942535628e-08
3.39157115314e-08
3.40540865094e-08
-5.6857374003e-08
4.02659969892e-08
1.16714806233e-09
-4.10950264963e-08
5.01799779858e-08
-4.15921427876e-08
-4.75143736011e-09
6.1379317981e-08
-6.71941791145e-08
5.74299589358e-08
7.24817497077e-08
-9.79098791187e-08
1.55724284889e-07
8.11530992185e-08
-1.37749683862e-07
2.82809852477e-07
8.38037099136e-08
-1.6746627443e-07
3.97754625285e-07
8.01325345585e-08
-1.53247764466e-07
4.64298169623e-07
7.32680186134e-08
-1.0141402064e-07
4.79951447675e-07
6.45184456213e-08
-4.63279753847e-08
4.59071382343e-07
5.42388165616e-08
-5.00472141023e-09
4.1446043543e-07
4.40381347013e-08
2.34104935243e-08
3.47655306625e-07
3.48722662823e-08
4.99050430543e-08
2.49548250425e-07
2.73295400335e-08
8.48392291236e-08
1.25017586834e-07
2.61702380035e-08
1.1229511914e-07
3.35041431755e-08
1.11945816021e-07
2.78444768064e-05
-3.07292919703e-05
-1.94796557444e-05
4.64463242219e-05
-4.30615619496e-05
-6.19608918597e-06
4.38224322625e-05
-6.39410821791e-05
2.12145195135e-05
2.49481239009e-05
-7.88405213441e-05
4.26916570796e-05
-4.78300758395e-07
-8.70444372022e-05
5.19542520277e-05
-2.66045967628e-05
-8.74590011474e-05
5.26957978125e-05
-4.72321109554e-05
-7.8732218192e-05
4.4231790729e-05
-5.5774944713e-05
-6.22381531133e-05
2.67005885156e-05
-4.99918399043e-05
-4.07171552981e-05
5.74868226225e-06
-3.61453678408e-05
-2.23291811415e-05
-7.79451189503e-06
-2.26606101133e-05
-1.02939996201e-05
-1.08893584613e-05
-1.2808823323e-05
-3.4902358578e-06
-9.11976208297e-06
-6.68082839886e-06
-3.60447913924e-07
-6.19665499367e-06
-3.26423064527e-06
7.29292305195e-07
-3.72823164829e-06
-1.48781792609e-06
8.92921674241e-07
-2.09265899107e-06
-6.01591154374e-07
7.31892709544e-07
-1.13227205706e-06
-1.67796974728e-07
5.23575584321e-07
-6.06765309528e-07
4.15308980611e-08
3.495881891e-07
-3.23967435814e-07
1.38583544147e-07
2.32351371295e-07
-1.74491726059e-07
1.70448566146e-07
1.60427939861e-07
-8.58983999981e-08
1.58801244387e-07
1.0934088579e-07
-2.63116841398e-08
1.22668820401e-07
7.58482526382e-08
8.35300594358e-09
7.42964966948e-08
5.80283426432e-08
2.61045114582e-08
1.73098515058e-08
5.24577150749e-08
3.6548042577e-08
-3.37161451771e-08
5.45726325902e-08
3.03693755579e-08
-5.51721966126e-08
6.31742935734e-08
-1.45246599502e-09
-3.89754560389e-08
7.6907665782e-08
-4.29258488543e-08
-2.62479417349e-09
9.22595797637e-08
-6.72339278261e-08
5.90330921379e-08
1.07299654729e-07
-9.64802476469e-08
1.56069855403e-07
1.19343368609e-07
-1.35232440701e-07
2.8175997952e-07
1.22824375893e-07
-1.64716586658e-07
3.95830182045e-07
1.17403240655e-07
-1.51346527117e-07
4.61866976286e-07
1.0757170777e-07
-1.00345147948e-07
4.77340757876e-07
9.50137245667e-08
-4.59715926508e-08
4.56410858043e-07
8.04387594843e-08
-5.26917847635e-09
4.11756685382e-07
6.59519566599e-08
2.27452955471e-08
3.45120140285e-07
5.29973813585e-08
4.85195115361e-08
2.47391172596e-07
4.22432429944e-08
8.28227644426e-08
1.23705679918e-07
4.03998363146e-08
1.094575809e-07
4.86039558579e-08
1.08601142519e-07
2.46902556752e-05
-3.58214229974e-05
-1.9598183219e-05
4.20734659314e-05
-5.12718403817e-05
-9.17297098175e-06
3.98532963356e-05
-7.67298320115e-05
1.50088957545e-05
2.26256592429e-05
-9.61439695938e-05
3.45310652978e-05
-6.18406755271e-07
-0.000106657845551
4.28574443522e-05
-2.46189884085e-05
-0.000107012391443
4.35539539189e-05
-4.3648687423e-05
-9.5807166342e-05
3.61046270879e-05
-5.14656903814e-05
-7.49173343596e-05
2.04961511893e-05
-4.60023417379e-05
-4.83712836158e-05
2.19072062768e-06
-3.33079461894e-05
-2.59507958684e-05
-9.07281722506e-06
-2.10090273162e-05
-1.15397677868e-05