/*--------------------------------*- C++ -*----------------------------------*\
| =========                 |                                                 |
| \\      /  F ield         | OpenFOAM: The Open Source CFD Toolbox           |
|  \\    /   O peration     | Version:  3.0.1                                 |
|   \\  /    A nd           | Web:      www.OpenFOAM.org                      |
|    \\/     M anipulation  |                                                 |
\*---------------------------------------------------------------------------*/
FoamFile
{
    version     2.0;
    format      ascii;
    class       volScalarField;
    location    "4.4";
    object      p;
}
// * * * * * * * * * * * * * * * * * * * * * * * * * * * * * * * * * * * * * //

dimensions      [1 -1 -2 0 0 0 0];

internalField   nonuniform List<scalar> 
15984
(
4646.33974139
4646.25671575
4646.09080276
4645.94778611
4645.8624778
4645.82658989
4645.8505871
4645.95015886
4646.12063677
4646.31318696
4646.48477468
4646.61294752
4646.69643581
4646.74617148
4646.77364696
4646.78788083
4646.79465166
4646.7975673
4646.79827519
4646.79750636
4646.79616856
4646.79425394
4646.79215334
4646.78968234
4646.78743657
4646.78488745
4646.78119344
4646.77307686
4646.7595682
4646.73801419
4646.70780602
4646.66912479
4646.62468482
4646.57912444
4646.53636088
4646.49942164
4646.46993215
4646.44825776
4646.43430818
4646.42807183
4646.35731064
4646.2951626
4646.13729607
4645.99057784
4645.90525791
4645.86777625
4645.88951015
4645.98773616
4646.15773834
4646.34504762
4646.50876483
4646.62951041
4646.70701621
4646.75245011
4646.77719592
4646.78978606
4646.7956038
4646.79794928
4646.79832305
4646.79738866
4646.79589509
4646.79394826
4646.79185124
4646.78940618
4646.7872133
4646.7847763
4646.7811302
4646.77304323
4646.75969225
4646.73813574
4646.70793938
4646.66919626
4646.62462943
4646.57891998
4646.53607208
4646.4990841
4646.46957143
4646.44787812
4646.43396242
4646.42791079
4646.32969913
4646.26781031
4646.08130936
4645.90441696
4645.80348053
4645.76389731
4645.79880832
4645.92382309
4646.12608925
4646.34017472
4646.51824616
4646.64300044
4646.71931889
4646.76174788
4646.78336078
4646.79350783
4646.79765615
4646.79893787
4646.79867282
4646.79743194
4646.79572562
4646.79370291
4646.79160977
4646.78919783
4646.78721747
4646.78486662
4646.78129682
4646.77329543
4646.76005962
4646.73855088
4646.70833474
4646.66948488
4646.62476288
4646.57885574
4646.5358857
4646.4988386
4646.46929488
4646.44759991
4646.43373673
4646.42790969
4646.28148063
4646.20073373
4645.96560074
4645.75574837
4645.63952727
4645.59710989
4645.64370295
4645.79757604
4646.0471179
4646.30720399
4646.5140103
4646.65221577
4646.73095249
4646.77172014
4646.79047467
4646.79794704
4646.80012905
4646.80011671
4646.79905731
4646.79752175
4646.79558327
4646.79346511
4646.79139067
4646.78906375
4646.78729559
4646.78508954
4646.78164145
4646.77366882
4646.76064143
4646.73911848
4646.70886587
4646.66988307
4646.62498094
4646.5789012
4646.53574822
4646.49863197
4646.46904107
4646.4473303
4646.43351065
4646.42787551
4646.21894571
4646.10643965
4645.82184803
4645.59465729
4645.47505453
4645.42828922
4645.47377089
4645.64022678
4645.9321947
4646.24685764
4646.49346011
4646.65266139
4646.73897786
4646.78033181
4646.79718849
4646.80229531
4646.80254767
4646.80123921
4646.79940572
4646.79751774
4646.7953906
4646.79322548
4646.79120561
4646.78901114
4646.78742448
4646.78540081
4646.78209835
4646.7742909
4646.76119242
4646.73975783
4646.70946146
4646.6703329
4646.62524666
4646.57897899
4646.53566425
4646.49847938
4646.46884601
4646.44711979
4646.43333748
4646.42784694
4646.15325497
4646.00730791
4645.6857908
4645.45768976
4645.34723808
4645.29469854
4645.32485243
4645.4855532
4645.80510346
4646.17145712
4646.46169874
4646.64662275
4646.74347045
4646.787071
4646.80287795
4646.80610824
4646.80463931
4646.80214708
4646.79963408
4646.79741833
4646.79514144
4646.79296783
4646.7910319
4646.78900569
4646.78758197
4646.7857509
4646.78259353
4646.77493302
4646.76178307
4646.74040616
4646.71005399
4646.67077986
4646.62552001
4646.57908374
4646.53568912
4646.49837661
4646.46870569
4646.44696435
4646.43321021
4646.4278208
4646.09411019
4645.92051618
4645.57760352
4645.36063418
4645.27047363
4645.2113744
4645.21484075
4645.35515856
4645.68642643
4646.09480563
4646.42604282
4646.63674753
4646.74484328
4646.79187457
4646.80731965
4646.80913783
4646.80627828
4646.80275212
4646.79976731
4646.79724662
4646.79485446
4646.79267467
4646.79087059
4646.78902046
4646.78774027
4646.78609186
4646.78306665
4646.77553616
4646.76233585
4646.74100271
4646.71059114
4646.67118287
4646.62577048
4646.57919302
4646.53569886
4646.49831434
4646.46860974
4646.44685495
4646.43312092
4646.42779985
4646.04834239
4645.85515305
4645.50296768
4645.30389427
4645.24555519
4645.18078568
4645.14600578
4645.25817702
4645.59005168
4646.02825192
4646.3933008
4646.62621738
4646.74471625
4646.79499927
4646.81050674
4646.81132572
4646.80745553
4646.80312418
4646.79979084
4646.79704612
4646.79458598
4646.79243251
4646.79073308
4646.78903847
4646.78787923
4646.78638218
4646.78346943
4646.77603488
4646.76281048
4646.7414991
4646.71103359
4646.67151297
4646.62597744
4646.57929061
4646.53571401
4646.49828389
4646.46855054
4646.44678499
4646.43306495
4646.42778853
4646.01853227
4645.8129047
4645.45808559
4645.27402846
4645.25045587
4645.18178038
4645.10684473
4645.19478825
4645.5234432
4645.98000215
4646.36881211
4646.61773044
4646.74393956
4646.79681888
4646.81253418
4646.8127341
4646.80819555
4646.80333193
4646.79975099
4646.79686941
4646.79437446
4646.79224971
4646.79062924
4646.78905102
4646.787985
4646.78658199
4646.78376262
4646.77639206
4646.76316347
4646.74186019
4646.71135267
4646.671751
4646.62612954
4646.57937039
4646.53574427
4646.49828044
4646.46852382
4646.44675038
4646.43303903
4646.42778952
4646.00445747
4645.79217593
4645.43730872
4645.26017221
4645.25585139
4645.18536623
4645.08829364
4645.16316664
4645.49002792
4645.95517628
4646.3560806
4646.61321605
4646.74344096
4646.79768648
4646.81353223
4646.81343157
4646.80855404
4646.80342551
4646.79971757
4646.79676769
4646.79425854
4646.79215168
4646.79057255
4646.78905615
4646.78804353
4646.78669826
4646.7839235
4646.77658511
4646.76336366
4646.74206179
4646.71152967
4646.67188556
4646.62622098
4646.5794288
4646.53578786
4646.49829672
4646.46852706
4646.44674889
4646.43304159
4646.4278043
4646.005339
4645.79280079
4645.43755033
4645.25978426
4645.25501096
4645.18453406
4645.08799986
4645.16348096
4645.49078114
4645.95607956
4646.35678518
4646.61365025
4646.74367432
4646.79780011
4646.81358982
4646.81346419
4646.80857751
4646.80344271
4646.79972871
4646.79677329
4646.79425956
4646.79214972
4646.79057071
4646.78905639
4646.78804929
4646.78670915
4646.78393853
4646.7766016
4646.76339594
4646.74209108
4646.71155504
4646.67191117
4646.62624895
4646.57946227
4646.53583294
4646.49833236
4646.4685591
4646.44677989
4646.43307228
4646.42783395
4646.02122618
4645.81488369
4645.45897295
4645.27311716
4645.24819466
4645.17958804
4645.10628817
4645.19588551
4645.52578897
4645.98270305
4646.37089364
4646.61900987
4646.74462494
4646.79715946
4646.81270517
4646.81282796
4646.80826288
4646.8033822
4646.79978383
4646.79688606
4646.79437728
4646.79224414
4646.7906233
4646.78905144
4646.78800237
4646.78661354
4646.78380596
4646.77643801
4646.763262
4646.74194717
4646.71142848
4646.67182764
4646.62621303
4646.57946904
4646.53587407
4646.49838525
4646.46861969
4646.44684345
4646.43313122
4646.42787836
4646.0529822
4645.858799
4645.50503905
4645.30332049
4645.24306944
4645.17841245
4645.14596706
4645.26055764
4645.59420816
4646.03271279
4646.39666718
4646.62827358
4646.74581689
4646.79555097
4646.81078635
4646.81147976
4646.80756491
4646.80320494
4646.79984409
4646.79707277
4646.79458931
4646.79242417
4646.79072372
4646.7890394
4646.78790873
4646.78642825
4646.78353988
4646.77610126
4646.7629795
4646.74164017
4646.71115854
4646.67163997
4646.62611531
4646.57944985
4646.53591314
4646.49845712
4646.46870961
4646.44694068
4646.43321979
4646.42793803
4646.10084424
4645.92624532
4645.58164965
4645.36177533
4645.26984919
4645.21085789
4645.2165328
4645.35947579
4645.69254424
4646.10091749
4646.43054473
4646.63948386
4646.74633393
4646.7926206
4646.80769995
4646.80935339
4646.80642984
4646.80286278
4646.79983994
4646.79728285
4646.79485951
4646.79266457
4646.79085864
4646.78902407
4646.78778313
4646.78615929
4646.78316295
4646.77561706
4646.76257379
4646.74118933
4646.7107627
4646.67135935
4646.62596135
4646.57940848
4646.53595577
4646.49854857
4646.46883093
4646.44707378
4646.43333985
4646.42801095
4646.16207879
4646.01535743
4645.69247666
4645.46160054
4645.34956302
4645.29707071
4645.32921085
4645.49227625
4645.81334338
4646.17901992
4646.4671394
4646.64992308
4646.74525474
4646.78799363
4646.80335367
4646.80639111
4646.80483089
4646.80228746
4646.79972484
4646.79746374
4646.79515088
4646.79295765
4646.79101868
4646.78901408
4646.7876371
4646.78583558
4646.78272067
4646.77505824
4646.76204797
4646.74062664
4646.71026691
4646.67100412
4646.62576236
4646.57935334
4646.53601465
4646.49866686
4646.46898767
4646.44724628
4646.43349404
4646.42809429
4646.22967752
4646.11680487
4645.83151204
4645.60202188
4645.48109978
4645.43425506
4645.48130792
4645.64950667
4645.94226098
4646.25556792
4646.49962368
4646.65642478
4646.74106125
4646.78142082
4646.79776162
4646.8026442
4646.80278008
4646.8014085
4646.7995167
4646.79757359
4646.79540745
4646.79321619
4646.7911921
4646.78902645
4646.78748714
4646.78550276
4646.78226016
4646.77444505
4646.76148279
4646.74000274
4646.70971095
4646.67060177
4646.62553669
4646.57929661
4646.53602267
4646.49881691
4646.46918541
4646.44746263
4646.43368472
4646.42818121
4646.293815
4646.21311603
4645.97798578
4645.7664897
4645.64924189
4645.60653022
4645.65425009
4645.80909769
4646.05856821
4646.31673309
4646.52070953
4646.65636312
4646.73329042
4646.77296557
4646.7911621
4646.79835719
4646.80040383
4646.80031676
4646.79918834
4646.79758678
4646.79560667
4646.79345494
4646.79137832
4646.78908836
4646.78735559
4646.78520416
4646.78184164
4646.77398934
4646.7608006
4646.73937265
4646.70914627
4646.67019025
4646.62531145
4646.57926061
4646.53612716
4646.4990095
4646.46943001
4646.44772629
4646.43391326
4646.42826194
4646.34322345
4646.28168784
4646.09574536
4645.91780893
4645.81619027
4645.77621998
4645.81165859
4645.93695302
4646.13845427
4646.35025477
4646.52533039
4646.64742525
4646.72187612
4646.76315833
4646.78413836
4646.79397391
4646.79796877
4646.79916464
4646.79881942
4646.79750583
4646.79575661
4646.7936965
4646.79159846
4646.78923053
4646.78726461
4646.78498357
4646.7815142
4646.77357098
4646.7602628
4646.738823
4646.70863602
4646.66981883
4646.62512055
4646.57924599
4646.53628709
4646.49924571
4646.46971857
4646.44803273
4646.43417671
4646.42832945
4646.37158368
4646.30988785
4646.15295539
4646.00539261
4645.91951796
4645.88158017
4645.90356684
4646.00171209
4646.17057344
4646.35542107
4646.51611344
4646.63418063
4646.70976882
4646.75398716
4646.77805512
4646.79028966
4646.7959387
4646.79818885
4646.79846982
4646.79745666
4646.79591421
4646.79393257
4646.79182651
4646.78941159
4646.78725923
4646.7848794
4646.78131797
4646.77331958
4646.75988736
4646.73842375
4646.7082523
4646.66954928
4646.62499837
4646.57932123
4646.53649087
4646.49951396
4646.47002264
4646.44834326
4646.43443567
4646.42834355
4646.35431637
4646.27172115
4646.10680293
4645.96296226
4645.87719514
4645.8408317
4645.86495996
4645.96434732
4646.13361121
4646.3236676
4646.49223359
4646.61772045
4646.6992612
4646.74774252
4646.7745172
4646.78838454
4646.79498599
4646.79780173
4646.79841206
4646.79756243
4646.79616351
4646.79421686
4646.79210101
4646.78966282
4646.78742178
4646.78494933
4646.78132629
4646.77329453
4646.75974081
4646.73826677
4646.70807574
4646.66945416
4646.62501568
4646.57948524
4646.53674225
4646.49981522
4646.47034686
4646.44868181
4646.43472684
4646.42841041
4156.70438902
4156.59825572
4156.42136083
4156.2710197
4156.18444715
4156.14925351
4156.17585671
4156.27967266
4156.45657561
4156.65898545
4156.84171589
4156.97928477
4157.0696325
4157.1236035
4157.15343152
4157.16896029
4157.1765364
4157.17999822
4157.1810813
4157.1806506
4157.17939835
4157.17746738
4157.17530573
4157.17274741
4157.1705364
4157.16827885
4157.16497323
4157.15722037
4157.14417556
4157.12271271
4157.0923503
4157.05307046
4157.00774831
4156.96133778
4156.91794435
4156.88068217
4156.85112162
4156.82951797
4156.81563738
4156.80941117
4156.70346166
4156.61344629
4156.45587991
4156.31682208
4156.23941213
4156.20553838
4156.2262688
4156.31845629
4156.48049412
4156.66998809
4156.84562724
4156.97937455
4157.06787782
4157.12145539
4157.15145618
4157.16731261
4157.17522344
4157.17895804
4157.18026744
4157.17999244
4157.17890862
4157.17709564
4157.17501146
4157.17250585
4157.17038735
4157.16815842
4157.16481669
4157.15711165
4157.14402477
4157.12256075
4157.09213592
4157.05278631
4157.00743489
4156.96101907
4156.91763204
4156.88040228
4156.8508946
4156.82932797
4156.81548315
4156.80940617
4156.66371655
4156.5599892
4156.38023385
4156.22368315
4156.13856764
4156.10453528
4156.13405646
4156.24190627
4156.42451358
4156.63551151
4156.82821077
4156.97285253
4157.0667019
4157.12210725
4157.15239118
4157.16790651
4157.17537273
4157.1787664
4157.17989797
4157.17958876
4157.17843891
4157.17672867
4157.17473213
4157.17231206
4157.17037064
4157.16820584
4157.16482843
4157.15720365
4157.14423386
4157.12270558
4157.09219967
4157.05273873
4157.00729406
4156.96080593
4156.9173913
4156.88015914
4156.85067713
4156.82914686
4156.81535484
4156.80941813
4156.60385494
4156.47922732
4156.26824753
4156.09677461
4156.0068941
4155.9713143
4156.00487078
4156.1252511
4156.33441649
4156.57900342
4156.79990114
4156.96305024
4157.06599158
4157.12449299
4157.15499395
4157.16977327
4157.17634566
4157.17903519
4157.17973129
4157.17929058
4157.17803632
4157.17637199
4157.17447851
4157.17217219
4157.17044808
4157.1683901
4157.16514846
4157.15749708
4157.14460791
4157.12301493
4157.09241688
4157.05281914
4157.00724863
4156.96060659
4156.91717158
4156.87991612
4156.85043363
4156.82892157
4156.81518179
4156.80939381
4156.5345853
4156.3937178
4156.16428729
4156.0045316
4155.92923963
4155.8908012
4155.91029192
4156.01503074
4156.23426325
4156.51007494
4156.76283249
4156.9484402
4157.06309398
4157.12632343
4157.15765239
4157.17180512
4157.17746713
4157.17938259
4157.17959577
4157.17896716
4157.17763775
4157.1760093
4157.17425401
4157.17211164
4157.17056802
4157.16866598
4157.16552923
4157.1579188
4157.14506539
4157.12341677
4157.09272
4157.05297422
4157.00726436
4156.96049663
4156.91696144
4156.87970443
4156.85021393
4156.8287138
4156.81502425
4156.80936613
4156.46510536
4156.31428291
4156.08772727
4155.95716524
4155.90916533
4155.86692619
4155.85817385
4155.92690866
4156.13644703
4156.43618418
4156.72064327
4156.93033256
4157.05823679
4157.12713695
4157.1599269
4157.17363654
4157.1784998
4157.17969475
4157.17945294
4157.17862618
4157.17724295
4157.17567727
4157.17406718
4157.17212127
4157.17074201
4157.16899669
4157.16597504
4157.15846511
4157.14552544
4157.12387372
4157.09307777
4157.05318463
4157.00733605
4156.96044576
4156.91664594
4156.87954547
4156.85005254
4156.82856042
4156.81491299
4156.80934733
4156.40339567
4156.24779659
4156.03930685
4155.94649453
4155.93343124
4155.88668851
4155.84191943
4155.86292463
4156.05114672
4156.36571608
4156.67874415
4156.91133412
4157.05227201
4157.12706799
4157.16161939
4157.17515466
4157.17933275
4157.17992194
4157.17930265
4157.1782949
4157.17687457
4157.17540223
4157.17391986
4157.17217577
4157.17094559
4157.16935559
4157.16643861
4157.15903488
4157.14596814
4157.12433433
4157.09344738
4157.05341904
4157.00744295
4156.9604544
4156.91666027
4156.87945604
4156.84995293
4156.8284653
4156.81484927
4156.80934051
4156.35603383
4156.19783863
4156.01379068
4155.95623807
4155.97345908
4155.92144385
4155.84582153
4155.81920691
4155.98272442
4156.30610245
4156.64251907
4156.89433551
4157.04653648
4157.12651658
4157.1627383
4157.17631871
4157.17992254
4157.18002865
4157.17918247
4157.17800732
4157.17656379
4157.1751715
4157.17380855
4157.17224556
4157.17114231
4157.16969437
4157.16685279
4157.1595268
4157.14637624
4157.1247461
4157.09378127
4157.05364036
4157.00755824
4156.96048995
4156.91663828
4156.87941432
4156.84990461
4156.82841944
4156.81482407
4156.8093456
4156.32527738
4156.1648115
4156.00083461
4155.96677446
4155.99687452
4155.94092801
4155.85046238
4155.7897348
4155.93568383
4156.26322243
4156.6162427
4156.8817725
4157.04212023
4157.12590729
4157.16339931
4157.17708063
4157.18033157
4157.18008791
4157.1790684
4157.17779732
4157.17633512
4157.1750023
4157.17373434
4157.17230608
4157.17129952
4157.16995755
4157.1671651
4157.15988913
4157.14669715
4157.12506167
4157.09403834
4157.05381724
4157.00765969
4156.96053866
4156.91665344
4156.8794111
4156.8498945
4156.82841011
4156.81482631
4156.80936012
4156.31062586
4156.14807437
4155.9938834
4155.97050431
4156.00583629
4155.94774032
4155.84937686
4155.77332059
4155.91211562
4156.24110624
4156.60274128
4156.87530676
4157.03984367
4157.12558305
4157.16373183
4157.17746511
4157.18056038
4157.18011982
4157.17900773
4157.17768658
4157.17621321
4157.17491306
4157.1736964
4157.17234073
4157.17138737
4157.17009743
4157.1673392
4157.16008869
4157.14688728
4157.12524516
4157.09418939
4157.05392682
4157.00773144
4156.96058778
4156.91670546
4156.87943332
4156.84991122
4156.82842628
4156.81484669
4156.80938297
4156.31148206
4156.14852359
4155.99386728
4155.96975978
4156.00478345
4155.94670957
4155.84881208
4155.77326291
4155.91248474
4156.24182693
4156.60340078
4156.87576269
4157.04010851
4157.12572015
4157.16380567
4157.17750763
4157.18058461
4157.18013764
4157.17902038
4157.17769257
4157.17621295
4157.17491115
4157.17369319
4157.17234002
4157.17139326
4157.17010965
4157.16735626
4157.16010636
4157.14692437
4157.12527803
4157.09421881
4157.05395741
4157.00776448
4156.96062661
4156.91676247
4156.87947335
4156.8499477
4156.82846146
4156.81488024
4156.80941336
4156.32790546
4156.16625985
4156.00085888
4155.96464937
4155.99392786
4155.93805855
4155.8487159
4155.78969765
4155.93698851
4156.26541829
4156.61820913
4156.88311796
4157.04290091
4157.12632097
4157.16361856
4157.17720957
4157.18041411
4157.18014417
4157.17910672
4157.17781596
4157.17633564
4157.17499675
4157.1737256
4157.17230345
4157.17131687
4157.1699932
4157.16721474
4157.15993552
4157.14681244
4157.12515943
4157.09412586
4157.0539083
4157.00775778
4156.96065262
4156.91681744
4156.87952834
4156.850003
4156.82851523
4156.8149269
4156.809451
4156.36060119
4156.20064782
4156.01429468
4155.95361576
4155.96962908
4155.91772191
4155.84376385
4155.8197846
4155.98543445
4156.30986377
4156.64575841
4156.89652219
4157.04779927
4157.1271859
4157.16309416
4157.17653146
4157.18005887
4157.18012523
4157.17924583
4157.17803688
4157.1765673
4157.17516255
4157.17379405
4157.17224158
4157.17117141
4157.16975312
4157.16692932
4157.15957871
4157.14658422
4157.12490568
4157.09392384
4157.05378945
4157.00771841
4156.96067106
4156.91687437
4156.87960315
4156.85008219
4156.82859274
4156.81499127
4156.80949766
4156.41010177
4156.25251286
4156.04127983
4155.94495851
4155.92993145
4155.88337755
4155.84097987
4155.86502309
4156.05584686
4156.37112544
4156.68318359
4156.91428012
4157.05397094
4157.12797292
4157.16210734
4157.17544584
4157.17951406
4157.18005484
4157.17938891
4157.17833506
4157.17688089
4157.17538854
4157.17389802
4157.1721703
4157.17098362
4157.16942734
4157.1665381
4157.15905752
4157.14628843
4157.12454673
4157.09363921
4157.05362148
4157.00765973
4156.96069263
4156.91692823
4156.87970427
4156.85019461
4156.8287031
4156.81508056
4156.80955222
4156.47399652
4156.32132078
4156.09211233
4155.9579916
4155.90804214
4155.8659856
4155.85961013
4155.93128986
4156.14332922
4156.44321879
4156.72615947
4156.93393352
4157.06030265
4157.12825277
4157.16054229
4157.17398285
4157.17872658
4157.17985892
4157.17956064
4157.17867717
4157.17724875
4157.17565608
4157.17403606
4157.17211379
4157.17078472
4157.16907702
4157.16609979
4157.15857912
4157.14581681
4157.12411663
4157.09330996
4157.05343336
4157.00760215
4156.9607339
4156.91698561
4156.87984487
4156.85035087
4156.8288561
4156.81520315
4156.80961542
4156.54550693
4156.40328519
4156.17190862
4156.0089161
4155.93180562
4155.89351328
4155.91512461
4156.02224341
4156.2432388
4156.51855792
4156.76924399
4156.95256366
4157.06547552
4157.1276291
4157.15836996
4157.17220384
4157.17773095
4157.17957402
4157.1797194
4157.17902467
4157.17764273
4157.17598212
4157.17421348
4157.1721008
4157.17060747
4157.16875346
4157.16567922
4157.15813932
4157.14528179
4157.12367113
4157.09298023
4157.05325884
4157.00756915
4156.96082212
4156.91730043
4156.88004211
4156.8505579
4156.82905674
4156.81536437
4156.80968395
4156.61648144
4156.49119858
4156.27911167
4156.10530792
4156.01382611
4155.97839474
4156.01366763
4156.1354206
4156.34529522
4156.5886406
4156.80697129
4156.96757154
4157.06862909
4157.12595136
4157.15576395
4157.17022111
4157.17663822
4157.1792434
4157.17986315
4157.1793464
4157.1780376
4157.17633421
4157.17442804
4157.17215573
4157.17047095
4157.16847493
4157.16532014
4157.15770054
4157.14484205
4157.1232709
4157.09269367
4157.05312652
4157.00757649
4156.96095371
4156.91753173
4156.88027924
4156.85080811
4156.82929667
4156.8155556
4156.80974851
4156.67760104
4156.57386991
4156.39385308
4156.23566875
4156.14957371
4156.11537053
4156.1458587
4156.25442521
4156.43682564
4156.64591906
4156.83569428
4156.97762823
4157.06950354
4157.12363233
4157.15321433
4157.16838161
4157.17567894
4157.17897771
4157.18002365
4157.17963124
4157.17843873
4157.17667869
4157.174667
4157.17229379
4157.17036232
4157.16827897
4157.16505442
4157.15732611
4157.14453184
4157.12296214
4157.09248171
4157.05305333
4157.00762727
4156.96115907
4156.91775728
4156.88052972
4156.85106169
4156.82953272
4156.81573825
4156.80978695
4156.71810854
4156.6284656
4156.47129622
4156.331078
4156.25299082
4156.2187488
4156.24000832
4156.33240748
4156.49358532
4156.68076511
4156.85329293
4156.98426311
4157.07074715
4157.12303013
4157.15230089
4157.16780471
4157.17553768
4157.17917282
4157.18039265
4157.18003202
4157.17889501
4157.17704261
4157.17494151
4157.17247573
4157.17037195
4157.16821195
4157.1649556
4157.15724206
4157.14427429
4157.12281578
4157.09242093
4157.05310262
4157.00776813
4156.96137354
4156.91799978
4156.88077633
4156.851286
4156.8297227
4156.81587309
4156.80976858
4156.71932179
4156.61361515
4156.4375491
4156.28622388
4156.19913541
4156.16346931
4156.19037753
4156.29415511
4156.46993745
4156.66982657
4156.84937134
4156.98416564
4157.07249654
4157.12519428
4157.1543007
4157.16948083
4157.176877
4157.18023434
4157.18122066
4157.18070629
4157.1793925
4157.17742375
4157.17523645
4157.17271313
4157.17052484
4157.16832899
4157.16509835
4157.15742994
4157.1443147
4157.1229902
4157.09264156
4157.05338024
4157.00808835
4156.96167771
4156.91829033
4156.88103617
4156.85149512
4156.82989325
4156.81599932
4156.8097349
3667.12082014
3666.99565645
3666.81072146
3666.64851568
3666.55695325
3666.52220005
3666.5556737
3666.66650182
3666.84684588
3667.04889849
3667.22940531
3667.36478526
3667.45368055
3667.50667014
3667.5360161
3667.55146959
3667.55920788
3667.56298829
3667.5643681
3667.56416397
3667.56290438
3667.56086698
3667.55851386
3667.55564991
3667.55352502
3667.55184601
3667.54948961
3667.54267186
3667.53031347
3667.5093615
3667.47882962
3667.43834891
3667.3910502
3667.34272004
3667.29790473
3667.25990636
3667.23017286
3667.20866835
3667.1949191
3667.18871604
3667.11513924
3667.01702526
3666.86571077
3666.72884856
3666.65420039
3666.62228225
3666.6458291
3666.73519181
3666.88681319
3667.06561154
3667.23340942
3667.36237529
3667.44891006
3667.50193099
3667.53216588
3667.54858844
3667.55714001
3667.56151665
3667.56333809
3667.56343066
3667.56240159
3667.5605275
3667.5582924
3667.55549105
3667.55344455
3667.55177656
3667.54936625
3667.54252642
3667.53010973
3667.50907186
3667.47847298
3667.4379323
3667.39064242
3667.3423425
3667.29758394
3667.25964803
3667.22998955
3667.20852318
3667.19477476
3667.18872843
3667.06985281
3666.95544315
3666.77261494
3666.61492389
3666.53486184
3666.50393042
3666.53693222
3666.64419052
3666.81935946
3667.01949531
3667.20507367
3667.34713441
3667.44129297
3667.49832535
3667.53038702
3667.5474802
3667.55622114
3667.56065345
3667.56254189
3667.56277095
3667.56188009
3667.56011821
3667.55802513
3667.5553328
3667.55345981
3667.55184864
3667.54949792
3667.54247377
3667.5302984
3667.50910782
3667.47842087
3667.43777426
3667.39041229
3667.34209067
3667.29734507
3667.25944527
3667.22983985
3667.20840753
3667.19469646
3667.18877275
3667.0035316
3666.85913413
3666.6274284
3666.44957828
3666.37057327
3666.33762478
3666.37400424
3666.49436041
3666.70285698
3666.94170279
3667.15997542
3667.32561709
3667.43300503
3667.49605024
3667.53019755
3667.54764051
3667.55611001
3667.5602044
3667.56191764
3667.56213281
3667.5612656
3667.55966114
3667.55774283
3667.5552365
3667.55354417
3667.55206558
3667.54970146
3667.54289064
3667.5304866
3667.50934737
3667.47854089
3667.43774067
3667.39027136
3667.34187536
3667.29713292
3667.25924055
3667.22965853
3667.20824426
3667.19457302
3667.188755
3666.93074103
3666.76305558
3666.49601086
3666.26431988
3666.22683922
3666.19314122
3666.27842066
3666.3587906
3666.58476278
3666.85823995
3667.10969772
3667.30111284
3667.42352706
3667.49371438
3667.53028431
3667.54806623
3667.55619152
3667.55984388
3667.56130556
3667.56147
3667.56062652
3667.5591826
3667.55747473
3667.55520084
3667.55368849
3667.55238968
3667.55008022
3667.54337369
3667.53086215
3667.50968551
3667.47873955
3667.43776582
3667.3901684
3667.34168114
3667.29693942
3667.25903207
3667.22945954
3667.2080611
3667.19443408
3667.18871765
3666.85895601
3666.67740535
3666.30342637
3665.93898292
3666.06123308
3666.0293046
3666.29856583
3666.30676297
3666.47968154
3666.77791861
3667.05895422
3667.2754537
3667.41318753
3667.49091904
3667.53027349
3667.54843176
3667.55626824
3667.55948591
3667.5607031
3667.56080708
3667.56000577
3667.55872576
3667.55724036
3667.55521915
3667.55389421
3667.55277533
3667.55054016
3667.54390192
3667.53132892
3667.5100899
3667.47900144
3667.43784953
3667.39011645
3667.34154718
3667.29686363
3667.25886159
3667.22929609
3667.20791296
3667.19432752
3667.18868964
3666.79454721
3666.60720463
3666.02924111
3665.63779293
3665.9894711
3665.95693863
3666.41919571
3666.40171436
3666.39244394
3666.70639996
3667.0120755
3667.25094942
3667.40289983
3667.48785425
3667.53001383
3667.54868363
3667.55626723
3667.5591402
3667.56014314
3667.56018202
3667.55943647
3667.55832356
3667.55704632
3667.55528014
3667.55414083
3667.55317495
3667.55103271
3667.54442914
3667.53180051
3667.51051638
3667.47929495
3667.43797708
3667.39011089
3667.34145989
3667.29657035
3667.25873348
3667.22918718
3667.20781863
3667.19426692
3667.18868026
3666.74521139
3666.5566394
3665.83472778
3665.53471232
3666.04073552
3666.00315478
3666.53927433
3666.53147697
3666.32687492
3666.64877097
3666.97331323
3667.23016181
3667.39390244
3667.48496913
3667.52959644
3667.54882339
3667.55621223
3667.55881085
3667.55966662
3667.55965582
3667.55896344
3667.55798335
3667.5568984
3667.55535809
3667.55437117
3667.55353589
3667.55147799
3667.54490364
3667.53223142
3667.51090716
3667.47957453
3667.43811824
3667.39013662
3667.34141929
3667.29635729
3667.25865843
3667.22913101
3667.2077746
3667.1942467
3667.18868852
3666.71368184
3666.52761664
3665.78301263
3665.5445664
3666.11679354
3666.07398748
3666.60184531
3666.56994924
3666.28459041
3666.60881551
3666.94598895
3667.2152533
3667.38732587
3667.48276539
3667.5291771
3667.54891084
3667.55615971
3667.5585595
3667.55931847
3667.55927735
3667.55862493
3667.55774381
3667.55679951
3667.55542781
3667.55456298
3667.55381286
3667.55181485
3667.54526579
3667.53256755
3667.51121227
3667.47979814
3667.43824365
3667.39017791
3667.34141928
3667.29632548
3667.25863545
3667.22911707
3667.20776864
3667.19425463
3667.18870722
3666.69887697
3666.5146227
3665.77921409
3665.5544315
3666.14316991
3666.09788112
3666.61016914
3666.56000514
3666.26408122
3666.58868024
3666.93217881
3667.20768573
3667.3839752
3667.48163483
3667.52895896
3667.54895604
3667.55615064
3667.5584321
3667.55914545
3667.55908122
3667.5584503
3667.55761967
3667.55674899
3667.55546706
3667.5546692
3667.55396805
3667.55200484
3667.54547067
3667.53276737
3667.51139276
3667.47993507
3667.43832964
3667.39022035
3667.34144682
3667.29642295
3667.25865254
3667.22913367
3667.20778852
3667.19427953
3667.18873327
3666.69975642
3666.51484731
3665.77815405
3665.55255162
3666.14238021
3666.09714816
3666.61114839
3666.56106428
3666.26431792
3666.58936314
3666.9328549
3667.20816187
3667.38425142
3667.48177374
3667.52903805
3667.54900266
3667.55618179
3667.5584528
3667.55916019
3667.5590881
3667.5584497
3667.55761655
3667.55674428
3667.55546448
3667.55467497
3667.55398376
3667.55202698
3667.54549651
3667.53280452
3667.51142737
3667.47996711
3667.43836352
3667.39025592
3667.34148854
3667.29651743
3667.25869623
3667.22917284
3667.2078261
3667.19431474
3667.18876419
3666.71638826
3666.52846323
3665.7799686
3665.53908689
3666.1144141
3666.07181392
3666.60498406
3666.57333558
3666.28550052
3666.6109217
3666.94801038
3667.21665923
3667.38813879
3667.48319982
3667.52940962
3667.54905175
3667.55625192
3667.5586252
3667.55936197
3667.55929674
3667.55862471
3667.55773474
3667.55678606
3667.55542064
3667.55457917
3667.55385669
3667.55187794
3667.54533969
3667.53268014
3667.51131633
3667.47989442
3667.43834477
3667.39028415
3667.34154224
3667.29660778
3667.25876249
3667.22923303
3667.20788057
3667.1943594
3667.18879875
3666.74993749
3666.55867244
3665.85899838
3665.597904
3666.12219976
3666.08183075
3666.61023885
3666.5619998
3666.32907623
3666.65246281
3666.97665755
3667.23244376
3667.39521436
3667.4856607
3667.52996857
3667.54905279
3667.55636257
3667.55891827
3667.55973741