/*--------------------------------*- C++ -*----------------------------------*\
| =========                 |                                                 |
| \\      /  F ield         | OpenFOAM: The Open Source CFD Toolbox           |
|  \\    /   O peration     | Version:  3.0.1                                 |
|   \\  /    A nd           | Web:      www.OpenFOAM.org                      |
|    \\/     M anipulation  |                                                 |
\*---------------------------------------------------------------------------*/
FoamFile
{
    version     2.0;
    format      ascii;
    class       volVectorField;
    location    "4.4";
    object      U_0;
}
// * * * * * * * * * * * * * * * * * * * * * * * * * * * * * * * * * * * * * //

dimensions      [0 1 -1 0 0 0 0];

internalField   nonuniform List<vector> 
15984
(
(0.00185453485459 0.000316986942684 -0.00123029522515)
(0.0054387406399 0.000170395980264 -0.000979000792816)
(0.00742334675445 0.000778138767277 -0.000793570242421)
(0.00587957052718 0.00150033487111 -0.000627828123298)
(0.00191927540256 0.00195319432608 -0.000585113335009)
(-0.00294393659827 0.00199130552386 -0.000522129563864)
(-0.00758623826611 0.00158136947169 -0.000442664716502)
(-0.0103491087271 0.000863587643526 -0.000375495345778)
(-0.0107608407405 0.00015325734229 -0.000306948043768)
(-0.00911367614575 -0.000348721474757 -0.000228169049656)
(-0.00689335327656 -0.000458374564029 -0.000154643951472)
(-0.00478668708542 -0.000408590400418 -0.000106875737322)
(-0.00312757002075 -0.00031138619489 -7.10961626275e-05)
(-0.00196071180426 -0.000214550721341 -4.86859816718e-05)
(-0.00118262132802 -0.000140509694517 -3.42532933338e-05)
(-0.000680740165273 -9.00261042634e-05 -2.31840133378e-05)
(-0.000365072041877 -5.80641426743e-05 -1.3416626958e-05)
(-0.000172261935214 -3.77946312574e-05 -5.79205183189e-06)
(-5.90265976067e-05 -2.53668066152e-05 4.04990506247e-07)
(4.40464397626e-07 -1.78532421699e-05 5.16497705244e-06)
(2.50702454905e-05 -1.32609072407e-05 7.98232463811e-06)
(2.94848300086e-05 -1.03344584568e-05 9.38148337014e-06)
(2.35794748209e-05 -8.57662635117e-06 1.00668337567e-05)
(9.66671919244e-06 -7.53370037455e-06 1.06924014917e-05)
(-7.58268827938e-06 -7.26039677799e-06 1.01922631724e-05)
(-1.8156790528e-05 -7.47041596025e-06 8.24071418777e-06)
(-1.61932143335e-05 -8.08175070758e-06 5.62109004222e-06)
(-5.77966812873e-06 -8.75215418015e-06 4.45779713209e-06)
(1.11518241508e-05 -9.54493145908e-06 3.0568579028e-06)
(3.71669952486e-05 -1.05276924883e-05 1.2013992e-06)
(7.42838571384e-05 -1.11043371374e-05 -4.95879002157e-07)
(0.000116864110145 -1.09368139024e-05 -6.23123577235e-08)
(0.00014908593521 -9.76080199333e-06 2.9761685372e-06)
(0.000163903359472 -8.14295221886e-06 5.42071741434e-06)
(0.000164053771237 -6.48846814127e-06 7.25382055764e-06)
(0.000153995420606 -5.01143597116e-06 8.37697737097e-06)
(0.000136152168022 -3.37657724865e-06 8.78340471488e-06)
(0.000110250858609 -2.01975815501e-06 1.0448877402e-05)
(7.3860712922e-05 -2.34614546875e-06 1.34387587571e-05)
(3.17107626246e-05 -5.75037813095e-06 1.976079243e-05)
(0.00154279576493 0.0019034882057 -0.00215713742085)
(0.00569528917044 0.00248550447781 -0.00303190795664)
(0.00789302182071 0.00465990494582 -0.003308451502)
(0.00626717934468 0.00673246709246 -0.00328957198916)
(0.0020726228616 0.00790644340288 -0.0033101493045)
(-0.0030211249087 0.00796324050672 -0.0032136512387)
(-0.00786303300234 0.00686071287044 -0.00299972468102)
(-0.0108195793638 0.0048206934877 -0.00271852755241)
(-0.0110958791522 0.0024212607882 -0.00224529258753)
(-0.00925526800166 0.000640273687056 -0.00164573566962)
(-0.00686567227363 -0.000231032619845 -0.00107647041425)
(-0.00470017106527 -0.00051425495508 -0.000644266028095)
(-0.00304078219961 -0.000508983802574 -0.000368463837677)
(-0.00189367271173 -0.000401327655353 -0.000203583284238)
(-0.00113861357374 -0.000282859136227 -0.000114243836765)
(-0.000654475859635 -0.000188529998043 -6.57246159951e-05)
(-0.0003503620969 -0.000123535202145 -3.71797533237e-05)
(-0.000164410435619 -8.13055196034e-05 -1.95189023003e-05)
(-5.53100608647e-05 -5.51903856253e-05 -7.64486358627e-06)
(1.75586160122e-06 -3.90922728286e-05 5.48084368455e-07)
(2.51115696186e-05 -2.92433914094e-05 5.29453969352e-06)
(2.89523754442e-05 -2.29280631047e-05 7.55004243423e-06)
(2.27494130274e-05 -1.92127043499e-05 9.09446781892e-06)
(8.40854192652e-06 -1.73579672276e-05 1.06584671795e-05)
(-9.64842931261e-06 -1.67322601272e-05 1.06442298847e-05)
(-2.08544709832e-05 -1.75904045744e-05 8.33158502056e-06)
(-1.8782201871e-05 -1.91403874347e-05 5.3750602582e-06)
(-8.07683599531e-06 -2.08516494523e-05 4.13980113048e-06)
(8.84559353684e-06 -2.27267212664e-05 2.46603498004e-06)
(3.53516589452e-05 -2.48050873382e-05 -9.51890478747e-08)
(7.41077251259e-05 -2.59740556162e-05 -2.86996072894e-06)
(0.000119205689384 -2.54395766017e-05 -2.6056161875e-06)
(0.000153452053717 -2.30958617462e-05 1.68349202415e-06)
(0.000169060388671 -2.00482980881e-05 5.74584802203e-06)
(0.000169160569883 -1.66334593268e-05 8.82882991243e-06)
(0.000158696756289 -1.35779386038e-05 1.0998822662e-05)
(0.000140245852776 -1.03707883275e-05 1.24782357083e-05)
(0.000113161846993 -7.80523047525e-06 1.54825523832e-05)
(7.45038805255e-05 -8.26540792858e-06 1.91174272005e-05)
(2.84817868675e-05 -1.38982943095e-05 2.10698179114e-05)
(0.0016937019758 0.00422727052687 -0.00230526465469)
(0.00660195441605 0.00604279080163 -0.00354709378775)
(0.00903396200347 0.00987475612039 -0.00354963674678)
(0.00707222210416 0.0133045186761 -0.00327364370683)
(0.00237036426482 0.0151577145476 -0.00319880547276)
(-0.00323600044179 0.0152122295625 -0.00309195925159)
(-0.00856226514421 0.0133832129223 -0.00293566330612)
(-0.0118584350348 0.00994366487572 -0.00283713549178)
(-0.0120290333664 0.00583287710841 -0.00259479273807)
(-0.00984884629422 0.00257465568979 -0.00208113826892)
(-0.00709824031772 0.000680777774299 -0.00143263593772)
(-0.0047110138204 -0.000190277182984 -0.000880529337318)
(-0.00296066235986 -0.00045118317678 -0.000504714266164)
(-0.00179584310419 -0.000443987890162 -0.000281291813274)
(-0.00105444148281 -0.000346602533451 -0.0001550705382)
(-0.000592833624324 -0.000243452635427 -8.78824574953e-05)
(-0.000308728279039 -0.000163646704561 -5.06551645394e-05)
(-0.000137309892592 -0.000109313101368 -2.86992197232e-05)
(-3.76982465017e-05 -7.50428342999e-05 -1.43772958117e-05)
(1.34110924797e-05 -5.34553085463e-05 -4.99969981699e-06)
(3.31419674499e-05 -4.00614338087e-05 7.95404292016e-07)
(3.48008366582e-05 -3.14758420146e-05 3.53475860306e-06)
(2.6997813542e-05 -2.65197917858e-05 5.48066925702e-06)
(1.14864719886e-05 -2.43718189221e-05 7.30319935285e-06)
(-7.76209042405e-06 -2.37302365317e-05 7.27892738236e-06)
(-1.997594886e-05 -2.51629284657e-05 4.89380054806e-06)
(-1.82470554645e-05 -2.75651354939e-05 1.69307392258e-06)
(-7.78840881652e-06 -3.01846780593e-05 4.69336622876e-07)
(8.75846159567e-06 -3.30082620863e-05 -1.31904206375e-06)
(3.52694759017e-05 -3.55938627828e-05 -4.5360577197e-06)
(7.48612854803e-05 -3.69370594369e-05 -7.82273428008e-06)
(0.000121314925446 -3.60210720328e-05 -7.56376607061e-06)
(0.000156344648248 -3.3252578782e-05 -2.78706403854e-06)
(0.000172106977283 -2.98585137532e-05 2.22712978756e-06)
(0.000171944543586 -2.57964746846e-05 5.83776721941e-06)
(0.000160904722488 -2.20105519788e-05 8.39948238189e-06)
(0.000141811723674 -1.84185655974e-05 1.05645318678e-05)
(0.000113506701237 -1.5708775893e-05 1.42185744361e-05)
(7.25546892284e-05 -1.63710658596e-05 1.74974983186e-05)
(2.6456668702e-05 -2.14964250376e-05 1.57267980845e-05)
(0.00225132806743 0.00600739953353 -0.0022557825116)
(0.00827760151086 0.00880773221454 -0.0032509401007)
(0.0109542595379 0.0138460390981 -0.00251301216813)
(0.00842339869474 0.0181774918105 -0.00163282447502)
(0.00285217232689 0.0204832039183 -0.00131584342888)
(-0.00363880621894 0.0205376241097 -0.00120525672193)
(-0.00981194196094 0.0182022394761 -0.00127848439036)
(-0.0136525456021 0.0137848275593 -0.00171045498739)
(-0.0137458011384 0.00843708144256 -0.00209567494307)
(-0.0110315099442 0.00411017901117 -0.00201005694658)
(-0.00770882420214 0.0014815437484 -0.00151957367959)
(-0.00493002283562 0.000164475176608 -0.000983853822747)
(-0.00297333241896 -0.000325701268935 -0.000584922084625)
(-0.00173345115116 -0.000417757799794 -0.000332802565306)
(-0.000979202417774 -0.000356660258101 -0.000186409899519)
(-0.000529751150269 -0.000260482784378 -0.000105259179784)
(-0.000263434721273 -0.000177676693849 -6.10918185927e-05)
(-0.000107161721488 -0.000118943359111 -3.57465719769e-05)
(-1.81098616708e-05 -8.12840342938e-05 -1.99940538071e-05)
(2.63758236497e-05 -5.76308420623e-05 -9.82727147572e-06)
(4.19546003964e-05 -4.2431666339e-05 -3.32153381617e-06)
(4.09246646789e-05 -3.2846024098e-05 1.21502881977e-07)
(3.11364304494e-05 -2.73643741113e-05 2.19421422471e-06)
(1.423027698e-05 -2.52622374827e-05 4.1188886804e-06)
(-6.26244942457e-06 -2.48418661525e-05 4.14595194428e-06)
(-1.95710493461e-05 -2.66678981307e-05 1.513713245e-06)
(-1.83025662139e-05 -2.97232231693e-05 -1.97773881973e-06)
(-8.085590292e-06 -3.30755152371e-05 -3.43156344311e-06)
(8.25185634777e-06 -3.65339557781e-05 -5.57430476157e-06)
(3.49975175436e-05 -3.94227688471e-05 -9.37777159043e-06)
(7.5516922719e-05 -4.06917905185e-05 -1.28863341075e-05)
(0.000123161803584 -3.94967739962e-05 -1.25508823961e-05)
(0.000158877689772 -3.66029785547e-05 -7.49573491178e-06)
(0.000174819939115 -3.29361912828e-05 -2.01907995377e-06)
(0.000174496022256 -2.87125725931e-05 2.04769104204e-06)
(0.000163070326504 -2.45749098683e-05 4.82670414977e-06)
(0.000143474940473 -2.07801608706e-05 7.41874375674e-06)
(0.000114125937618 -1.78842251015e-05 1.13936367519e-05)
(7.15285096452e-05 -1.80619194827e-05 1.43241508596e-05)
(2.56424008119e-05 -2.08486594221e-05 1.17075669337e-05)
(0.00310272245047 0.00710180335538 -0.00221966993279)
(0.0104645684926 0.0104086552937 -0.00269402375226)
(0.0133904932673 0.0159984683825 -0.000986632755411)
(0.0101632319623 0.0206362507518 0.000673393065187)
(0.00348704911453 0.0231041342493 0.00135858081915)
(-0.00420373109204 0.0231600345009 0.00146585784053)
(-0.0114583805195 0.0205937926246 0.00101107708711)
(-0.0159349733565 0.0157900405399 -0.000140126238198)
(-0.0159629749849 0.00989356029122 -0.00133672999181)
(-0.0126181170369 0.00506487013897 -0.00179749121237)
(-0.00860114933602 0.00205548449407 -0.00153308669863)
(-0.00532231621444 0.000476391647203 -0.00105813766327)
(-0.00308064946521 -0.000174981641063 -0.000649495610898)
(-0.00171506037316 -0.000349049672823 -0.000374213570523)
(-0.000922812546634 -0.000326345457682 -0.000211961102367)
(-0.000473614489088 -0.000247538844915 -0.000118824524139)
(-0.000220357242001 -0.000170787534618 -6.81231387937e-05)
(-7.77842108128e-05 -0.000114305102788 -4.00093313957e-05)
(9.54218528973e-07 -7.73958254355e-05 -2.31776007458e-05)
(3.89338257137e-05 -5.4572569515e-05 -1.24828762049e-05)
(5.05023187798e-05 -3.93620597334e-05 -5.52514284573e-06)
(4.66766860478e-05 -2.97740707487e-05 -1.58243189771e-06)
(3.47603135191e-05 -2.44523566741e-05 6.36764538056e-07)
(1.63630018961e-05 -2.26013537256e-05 2.42677041309e-06)
(-5.32194875545e-06 -2.25377499967e-05 2.4600173288e-06)
(-1.96932105022e-05 -2.45763597595e-05 -4.25915310646e-07)
(-1.89210574078e-05 -2.79145159361e-05 -4.26060470605e-06)
(-8.92237990749e-06 -3.15982748527e-05 -6.04512672795e-06)
(7.37186024377e-06 -3.52974476598e-05 -8.67526095463e-06)
(3.45505690303e-05 -3.82358891649e-05 -1.28778944953e-05)
(7.60828788807e-05 -3.93146337714e-05 -1.65339609853e-05)
(0.000124811113704 -3.79444631416e-05 -1.60428140758e-05)
(0.000161130943745 -3.51229729063e-05 -1.07713477452e-05)
(0.000177282303901 -3.1539188134e-05 -4.99132215525e-06)
(0.000176901353313 -2.74279133302e-05 -5.19695497745e-07)
(0.000165228453188 -2.34127905276e-05 2.41886770104e-06)
(0.000145277477685 -1.97424529418e-05 5.27852200875e-06)
(0.000115166760464 -1.68505412859e-05 9.47657873628e-06)
(7.16511596204e-05 -1.65788676836e-05 1.23869025972e-05)
(2.56432058774e-05 -1.75541861813e-05 1.03551088316e-05)
(0.00407812800691 0.00731738819713 -0.00220703491759)
(0.0127910125153 0.0106118003425 -0.00209332313014)
(0.0159400666541 0.01603327928 0.000568481171923)
(0.0119610040652 0.0202741555165 0.00291668517727)
(0.00412498929884 0.0225388425823 0.00387599687666)
(-0.00477115661888 0.0226069882776 0.00397625745473)
(-0.0131551007129 0.0202114410509 0.00320872568027)
(-0.0182893463914 0.0157095530107 0.00143210328105)
(-0.0183316289547 0.0100395881546 -0.000554703766119)
(-0.0143528346912 0.00530505148364 -0.00156660064253)
(-0.00962782564951 0.0022975836615 -0.00152740214748)
(-0.0058134636887 0.000664016727113 -0.00111697658286)
(-0.00324908441632 -4.51371786974e-05 -0.000704667897051)
(-0.00173103543287 -0.000266440753486 -0.000409806209461)
(-0.000885112424425 -0.000273649932448 -0.000230231364146)
(-0.000427688042699 -0.000214598277977 -0.000128774333308)
(-0.000182555963233 -0.000149738363499 -7.19037967031e-05)
(-5.13914728082e-05 -0.000100022898262 -4.15210453574e-05)
(1.80900913951e-05 -6.68377673939e-05 -2.43347779213e-05)
(5.01937001129e-05 -4.68842358703e-05 -1.33446349041e-05)
(5.82503313078e-05 -3.30985056228e-05 -6.10109206317e-06)
(5.17533659203e-05 -2.43022641367e-05 -1.87037157385e-06)
(3.7775868927e-05 -1.96467095142e-05 4.0230230949e-07)
(1.79531893279e-05 -1.81222972796e-05 2.07647146035e-06)
(-4.82991629559e-06 -1.84139491042e-05 1.98107567911e-06)
(-2.01435205066e-05 -2.04386226611e-05 -1.14499360933e-06)
(-1.98549331523e-05 -2.37305140499e-05 -5.30576947698e-06)
(-1.00261242712e-05 -2.73221558567e-05 -7.43692026339e-06)
(6.31301394103e-06 -3.0868190899e-05 -1.05010618501e-05)
(3.40348519096e-05 -3.36628690803e-05 -1.49967775208e-05)
(7.65978373497e-05 -3.44822331665e-05 -1.87783650278e-05)
(0.0001262730572 -3.30752318531e-05 -1.81024193379e-05)
(0.000163096579135 -3.0489327526e-05 -1.26330782911e-05)
(0.000179478708848 -2.72410190055e-05 -6.6210217024e-06)
(0.000179071397849 -2.35009620271e-05 -1.96646889358e-06)
(0.000167222175821 -1.99059842086e-05 1.24011900841e-06)
(0.000147079226813 -1.66077928847e-05 4.27600761391e-06)
(0.000116450557289 -1.38992524279e-05 8.65210078198e-06)
(7.247288354e-05 -1.33217440822e-05 1.17274932758e-05)
(2.60314935968e-05 -1.32461741636e-05 1.04318332568e-05)
(0.00497682682143 0.00666609172129 -0.00220587227745)
(0.0148885935253 0.00948852010156 -0.00157475729378)
(0.0181845340102 0.0141959733406 0.00186830307127)
(0.0135997847683 0.0177041960997 0.00467665258217)
(0.00469562053142 0.0196214534471 0.00587347127821)
(-0.00525576993406 0.0197049121848 0.00597290246842)
(-0.0146703750039 0.0176714809809 0.00493745100298)
(-0.0203700729535 0.0138536291137 0.0027227298634)
(-0.0205195069479 0.00897606776688 0.000115158797253)
(-0.0159857544349 0.00485302179254 -0.00136487653815)
(-0.0106333323418 0.00219200026359 -0.00151710054972)
(-0.00631852537534 0.000708961966144 -0.00116381813097)
(-0.00344158087626 4.0618937086e-05 -0.000751338727099)
(-0.00176896655527 -0.00018588681915 -0.000438598053355)
(-0.000863105680565 -0.000211475272751 -0.000244015996906)
(-0.000392681640318 -0.000170202757593 -0.000134543292719)
(-0.000151975349675 -0.000120323876053 -7.34532638042e-05)
(-2.93344916179e-05 -8.00836414172e-05 -4.13003161174e-05)
(3.23731125871e-05 -5.29173688265e-05 -2.38307263462e-05)
(5.94698990827e-05 -3.67794887173e-05 -1.30641503136e-05)
(6.47654823892e-05 -2.53979746417e-05 -5.69635896077e-06)
(5.59604347015e-05 -1.81241128104e-05 -1.28722921435e-06)
(4.01477407149e-05 -1.43546354579e-05 9.62139671695e-07)
(1.90543021846e-05 -1.32343771545e-05 2.53198361958e-06)
(-4.65835284494e-06 -1.37224981759e-05 2.27594387865e-06)
(-2.07513683223e-05 -1.55441770752e-05 -1.0836712369e-06)
(-2.08853691832e-05 -1.84678441088e-05 -5.52024644311e-06)
(-1.11742416115e-05 -2.16253130394e-05 -7.98048063621e-06)
(5.2397426758e-06 -2.46966708532e-05 -1.14050576342e-05)
(3.35273635762e-05 -2.70745438482e-05 -1.60846654158e-05)
(7.70614336444e-05 -2.76541355307e-05 -1.99854749101e-05)
(0.000127519250421 -2.63528669279e-05 -1.91209960914e-05)
(0.000164740074461 -2.41435155504e-05 -1.34898574301e-05)
(0.00018132094645 -2.14256435894e-05 -7.27555714498e-06)
(0.000180924826812 -1.83170346945e-05 -2.4701160111e-06)
(0.000168957592997 -1.5292283632e-05 9.03472318702e-07)
(0.000148704507149 -1.25714271648e-05 4.07863045763e-06)
(0.000117737666119 -1.02481108063e-05 8.60633942536e-06)
(7.34935649521e-05 -9.53949575063e-06 1.18979999486e-05)
(2.65035475845e-05 -9.00969233247e-06 1.10146942928e-05)
(0.00573736516801 0.00526406071893 -0.00222539088105)
(0.0165469630549 0.00732782601119 -0.00123560627792)
(0.0199437126139 0.0109348088544 0.00278173613327)
(0.0150147974561 0.0134069279975 0.00585378311631)
(0.00522096697406 0.0148295137098 0.00710915352086)
(-0.00566068941362 0.0149210776519 0.00720021763019)
(-0.0159204974259 0.0134266767595 0.00613356451938)
(-0.0220035942083 0.0106424966503 0.00362512583398)
(-0.0222814206113 0.00696753527497 0.000606968118925)
(-0.0173229102167 0.00383420474488 -0.00121733279996)
(-0.0114874826566 0.00178196187338 -0.00150809169322)
(-0.00676323448162 0.000615117680189 -0.00119826464046)
(-0.00362136115426 7.41308690545e-05 -0.000785588360522)
(-0.00181294516418 -0.00011728596679 -0.000459824832654)
(-0.000852330881514 -0.000147737873704 -0.000253681446203)
(-0.000368066918837 -0.000121426572974 -0.000136699970833)
(-0.000129310536937 -8.66591332427e-05 -7.40397487793e-05)
(-1.25625600539e-05 -5.74971144471e-05 -4.0297541832e-05)
(4.32715927391e-05 -3.77132951856e-05 -2.27278173826e-05)
(6.66155215025e-05 -2.58709051984e-05 -1.21932915999e-05)
(6.97352278254e-05 -1.75003590609e-05 -4.83031611118e-06)
(5.91245270454e-05 -1.21725397358e-05 -3.53497773182e-07)
(4.18713966261e-05 -9.45537935031e-06 1.84793743143e-06)
(1.97560552199e-05 -8.73946690065e-06 3.31542619163e-06)
(-4.67684742025e-06 -9.23906389031e-06 2.92455841747e-06)
(-2.1365349092e-05 -1.06929373171e-05 -6.23841752895e-07)
(-2.18350488009e-05 -1.29693250746e-05 -5.31554949869e-06)
(-1.21972303544e-05 -1.54119757817e-05 -8.0315709896e-06)
(4.33090828093e-06 -1.77626933912e-05 -1.16906806955e-05)
(3.31134653044e-05 -1.94813913433e-05 -1.6568288169e-05)
(7.74376762095e-05 -1.98574523848e-05 -2.05269993889e-05)
(0.000128511780178 -1.87935990087e-05 -1.94972127098e-05)
(0.000166020354632 -1.70874751989e-05 -1.3718922061e-05)
(0.000182750338309 -1.50539275485e-05 -7.35326631174e-06)
(0.000182382675159 -1.27340260239e-05 -2.43916724696e-06)
(0.000170332694768 -1.04602047589e-05 1.02716233268e-06)
(0.000150012179835 -8.45554156923e-06 4.32755281573e-06)
(0.000118830149725 -6.68666261003e-06 8.98112237452e-06)
(7.43933762283e-05 -5.99795747606e-06 1.24426772655e-05)
(2.68833619755e-05 -5.29362630354e-06 1.16417937567e-05)
(0.00627734216897 0.00331458996502 -0.00226497788407)
(0.0176579225593 0.00453216848676 -0.00109696841328)
(0.0211304837463 0.00676517894311 0.00327345996688)
(0.0160183414807 0.00815948551004 0.00640996925723)
(0.00562298196017 0.00903916839302 0.00745231946674)
(-0.00593221481037 0.00910721233107 0.00755692895832)
(-0.0167663449449 0.00820549178937 0.00673501031793)
(-0.0230752980398 0.00658273179447 0.00411478098847)
(-0.0234890382855 0.00435476715806 0.000900641647667)
(-0.0182480329651 0.00242172314799 -0.001131153729)
(-0.0120974292592 0.00114495542624 -0.00150277163751)
(-0.00708858727088 0.000409178810925 -0.00122047215069)
(-0.00375780466214 6.22966026333e-05 -0.00080775407525)
(-0.00185016049274 -6.37895594546e-05 -0.000473271749062)
(-0.000848221852628 -8.67186238018e-05 -0.000259442035102)
(-0.000352568719373 -7.22949395306e-05 -0.00013760071459)
(-0.000114444754561 -5.15986048089e-05 -7.3337760167e-05)
(-1.39839019347e-06 -3.41788005894e-05 -3.90746408151e-05)
(5.05582327347e-05 -2.22158546831e-05 -2.16101664e-05)
(7.13617620229e-05 -1.51165056031e-05 -1.12282565161e-05)
(7.30602677572e-05 -1.0021243547e-05 -4.04848989043e-06)
(6.12189876337e-05 -6.83810997523e-06 4.83771101854e-07)
(4.2962143537e-05 -5.26263020304e-06 2.68209261623e-06)
(2.01488488681e-05 -4.92662161103e-06 4.04454103702e-06)
(-4.76673337992e-06 -5.29470802772e-06 3.55385163251e-06)
(-2.18522634364e-05 -6.22791523441e-06 -9.97128343404e-08)
(-2.25419351781e-05 -7.64879083074e-06 -4.9849338983e-06)
(-1.29467713775e-05 -9.15194017339e-06 -7.86647188098e-06)
(3.6949597372e-06 -1.05836815298e-05 -1.17078824869e-05)
(3.28453199999e-05 -1.15559638666e-05 -1.67085605707e-05)
(7.7715835655e-05 -1.17193410333e-05 -2.06986162605e-05)
(0.000129212067857 -1.09900408246e-05 -1.95439284106e-05)
(0.000166898919922 -9.89910835426e-06 -1.36558950834e-05)
(0.000183721131738 -8.65288152406e-06 -7.19150439342e-06)
(0.000183379619158 -7.24294526581e-06 -2.20523784805e-06)
(0.000171270530513 -5.87207414754e-06 1.30546550495e-06)
(0.000150906813949 -4.65938221541e-06 4.70485825565e-06)
(0.000119596268839 -3.55816466016e-06 9.44943605338e-06)
(7.50179368296e-05 -3.01091495355e-06 1.30187552371e-05)
(2.71125033191e-05 -2.17627127281e-06 1.21251206915e-05)
(0.00655214333369 0.00107405554982 -0.0022987856863)
(0.0181984911689 0.00146687860937 -0.00107555041801)
(0.0217605084231 0.00220520917584 0.00343361943712)
(0.0164980983669 0.00265221237399 0.00658231095254)
(0.00580528257856 0.00293610049197 0.00756765133386)
(-0.00604442716148 0.00296243399023 0.00768144216139)
(-0.0171891400385 0.00267742486475 0.00691003461345)
(-0.0235903528597 0.00215442482897 0.00429152097199)
(-0.0240908616005 0.00142942025979 0.00103766290932)
(-0.0187112848684 0.000790618989315 -0.00109554620358)
(-0.0124089688621 0.000372596531431 -0.00150098922988)
(-0.00725684026333 0.000131745655683 -0.001231228707)
(-0.00382950443776 1.83808627365e-05 -0.000818301473418)
(-0.00187042627385 -2.23350343239e-05 -0.000479558339468)
(-0.000846806943397 -2.92068392155e-05 -0.000261907990757)
(-0.000344971195037 -2.39462107145e-05 -0.000137890371121)
(-0.00010704061737 -1.67902454602e-05 -7.24225046665e-05)
(4.11897537491e-06 -1.09377013525e-05 -3.83006156568e-05)
(5.41606227482e-05 -6.97795825977e-06 -2.08613376835e-05)
(7.37332374312e-05 -4.67439816119e-06 -1.06542495743e-05)
(7.47005526733e-05 -3.03972555415e-06 -3.5925247095e-06)
(6.22090902374e-05 -2.10146692196e-06 9.68795247456e-07)
(4.34509019207e-05 -1.69360821564e-06 3.18015682928e-06)
(2.02993901245e-05 -1.68043716594e-06 4.47778657135e-06)
(-4.83526056558e-06 -1.83261047442e-06 3.91467967796e-06)
(-2.2109546311e-05 -2.14184106938e-06 2.11117860513e-07)
(-2.28994913128e-05 -2.58994004335e-06 -4.77004518582e-06)
(-1.33123314625e-05 -3.01866208487e-06 -7.71495193546e-06)
(3.40453940223e-06 -3.39577397078e-06 -1.16466080145e-05)
(3.27499780659e-05 -3.58468241763e-06 -1.67247939118e-05)
(7.78932025677e-05 -3.5351480508e-06 -2.0708132865e-05)
(0.000129591532479 -3.20243880171e-06 -1.94844009313e-05)
(0.000167347103432 -2.8015194018e-06 -1.35364975597e-05)
(0.000184199884998 -2.40271907234e-06 -7.02297083533e-06)
(0.000183859302358 -1.980924579e-06 -2.00206247049e-06)
(0.000171721040583 -1.59433126875e-06 1.55001821577e-06)
(0.000151338202143 -1.2338114028e-06 4.98482913164e-06)
(0.000119955277544 -8.7164515496e-07 9.77533712109e-06)
(7.5302201069e-05 -5.40757141948e-07 1.3384284497e-05)
(2.72010588452e-05 4.63912899002e-07 1.23923208604e-05)
(0.00654946423774 -0.00125182873838 -0.00230032291156)
(0.0181943707191 -0.00166259583664 -0.00107720957905)
(0.0217554700497 -0.00242746043991 0.00343241567369)
(0.0164938902132 -0.00288147754505 0.00658274857558)
(0.00580409792998 -0.00316978034607 0.0075670269951)
(-0.00604162214281 -0.00319064677944 0.00768044275827)
(-0.0171827934181 -0.00289570642009 0.0069109300707)
(-0.0235835599616 -0.00235518563714 0.00428832645258)
(-0.024080082336 -0.00159403951575 0.00103270881226)
(-0.0186997257455 -0.000906801134908 -0.00109810068034)
(-0.0123991094081 -0.000442799191606 -0.00150170700282)
(-0.00725024288207 -0.00016924976051 -0.00123104521525)
(-0.0038257030463 -3.64370259015e-05 -0.000817946814491)
(-0.00186843873551 1.47423377403e-05 -0.000479286345429)
(-0.00084584820053 2.68135991837e-05 -0.000261716235876)
(-0.000344557084453 2.39924561393e-05 -0.000137787945867)
(-0.000106894794683 1.77186231296e-05 -7.24132087075e-05)
(4.15511009761e-06 1.21510070023e-05 -3.82998989519e-05)
(5.41315760461e-05 8.17888920005e-06 -2.08502328456e-05)
(7.36633648876e-05 5.64191484067e-06 -1.06510372084e-05)
(7.4616352411e-05 3.67947742763e-06 -3.60572353575e-06)
(6.21221169054e-05 2.38375595343e-06 9.74160163851e-07)
(4.33755163714e-05 1.62669572029e-06 3.17309143919e-06)
(2.0260692589e-05 1.35078567149e-06 4.47305376084e-06)
(-4.83829499681e-06 1.43500375838e-06 3.92529806065e-06)
(-2.20913982014e-05 1.7803128339e-06 2.20072154771e-07)
(-2.28526204354e-05 2.33977673919e-06 -4.76113722963e-06)
(-1.32369168757e-05 3.02793436622e-06 -7.696401545e-06)
(3.49970972149e-06 3.74646567299e-06 -1.16282443552e-05)
(3.28403519879e-05 4.35317790395e-06 -1.66881621657e-05)
(7.79617119581e-05 4.60615913791e-06 -2.06597819252e-05)
(0.000129633086653 4.51430434675e-06 -1.94296772182e-05)
(0.000167349633474 4.19739702275e-06 -1.34787732192e-05)
(0.000184169865394 3.72718922092e-06 -6.96664785891e-06)
(0.000183807039674 3.13458655356e-06 -1.94751071377e-06)
(0.000171657087862 2.52425334986e-06 1.60327581072e-06)
(0.000151265074366 1.99129053822e-06 5.0416124101e-06)
(0.000119869550444 1.58636510076e-06 9.83327125014e-06)
(7.5225588498e-05 1.6767774494e-06 1.34353421565e-05)
(2.7157411328e-05 2.88474911698e-06 1.24245851323e-05)
(0.00626932822726 -0.00348330927114 -0.00226933366)
(0.0176441965034 -0.00472082080786 -0.00110225989646)
(0.0211147776757 -0.00698485148803 0.00326760069517)
(0.01600599645 -0.00839285006407 0.00640700047274)
(0.00561940586712 -0.00927625490056 0.00745024585497)
(-0.00592340986523 -0.0093375653371 0.00755391976942)
(-0.016749772395 -0.00842364090406 0.00672799371704)
(-0.0230539320772 -0.00677641222368 0.00410384833894)
(-0.0234566328684 -0.00450878336581 0.000887474876725)
(-0.0182137829013 -0.00252971919117 -0.00113841809873)
(-0.0120685119605 -0.00120989730953 -0.00150469661345)
(-0.00706928762203 -0.000443861609711 -0.00121998695954)
(-0.00374669766983 -7.90162062364e-05 -0.000806750334094)
(-0.00184434865418 5.67212720239e-05 -0.000472461486928)
(-0.00084538514633 8.4490579708e-05 -0.000258881666454)
(-0.000351336537707 7.2390732261e-05 -0.000137220658648)
(-0.000114013525487 5.2558307322e-05 -7.31712032504e-05)
(-1.29972892132e-06 3.54248313875e-05 -3.90314095071e-05)
(5.04664777867e-05 2.34340643109e-05 -2.15804995965e-05)
(7.11553711559e-05 1.61009037358e-05 -1.12150807849e-05)
(7.28070953017e-05 1.06913767907e-05 -4.07543410396e-06)
(6.09576263837e-05 7.11437392537e-06 5.01404806445e-07)
(4.27353892351e-05 5.18368370107e-06 2.68901888275e-06)
(2.00242416806e-05 4.57085155375e-06 4.04527993325e-06)
(-4.77921022186e-06 4.85819181373e-06 3.57390682984e-06)
(-2.17974058658e-05 5.82481919741e-06 -7.16515441839e-08)
(-2.24051882318e-05 7.35022383524e-06 -4.95112638217e-06)
(-1.27244553023e-05 9.09792998427e-06 -7.81227703052e-06)
(3.97632599339e-06 1.08604683793e-05 -1.16462853751e-05)
(3.31124639748e-05 1.22391957413e-05 -1.66089318687e-05)
(7.79177667655e-05 1.26915545864e-05 -2.05630976044e-05)
(0.000129333761617 1.21831437029e-05 -1.93844166669e-05)
(0.000166905242965 1.11636057636e-05 -1.34854830952e-05)
(0.000183630804692 9.84164375054e-06 -7.025118167e-06)
(0.000183221991887 8.26161359286e-06 -2.04662480303e-06)
(0.00017107845469 6.68158931205e-06 1.47212998923e-06)
(0.000150688100919 5.26942891491e-06 4.86970690978e-06)
(0.000119338421125 4.11271057583e-06 9.62289756868e-06)
(7.47915591978e-05 3.9733572011e-06 1.3172696558e-05)
(2.69840586338e-05 5.36974948653e-06 1.2216817371e-05)
(0.00572430346371 -0.0054148308542 -0.00223172758431)
(0.0165203012135 -0.00750081738703 -0.00124526758944)
(0.0199165031235 -0.0111411802681 0.00276534726416)
(0.0149913674394 -0.0136375496433 0.00583893091203)
(0.00521414527505 -0.0150617512945 0.00710406952302)
(-0.0056434270228 -0.0151449525156 0.00719409227784)
(-0.0158901958961 -0.013635765932 0.0061146433127)
(-0.0219645032647 -0.0108188002883 0.00360436438357)
(-0.02222723518 -0.00710219304666 0.000587601637904)
(-0.0172672196228 -0.00392668243725 -0.00122806841428)
(-0.0114413917857 -0.00183714153002 -0.00151047862613)
(-0.00673266626151 -0.000644625898985 -0.00119712399769)
(-0.00360378697577 -8.85577605577e-05 -0.000783819424247)
(-0.00180373207912 0.00011119728891 -0.000458472487612)
(-0.000847804035191 0.000145848274696 -0.000252839443558)
(-0.000366068083311 0.000121517867046 -0.000136001380167)
(-0.000128593602176 8.75913261353e-05 -7.36939836352e-05)
(-1.23975150727e-05 5.8748340068e-05 -4.01301637337e-05)
(4.31144923721e-05 3.89552143738e-05 -2.2660111356e-05)
(6.6276701044e-05 2.68673327965e-05 -1.21284878728e-05)
(6.93033437497e-05 1.81798475809e-05 -4.79193733753e-06)
(5.8669219539e-05 1.24198821965e-05 -3.2025874992e-07)
(4.14846555481e-05 9.32799400686e-06 1.85894810677e-06)
(1.95411794795e-05 8.3296128927e-06 3.31610325969e-06)
(-4.70274461123e-06 8.72342948481e-06 2.96515295562e-06)
(-2.12787682463e-05 1.0205352399e-05 -5.76470170468e-07)
(-2.16154185526e-05 1.2578281825e-05 -5.27227423885e-06)
(-1.18370660032e-05 1.52475743075e-05 -7.95711506304e-06)
(4.79129941455e-06 1.7909890859e-05 -1.15925123077e-05)
(3.35487273614e-05 2.00038915973e-05 -1.64099049443e-05)
(7.77600109303e-05 2.06414864012e-05 -2.03176220979e-05)
(0.00012870094125 1.97582790226e-05 -1.9240529269e-05)
(0.000166024717177 1.81061751007e-05 -1.34516677786e-05)
(0.00018260062992 1.59850779092e-05 -7.09128719206e-06)
(0.000182131810151 1.34960339356e-05 -2.19070222016e-06)
(0.000170011672982 1.10145570472e-05 1.25141628275e-06)
(0.000149633392802 8.78878044485e-06 4.57940443576e-06)
(0.000118391685343 6.93856144502e-06 9.25090618631e-06)