/*--------------------------------*- C++ -*----------------------------------*\
| =========                 |                                                 |
| \\      /  F ield         | OpenFOAM: The Open Source CFD Toolbox           |
|  \\    /   O peration     | Version:  3.0.1                                 |
|   \\  /    A nd           | Web:      www.OpenFOAM.org                      |
|    \\/     M anipulation  |                                                 |
\*---------------------------------------------------------------------------*/
FoamFile
{
    version     2.0;
    format      ascii;
    class       volScalarField;
    location    "0.7";
    object      alpha.water;
}
// * * * * * * * * * * * * * * * * * * * * * * * * * * * * * * * * * * * * * //

dimensions      [0 0 0 0 0 0 0];

internalField   nonuniform List<scalar> 
15984
(
1.0000000107
1.00000002257
1.00000001892
1.00000001468
1.00000000339
1.00000004247
1.00000000348
1.000000026
1.00000000153
1.00000001116
1.00000003484
1.00000039711
1.00000064424
1.00000000081
1.00000000482
0.999999999149
0.999999999705
1
0.999999997413
1.00000000155
1.00000000031
0.999999999211
0.999999999269
0.999999999169
0.999999998146
0.999999998886
0.999999998899
0.999999999139
0.999999999209
0.999999999255
0.999999999461
0.999999999506
0.999999999531
0.999999999621
0.999999999681
0.999999999715
0.9999999997
0.999999999659
0.999999999676
0.999999999681
1.000000001
1.00000008782
1.00000001879
1.00000000551
1.00000001843
1.00000000015
1.00000000973
1.00000000286
1.00000005341
1.00000000166
1.000000039
1.00000016112
1.00000060426
1.00000049664
1
1.0000000029
0.999999999124
0.999999998771
1
0.99999999967
0.99999999978
1.00000000006
0.999999999945
0.999999995232
0.999999995792
0.999999997769
0.999999999154
0.999999999129
0.999999999418
0.999999999486
0.999999999556
0.99999999967
0.999999999689
0.99999999976
0.999999999775
0.999999999804
0.999999999811
0.999999999804
0.999999999674
0.999999999684
1.00000001985
1.00000001837
1.00000000921
1.00000002799
1.00000000463
1.0000000104
1.00000000106
1.00000000735
1.00000000063
1.00000005525
1.0000000013
1.00000007443
1.00000049566
1.0000005446
1.00000022765
1
1.00000000144
0.999999999614
1.00000000008
1
0.999999998819
0.999999999031
0.999999999828
0.999999995216
0.999999998118
0.999999999638
0.999999997093
0.999999997891
0.999999998735
0.999999999103
0.99999999971
0.999999999785
0.999999999869
0.999999999887
0.999999999893
0.999999999896
0.999999999896
0.999999999918
0.999999999815
0.999999999734
1.00000000915
1.00000000942
1.00000002149
1.00000001476
1.00000002427
1.00000000068
1.00000001017
1.00000000257
1.00000000406
0.999999998445
1.00000022526
1.00000000975
1.00000015043
1.00000072157
1.00000038999
1.00000004507
1
1.00000000924
1.00000000037
1.00000000016
1.00000000035
1.00000000015
0.999999997128
0.999999997394
0.999999997658
0.999999998611
1.00000000039
1
1.00000000002
0.999999999973
0.999999999467
0.99999999974
0.999999999953
1.00000000002
1.00000000001
1.00000000002
1.00000000001
1.00000000001
0.99999999996
0.999999999932
1.00000000651
1.00000001818
1.0000000134
1.00000002622
1.00000001579
1.00000000683
0.999999999695
1.0000000031
1.00000000013
1.00000000143
1.00000004584
1.00000017738
1.00000001385
1.00000032533
1.00000062302
1.00000023346
1.00000000233
1
1.00000001528
1.00000000045
0.999999999875
0.999999998274
0.999999996938
0.999999996973
0.999999998125
1.00000000193
1.00000000016
1.00000000037
1.00000000005
0.999999999996
0.99999999998
0.999999999797
1.00000000008
1.00000000001
1.00000000009
1.00000000002
1.00000000006
1
0.999999999986
0.999999999947
1.00000001027
1.00000001591
1.00000002563
1.00000001326
1.0000000258
1.00000000374
1.00000001824
1.00000000863
1.00000000256
1
0.999999988223
1.00000009074
1.00000006414
1.00000006285
1.0000004912
1.00000044349
1.00000004642
1.00000000006
1.00000000056
1.00000000223
1.00000000022
0.999999998082
0.999999997511
0.99999999759
1.00000000319
1.00000000217
1.00000000126
1.00000000024
1.00000000032
0.999999999929
0.999999999831
1.00000000015
1.0000000001
1.00000000026
1.00000000004
1.00000000017
1.00000000004
1.00000000007
0.999999999996
1.00000000002
1.00000000822
1.00000002083
1.00000001795
1.00000001674
1.00000001517
1.0000000095
1.00000000867
1.00000000992
0.999999990595
0.999999996779
0.999999990085
0.999999997592
1.00000002639
1.00000006568
1.00000004556
1.00000068175
1.00000010933
1.00000000157
1.00000000256
1.00000000031
0.999999999713
0.99999999868
0.999999998722
1.00000000265
1.00000000573
1.00000000078
1.00000000092
1.00000000023
1.00000000044
0.999999999614
1.00000000042
1.00000000003
1.00000000038
1.00000000008
1.00000000031
1.00000000008
1.00000000019
1.00000000005
1.00000000003
1.00000000002
1.00000000754
1.00000001608
1.00000001642
1.00000000909
1.00000001265
1.00000000645
1.00000000737
1.00000001103
0.999999991267
0.999999993913
0.999999993742
0.999999991578
1.00000000113
1.00000000366
1.00000004904
1.00000014969
1.00000056714
1.00000000651
1.00000000009
1.00000000028
1.0000000199
1.00000000267
1.00000000176
1.00000001778
1.00000000021
1.00000000127
1.00000000006
1.00000000056
0.99999999971
1.00000000052
0.999999999991
1.00000000044
1.00000000005
1.0000000004
1.00000000013
1.00000000026
1.00000000014
1.00000000004
1.00000000003
1.00000000001
1.00000000747
1.00000000957
1.00000001025
1.00000001256
1.00000000283
1.00000000379
0.999999999144
1.00000000362
0.999999991679
0.999999998456
0.999999992393
0.999999996543
0.999999998135
1.00000000557
1.0000000245
1.00000003941
1.00000049159
1.00000005923
1.00000000013
1.00000000047
1.00000000074
1.0000000009
0.999999999644
1.00000000716
1.00000002407
1.00000000001
1.00000000083
1.00000000002
1.00000000053
0.999999999989
1.00000000032
0.999999999977
1.00000000052
1.00000000015
1.00000000026
1.00000000023
1.00000000006
1.00000000009
1.00000000002
0.999999999994
1.00000000501
1.00000000348
1.00000000248
1.00000001027
1.00000000292
1.00000000194
1.00000000001
0.999999989363
0.999999995545
0.999999997211
0.999999999604
0.999999997666
1.00000000016
0.999999998747
1.00000003724
1.00000000537
1.00000038992
1.00000006132
1.00000000134
1.00000000035
1.00000000041
1.00000000163
1.00000000215
1.00000000452
1.00000003323
1.00000000507
1.00000000015
1.00000000048
1.00000000009
1.00000000028
1
1.00000000036
1.00000000019
1.00000000032
1.00000000037
1.00000000004
1.00000000017
1.00000000001
1.00000000004
0.999999999989
0.999999997486
1.00000000604
1.00000000605
1.00000001318
1.00000000211
1.00000000956
1.00000003671
0.999999981043
0.999999982706
1
0.999999998263
0.999999997116
0.999999998055
0.999999999656
1.00000003803
1.00000000835
1.00000041709
1.00000007312
1.00000000135
1.00000000065
1.0000000017
1.00000000135
1.00000000155
1.00000000084
1.00000003317
1.0000000064
1.00000000014
1.00000000044
1.00000000008
1.00000000022
0.999999999977
1.00000000037
1.00000000003
1.00000000044
1
1.00000000031
1
1.00000000009
0.999999999989
0.999999999977
1.00000000675
1.00000000713
1.00000001213
1.00000001528
1.00000000203
1.00000001261
1.00000003388
1.00000001756
0.999999982296
0.999999989816
0.999999990526
1.00000000066
0.999999998378
1.00000000635
1.00000000981
1.00000007731
1.00000048053
1.00000008151
1.00000000021
1.00000000046
1.00000000374
1.00000000101
0.999999999311
1.00000000406
1.00000002513
1.00000000006
1.0000000006
1.00000000002
1.00000000042
1.00000000001
1.00000000021
0.999999999967
1.00000000044
1
1.00000000045
1
1.00000000016
1
1.00000000007
0.999999999987
1.00000000896
1.00000002055
1.00000002284
1.0000000099
1.00000001789
1.00000000628
1.00000003838
1.00000001409
0.999999991531
0.999999993055
1.0000000013
0.999999998827
1.00000000483
0.999999998371
1.00000004507
1.00000014138
1.0000005365
1.0000000143
1.00000000002
1.00000000152
1.00000001495
1.00000000081
1.00000000107
1.00000000863
1.00000000114
1.00000000028
1.00000000006
1.00000000016
0.99999999997
0.999999999997
1.00000000002
1.00000000013
0.999999999857
1.00000000035
1
1.00000000035
1
1.0000000001
0.999999999993
1.00000000004
1.00000001747
1.00000003317
1.00000002077
1.00000002915
1.00000002041
1.0000000086
1.00000001555
1.00000000096
1.00000000003
1.00000000037
1
1.00000000822
0.999999998677
1.00000003504
1.0000000075
1.00000054838
1.00000017231
1.00000000249
1.00000000021
1.00000000133
1.00000000017
0.999999998994
0.99999999896
0.999999999881
1.00000000147
1.00000000021
1.00000000003
1
0.999999999335
0.99999999935
1.00000000007
1
0.99999999997
0.99999999997
1.00000000012
1
1.00000000008
0.999999999991
0.999999999995
0.999999999986
1.00000002264
1.00000003003
1.00000004571
1.00000002356
1.00000002993
1.00000000132
1.00000002063
1
1.00000000185
1
1.00000000377
1
1.00000001391
0.999999998918
1.00000025658
1.00000049524
1.00000006697
1.00000000015
1.00000000132
1.00000000032
0.999999999141
0.999999999135
0.999999998528
0.999999998637
0.999999998178
0.999999998891
0.999999999306
0.99999999997
0.9999999996
0.999999999369
0.999999999636
0.999999999981
0.999999999908
0.999999999817
0.999999999721
0.999999999826
1
1.00000000001
0.999999999944
0.999999999956
1.00000000819
1.00000003815
1.00000003206
1.000000067
1.00000000245
1.00000000004
1
1.00000000051
1
1.00000000396
1.00000000001
1.00000002992
1.00000000186
1.00000010492
1.00000049331
1.00000028475
1.00000000647
1.00000000004
1.00000000901
1.00000000039
0.999999998502
0.999999999159
0.999999998172
0.99999999773
0.99999999778
0.99999999809
0.999999998772
0.999999999178
0.999999999309
0.99999999983
0.999999999893
0.999999999925
0.999999999615
0.999999999615
0.999999999811
0.999999999959
0.999999999982
0.999999999915
0.999999999916
0.999999999906
1.0000000069
1.00000001197
1.00000003112
1.00000003537
0.999999996374
0.999999996673
0.999999987249
1.00000000001
1.00000000507
1.00000000035
1.0000000467
1.00000000538
1.00000005082
1.00000043312
1.00000049098
1.00000007859
1.0000000002
1.0000000016
0.999999999824
0.999999999629
0.999999999173
0.999999998657
0.999999999194
0.999999998807
0.999999998204
0.999999999911
0.999999998218
0.999999999357
0.99999999977
0.99999999936
0.9999999994
0.999999999666
0.999999999741
0.999999999829
0.999999999893
0.999999999904
0.999999999933
0.999999999882
0.999999999873
0.999999999848
0.999999999553
1.00000001245
1.00000001005
1.00000000157
0.999999999964
1.00000000224
0.99999998174
1.00000000303
1.00000000208
1.00000004172
1.0000000042
1.00000005768
1.00000022731
1.00000069106
1.00000025721
1
1.00000000172
1
0.999999999289
0.999999999378
0.999999998554
1.00000000006
0.999999998384
0.999999998435
1.00000000007
0.999999999773
0.999999998889
0.999999999043
0.999999999302
0.99999999941
0.999999999543
0.999999999661
0.99999999967
0.999999999801
0.999999999782
0.999999999838
0.999999999811
0.99999999982
0.999999999802
0.999999999721
1.00000000189
1.0000000003
1.000000012
1
1.0000000016
1.00000000119
1.00000000325
1.00000000059
1.00000003083
1.00000000086
1.00000002841
1.00000004995
1.00000066745
1.0000004751
1
1.00000000335
0.999999999753
1.00000000054
1
0.999999996973
0.999999999694
0.999999999918
0.999999999249
0.999999996887
0.999999996867
0.999999998641
0.999999998986
0.999999999145
0.99999999916
0.99999999921
0.999999999375
0.999999999479
0.999999999555
0.999999999653
0.999999999745
0.999999999717
0.999999999727
0.999999999689
0.999999999675
0.999999999326
1.00000000347
1.00000000891
1
1
1.00000000057
1.00000000642
1.00000000576
1.00000002072
1.00000000016
1.00000000742
1.00000000122
1.00000041424
1.00000060923
1
1.00000000449
0.999999999379
0.999999999798
0.999999999611
0.999999993899
0.999999999763
1.00000000006
0.999999999085
0.999999999178
0.999999998824
0.99999999885
0.999999998879
0.999999998895
0.999999998974
0.999999999104
0.999999999149
0.999999999276
0.999999999373
0.999999999455
0.999999999524
0.999999999544
0.999999999546
0.999999999573
0.999999999601
0.999999999322
0.999999999327
1.00000002752
1.00000001701
1.00000006592
1.00000001673
1.00000013499
1.00000005671
1.00000002588
1.0000000114
1.00000007868
1.00000001596
1.00000016191
1.00000139502
1.00000001447
1.0000000181
1.00000000297
1.0000000057
0.999999993818
1.00000000559
1.00000002298
1.00000000004
1.00000000028
0.999999999668
0.999999999745
0.999999997928
0.99999999797
0.999999998531
0.999999998655
0.999999998986
0.999999999079
0.999999999255
0.99999999942
0.999999999535
0.999999999558
0.999999999653
0.999999999455
0.999999999691
0.99999999981
0.999999999794
0.999999999691
0.99999999967
1.00000003486
1.00000006721
1.00000004354
1.00000010702
1.00000001959
1.0000000533
1.00000000437
1.00000003366
1.00000000205
1.00000005194
1.00000007131
1.00000033977
1.00000154059
1.00000001223
1.00000001512
1.00000002565
1.00000000029
0.99999999655
1.00000000171
1.00000000383
1.0000000004
0.999999999981
0.99999999866
0.99999999304
0.999999993429
0.999999996226
0.999999997511
0.999999998791
0.999999999255
0.999999999489
0.999999999537
0.999999999715
0.999999999782
0.999999999777
0.99999999985
0.999999999875
0.999999999882
0.999999999936
0.999999999677
0.999999999705
1.00000005579
1.0000000647
1.00000016971
1.00000003705
1.00000014758
1.00000003772
1.00000004626
1.00000000132
1.00000004355
0.999999988657
1.00000003738
1.00000003106
1.00000032255
1.00000091347
1.00000000621
1.00000000213
1.00000006518
1.00000000207
1.00000000043
0.999999998853
0.999999999483
1.00000000026
0.99999999528
0.999999995772
1
0.99999999982
0.99999999607
0.999999996733
0.999999997023
0.999999999562
0.999999999706
0.999999999741
0.999999999914
0.999999999891
0.999999999933
0.999999999931
0.999999999972
0.999999999978
0.999999999996
0.999999999983
1.00000002907
1.00000011575
1.00000003208
1.00000012542
1.00000007623
1.00000028321
1.00000000694
1.00000005154
1.00000000176
1.00000001116
1.00000000732
1.00000002734
0.99999999986
1.00000031296
1.00000033806
1.0000000145
1.00000003372
1.00000007776
1.00000000228
1.00000000077
1.00000000095
0.999999999664
1.0000000004
0.999999997265
0.999999999855
1.00000000173
1
1.00000000009
1
0.999999998662
0.99999999997
0.999999999865
0.999999999926
0.99999999995
1.00000000001
1
1.00000000001
0.999999999999
1.00000000001
1
1.00000007832
1.00000002956
1.00000007998
1.00000003365
1.00000012497
1.0000001878
1.00000017093
1.00000000615
1.00000004823
0.999999978332
1.00000000454
1.00000000257
1.00000002571
1.00000001601
1.00000049453
1.00000003322
1.00000000099
1.00000006736
1.0000000489
1.00000000043
1.00000000078
0.999999998579
0.999999997148
0.999999997446
1.00000000164
1.00000000007
1.00000000029
1.00000000003
1.00000000008
1.00000000001
1.00000000003
0.999999999988
1.00000000003
1.00000000001
1
1.00000000004
1.00000000001
1.00000000004
0.999999999992
1.00000000007
1.00000003097
1.00000006126
1.00000002901
1.00000004547
1.00000001108
1.00000007513
1.00000010294
1.00000006857
1.00000000608
0.999999988197
0.999999986532
1.00000000955
0.999999998522
1.00000000305
1.00000007834
1.00000029386
1.00000000539
1
1.00000013122
1.00000003814
1.00000000098
0.999999998961
0.999999997892
1.000000003
1.00000000203
1.00000000093
1.00000000027
1.00000001539
1.0000000007
1.00000000005
0.999999999981
1.00000000004
1.00000000009
1.00000000008
1.00000000008
1.00000000002
1.00000000011
1.00000000003
1.00000000005
1.00000000003
1.00000004101
1.00000003598
1.00000003297
1.00000002972
1.00000001495
1.00000011261
1.00000015434
1.00000001355
1.00000002072
0.999999999081
0.999999995303
0.999999999267
1.00000000727
0.999999997382
1.00000001863
1.00000017836
1.00000004545
1
1.00000001193
1.00000008233
1.00000000133
0.999999998774
1.00000000489
1.00000000471
1.00000000048
1.00000000052
1.00000002024
1.00000000145
1.00000000105
1.00000000035
1.00000000021
1.00000000019
1.00000000012
1.00000000017
1.00000000008
1.00000000012
1.00000000007
1.00000000006
1.00000000003
1.00000000009
1.00000002825
1.00000002681
1.00000002207
1.00000002372
1.00000001847
1.0000001015
1.00000007874
1.0000000423
1.00000000281
1.00000000601
1.00000000052
0.999999998536
1.00000000105
1.00000000566
0.999999997569
1.0000001756
1.00000003419
1.00000000017
1.00000000122
1.00000006935
1.00000002823
1.0000000006
1.00000000284
1.00000000059
1.00000000115
1.00000000062
1.00000000091
1.00000001051
1.00000000063
1.00000000021
1.00000000049
1.00000000009
1.00000000028
1.00000000006
1.00000000013
1.00000000006
1.00000000004
1.00000000006
1.00000000004
1.00000000002
1.00000002303
1.00000002032
1.00000001464
1.0000000234
1.00000013744
1.00000001496
1.00000013956
1.00000001347
1.00000004067
1.00000000086
1.00000000499
1.00000000006
1.0000000025
1.00000000072
1.00000000275
1.00000002222
1.00000012638
1.00000000029
1
1.00000001931
1.00000008306
1.00000000368
1.00000000579
1.00000000614
1.00000000125
1.00000000016
1.00000000195
1.00000000305
1.00000001089
1.00000000026
1.00000000003
1.00000000025
1.00000000004
1.00000000032
1.00000000008
1.00000000005
1.00000000006
1.00000000002
1.00000000005
1.00000000001
1.00000002479
1.00000001035
1.00000001576
1.00000001711
1.00000005391
1.00000001665
1.00000000223
1.00000010779
1.00000001092
1.00000001244
1.00000000102
1.00000000571
1.00000000002
1.00000000798
0.999999995076
1.00000003205
1.00000009343
1.00000000376
1
1.00000000015
1.00000009488
1.00000000786
1.00000000291
1.00000000704
1.00000000064
1.00000000021
1.00000000185
1.00000000172
1.00000001401
1.00000000034
1.00000000011
1.00000000005
1.00000000011
1.0000000001
1.00000000019
1.00000000017
1
1.00000000007
1
0.999999999999
1.00000002808
1.00000001187
1.00000001925
1.0000000208
1.00000005534
1.00000023401
1.00000007331
1.00000011094
1.00000000084
1.00000000975
1.00000000024
1.00000000586
1.00000000031
1.00000000687
0.999999995416
1.00000003469
1.00000009121
1.00000000586
1
1.00000000131
1.00000009798
1.00000000634
1.00000000018
1.00000000799
1.00000000094
1.00000000021
1.00000000174
1.00000000109
1.00000001309
1.00000000078
1.00000000015
1.00000000005
1.00000000012
1.00000000006
1.00000000023
1
1.00000000007
1
1.00000000006
0.999999999981
1.00000002895
1.00000002303
1.0000000188
1.00000002269
1.00000027399
1.00000012538
1.00000012979
1.00000000149
1.00000003138
1
1.00000000552
1
1.00000000163
1.00000000013
1.00000000484
1.00000002285
1.00000016197
1.00000000072
1
1.00000002582
1.00000011203
1.00000000002
1.00000000187
1.00000000689
1.00000000094
1.0000000004
1.0000000004
1.00000000269
1.00000001065
1.00000000032
1.00000000004
1.00000000023
1.00000000002
1.00000000028
1
1.00000000013
1
1.00000000006
0.999999999991
1.00000000004
1.00000004002
1.00000002883
1.00000001995
1.00000002248
1.00000014531
1.00000031076
1.00000000946
1.00000001108
1.00000000021
1.00000000299
0.999999999111
1.00000000138
0.999999999584
1.00000000591
0.999999995881
1.00000011807
1.00000004874
1.00000000022
1.00000000414
1.00000007945
1.00000002547
1.00000000205
1.00000000312
1.0000000009
1.00000000063
1.0000000008
1.00000000051
1.00000001411
1.00000000035
1.00000000006
1.00000000032
1.00000000003
1.00000000011
0.999999999982
1.00000000011
1
1.00000000004
1
1.00000000006
1
1.00000004762
1.00000002916
1.00000002731
1.00000001531
1.00000006392
1.00000015821
1.00000000627
1.00000000177
1.00000000216
0.999999993864
1.00000000535
0.999999999982
1.00000000471
0.999999996135
1.00000000247
1.00000022432
1.0000000598
1
1.00000001625
1.00000013733
1.00000000141
0.999999998768
1.00000000039
1.0000000045
1.00000000047
1.00000000009
1.00000000551
1.00000000006
0.999999999976
0.999999999853
1.00000000001
1.00000000006
1
0.999999999943
1
1.00000000002
1
1.00000000002
0.99999999998
1.00000000011
1.00000002399
1.00000004743
1.00000001154
1.00000002223
1.00000008061
1.00000009991
1.00000002814
1.00000000781
1.00000000069
1.00000001874
1.00000000055
1.00000000946
1.00000000515
1.00000000833
1.00000008048
1.00000029458
1.00000000111
1.00000000063
1.00000011072
1.00000003397
1.00000000113
0.999999998645
0.999999998862
1.00000000045
1.00000000094
1.00000000014
1.00000000009
0.999999999082
0.999999999181
0.999999999891
0.999999999849
0.999999999996
0.999999999699
0.999999999834
0.999999999883
0.999999999975
1
0.999999999996
1.00000000003
0.999999999995
1.00000004087
1.00000001659
1.00000002634
1.00000001279
1.00000006293
1.00000013192
1.00000001094
1.00000000687
1.00000001356
1.00000000001
1.00000000984
1.00000001828
1.00000001417
1.0000000154
1.0000002641
1.00000009607
1
1.0000000387
1.00000005091
1.00000000061
1.00000000105
0.999999998637
0.999999998473
0.999999998349
1.00000000017
1.00000000018
0.999999998343
0.999999999191
0.999999999971
0.999999999717
0.999999999581
0.999999999354
0.999999999709
0.999999999759
0.999999999858
0.99999999996
0.999999999985
0.99999999999
1
0.99999999997
1.00000001437
1.0000000379
1.00000001917
1.00000003875
1.00000004946
1.00000002684
1.00000004128
1.00000000762
0.999999997387
1.00000001011
1.00000001292
1.00000001942
1.00000001485
1.00000016986
1.0000004337
1.00000000077
1.00000000479
1.00000009451
1.00000000132
0.999999999721
1.00000000107
1.00000000066
1.00000000022
0.99999999831
0.999999999433
1.00000000008
0.999999998772
0.999999999983
0.999999999357
0.999999999805
0.999999999314
0.999999999552
0.99999999977
0.999999999839
0.999999999892
0.999999999957
0.999999999928
0.999999999895
0.999999999934
0.999999999924
1.00000001587
1.00000001639
1.00000003536
1.00000001802
1.00000002503
1.00000001969
1.00000000953
1.0000000056
1.00000000667
1.00000001031
1.00000001738
1.00000002975
1.00000023153
1.00000090867
1.00000000297
1.00000000166
1.00000002387
1.00000000292
0.999999999672
0.999999998395
1.0000000035
0.999999999573
0.999999999864
0.999999999984
1
0.999999998877
0.999999998375
0.999999999155
0.999999999174
0.99999999931
0.999999999308
0.99999999963
0.999999999687
0.999999999774
0.999999999811
0.999999999881
0.999999999853
0.999999999912
0.999999999889
0.999999999848
0.999999996638
1.0000000247
1.00000001665
1.00000001572
1.00000002303
1.00000000591
1.00000001638
1.00000000092
1.00000000044
1.00000001912
1.00000005049
1.00000019757
1.00000143113
1.0000000051
1.00000000646
1.00000000357
0.999999998423
0.999999996034
0.999999995686
1.00000000951
1.00000000069
0.999999999999
0.999999997037
0.999999993865
0.999999995865
0.999999998613
0.999999998912
0.999999999278
0.999999999218
0.999999999155
0.999999999328
0.999999999471
0.999999999542
0.999999999619
0.999999999683
0.999999999794
0.999999999802
0.999999999763
0.999999999769
0.999999999654
1.00000000495
1.00000000719
1.00000002446
1.00000002505
1.00000001542
1.00000002102
1.00000001558
1.00000002255
1.00000004797
1.00000002034
1.00000012355
1.00000135093
1.00000000205
1.00000000249
1.00000000127
1.00000000675
0.999999995511
1.000000003
1.00000001786
1
1.00000000048
0.999999999885
0.999999999917
0.999999998975
0.99999999874
0.999999998458
0.999999998721
0.999999998948
0.999999999
0.999999999146
0.999999999225
0.999999999369
0.99999999941
0.999999999484
0.999999999531
0.999999999606
0.999999999658
0.999999999678
0.99999999934
0.999999999329
1.00000006662
1.00000002993
1.00000002924
1.00000008054
0.999999970059
0.999999992305
1.0000000391
1.00000004785
1.00000004505
1.00000008895
1.00000157512
1.00000000166
1.00000001835
1.00000000935
1.00000009002
0.999999999318
1.00000003657
1.00000010064
1
1.00000000455
0.999999997921
1
0.999999995738
0.99999999722
0.999999997754
0.999999998035
0.999999998458
0.99999999812
0.999999997533
0.99999999683
0.999999996745
0.999999996844
0.999999996782
0.999999997113
0.999999997558
0.999999997647
0.999999997372
0.99999999833
0.99999999978
0.999999999836
1.00000000439
1.00000001802
1.000000011
1.00000000029
1.00000006539
1.00000003621
1.00000005428
0.999999983791
1.00000000253
1.00000017345
1.00000021944
1.00000256248
1.00000000701
1.00000001377
1.00000002124
1.00000004898
0.99999999676
1.00000000184
1.00000003407
1.00000000093
1.00000000087
0.999999997952
0.999999998213
0.99999998607
0.999999991757
0.999999995213
0.99999999779
0.999999998581
0.999999998294
0.99999999838
0.999999998717
0.999999999114
0.999999999298
0.9999999991
0.999999998962
0.999999999233
0.999999999518
0.999999999953
0.999999999907
0.999999999899
0.99999999362
1.00000000721
0.999999990419
1.0000000299
1.00000001235
1.00000007379
1.0000000044
1.00000003098
1.00000000117
0.999999977259
1.00000006122
1.00000026989
1.00000159875
1.00000001267
1.00000000611
1.00000005383
1.00000000304
0.999999995221
0.999999997189
1.00000000919
1.00000000646
1.0000000003
1.00000000051
1
1
0.999999995939
0.999999995677
0.99999999977
0.999999998433
0.999999999372
0.999999999762
0.999999999949
0.999999999954
0.999999999922
0.999999999925
0.999999999959
0.999999999971
0.999999999997
1.00000000001
1
1.00000001415
0.999999993902
1.00000000356
0.999999983336
1.00000000769
0.999999992739
1.00000003696
1.00000000663
1.00000002151
0.999999992024
1.00000000424
1.00000000956
1.00000017874
1.00000076366
1.000000018
1.00000003708
1.00000006066
1.00000003436
0.999999998328
0.999999998292
1.0000000002
1.00000000375
1.00000000363
1.00000000014
1.00000000314
0.999999999981
1.00000000004
1.00000000323
1.00000000009
0.999999999821
0.99999999965
0.999999999941
0.999999999914
0.999999999947
0.999999999923
0.999999999972
1
1.00000000003
0.999999999984
1.00000000006
1.00000001495
1.0000000259
1.00000000032
0.999980553499
0.999956659124
0.999958030968
0.99998386598
1.00000000192
1.00000000689
0.999999988063
1.00000000524
1.00000000596
0.999999992959
1.0000001443
1.0000002722
1.00000001337
1.00000009623
1.00000010844
1.00000000376
1.00000000089
0.999999999033
0.999999999914
1.0000000007
1.00000000309
1.00000000042
1.00000000029
1.00000000233
1.00000000042
1.00000000879
1.00000000008
0.999999999999
1.00000000007
0.999999999966
0.999999999922
0.999999999895
1
1.00000000003
1.00000000003
0.999999999997
1
1.00000004397
1.00000001588
0.999962406254
0.999818765181
0.999703469015
0.999704916755
0.999823767095
0.999964552356
1.00000000586
0.999999995805
1.00000000304
0.999999997124
1.00000000642
0.999999998578
1.00000019199
1.00000001826
1.00000001184
1.00000017343
1.00000010686
1.00000001426
1.00000000178
1.00000000187
1.00000000387
1.00000000196
1.00000000119
1.00000000172
1.00000002336
1.00000000416
1.00000000305
1.00000000034
1.00000000003
1.00000000001
1.00000000013
1.00000000024
0.999999999925
0.999999999973
1.00000000002
1.00000000004
0.999999999979
1.0000000002
1.00000002684
1.00000001107
0.999860025886
0.999507900835
0.999273831279
0.999274927746
0.999513692088
0.999862748654
1.00000000149
1.0000000043
0.999999998875
1.00000000284
0.999999995787
1.00000000262
1.00000000616
1.00000024832
1.00000000845
1.00000003328
1.00000013502
1.00000002333
1.00000000824
1.00000000547
1.00000000267
1.00000000078
1.00000000263
1.00000002726
1.00000000515
1.00000000885
1.00000000083
1.00000000058
1.00000000048
1.00000000013
1.00000000003
1.00000000027
1.00000000024
1.00000000008
1.00000000003
1.00000000008
1.00000000005
1.00000000002
1.0000000369
1.00000000794
0.999764827086
0.999263244439
0.998969559486
0.998966380593
0.999266391415
0.999771757952
1.00000001754
1.00000000036
1.00000000201
1.00000000006
0.999999998318
0.999999995921
1.0000000082
1.00000012074
1.00000000815
1.00000001083
1.00000008456
1.00000017091
1.00000000686
1.00000000562
1.00000000096
1.00000000215
1.00000000125
1.00000000373
1.00000002807
1.00000000068
1.00000000135
1.00000000039
1.00000000029
1.00000000011
1.00000000008
1.00000000049
1.00000000001
1.00000000004
1.00000000013
1.00000000002
1.00000000005
1.00000000004
1.00000004949
1.00000000095
0.999735713776
0.999189171537
0.998881619115
0.998875473654
0.999191809098
0.999743679456
1.00000000296
1.00000001985
1.00000000008
1.00000000271
1.00000000033
0.999999996675
0.999999993933
1.00000020188
1.00000000505
1
1.00000003697
1.00000021902
1.00000003178
1.00000001406
1.0000000007
1.00000000375
1.00000000102
1.00000000595
1.000000008
1.00000002331
1.00000000051
1.00000000074
1.0000000004
1.00000000017
1.00000000005
1.00000000009
1.00000000028
1.00000000001
1.00000000006
1.00000000011
1.00000000002
1.00000000002
1.00000002954
1.00000000737
0.99973467494
0.999186383579
0.998885217426
0.998876032774
0.99918765732
0.999740690893
1.00000005404
1.00000000314
1.0000000122
0.999999999176
1.00000000365
0.999999998383
1.00000000507
1.00000011598
1.00000001156
1
1.00000000237
1.00000024805
1.0000000288
1.00000001434
1.00000000234
1.00000000192
1.00000000133
1.00000000697
1.00000000446
1.00000002143
1.00000000513
1.00000000053
1.00000000073
1.00000000017
1.00000000019
1.00000000004
1.00000000029
1.00000000009
1.00000000006
1.00000000016
1.00000000005
0.999999999997
1.00000003466
1.00000000622
0.999733835095
0.999185835867
0.998886858787
0.99887523789
0.999189511312
0.999740660951
1.00000005745
1.00000000604
1.00000001162
1.00000000009
1.00000000223
0.999999999204
1.0000000075
1.00000009679
1.00000001408
1.00000000002
1
1.00000024759
1.00000002903
1.00000001357
1.00000000359
1.00000000141
1.00000000119
1.00000000655
1.00000000226
1.00000001948
1.00000000696
1.00000000047
1.00000000067
1.00000000024
1.00000000014
1.0000000002
1.00000000021
1.00000000008
1.00000000002
1.00000000002
1
1.00000000001
1.00000005531
1.00000000135
0.999735210274
0.999188083128
0.998881709436
0.998878575648
0.999192037228
0.99974251243
1.00000000029
1.00000001791
1.00000000006
1.0000000021
1.00000000015
0.999999995609
0.999999998882
1.00000020432
1.00000000499
1
1.0000000585
1.00000020383
1.00000004183
1.00000001149
1.00000000266
1.00000000188
1.00000000223
1.00000000116
1.00000000675
1.0000000229
1.00000000052
1.0000000007
1.0000000004
1.0000000003
1.00000000029
1.00000000004
1.00000000021
0.999999999964
1.00000000004
1.00000000016
1.00000000003
1
1.00000002881
1.00000001732
0.999764549042
0.999263092237
0.998968257614
0.998966604667
0.999266922025
0.999770164184
1.00000001038
0.999999998502
1.00000000151
1.00000000069
0.999999999183
0.999999995664
1.00000001075
1.00000010315
1.00000000968
1.00000002052
1.00000007811
1.00000018979
1.00000001387
1.00000000643
1.00000000048
1.00000000173
1.0000000017
1.00000000203
1.00000003056
1.00000000047
1.00000000062
1.0000000002
1.00000000004
1.00000000047
1.00000000011
1.00000000022
0.99999999989
1.00000000004
1.00000000001
1.00000000001
1