/*--------------------------------*- C++ -*----------------------------------*\
| =========                 |                                                 |
| \\      /  F ield         | OpenFOAM: The Open Source CFD Toolbox           |
|  \\    /   O peration     | Version:  3.0.1                                 |
|   \\  /    A nd           | Web:      www.OpenFOAM.org                      |
|    \\/     M anipulation  |                                                 |
\*---------------------------------------------------------------------------*/
FoamFile
{
    version     2.0;
    format      ascii;
    class       volVectorField;
    location    "0.7";
    object      ddt0(rho,U);
}
// * * * * * * * * * * * * * * * * * * * * * * * * * * * * * * * * * * * * * //

dimensions      [1 -2 -2 0 0 0 0];

internalField   nonuniform List<vector> 
15984
(
(-0.126963693094 -0.214480836101 0.379542703507)
(-0.197280723727 -0.282165996349 0.390670521961)
(-0.0688807983452 -0.210157434152 0.363910490628)
(-0.154175376817 -0.0993035115715 0.312374488405)
(-0.196399274127 -0.0673453531464 0.257563415364)
(-0.117729910419 -0.051890662185 0.260012456914)
(-0.200012826944 -0.0582921642838 0.30639290717)
(-0.363326685671 -0.134061067798 0.337741996819)
(-0.355334356376 -0.215689860725 0.326491413324)
(-0.239374285297 -0.224132255453 0.271645609506)
(-0.168145270297 -0.185082562065 0.18760281277)
(-0.101507238238 -0.138892332653 0.0910235843814)
(-0.00123791741229 -0.0869902843294 0.0402013024268)
(0.137885734689 -0.0457852204656 -0.0153125339122)
(0.310599009531 -0.0214786880958 -0.0432886272842)
(0.492869811095 -0.0087051610461 -0.0583404281071)
(0.661926130073 0.00546688628115 -0.0481984050984)
(0.79691545545 0.0111632496062 -0.0356505320699)
(0.880274658659 0.014113794354 -0.0223920515221)
(0.91288172803 0.0153687642532 -0.0105430588329)
(0.903650351169 0.0156556632459 -0.0011215655169)
(0.863932177382 0.0154230906495 0.0056946455975)
(0.804113118384 0.0149283712531 0.0101717032167)
(0.732501682219 0.0142942914608 0.012768344032)
(0.65542651691 0.0135858981038 0.0139465247921)
(0.577566314373 0.0128661343437 0.0140986416738)
(0.502262872143 0.0121872398432 0.0135333874894)
(0.431741929582 0.0115837943987 0.0124840405305)
(0.367323416667 0.0110727051744 0.0111241590358)
(0.309660219384 0.0106488949389 0.00958335734354)
(0.258984512573 0.010279638094 0.00796495917464)
(0.21531624772 0.00989888109323 0.00636491304253)
(0.178240179192 0.00967703632218 0.00483212513998)
(0.146715408303 0.00938795476787 0.00364962251258)
(0.120220244643 0.00905737771749 0.00268062785706)
(0.0961710221258 0.00884513690736 0.00241022571127)
(0.0751394804685 0.00839839252336 0.00231487016254)
(0.0541568848303 0.00792787285491 0.0026991848421)
(0.0304365103664 0.00733543469636 0.00420458635883)
(0.0100976832146 0.00534138716372 0.00423527385172)
(-0.229019508289 -0.49645835774 0.162599586122)
(-0.169352580829 -0.541810979 -0.0765713827682)
(0.0437286571589 -0.250935255012 -0.231281189103)
(-0.063192551197 0.0714973401865 -0.361528271371)
(-0.154244808466 0.150510100738 -0.463881842028)
(-0.0965090538495 0.181001722811 -0.447093184589)
(-0.224187935603 0.152573449882 -0.323291854246)
(-0.429143252067 -0.086416277453 -0.179255150345)
(-0.390376538258 -0.36380903143 -0.0537548334142)
(-0.216033923147 -0.451792916218 0.0177817901751)
(-0.114335924909 -0.394781938922 0.0306981453954)
(-0.0372736940692 -0.29548539132 0.00233194458449)
(0.0649530029157 -0.198787342818 -0.0274590234352)
(0.193634256018 -0.114043703934 -0.0534451662167)
(0.353633549111 -0.0580462890791 -0.0603588946884)
(0.530659316478 -0.0258655636119 -0.0551819617518)
(0.694888206738 0.00200184996224 -0.0424026515418)
(0.822264315821 0.0122806464963 -0.0234992501513)
(0.901023350627 0.0180154298527 -0.00662698716976)
(0.929869183842 0.0204245581714 0.00721154397711)
(0.917566118435 0.0210441609745 0.0175348092017)
(0.87531795312 0.0207337696757 0.0245533556694)
(0.813391078422 0.0199299851008 0.028805392084)
(0.740010037235 0.0188249559212 0.0309405267843)
(0.661466526152 0.0175481457441 0.0315063077549)
(0.582415656053 0.0162256622749 0.0309809516199)
(0.506160495387 0.0149712058457 0.0297378083174)
(0.43488122831 0.0138578472529 0.0280438320546)
(0.369849513068 0.0129403427337 0.0260831927281)
(0.311665370412 0.0121948135752 0.0240044830711)
(0.260506834489 0.0115245175726 0.0219251418228)
(0.216472789269 0.0106663548365 0.0199575344179)
(0.179051228122 0.0104991877205 0.0179653377212)
(0.147098982859 0.00998222378455 0.0163560890635)
(0.120315971414 0.00949896732653 0.0148977887726)
(0.0958365611653 0.00904226609689 0.0142699401829)
(0.0744771686496 0.0078851305732 0.013958549172)
(0.0534987183982 0.00634979594898 0.0142556808579)
(0.0293829098139 0.00561864733022 0.0154474248069)
(0.00744729362289 0.00275765586221 0.0135182692985)
(-0.23419669414 -0.48118856534 0.124959585347)
(-0.0526450264757 -0.302724686521 -0.271412262094)
(0.25498501942 0.367761671242 -0.416362576693)
(0.0642426810296 0.980497561816 -0.496795290159)
(-0.119664988231 1.12905367558 -0.599140205208)
(-0.087747483645 1.16002559905 -0.575990055284)
(-0.296774688328 1.05939984478 -0.438964112215)
(-0.584583883559 0.55317997352 -0.323817384836)
(-0.499537891955 -0.0736310815999 -0.216222245905)
(-0.216750469115 -0.383328564544 -0.110585356871)
(-0.0513935764708 -0.412075540888 -0.0494145104192)
(0.0340883927449 -0.32853620811 -0.04348889262)
(0.126688023046 -0.23802388593 -0.0540778502606)
(0.244634699985 -0.143323677968 -0.0703437055645)
(0.388542304571 -0.077102167106 -0.0683823147691)
(0.553598948172 -0.0356847339576 -0.0571352677502)
(0.70818444249 -0.0119665842112 -0.0454108853589)
(0.828421206367 0.00188493375501 -0.0216613221194)
(0.904231269062 0.00727705978886 -0.00358156722669)
(0.931032047063 0.00909414179148 0.0107449404975)
(0.917577157811 0.00932366475636 0.0212126434009)
(0.874677193681 0.00884096469134 0.0281828520903)
(0.812364813226 0.00795557706752 0.0322339379947)
(0.738764300558 0.00679159103946 0.0340777631958)
(0.660132856112 0.00544014077452 0.0343285400729)
(0.581097611267 0.00402738239424 0.0334740893305)
(0.504935083817 0.00272975817199 0.0318667396016)
(0.433802274752 0.00157368291292 0.0298301810629)
(0.368933356866 0.000664349244074 0.0275502054174)
(0.310872963545 -4.83986343703e-05 0.0252312024785)
(0.259709475067 -0.000818705234021 0.0231055122637)
(0.215929738473 -0.0025328990128 0.0213843239929)
(0.178727588009 -0.00205610606188 0.0191851333569)
(0.146766976934 -0.00258487834389 0.0173151984508)
(0.120171378143 -0.00302632223911 0.0157041465178)
(0.0955432543243 -0.00350190085617 0.0150797171551)
(0.0740571017867 -0.003789233708 0.0163609876677)
(0.0535777388386 -0.0045598004246 0.0171236535823)
(0.0293370033335 -0.0053046180171 0.0180575703286)
(0.0072379843699 -0.0074828200458 0.0128175724137)
(-0.161862380422 -0.454825505196 0.100078953152)
(0.223528972209 -0.0581584648929 -0.304960242639)
(0.624346290083 0.896569574568 -0.280712938513)
(0.267246595014 1.66469804948 -0.190715410635)
(-0.0767794861714 1.79738116171 -0.25628803397)
(-0.0965137509742 1.82343320601 -0.231225939734)
(-0.448024729495 1.7268541416 -0.123873245892)
(-0.89038949514 1.07903805623 -0.158973794846)
(-0.756018520605 0.199251516217 -0.212291983999)
(-0.303422507156 -0.292786291613 -0.159429994274)
(-0.0270278085928 -0.39845606877 -0.0846185478741)
(0.091005710486 -0.342848154926 -0.0615417443327)
(0.185803725673 -0.253221908991 -0.0627285403123)
(0.293563931702 -0.148956362027 -0.0759277929034)
(0.420346439861 -0.0827464874863 -0.0731403094488)
(0.571466451527 -0.0403071128321 -0.0599602347812)
(0.718621279171 -0.0196731202224 -0.0428199988331)
(0.834552002476 -0.0045429882269 -0.0246943354605)
(0.905706092084 -0.000282582651685 -0.00665919062011)
(0.930908234983 0.00062843580164 0.00764848705054)
(0.916790121716 0.000292545150224 0.018048952746)
(0.873593288474 -0.000485369003319 0.0249329146699)
(0.811123277642 -0.00152145226208 0.0288825764074)
(0.737436019771 -0.00276071191243 0.030603383614)
(0.658779458285 -0.00414686067751 0.0307328984018)
(0.579820704048 -0.00557657264642 0.0297312155107)
(0.503790166767 -0.00692249367625 0.0279223586017)
(0.432816021531 -0.00808755710534 0.0257755017285)
(0.368118961334 -0.00900983041688 0.0233575090308)
(0.310110781033 -0.00965749141166 0.0210420711469)
(0.25854911308 -0.0112050427345 0.019448190456)
(0.215226459802 -0.0115601905488 0.0193684412411)
(0.178488714795 -0.0118667535725 0.017249773988)
(0.146161825011 -0.0121737818805 0.01445045296)
(0.11953709637 -0.0125391058891 0.0127853001079)
(0.0952342723558 -0.0129577962033 0.0121597337254)
(0.0738855971886 -0.012267019319 0.0120565066484)
(0.052933468065 -0.0120760599293 0.0122087485622)
(0.027894250449 -0.0124770668167 0.0134472750465)
(0.00666668821525 -0.0137005379079 0.00942813984923)
(-0.0339969843553 -0.415376121461 0.0551499753953)
(0.612785181973 0.116895967588 -0.266232628008)
(1.0787717318 1.17319015 0.0227903450365)
(0.482848208006 1.89956678912 0.333709789605)
(-0.0487997021431 1.9131275509 0.299301137449)
(-0.10283566966 1.92958984315 0.323245621907)
(-0.618597345677 1.93472088452 0.401671248421)
(-1.27381961531 1.3241134787 0.170190799743)
(-1.11139335906 0.369970432387 -0.12470525581)
(-0.458240156616 -0.210767198326 -0.176879621672)
(-0.0366411616247 -0.360859934653 -0.103093540395)
(0.132393755319 -0.327410298702 -0.0697276589578)
(0.239745334213 -0.245933499411 -0.0631622972537)
(0.339924070502 -0.136613880525 -0.0765442338749)
(0.448754725443 -0.0765164098509 -0.0740583115164)
(0.588322541225 -0.0373617038201 -0.0609934798867)
(0.727510247921 -0.0161812256861 -0.0433712363918)
(0.838417341232 -0.00564200327904 -0.0270253453347)
(0.906459615054 -0.00293249111743 -0.0095680105943)
(0.930539276607 -0.00299340749297 0.00469844930348)
(0.916027324133 -0.00381869755382 0.0149854197521)
(0.87269240057 -0.00486453178989 0.0218014689199)
(0.810145933482 -0.00602005048286 0.0257368326386)
(0.736418318985 -0.00729595160651 0.0274168110362)
(0.657767412806 -0.00864697008821 0.0274717258013)
(0.578841540886 -0.0100140064248 0.0263944021851)
(0.502905902861 -0.011342813214 0.0245575770295)
(0.432075146269 -0.0124633748783 0.0223062956332)
(0.367545020132 -0.0133638329071 0.0198470802765)
(0.309233564249 -0.0139851345116 0.0175120151778)
(0.258257715756 -0.0152319852658 0.0184421824434)
(0.215117770221 -0.0143336434012 0.0155533495986)
(0.177932890174 -0.0154478511719 0.0130903814391)
(0.145895364881 -0.01549602558 0.0112266174767)
(0.119167507713 -0.0156995067417 0.00971690959785)
(0.0949295936971 -0.0160006829242 0.00906914890607)
(0.0735992376976 -0.0159321822127 0.00867785616098)
(0.0525511047214 -0.0160132910428 0.00861486476203)
(0.0275770537594 -0.0161169183369 0.0101236474811)
(0.00672855880231 -0.0156674105619 0.00787040268879)
(0.116987429031 -0.378130393375 -0.00176031927512)
(1.02521194502 0.164837985867 -0.201276898446)
(1.50444583631 1.1075615384 0.37045143363)
(0.629043427555 1.59964391789 0.87824489921)
(-0.0644493823146 1.40636506042 0.828898561494)
(-0.0771825619839 1.41399384316 0.850547341141)
(-0.730153686295 1.60608646927 0.943687889335)
(-1.63089286783 1.21217787706 0.534051354974)
(-1.48017907011 0.380671709021 -0.0105900865494)
(-0.636624349565 -0.16918871879 -0.185558530047)
(-0.064089026984 -0.318659255189 -0.116289455052)
(0.16190206986 -0.295421338872 -0.0724964705376)
(0.289275123908 -0.226681619928 -0.0600157838403)
(0.383097215267 -0.112378352321 -0.0755345878901)
(0.472604499784 -0.0642399704521 -0.0716823351837)
(0.602950615068 -0.0310872265202 -0.0602012114418)
(0.73497395883 -0.0125534380726 -0.0428212963803)
(0.841148286681 -0.00471374961584 -0.0276102091171)
(0.906719064172 -0.00315688398614 -0.0107402325178)
(0.930011531948 -0.00398380368784 0.00321477388808)
(0.915317853423 -0.00516562590092 0.0135034617318)
(0.871937112867 -0.00636831080253 0.020272714741)
(0.809367599608 -0.00756764819759 0.0241856046377)
(0.735616308188 -0.00880929866956 0.0258741531374)
(0.656960903678 -0.0100920717071 0.0259085216262)
(0.578061629714 -0.0113663590265 0.0248356606291)
(0.502203416524 -0.0125658343057 0.0230119453347)
(0.431489038886 -0.013591894232 0.0207225539819)
(0.367081211543 -0.0144256766442 0.0182830241413)
(0.30892902092 -0.0151465791163 0.0159827502143)
(0.258144922482 -0.0153356228937 0.0174279155235)
(0.214892955015 -0.0152447398654 0.0136619568929)
(0.177671569646 -0.0157447759296 0.0113172390868)
(0.145767324218 -0.0158082106833 0.0096455604058)
(0.118962736713 -0.0159594574216 0.00820408736101)
(0.0947118742773 -0.0162563322714 0.00754018168959)
(0.0733991434971 -0.0164544789307 0.00708837697933)
(0.0524014337625 -0.0166663267955 0.00693335820593)
(0.0277597651113 -0.0167515880679 0.00854440942506)
(0.00697503535937 -0.0159462655261 0.00728310464505)
(0.253810649093 -0.336436345431 -0.0602104040922)
(1.36779890744 0.098804064432 -0.149289232118)
(1.79891858865 0.771388962824 0.644816810925)
(0.642910979211 0.938143383049 1.23827122929)
(-0.141468473796 0.541958122856 1.08317731686)
(-0.000505516106348 0.54249206701 1.1019858515)
(-0.720351559593 0.917903796389 1.29982340792)
(-1.8645705231 0.825788020205 0.815455937684)
(-1.77846266669 0.25758779402 0.080936687494)
(-0.7923505461 -0.162328698364 -0.1972571657)
(-0.090813186271 -0.273022114333 -0.128999710188)
(0.184104726434 -0.249542490983 -0.0748411282698)
(0.334655398301 -0.199874644721 -0.0537685160381)
(0.423135724015 -0.0788078563041 -0.0762166111257)
(0.49047037432 -0.0491525701743 -0.0688075468416)
(0.614646687829 -0.0216431219906 -0.0582269279584)
(0.740864381219 -0.00870973047661 -0.0418028644743)
(0.843066739629 -0.00303332542618 -0.02729955093)
(0.906669913714 -0.00234046718857 -0.0108537678497)
(0.929334373223 -0.00355524809283 0.00268908049616)
(0.914615735776 -0.00497388469309 0.0129259405517)
(0.871263879286 -0.00620508069915 0.0196408401796)
(0.808705762906 -0.00737909951718 0.0235379191362)
(0.734954025508 -0.00852923014993 0.0252236218079)
(0.656306577317 -0.00967523932358 0.025289000908)
(0.577443590033 -0.0107694700055 0.0242175338181)
(0.50165182927 -0.0117755429398 0.0224172183486)
(0.431022875421 -0.0126488506633 0.0201919222813)
(0.366661193163 -0.0133681121988 0.0177496117433)
(0.308683681506 -0.0139714652711 0.0154652520178)
(0.258120388327 -0.0134319651286 0.0152257944709)
(0.214827118063 -0.0140578809973 0.013123085434)
(0.177561131949 -0.0142852801574 0.0106696445988)
(0.145684537636 -0.0143688842605 0.00900350741814)
(0.118818260374 -0.0145144900561 0.00758064509965)
(0.0945257950092 -0.0148172797309 0.00689111255346)
(0.0732266409062 -0.0151333675156 0.00639352903492)
(0.0523027513284 -0.0154192292165 0.00615642311312)
(0.0279628777421 -0.0155700501109 0.00771266823632)
(0.00719677750037 -0.0149955836331 0.00682068007114)
(0.353077336964 -0.269389390664 -0.114505719011)
(1.58821881919 0.00116255531318 -0.14015049061)
(1.92499815602 0.359655038878 0.763324123348)
(0.534093733971 0.243245236339 1.30599856512)
(-0.266028880746 -0.275260248867 0.983512495427)
(0.115727710144 -0.279294279682 1.00265567888)
(-0.598545163091 0.202887071976 1.36305254564)
(-1.94128132533 0.366622534663 0.933876958507)
(-1.958477307 0.0892972770872 0.116827010711)
(-0.894608203857 -0.15919898454 -0.216855775138)
(-0.105083698493 -0.21609700096 -0.142469687619)
(0.200370082761 -0.188997170949 -0.0771896085545)
(0.375782145937 -0.146755501057 -0.0451149362456)
(0.459137169024 -0.0580356007953 -0.0799515763269)
(0.501569159419 -0.0346932915764 -0.0669763537298)
(0.623328568165 -0.01391435105 -0.0569051420465)
(0.744328815386 -0.00514315428415 -0.0410176044484)
(0.84430051878 -0.00136355972471 -0.0268136316048)
(0.906408920551 -0.00129771526976 -0.0107569666203)
(0.928614482715 -0.00260570076091 0.00255853469872)
(0.913920815544 -0.0040704912033 0.0126120764606)
(0.870657583376 -0.00525380348863 0.0193714120994)
(0.808131217667 -0.00634148294392 0.0232504680629)
(0.734399845983 -0.00735041003327 0.0249305194654)
(0.655779704021 -0.00831147599382 0.0250158768445)
(0.576957452849 -0.00919010421325 0.0239784900271)
(0.501216751248 -0.00997241208131 0.0222069452428)
(0.430652089825 -0.0106562865327 0.0200063528368)
(0.366384719452 -0.0112322138434 0.0175708020422)
(0.308865928114 -0.0115812053479 0.015188418145)
(0.258072922844 -0.010944453777 0.013415443581)
(0.214438253626 -0.0111308985321 0.0136190516145)
(0.177486690908 -0.0118903371737 0.0104414449411)
(0.145618809149 -0.0119732467939 0.00870759148874)
(0.118697510755 -0.0121131442486 0.00728294987736)
(0.0943530194779 -0.0123969858759 0.00656731577367)
(0.0730560633902 -0.0127371004502 0.00602522733822)
(0.0521883097416 -0.0130414528131 0.00571354882799)
(0.0280536720844 -0.0132235609024 0.00716404935604)
(0.0073255391167 -0.0129853608539 0.00635642788479)
(0.408190443738 -0.15295466919 -0.157831966941)
(1.68863900419 -0.0323898633855 -0.170142236217)
(1.92655708042 0.0812522138993 0.737128022034)
(0.352498558298 -0.142042450349 1.16536559989)
(-0.404014732024 -0.603321537172 0.635764034613)
(0.240015572803 -0.610139533439 0.658662060555)
(-0.422382875662 -0.195971640903 1.2092913873)
(-1.90268808185 0.0491775216416 0.910421240807)
(-2.02834271157 -0.0235282556279 0.10414110979)
(-0.941325144717 -0.126130877401 -0.239922881339)
(-0.105518096848 -0.140606191195 -0.153080139631)
(0.2191816388 -0.114051686796 -0.0806927885061)
(0.400415452313 -0.0671116539137 -0.0515084592071)
(0.479359830854 -0.0526912644675 -0.0696729774758)
(0.512630282717 -0.0206335065617 -0.0646166660532)
(0.629484815101 -0.00800141972352 -0.0550770984277)
(0.747144454734 -0.00194356002891 -0.0403034359973)
(0.844970109274 -3.65511029603e-05 -0.0264668981514)
(0.906036549992 -0.00038239250554 -0.0106549575755)
(0.927926484819 -0.00160797710601 0.00254903453155)
(0.913264395956 -0.00292011415615 0.0124390287614)
(0.870109607915 -0.00400830066937 0.01919756898)
(0.807637175185 -0.00495146426037 0.0230713157161)
(0.733948640239 -0.00578781455204 0.0247642130632)
(0.655368695383 -0.00654654519178 0.0248282322689)
(0.576597564042 -0.00717603443334 0.0238347244442)
(0.500905201931 -0.00771774370214 0.0220795172472)
(0.430381166325 -0.00818292044312 0.0198928831235)
(0.366188656108 -0.0085587199281 0.0174859930108)
(0.308818737496 -0.00876591830945 0.0150683916221)
(0.258337407301 -0.00873744087233 0.0128690241457)
(0.214346241172 -0.00820405910607 0.011247630953)
(0.177131639683 -0.00899796420381 0.0102567497568)
(0.145563502113 -0.00906512797761 0.00851116221975)
(0.118594778827 -0.00917876676386 0.00708047314432)
(0.0942004285868 -0.00941262046284 0.00634462150942)
(0.0728949391628 -0.00970218218846 0.00576861649474)
(0.052060151017 -0.00996418585835 0.00540421001736)
(0.0280363829692 -0.0100966286095 0.00677335410538)
(0.00736322605351 -0.0100962487014 0.00597397499618)
(0.427947281189 0.0145036643232 -0.180945574148)
(1.71140938137 0.0320875223298 -0.200790645726)
(1.88097215503 0.0197458726948 0.678194539072)
(0.207658950427 -0.12549828433 1.01454578508)
(-0.5005993817 -0.343365871139 0.343187525123)
(0.321020663391 -0.355254862163 0.371793512234)
(-0.287671713136 -0.18180786314 1.05018623164)
(-1.84554453691 -0.0534198589674 0.85333882811)
(-2.03672909548 -0.0422776123488 0.0813113063748)
(-0.951413029212 -0.0534793607671 -0.25480004263)
(-0.0993944196483 -0.0459176429749 -0.158711747519)
(0.237113955745 -0.0313271985639 -0.0833418488341)
(0.406493080124 -0.00746243149996 -0.0767047045824)
(0.482413524189 -0.0204733288205 -0.0422850803461)
(0.523937072026 -0.00400411842746 -0.062113916163)
(0.632702607342 -0.000443147471682 -0.0543508609399)
(0.748303499913 0.000846453697813 -0.03980239599)
(0.845070444549 0.000977326029036 -0.0262988632562)
(0.905621121451 0.000314406574359 -0.0106234229468)
(0.927340397784 -0.000714305701706 0.00250455906581)
(0.912709175534 -0.00176169491944 0.0123574409802)
(0.869639801083 -0.00266436143561 0.0190931384979)
(0.807235858951 -0.00342948030984 0.0229624357159)
(0.733598430477 -0.00406481088598 0.0246485597697)
(0.655080425743 -0.00458164650257 0.0247220697261)
(0.576368009747 -0.00495835382068 0.0237377225565)
(0.50070989789 -0.00524350195748 0.0219957018805)
(0.430228696395 -0.00545752754288 0.0198355366053)
(0.36609064079 -0.00560288875935 0.0174257063156)
(0.308774417599 -0.00567564360264 0.0149925385781)
(0.258351850578 -0.00568421035021 0.0126819577219)
(0.214306033976 -0.0056176254903 0.010750407891)
(0.17705410265 -0.00578030984851 0.0101931549101)
(0.145526018437 -0.00583727795143 0.00839307581212)
(0.118520765903 -0.0059221895263 0.00694471647614)
(0.0940867910826 -0.00608254771624 0.0061948825256)
(0.0727682449842 -0.006275747955 0.00559502448938)
(0.0519486857038 -0.00645217999849 0.00519809303278)
(0.027977863949 -0.00647353879499 0.00651970385735)
(0.00735297798139 -0.00656473836281 0.00571881631602)
(0.422478939602 0.20294355508 -0.176912662781)
(1.69398192758 0.144052910168 -0.198099573679)
(1.85228303117 0.0640268581854 0.678233704459)
(0.176467496696 0.0808331242625 1.01009631762)
(-0.51906266194 0.184587682699 0.334069029661)
(0.321431089818 0.161685994826 0.364983905121)
(-0.275781550853 0.0234739125053 1.04752992001)
(-1.83187030398 -0.0497736091457 0.854308275697)
(-2.02508607896 -0.0128363510261 0.0835355661172)
(-0.942700089399 0.0390215798159 -0.252333830988)
(-0.0946091847565 0.0573668786749 -0.156811673965)
(0.238375742942 0.0532723156857 -0.0819745615808)
(0.405837763585 0.0278626527403 -0.0756535374615)
(0.481092948825 0.037137510237 -0.0422144057851)
(0.522646150339 0.014213907964 -0.0620311685581)
(0.631920757562 0.00671492869561 -0.0543269885907)
(0.747850613154 0.00338397598886 -0.0398769555211)
(0.844700341985 0.00185720146396 -0.026388381679)
(0.905190528012 0.000873755703819 -0.0106893870632)
(0.926887615829 7.41979874626e-05 0.0024395433946)
(0.912287901869 -0.000681780518084 0.012298961356)
(0.86927487718 -0.00134518615215 0.0190432857851)
(0.80693605368 -0.00190635877716 0.022914928719)
(0.733372223447 -0.00231352952161 0.0246063238461)
(0.654920901146 -0.00255919759895 0.0246870626094)
(0.576265877976 -0.00268884021782 0.0237001662335)
(0.500655048545 -0.00270061275595 0.0219645350566)
(0.430200916648 -0.00263819414489 0.019805567242)
(0.366079187797 -0.00255475404409 0.017401079488)
(0.308777658695 -0.0024798038021 0.0149631634727)
(0.258366091545 -0.00242811992789 0.0126464132996)
(0.214297840664 -0.00244372812038 0.0107334781012)
(0.177021460157 -0.0024003527951 0.0101611127339)
(0.145492120338 -0.00245585800637 0.00835075670347)
(0.118471257713 -0.00251341467717 0.00690437499924)
(0.0940194530621 -0.0025905716426 0.00615144151601)
(0.0726845553913 -0.00267130039175 0.00554783302091)
(0.0518644744208 -0.00274706579913 0.0051422656804)
(0.0279112788752 -0.00263890794112 0.00645727072177)
(0.00732927964626 -0.00278076203569 0.00564442092791)
(0.393132871 0.36750040969 -0.146868940436)
(1.63946849382 0.213331494377 -0.162901678592)
(1.84504556999 0.0235743964863 0.736761680404)
(0.262378646964 0.138914496452 1.15382462486)
(-0.459985534869 0.500825034264 0.614248001748)
(0.239801500947 0.467896183653 0.641148094717)
(-0.388908420602 0.0747414349046 1.20347274616)
(-1.864680973 -0.12880315459 0.913838988564)
(-1.99563661958 -0.0176358227267 0.111001722937)
(-0.916751255006 0.118633985971 -0.232883473848)
(-0.0921010495914 0.154151339982 -0.147367733299)
(0.222392948216 0.135095820159 -0.0768620644179)
(0.398427966266 0.0870496556308 -0.0486327258242)
(0.475582622525 0.0664958444764 -0.0693603539925)
(0.508728637916 0.0298844769901 -0.0643361816788)
(0.627268131953 0.013424826132 -0.0550812041516)
(0.745880837552 0.00611022723225 -0.0405252784034)
(0.843818594444 0.00277225158265 -0.0266728764224)
(0.904729492011 0.00141025019983 -0.0108655652871)
(0.926563664346 0.00076561628703 0.00237272412438)
(0.91200362871 0.000330530295988 0.012220671522)
(0.869026791425 -0.000148168437833 0.019051921319)
(0.806752882995 -0.000487783096186 0.0229308172958)
(0.73327286441 -0.00065615045238 0.0246274504244)
(0.654893688412 -0.000642051326009 0.0247232617951)
(0.576298055361 -0.000497523296276 0.0237313086321)
(0.500735835572 -0.000233582572454 0.0219881897479)
(0.430302192792 0.000100606399369 0.0198132332447)
(0.366170290377 0.000420936736822 0.0174134820611)
(0.308838173262 0.000650646119406 0.014966825872)
(0.258370243027 0.000680235101251 0.012719431044)
(0.214320305419 -0.000122622410108 0.0112161326063)
(0.177048449106 0.000884892135435 0.010160400153)
(0.14546993096 0.000884665182199 0.00838936550947)
(0.118453320923 0.000870819633099 0.00695186234815)
(0.0940022197608 0.000876015225737 0.00620288533132)
(0.0726483885995 0.000901762284279 0.00561083284401)
(0.051810296511 0.000920137335959 0.00522059858618)
(0.0278285475186 0.00114099296175 0.00656602071083)
(0.00728141028445 0.000896684054279 0.0057501508435)
(0.330910135994 0.47651156286 -0.0974723516345)
(1.51619092427 0.186062617544 -0.12769808127)
(1.80436901048 -0.220877109993 0.76398816778)
(0.399224878523 -0.178133335177 1.2896618315)
(-0.354029087182 0.268350239101 0.955276368032)
(0.106752685642 0.228816679522 0.980770995199)
(-0.555267022185 -0.258281449473 1.35676614442)
(-1.88758601557 -0.403945164382 0.940369900481)
(-1.9107672899 -0.104282321574 0.127835714982)
(-0.858539738082 0.16413858822 -0.205444309046)
(-0.0860288057562 0.233076019495 -0.133393598938)
(0.204827135716 0.208659367484 -0.0708070986079)
(0.371504898074 0.163967365046 -0.0416484188353)
(0.452471390814 0.0684507672419 -0.0782167218585)
(0.496084843501 0.0424677730948 -0.0665771455002)
(0.620006728384 0.0198802794665 -0.0565152218285)
(0.742530897656 0.0091193156613 -0.0412807012248)
(0.842360610229 0.00391130069623 -0.0271707145532)
(0.904188911955 0.00204759512468 -0.0111056800736)
(0.92635287454 0.00144353016916 0.00223563457361)
(0.911842625787 0.00120408465534 0.0123562969171)
(0.868867879864 0.000876366443433 0.0191171451173)
(0.806687888899 0.00074960606609 0.0230141609568)
(0.733299065276 0.000817523072321 0.0247181421266)
(0.655005441297 0.00109393561551 0.0248313801906)
(0.576474076387 0.00152454707751 0.0238169257256)
(0.500957552321 0.00206996659561 0.0220558912606)
(0.430531139339 0.00267120261425 0.0198447667693)
(0.366356854562 0.00319679692106 0.0174602986147)
(0.308909519214 0.00356816900371 0.0150265716724)
(0.257981530777 0.00340708177641 0.0130598313151)
(0.214402246444 0.00315965231121 0.0139830347899)
(0.177527346646 0.00399158072615 0.0103015026663)
(0.145487678952 0.0040515878864 0.00849836126576)
(0.118469271614 0.00408492666441 0.00706561500007)
(0.0940299740389 0.00415899811128 0.00632933813498)
(0.0726511761017 0.00425448632485 0.00576395556554)
(0.0517726828561 0.00433941833318 0.00540854179519)
(0.0277036229792 0.00461612959402 0.00682324595387)
(0.00718932022979 0.0041733319012 0.00601105926653)
(0.228877648067 0.530567906334 -0.0393963303212)
(1.28457943985 0.0918283669309 -0.133194447457)
(1.65648238593 -0.599080216104 0.648288789615)
(0.479875759687 -0.800119476613 1.22248493633)
(-0.255247157567 -0.446958011888 1.05545202015)
(-0.0249713762905 -0.490935393289 1.0814869611)
(-0.680247334629 -0.894239441978 1.29637897322)
(-1.80636818854 -0.810877323788 0.825638434501)
(-1.72461657977 -0.239714256191 0.0956998997833)
(-0.751787396887 0.182711882782 -0.182301763077)
(-0.0700273576183 0.293827524863 -0.117227049403)
(0.187432260478 0.266980202622 -0.0668659073852)
(0.32804263829 0.211567158513 -0.0493658296791)
(0.414640213322 0.0863489497683 -0.0742374372306)
(0.484341858465 0.0551959767448 -0.0685143410059)
(0.610535091707 0.0266353127244 -0.0586905252645)
(0.737888425783 0.012254526437 -0.0422366253727)
(0.84030114902 0.00527574623529 -0.0277849391608)
(0.903507993527 0.00276146956683 -0.0113439582577)
(0.926164532551 0.00206219324907 0.00217952868507)
(0.911744435726 0.00174646647341 0.0125499270715)
(0.868819922581 0.00158001349153 0.0192920495149)
(0.806744758994 0.00164541710117 0.0232111990026)
(0.733464905672 0.00194361878842 0.0249308789737)
(0.655265575808 0.00247882256596 0.0250365356783)
(0.576801678166 0.00318357019633 0.0240010822819)
(0.501322822131 0.00399832736588 0.0222100463688)
(0.430877462796 0.00483186230685 0.0200041275591)
(0.366629006468 0.00555491496574 0.0175797353878)
(0.308952307087 0.00598580510045 0.0152267945502)
(0.258174390299 0.00445159349041 0.0138875195123)
(0.214620934426 0.00669526989293 0.0130812459281)
(0.177503449224 0.00670873402887 0.0104453660815)
(0.145527268125 0.00683421768078 0.0087096230671)
(0.118519307398 0.00691614981006 0.00727325457142)
(0.0940927316322 0.00703615057405 0.00655368513303)
(0.0726818244082 0.00713802136627 0.00602784228017)
(0.0517347745367 0.00726553800475 0.00571777004591)
(0.0274901097077 0.00752506608695 0.00722148517759)
(0.00701803849482 0.0067738915667 0.00635594701987)
(0.0930997494455 0.553391496958 0.020482177719)
(0.9422705019 0.0205893298838 -0.182835710051)
(1.3575381772 -0.912649675783 0.377697860276)
(0.455486035102 -1.40337389386 0.867803652927)
(-0.195665565557 -1.22541996323 0.808220393846)
(-0.121837972706 -1.27076334658 0.836579388158)
(-0.705229101083 -1.50656824554 0.945351189454)
(-1.57999187281 -1.14497014408 0.548324035345)
(-1.42971420186 -0.330256703747 0.00731503537273)
(-0.599066900417 0.206043169038 -0.167770172261)
(-0.0465054816609 0.343984534373 -0.102476456603)
(0.161807153251 0.310526590274 -0.0633539575657)
(0.280052579441 0.233624831083 -0.0548496520133)
(0.373611714977 0.115447145348 -0.0733245118952)
(0.465849385004 0.0650621319206 -0.0714175666329)
(0.598376326595 0.033254199769 -0.0605947804804)
(0.731801737181 0.0153003517383 -0.0433215327948)
(0.837646399076 0.00655491522971 -0.0282193641403)
(0.902631443085 0.00324082038343 -0.0113349332756)
(0.925925504746 0.00215375135856 0.00270999097194)
(0.911673557743 0.00165161120344 0.0130422982437)
(0.868895122306 0.00157629707685 0.0198466435638)
(0.80694390933 0.00179812834477 0.0237833904956)