/*--------------------------------*- C++ -*----------------------------------*\
| =========                 |                                                 |
| \\      /  F ield         | OpenFOAM: The Open Source CFD Toolbox           |
|  \\    /   O peration     | Version:  3.0.1                                 |
|   \\  /    A nd           | Web:      www.OpenFOAM.org                      |
|    \\/     M anipulation  |                                                 |
\*---------------------------------------------------------------------------*/
FoamFile
{
    version     2.0;
    format      ascii;
    class       volScalarField;
    location    "0.7";
    object      p_rgh;
}
// * * * * * * * * * * * * * * * * * * * * * * * * * * * * * * * * * * * * * //

dimensions      [1 -1 -2 0 0 0 0];

internalField   nonuniform List<scalar> 
15984
(
4888.64391291
4888.53965237
4888.3251676
4888.11616964
4888.0544457
4888.20448564
4888.58554183
4889.15186365
4889.7880195
4890.38577889
4890.90631491
4891.33718744
4891.67588365
4891.92022083
4892.080363
4892.16885193
4892.20001602
4892.1883877
4892.14640314
4892.08452937
4892.01119737
4891.93294724
4891.85458046
4891.77939419
4891.70946212
4891.64594079
4891.58933254
4891.53968771
4891.49674657
4891.46004643
4891.42899961
4891.40295164
4891.38124584
4891.36322734
4891.34840404
4891.33623469
4891.326706
4891.31912332
4891.31418807
4891.3116027
4888.6273969
4888.52301468
4888.28569701
4888.04484852
4887.96358969
4888.11173125
4888.50979663
4889.10611554
4889.76988942
4890.38339954
4890.91016121
4891.34295579
4891.67912485
4891.92175708
4892.08076265
4892.16851559
4892.19910898
4892.18708375
4892.14487418
4892.08289439
4892.0095403
4891.93132028
4891.85301133
4891.7778938
4891.70803714
4891.64459035
4891.58805221
4891.53847043
4891.49558447
4891.45893209
4891.42792823
4891.40191446
4891.38024755
4891.36225326
4891.34746152
4891.3353198
4891.32584043
4891.31828788
4891.31340371
4891.31106879
4888.56310556
4888.43547678
4888.12935646
4887.80921116
4887.681081
4887.82697385
4888.2697363
4888.94425803
4889.68415052
4890.34612727
4890.89677712
4891.33905183
4891.67875547
4891.92204046
4892.08088247
4892.16829442
4892.19877938
4892.18642795
4892.14408666
4892.08205486
4892.00870952
4891.93053873
4891.8523005
4891.77726289
4891.70748873
4891.64412147
4891.58765601
4891.53814092
4891.4953118
4891.45870856
4891.42775383
4891.40176795
4891.38015351
4891.36216801
4891.34740048
4891.33528674
4891.32592742
4891.31836793
4891.31349031
4891.31134374
4888.46257145
4888.28733078
4887.87129904
4887.4304283
4887.23148325
4887.37484145
4887.88661707
4888.68092415
4889.5391339
4890.27841245
4890.86874168
4891.32831708
4891.67487836
4891.92035913
4892.08009599
4892.16778005
4892.19835503
4892.18597776
4892.14362966
4892.08161743
4892.00832617
4891.93023267
4891.85208264
4891.77713774
4891.70745368
4891.64417395
4891.58778893
4891.53834489
4891.49557595
4891.45902772
4891.4281503
4891.40217208
4891.38067082
4891.36265226
4891.34789969
4891.33580225
4891.32636167
4891.3188485
4891.31401682
4891.31190713
4888.33575506
4888.09224264
4887.53526622
4886.94359684
4886.65603311
4886.79670509
4887.39584846
4888.34004635
4889.34746234
4890.18593947
4890.82792263
4891.31131966
4891.66786294
4891.91644849
4892.07836824
4892.16690621
4892.19783108
4892.18562277
4892.14339899
4892.08146323
4892.00825704
4891.93025596
4891.85220148
4891.77734909
4891.70775213
4891.64455467
4891.5882462
4891.53886913
4891.49615742
4891.45966456
4891.42897217
4891.40293512
4891.38133779
4891.3633797
4891.34864466
4891.33655719
4891.32709287
4891.31958412
4891.31474951
4891.3125955
4888.19622619
4887.87302116
4887.15992494
4886.40292229
4886.01695947
4886.15478358
4886.85145676
4887.96035852
4889.13134776
4890.0798331
4890.77972531
4891.29031375
4891.65890812
4891.91115023
4892.07583832
4892.16573278
4892.19720732
4892.18529037
4892.14325074
4892.08143928
4892.00833216
4891.93042656
4891.85246328
4891.77769613
4891.70817887
4891.64505422
4891.58881496
4891.53949753
4891.49683455
4891.46038152
4891.42973494
4891.40371102
4891.38209196
4891.36415769
4891.34943291
4891.33735381
4891.32788457
4891.32037222
4891.31552171
4891.31329915
4888.06008232
4887.65710869
4886.79159759
4885.87283595
4885.38903657
4885.52394524
4886.31776886
4887.58763838
4888.91762337
4889.97379095
4890.73079772
4891.26849355
4891.64949745
4891.90542975
4892.07307144
4892.16444192
4892.19656404
4892.18498683
4892.14314842
4892.08147462
4892.00846541
4891.93064581
4891.85276104
4891.77806621
4891.70861385
4891.64554919
4891.58936689
4891.5400981
4891.49747579
4891.46104592
4891.43026379
4891.40442227
4891.38279806
4891.36487251
4891.35015439
4891.33808368
4891.3286177
4891.32110352
4891.31624037
4891.3139629
4887.94358106
4887.47157321
4886.47533776
4885.41677064
4884.84656192
4884.9786881
4885.85814775
4887.26677351
4888.73265577
4889.88135423
4890.68774367
4891.24898336
4891.63977631
4891.90160219
4892.07087531
4892.16310485
4892.19612772
4892.18475744
4892.14310153
4892.08154903
4892.00862808
4891.93086852
4891.85304162
4891.77840281
4891.70899426
4891.6459769
4891.58983631
4891.54060692
4891.49801624
4891.46160457
4891.43079959
4891.40500531
4891.38338781
4891.36546629
4891.35075296
4891.33869087
4891.32923183
4891.32171976
4891.31685178
4891.31454333
4887.86033891
4887.33809308
4886.24692605
4885.08514846
4884.44935669
4884.57924631
4885.52311801
4887.03349004
4888.59771272
4889.81363695
4890.65611297
4891.23456699
4891.6323292
4891.89926987
4892.06944728
4892.1622794
4892.1957688
4892.1846742
4892.14313846
4892.08166553
4892.00879499
4891.93107527
4891.8532819
4891.77867268
4891.70930357
4891.64630892
4891.59019699
4891.54099364
4891.49842717
4891.4620281
4891.43121915
4891.40536551
4891.38382807
4891.36591281
4891.35120408
4891.33914961
4891.32969838
4891.322191
4891.31732401
4891.31500305
4887.81961304
4887.2707192
4886.12885915
4884.9110344
4884.23866625
4884.36701549
4885.3460406
4886.91073118
4888.52669976
4889.77810355
4890.63972514
4891.2272758
4891.62865256
4891.89838972
4892.06895659
4892.16202839
4892.19570859
4892.1847652
4892.14328461
4892.08183571
4892.00897622
4891.93126051
4891.85347291
4891.77887079
4891.70951661
4891.64653281
4891.59043363
4891.54124529
4891.49869185
4891.46230107
4891.43149222
4891.40562664
4891.38411027
4891.36620017
4891.35149516
4891.33944634
4891.33000149
4891.32249918
4891.31763556
4891.31531312
4887.82595635
4887.2762704
4886.13247638
4884.91184562
4884.23709202
4884.36472025
4885.34446821
4886.90996895
4888.5266068
4889.77854529
4890.64049625
4891.22815702
4891.62944385
4891.89900602
4892.06942314
4892.16240535
4892.19605345
4892.18507004
4892.14354897
4892.08205933
4892.00916164
4891.93141295
4891.85360185
4891.7789837
4891.70962212
4891.6466353
4891.59053617
4891.54135044
4891.49880047
4891.46241233
4891.43160352
4891.40573528
4891.38422637
4891.36632068
4891.35161741
4891.33957174
4891.33013019
4891.322632
4891.3177715
4891.31545089
4887.87919634
4887.35478187
4886.25826289
4885.08857049
4884.44581292
4884.5734222
4885.51903626
4887.03162317
4888.59767363
4889.81500285
4890.65843321
4891.23717056
4891.63464611
4891.90107104
4892.07081657
4892.16340705
4892.19676233
4892.18557515
4892.14392019
4892.08232331
4892.00933793
4891.93152077
4891.85365815
4891.77900326
4891.709611
4891.64660701
4891.59049679
4891.54130201
4891.49874625
4891.46235468
4891.43154354
4891.40567431
4891.38417487
4891.36626917
4891.35156567
4891.33951986
4891.33007872
4891.32258352
4891.31772646
4891.31541303
4887.97442383
4887.49942706
4886.49555812
4885.42540595
4884.84436195
4884.97228177
4885.85357999
4887.26501895
4888.73335466
4889.88396771
4890.69164234
4891.25318578
4891.64346938
4891.90442499
4892.07306538
4892.16492235
4892.19774749
4892.18621971
4892.14436775
4892.08260509
4892.00948575
4891.93157093
4891.85363294
4891.77892013
4891.70947678
4891.64644655
4891.59031123
4891.54109693
4891.49852643
4891.46212579
4891.43131029
4891.40545074
4891.38394524
4891.36604224
4891.35133766
4891.33928975
4891.32984655
4891.32235452
4891.31750334
4891.31520636
4888.101986
4887.69588307
4886.8219196
4885.88976541
4885.392494
4885.52103218
4886.3155425
4887.58774295
4888.92002083
4889.97809293
4890.73631719
4891.27409129
4891.65421467
4891.9091271
4892.07593982
4892.16685799
4892.19879395
4892.1869682
4892.14484784
4892.08287232
4892.00958586
4891.93155325
4891.85351947
4891.7787306
4891.70923073
4891.64615472
4891.58998258
4891.54073865
4891.49814657
4891.46173059
4891.4309053
4891.40510148
4891.38354737
4891.36564383
4891.35093777
4891.33888571
4891.32944018
4891.32195311
4891.31711423
4891.31485028
4888.24790583
4887.92206141
4887.20105678
4886.43060775
4886.02996788
4886.15933329
4886.85452787
4887.96424414
4889.13652476
4890.08632072
4890.78691398
4891.2970563
4891.66441253
4891.9153857
4892.07918184
4892.1687139
4892.19994197
4892.18773514
4892.1453194
4892.08310605
4892.00964692
4891.93147656
4891.85333281
4891.77845614
4891.70888552
4891.64575285
4891.58953398
4891.54025183
4891.4976308
4891.46119485
4891.43035398
4891.4045465
4891.3830045
4891.36509379
4891.35038426
4891.33832687
4891.32888001
4891.32140119
4891.31658383
4891.31437554
4888.39569468
4888.15050255
4887.58707212
4886.98325755
4886.68107007
4886.81158995
4887.40660261
4888.34942447
4889.35648433
4890.19510458
4890.8368082
4891.31901486
4891.67385998
4891.92091483
4892.08197468
4892.1702824
4892.20100011
4892.18846582
4892.14576846
4892.08333353
4892.0097003
4891.9313874
4891.85312718
4891.77815455
4891.70850486
4891.64530583
4891.58903073
4891.53970435
4891.49704785
4891.46058579
4891.42971876
4891.40389211
4891.38238366
4891.36444673
4891.34973042
4891.33766566
4891.32821855
4891.32074962
4891.31596079
4891.31382308
4888.52922336
4888.35348854
4887.93299502
4887.48203807
4887.26942828
4887.40149618
4887.90660202
4888.69698674
4889.55286059
4890.29067917
4890.87937654
4891.3368933
4891.68109521
4891.92486584
4892.08396126
4892.17142502
4892.20186754
4892.18914817
4892.14624018
4892.08363187
4892.00984377
4891.93139618
4891.85302157
4891.77795051
4891.70821594
4891.64494473
4891.58860459
4891.53922593
4891.49652784
4891.46003512
4891.42915862
4891.40326462
4891.3818374
4891.36381918
4891.34908836
4891.33701106
4891.32755993
4891.32009681
4891.31533375
4891.31325045
4888.63502085
4888.50814711
4888.19968041
4887.8717857
4887.7314401
4887.86548318
4888.29941513
4888.96759003
4889.70303306
4890.3617359
4890.9093115
4891.34845183
4891.685053
4891.92667853
4892.08475765
4892.17205822
4892.20251533
4892.18984924
4892.14687574
4892.08416589
4892.01026303
4891.93170308
4891.85322346
4891.77805804
4891.70823774
4891.64488668
4891.58847883
4891.53904091
4891.49629432
4891.45976464
4891.42886133
4891.40293675
4891.38137059
4891.36340429
4891.34865796
4891.33655939
4891.32707804
4891.31961016
4891.31485497
4891.31276312
4888.7038455
4888.60144522
4888.36377716
4888.11740628
4888.02551201
4888.16176149
4888.54946284
4889.13734164
4889.79454588
4890.4028194
4890.92482098
4891.35347007
4891.68561763
4891.92617141
4892.08450285
4892.17216824
4892.20301341
4892.19067938
4892.14779762
4892.08508348
4892.01112884
4891.93249554
4891.85393568
4891.77868847
4891.70878949
4891.64536494
4891.58889028
4891.53939316
4891.4965968
4891.46002743
4891.42909176
4891.40313694
4891.3815107
4891.36353933
4891.34876621
4891.33664347
4891.32714996
4891.31965396
4891.31485633
4891.31255443
4888.72539848
4888.62419093
4888.41065308
4888.19762851
4888.12649691
4888.26497592
4888.6349537
4889.19137237
4889.81908699
4890.40956269
4890.92338602
4891.34767231
4891.68247176
4891.92442245
4892.08382339
4892.17187545
4892.20391596
4892.19208367
4892.14944181
4892.08682189
4892.01287511
4891.93420565
4891.85558788
4891.78027297
4891.71030152
4891.64680457
4891.59026227
4891.54070383
4891.49785369
4891.46123815
4891.43026262
4891.40427178
4891.38260318
4891.36460664
4891.34979953
4891.33764968
4891.32813282
4891.32058894
4891.31571429
4891.31313203
4888.69258841
4888.58735263
4888.37711097
4888.17251525
4888.11354432
4888.26185603
4888.63761499
4889.19592345
4889.8226416
4890.41210484
4890.92745793
4891.35695801
4891.69270449
4891.93682379
4892.0958857
4892.18248675
4892.21149509
4892.19729615
4892.15289088
4892.08891107
4892.01390907
4891.93440389
4891.85514324
4891.77935191
4891.709037
4891.64529677
4891.58858987
4891.53893218
4891.49603711
4891.45942094
4891.42847896
4891.40254492
4891.38094742
4891.36301689
4891.34825765
4891.33609765
4891.32654144
4891.31894974
4891.31390274
4891.31136832
4888.6696352
4888.56515847
4888.33890433
4888.11005454
4888.0351919
4888.1824177
4888.57288778
4889.15504291
4889.8018911
4890.40331238
4890.92405959
4891.35524029
4891.69290701
4891.93558325
4892.09460758
4892.18113587
4892.2100712
4892.19583591
4892.15141637
4892.08745716
4892.01246683
4891.93297984
4891.85373679
4891.77795847
4891.70765954
4891.64393717
4891.58724788
4891.53760635
4891.49472461
4891.4581179
4891.42718171
4891.40125093
4891.37965585
4891.36172359
4891.3469756
4891.33481189
4891.32525105
4891.3177094
4891.31278356
4891.31075911
4888.60502784
4888.47216659
4888.17709027
4887.86879179
4887.74677852
4887.8920515
4888.3286847
4888.98921545
4889.71083456
4890.36001928
4890.90535888
4891.34726755
4891.68852487
4891.93418232
4892.09311364
4892.17997397
4892.20902013
4892.19488111
4892.15048978
4892.0865616
4892.01161543
4891.93217505
4891.85297684
4891.77724986
4891.70699946
4891.6433214
4891.58667489
4891.53707528
4891.4942299
4891.45765254
4891.42673233
4891.40081163
4891.37921444
4891.36128561
4891.34654881
4891.33437884
4891.32473668
4891.31725448
4891.31248134
4891.31089521
4888.50650222
4888.32057999
4887.91232183
4887.47935596
4887.28285501
4887.42595219
4887.93564415
4888.719617
4889.56027814
4890.28727886
4890.87312182
4891.33365419
4891.68227848
4891.93052348
4892.09146083
4892.17881703
4892.20820776
4892.19436596
4892.15002326
4892.08617855
4892.01131159
4891.93194766
4891.85282781
4891.77716833
4891.70698481
4891.64337473
4891.58679346
4891.53724982
4891.49445249
4891.45790584
4891.42699
4891.40108385
4891.3794368
4891.36152666
4891.34681846
4891.33466084
4891.32509642
4891.31759957
4891.31285582
4891.31145382
4888.38513483
4888.12869935
4887.57875541
4886.9900729
4886.69920824
4886.83946151
4887.44306075
4888.38053058
4889.3690495
4890.19351675
4890.83068051
4891.31527231
4891.67410453
4891.92582779
4892.08913519
4892.17744815
4892.20740975
4892.19393416
4892.14980904
4892.08606154
4892.01130323
4891.93203565
4891.85300172
4891.77742567
4891.70731959
4891.64377999
4891.58726782
4891.53778464
4891.49503773
4891.45852741
4891.42752643
4891.40166605
4891.3801317
4891.36222783
4891.34750764
4891.33535453
4891.32579907
4891.3182996
4891.31356996
4891.3121549
4888.25223746
4887.91643006
4887.20986572
4886.44699918
4886.04699456
4886.18408814
4886.89638977
4888.00673687
4889.15722866
4890.08884812
4890.78251117
4891.29407117
4891.66456382
4891.92045239
4892.08603388
4892.17609056
4892.20659135
4892.1934986
4892.14972386
4892.08610065
4892.0114365
4891.93227133
4891.85332702
4891.77783436
4891.70779879
4891.64432898
4891.58787949
4891.53846403
4891.49575338
4891.45927916
4891.42829988
4891.40246902
4891.38094287
4891.36304113
4891.34832097
4891.3361742
4891.3266196
4891.31911432
4891.31437989
4891.31289233
4888.12239141
4887.70746632
4886.84565552
4885.90602103
4885.39208078
4885.52573969
4886.35194819
4887.63725963
4888.94838498
4889.98528927
4890.73443543
4891.27265746
4891.65495571
4891.91486187
4892.08319619
4892.17448894
4892.20582227
4892.1931429
4892.14954814
4892.08620672
4892.01162647
4891.93255551
4891.85369635
4891.7782705
4891.70829721
4891.64488846
4891.58850542
4891.53911286
4891.49645122
4891.46001429
4891.42917153
4891.40322353
4891.38171468
4891.36382086
4891.34910501
4891.33696674
4891.32741626
4891.31990674
4891.31516162
4891.31360073
4888.01100252
4887.52685978
4886.52924145
4885.43194473
4884.81297328
4884.943186
4885.87411456
4887.31544547
4888.76664952
4889.89519949
4890.69245617
4891.25381201
4891.64646933
4891.91001675
4892.08082339
4892.17320494
4892.20513057
4892.19287215
4892.14950727
4892.08631251
4892.01185042
4891.9328364
4891.85403658
4891.77866345
4891.70874418
4891.64538032
4891.58902591
4891.53968826
4891.49705072
4891.46064027
4891.42983322
4891.40390958
4891.38236489
4891.36448386
4891.34977431
4891.33764518
4891.32810222
4891.3205923
4891.31583957
4891.3142268
4887.93138021
4887.39607472
4886.29824479
4885.08242645
4884.38057406
4884.50797142
4885.52087113
4887.07879084
4888.6330237
4889.82913645
4890.66174075
4891.2400128
4891.63953856
4891.90741408
4892.07931096
4892.17226966
4892.20480489
4892.1927495
4892.14955284
4892.08642489
4892.01209782
4891.93309011
4891.8543277
4891.77899073
4891.70909732
4891.6457645
4891.58943928
4891.54012139
4891.49751643
4891.46111579
4891.43032739
4891.4044689
4891.38284091
4891.36498654
4891.35028422
4891.33816377
4891.32862925
4891.32112218
4891.31636673
4891.31472456
4887.89267407
4887.32985087
4886.17787687
4884.8968688
4884.14785416
4884.27354509
4885.33211414
4886.95321957
4888.5623392
4889.79453287
4890.64593582
4891.23312055
4891.63572383
4891.90688664
4892.07879072
4892.17201616
4892.20473941
4892.19283115
4892.14970476
4892.08659996
4892.0123079
4891.93330361
4891.85454444
4891.77922065
4891.70933716
4891.64601852
4891.58970791
4891.54040306
4891.49781311
4891.46141983
4891.43064026
4891.40479102
4891.38309945
4891.36530556
4891.35061111
4891.33849745
4891.32896996
4891.32146763
4891.31671317
4891.31505845
4887.89940343
4887.33574693
4886.1816699
4884.8975546
4884.14608394
4884.27126446
4885.33082109
4886.95283986
4888.56260809
4889.79523587
4890.64690876
4891.23413503
4891.6365941
4891.90754135
4892.07927482
4892.17239924
4892.20507335
4892.19313477
4892.14997189
4892.08682814
4892.01249998
4891.93346146
4891.8546789
4891.77934298
4891.70945044
4891.64612833
4891.58981804
4891.54051532
4891.49792864
4891.46153973
4891.43076249
4891.40491346
4891.38320949
4891.36543368
4891.35074151
4891.3386314
4891.32910878
4891.32161118
4891.31686022
4891.31520444
4887.95133632
4887.41376488
4886.31017141
4885.08556238
4884.37647405
4884.50207712
4885.51743009
4887.07799233
4888.63404162
4889.83131954
4890.66464894
4891.2430013
4891.64209015
4891.90932606
4892.08073637
4892.17340746
4892.20583123
4892.19364768
4892.15034408
4892.08709908
4892.01267581
4891.93355223
4891.85472319
4891.77934619
4891.70942736
4891.64608607
4891.58976145
4891.54045223
4891.49785792
4891.46146847
4891.43068871
4891.40483711
4891.38321355
4891.36536768
4891.35067013
4891.33856076
4891.32903962
4891.32154745
4891.31680237
4891.31515756
4888.04348839
4887.55622788
4886.5504812
4885.44042611
4884.81009897
4884.93689804
4885.8706905
4887.31539631
4888.76900346
4889.89909015
4890.69727292
4891.25861609
4891.65048153
4891.91307037
4892.08309746
4892.17502401
4892.20677677
4892.19434027
4892.15079242
4892.0873969
4892.01273606
4891.93357369
4891.85466538
4891.77922347
4891.70926554
4891.6458897
4891.58954001
4891.54021969
4891.49759834
4891.4612074
4891.4304188
4891.40453683
4891.38297266
4891.36510191
4891.35040033
4891.33828877
4891.32876746
4891.32128177
4891.31654655
4891.314927
4888.16623731
4887.74808784
4886.87742178
4885.92323046
4885.39523121
4885.52332682
4886.35138491
4887.63961077
4888.95288467
4889.99121738
4890.74114193
4891.27904151
4891.66016934
4891.91880532
4892.08616988
4892.17700107
4892.20804546
4892.19513516
4892.15127732
4892.08767461
4892.01278783
4891.93351023
4891.85450406
4891.778991
4891.7089711
4891.64554884
4891.5891668
4891.53980648
4891.49717543
4891.46076917
4891.42996065
4891.40391519
4891.38252629
4891.36465122
4891.34994661
4891.33783158
4891.32830972
4891.32083337
4891.31611313
4891.31453791
4888.30588718
4887.9674393
4887.25281499
4886.4756223
4886.06048258
4886.18984561
4886.9017209
4888.01324108
4889.16482143
4890.09721622
4890.79106121
4891.30175903
4891.67064862
4891.92500011
4892.08955658
4892.17908981
4892.20932358
4892.19595799
4892.15181103
4892.0878073
4892.01280459
4891.93338109
4891.85426296
4891.77866199
4891.70857668
4891.64509829
4891.58866804
4891.53927588
4891.49661678
4891.46019063
4891.42937122
4891.40338995
4891.38193435
4891.36405241
4891.34934675
4891.33722769
4891.32770731
4891.3202434
4891.31554246
4891.31402964
4888.44683044
4888.18883162
4887.63253864
4887.03127192
4886.7255076
4886.85622992
4887.45640757
4888.39283507
4889.38059585
4890.20466862
4890.84103064
4891.32399658
4891.68069399
4891.93069046
4892.09280665
4892.18090064
4892.21058947
4892.19677556
4892.1522192
4892.08798295
4892.01280906
4891.93323656
4891.85400407
4891.7783123
4891.70815514
4891.64461592
4891.588133
4891.53869954
4891.49600784
4891.45955875
4891.42873815
4891.40266992
4891.38126068
4891.36337981
4891.34868149
4891.3365596
4891.32704448
4891.31959288
4891.31490692
4891.31345444
4888.57457255
4888.38831516
4887.97603405
4887.53292035
4887.32281021
4887.45491064
4887.95863442
4888.73859986
4889.57651991
4890.30151634
4890.88526342
4891.34316661
4891.68912739
4891.93535972
4892.09550115
4892.18250355
4892.21172966
4892.19756868
4892.15267023
4892.08824642
4892.01289607
4891.93318756
4891.85384812
4891.77806985
4891.70784068
4891.64423915
4891.58770301
4891.53822437
4891.49549634
4891.45902136
4891.42818603
4891.40227777
4891.38065518
4891.36276133
4891.34810151
4891.33597979
4891.32647192
4891.31902449
4891.31433247
4891.31288016
4888.67801798
4888.54619271
4888.24932968
4887.9337286
4887.79962937
4887.93345105
4888.36147528
4889.01549393
4889.73217114
4890.37758244
4890.91926219
4891.35746785
4891.69535838
4891.9389895
4892.09707331
4892.18382285
4892.21279238
4892.19830669
4892.15329922
4892.08871311
4892.01322762
4891.93340762
4891.85398192
4891.77813334
4891.70784137
4891.64418349
4891.58759713
4891.53807473
4891.49531117
4891.45881135
4891.42796283
4891.40208754
4891.38052239
4891.36261237
4891.3478973
4891.33576359
4891.32626107
4891.31879862
4891.31406417
4891.31240762
4888.74695192
4888.64481289
4888.41892644
4888.1850552
4888.09989586
4888.23536373
4888.61553325
4889.18893787
4889.82880776
4890.42446074
4890.93990539
4891.36606593
4891.69971693
4891.94016724
4892.0984073
4892.18501294
4892.21397489
4892.19940951
4892.15433454
4892.08967332
4892.01409761
4891.93421298
4891.85473053
4891.77883363
4891.70850225
4891.6448084
4891.58818516
4891.53862863
4891.49583613
4891.45931407
4891.42845148
4891.40257618
4891.38101446
4891.36310176
4891.34836955
4891.3362345
4891.32672674
4891.31923213
4891.31437885
4891.31234253
4888.77471444
4888.67267687
4888.46388964
4888.25564521
4888.1872705
4888.32409522
4888.68874912
4889.23703117
4889.85511126
4890.43710735
4890.94543209
4891.36845034
4891.69957911
4891.94107744
4892.09935922
4892.18649905
4892.21536709
4892.20090714
4892.15586725
4892.091173
4892.01558034
4891.93567545
4891.85617927
4891.78027213
4891.7099279
4891.64621995
4891.58958398
4891.54001491
4891.49721155
4891.46068101
4891.42981238
4891.4039346
4891.38236896
4891.36445617
4891.34970969
4891.33757194
4891.32804635
4891.32049328
4891.31550463
4891.31296362
4888.83008769
4888.74161843
4888.56158599
4888.3822399
4888.33617351
4888.4795047
4888.83361877
4889.35699468
4889.94306936
4890.49756253
4890.990909
4891.40465709
4891.7342617
4891.97393423
4892.12857414
4892.20954517
4892.23288256
4892.21306804
4892.16342956
4892.09521537
4892.01689158
4891.93496818
4891.85403219
4891.77716187
4891.70620312
4891.6421368
4891.58533247
4891.53573625
4891.4930102
4891.45663062
4891.42596247
4891.40031443
4891.37899436
4891.3612936
4891.34672342
4891.33464589
4891.32514667
4891.31755371
4891.31239164
4891.30977001
4888.81210658
4888.72759984
4888.53514181
4888.33260821
4888.2708972
4888.41306345
4888.78241139
4889.328106
4889.92966981
4890.49163806
4890.98632173
4891.40581121
4891.7320306
4891.97165851
4892.12633813
4892.20773366
4892.23102836
4892.21135563
4892.16200401
4892.09383137
4892.01557318
4891.9336748
4891.8527546
4891.77586544
4891.70490644
4891.64083815
4891.58403338
4891.53443622
4891.49170624
4891.45531993
4891.42464102
4891.39898081
4891.37764987
4891.35993599
4891.34536696
4891.33326874
4891.32376808
4891.31621583
4891.31120056
4891.30922897
4888.75827714
4888.64139995
4888.36889189
4888.07227675
4887.95513369
4888.09545329
4888.51934311
4889.15694169
4889.84130844
4890.45125634
4890.96871186
4891.39541621
4891.72974656
4891.96864505
4892.12405571
4892.2061034
4892.22974978
4892.21037353
4892.16118058
4892.0931874
4892.01501307
4891.93316853
4891.8522879
4891.77544147
4891.70450165
4891.64045351
4891.58367646
4891.53411077
4891.49140019
4891.4550257
4891.42434644
4891.39868438
4891.37734096
4891.35962338
4891.34505044
4891.33293287
4891.3234166
4891.31590146
4891.31107871
4891.30954552
4888.67473601
4888.4930132
4888.07849828
4887.62172867
4887.4111423
4887.54839162
4888.06540192
4888.85879701
4889.68642361
4890.3810373
4890.93816742
4891.38203197
4891.72170819
4891.96566503
4892.12145369
4892.20442019
4892.22879749
4892.20980319
4892.16082475
4892.09299213
4892.01494543
4891.93319937
4891.85238392
4891.7755893
4891.70470701
4891.64071512
4891.58399308
4891.53447428
4891.49180087
4891.45545053
4891.42477435
4891.3991298
4891.37776266
4891.36006434
4891.34546504
4891.33333485
4891.32380965
4891.31631992
4891.31159373
4891.31022255
4888.57103132
4888.30297929
4887.70138161
4887.01653982
4886.65852287
4886.79429927
4887.46114233
4888.47247138
4889.48775001
4890.29167439
4890.89907339
4891.3653154
4891.71353385
4891.96022057
4892.11876183
4892.202524
4892.22776171
4892.20931338
4892.16055563
4892.09293489
4892.01503382
4891.93339483
4891.85266692
4891.77595341
4891.70513408
4891.64121418
4891.58455765
4891.53509105
4891.49247832
4891.45615044
4891.42547196
4891.39989379
4891.37850261
4891.36076235
4891.34617196
4891.3340442
4891.32451576
4891.31703291
4891.3123555
4891.31099663
4888.45589589
4888.08944384
4887.23633199
4886.17912031
4885.5781939
4885.70997208
4886.62312399
4888.00291185
4889.26631221
4890.19290103
4890.85555214
4891.34662529
4891.70477193
4891.95482772
4892.11553909
4892.20057032
4892.22654595
4892.2088376
4892.16046222
4892.09295996
4892.01520881
4891.93368736
4891.85305486
4891.77641633
4891.70567387
4891.64182398
4891.58525284
4891.53582015
4891.49324364
4891.45695867
4891.42629928
4891.40071634
4891.37934638
4891.36159905
4891.34700989
4891.33488957
4891.32536413
4891.31788145
4891.31322707
4891.31180855
4888.34138441
4887.87610468
4886.70469292
4885.18251713
4884.29988171
4884.4265308
4885.62564631
4887.46496461
4889.04659372
4890.09556289
4890.81254625
4891.32810013
4891.69607646
4891.94969411
4892.11231222
4892.19903546
4892.22550013
4892.20817952
4892.16035218
4892.09302928
4892.01542798
4891.93401487
4891.85346412
4891.77690141
4891.70623068
4891.64247039
4891.58590068
4891.53654513
4891.49400017
4891.45775228
4891.42714437
4891.40158869
4891.38017845
4891.36242731
4891.34784027
4891.33573067
4891.32621446
4891.3187314
4891.31408474
4891.31259371
4888.24233455
4887.69227275
4886.2444252
4884.35398648
4883.26034829
4883.3772203
4884.79217388
4887.00288475
4888.85692165
4890.0111666
4890.77526167
4891.31198178
4891.6885365
4891.94532879
4892.10981325
4892.19734421
4892.22464983
4892.20777816
4892.1602208
4892.09330824
4892.01564446
4891.93432563
4891.85384415
4891.7773455
4891.70672557
4891.64298981
4891.58652029
4891.53716298
4891.49466055
4891.45843824
4891.42785725
4891.40223593
4891.38090088
4891.36314832
4891.34856347
4891.33646623
4891.32696321
4891.31948178
4891.31483579
4891.31329221
4888.17158033
4887.56173636
4885.96347366
4883.87406504
4882.64595057
4882.75674371
4884.30859557
4886.71631227
4888.72052042
4889.94963423
4890.74816677
4891.30035138
4891.68299926
4891.94250201
4892.10814955
4892.19647922
4892.2241176
4892.20756636
4892.16018204
4892.09351078
4892.01588905
4891.93461109
4891.85416486
4891.77770762
4891.70712125
4891.64342229
4891.58695825
4891.53767758
4891.49516735
4891.4589661
4891.42840102
4891.40278459
4891.38147711
4891.36370484
4891.34912255
4891.33703599
4891.32754592
4891.32006879
4891.31542196
4891.31384938
4888.13765079
4887.49687466
4885.83583488
4883.66229544
4882.37178814
4882.47719781
4884.09252671
4886.58061948
4888.64986875
4889.91760772
4890.73442797
4891.29471855
4891.68039226
4891.94146631
4892.10756584
4892.19604669
4892.22401372
4892.20760417
4892.16028024
4892.09373346
4892.01609452
4891.93483871
4891.85440806
4891.77796017
4891.7073908
4891.64370803
4891.58725514
4891.53799061
4891.49549991
4891.45930428
4891.42874973
4891.40314358
4891.38188141
4891.36406501
4891.34948245
4891.33740432
4891.32792407
4891.32045265
4891.31580675
4891.31422221
4888.14471389
4887.50306315
4885.83878494
4883.66214678
4882.37185026
4882.47406221
4884.09396893
4886.58091429
4888.65064064
4889.91861157
4890.73560533
4891.29587538
4891.6813467
4891.94217084
4892.10807192
4892.19641222
4892.22435155
4892.20790617
4892.16054645
4892.09396464
4892.01629109
4891.93500594
4891.85455674
4891.77809256
4891.70751567
4891.64382948
4891.58737491
4891.53811318
4891.49563052
4891.4594367
4891.42888674
4891.40328729
4891.38204229
4891.36420723
4891.3496242
4891.3375508
4891.32807705
4891.3206104
4891.31596784
4891.31438291
4888.19246119
4887.58026104
4885.97530641
4883.8755387
4882.64164989
4882.75512001
4884.3072123
4886.71619744
4888.72294844
4889.95267729
4890.75167321
4891.3037534
4891.68579784
4891.94455683
4892.10963361
4892.19763725
4892.22511236
4892.20846362
4892.16100137
4892.09417501
4892.01647564
4891.93509945
4891.85459689
4891.77809411
4891.70748833
4891.64377424
4891.58731622
4891.53804397
4891.49554517
4891.45935711
4891.4288068
4891.40321144
4891.38192874
4891.36412359
4891.34954203
4891.33746906
4891.32799633
4891.32053588
4891.31589879
4891.31432456
4888.27612902
4887.72290553
4886.26624246
4884.3619769
4883.25572163
4883.37232615
4884.79231479
4887.0040717
4888.86138779
4890.01639193
4890.78102493
4891.31744475
4891.69296834
4891.94858381
4892.11217406
4892.1992084
4892.22627741