/*--------------------------------*- C++ -*----------------------------------*\
| =========                 |                                                 |
| \\      /  F ield         | OpenFOAM: The Open Source CFD Toolbox           |
|  \\    /   O peration     | Version:  3.0.1                                 |
|   \\  /    A nd           | Web:      www.OpenFOAM.org                      |
|    \\/     M anipulation  |                                                 |
\*---------------------------------------------------------------------------*/
FoamFile
{
    version     2.0;
    format      ascii;
    class       surfaceVectorField;
    location    "0.7";
    object      Uf_0;
}
// * * * * * * * * * * * * * * * * * * * * * * * * * * * * * * * * * * * * * //

dimensions      [0 1 -1 0 0 0 0];

internalField   nonuniform List<vector> 
45932
(
(0.000788080197974 0.000170445590134 -0.000367135368707)
(0.000396787085607 0.00030261669837 -0.000420655466893)
(0.000429068151725 0.000192242573586 -0.000696561483421)
(0.00142278118875 0.000257604827928 -0.000358151259481)
(0.00120460812718 0.000383501843209 -0.000461378680443)
(0.00120183490921 0.000265270224924 -0.000700716728626)
(0.00150834308217 0.000409226392775 -0.000350356727074)
(0.00165075128204 0.000661003698202 -0.000472945463744)
(0.00162344354386 0.000452019870303 -0.000703603362581)
(0.00099923423415 0.000530968523055 -0.000347324249987)
(0.00138779799361 0.000967781544868 -0.000482732939928)
(0.00136323030475 0.000653478272338 -0.000712995100895)
(0.000196573192881 0.000572386313263 -0.00033921220526)
(0.000643298965843 0.0011225457037 -0.000491211471978)
(0.000637617765246 0.000754407736488 -0.000720943017129)
(-0.000663279752285 0.000531495736394 -0.000316819505231)
(-0.000255524222671 0.00112319086711 -0.000474337813446)
(-0.000239991462793 0.00075406049533 -0.000692975470468)
(-0.00133741917382 0.000408770014755 -0.000284473729531)
(-0.00110849826316 0.00096623462618 -0.000431539930899)
(-0.00107280060184 0.000650406069352 -0.000628891904443)
(-0.00155457814435 0.000244199805137 -0.000247588185411)
(-0.001597484045 0.000655453147765 -0.000375353957343)
(-0.00155263854327 0.000445588520649 -0.000546650455097)
(-0.00131607096726 0.00011038774439 -0.000204007135509)
(-0.0015330734294 0.000336416075554 -0.000310676490298)
(-0.00149613415932 0.000234072046327 -0.000455516958093)
(-0.000891018809463 3.53330730311e-05 -0.000154883795287)
(-0.00112605487658 0.000139612433577 -0.000235436163978)
(-0.00110199239271 0.000101642620217 -0.000352058204223)
(-0.000473972050837 1.20306012962e-06 -0.00010980451204)
(-0.000666472417931 4.43925643191e-05 -0.000165043167647)
(-0.000651540006428 3.48898814781e-05 -0.000252897120265)
(-0.000133842647962 -1.19295116845e-05 -7.29733153005e-05)
(-0.00027253412648 3.51953413344e-06 -0.000110703402896)
(-0.000262927776431 4.34972978841e-06 -0.000173608842115)
(0.000115373045311 -1.56645457352e-05 -4.35150968298e-05)
(1.98908886072e-05 -1.40561551291e-05 -6.99508981408e-05)
(2.67329230001e-05 -8.64969743543e-06 -0.000110596182631)
(0.000277659710544 -1.59147430341e-05 -2.13808767563e-05)
(0.000215893049351 -1.86790932642e-05 -3.90303256876e-05)
(0.000221302568934 -1.29179127864e-05 -6.25042189497e-05)
(0.00037014783775 -1.54483197546e-05 -5.44355813763e-06)
(0.000337254749355 -1.89382720328e-05 -1.72184549979e-05)
(0.000341828040293 -1.44843876799e-05 -2.73256906815e-05)
(0.000411255987662 -1.49448455502e-05 5.90149768171e-06)
(0.000399541996479 -1.8546958177e-05 -2.31866331734e-06)
(0.000403300875435 -1.49059575607e-05 -2.00622181965e-06)
(0.000417085831281 -1.46830510047e-05 1.36570678722e-05)
(0.000419936903239 -1.80459551931e-05 7.83217538409e-06)
(0.000422897468788 -1.49926062132e-05 1.51427188499e-05)
(0.000399938345896 -1.46825636699e-05 1.84947577628e-05)
(0.000412266962631 -1.79455779503e-05 1.42071687399e-05)
(0.000414417632168 -1.50572318195e-05 2.65307673315e-05)
(0.000369376311204 -1.48356492756e-05 2.1226119258e-05)
(0.000387141168089 -1.80624984165e-05 1.7829590757e-05)
(0.000388606382378 -1.51540678257e-05 3.33492022281e-05)
(0.000332177289483 -1.50752501917e-05 2.25110989799e-05)
(0.000352442630887 -1.83360461914e-05 1.95869447123e-05)
(0.000353372808219 -1.52822484837e-05 3.69356758911e-05)
(0.000292890754461 -1.53518971165e-05 2.28475066303e-05)
(0.000313654178291 -1.8696095456e-05 2.01229629255e-05)
(0.000314191004069 -1.54331484417e-05 3.83366183615e-05)
(0.000254381094393 -1.56328106856e-05 2.25969629275e-05)
(0.000274379426601 -1.90903149849e-05 1.99012485617e-05)
(0.000274640003533 -1.55929589429e-05 3.83419739464e-05)
(0.000218323966122 -1.58981728531e-05 2.20103977906e-05)
(0.000236831811344 -1.94810463749e-05 1.92449804658e-05)
(0.000236907788611 -1.5748186685e-05 3.75072448267e-05)
(0.000185577155827 -1.61373021734e-05 2.12565234641e-05)
(0.000202245022159 -1.98469308685e-05 1.83677210359e-05)
(0.000202203610436 -1.58924001514e-05 3.62190834539e-05)
(0.000156466105044 -1.634573403e-05 2.04440605696e-05)
(0.000171185548092 -2.01754464556e-05 1.74102001986e-05)
(0.000171074821854 -1.60212560806e-05 3.47307292434e-05)
(0.000130990437408 -1.65230442914e-05 1.96390684144e-05)
(0.000143797768186 -2.04617724107e-05 1.64558969366e-05)
(0.000143649769628 -1.61317314243e-05 3.32001513288e-05)
(0.000108955299906 -1.66702532535e-05 1.88785871122e-05)
(0.000119970917757 -2.07043544465e-05 1.55533095709e-05)
(0.000119805792687 -1.62237249149e-05 3.17230032109e-05)
(9.00692921366e-05 -1.67896829787e-05 1.81804696178e-05)
(9.94525231656e-05 -2.0904232227e-05 1.47271378361e-05)
(9.92827588541e-05 -1.62977151251e-05 3.0348592872e-05)
(7.40086456887e-05 -1.68849403541e-05 1.75476103329e-05)
(8.19270784845e-05 -2.10649115721e-05 1.39851346333e-05)
(8.17594750373e-05 -1.63542175863e-05 2.90966367597e-05)
(6.04733757866e-05 -1.69603869033e-05 1.69726664909e-05)
(6.70750377752e-05 -2.11922595605e-05 1.33201690277e-05)
(6.69125266211e-05 -1.63970909607e-05 2.79611724959e-05)
(4.92151840302e-05 -1.70200249327e-05 1.64417953087e-05)
(5.46190810882e-05 -2.12924996262e-05 1.2717817355e-05)
(5.44628999052e-05 -1.64286341298e-05 2.6922660433e-05)
(4.00517568515e-05 -1.70695568218e-05 1.59378096724e-05)
(4.43374470993e-05 -2.13720555363e-05 1.21574073062e-05)
(4.41887162593e-05 -1.64508354547e-05 2.59546033972e-05)
(3.28867421994e-05 -1.71135368393e-05 1.54506711572e-05)
(3.60888523456e-05 -2.14424217655e-05 1.16165143913e-05)
(3.59524657098e-05 -1.64699204282e-05 2.50255593948e-05)
(2.76318689223e-05 -1.71689658345e-05 1.49404700818e-05)
(2.97483487911e-05 -2.15053295442e-05 1.10922728765e-05)
(2.96251887165e-05 -1.64795926391e-05 2.4133233795e-05)
(2.45584422391e-05 -1.72071689805e-05 1.44829012578e-05)
(2.55160362518e-05 -2.16008094635e-05 1.04892350952e-05)
(2.5433660681e-05 -1.65135576554e-05 2.3137866965e-05)
(2.28012938957e-05 -1.72412034785e-05 1.38509391641e-05)
(2.27362545496e-05 -2.16125526514e-05 1.00750006123e-05)
(2.2642429472e-05 -1.64704998181e-05 2.24913877242e-05)
(2.42077226501e-05 -1.71078952162e-05 1.35049434043e-05)
(2.29204619648e-05 -2.1639440734e-05 9.06666111496e-06)
(2.28819396934e-05 -1.64392857073e-05 2.09364616298e-05)
(2.39984919029e-05 -1.67851297612e-05 1.35317684955e-05)
(2.29828054205e-05 -2.12483664815e-05 9.28734067744e-06)
(2.28841023158e-05 -1.61101770444e-05 2.13532835253e-05)
(2.2870065367e-05 -1.64984976928e-05 1.65832944226e-05)
(2.51848757799e-05 -2.06945030359e-05 9.11742841347e-06)
(2.47604720484e-05 -1.57728616878e-05 2.12592034986e-05)
(1.86204970823e-05 -2.01823848662e-05 1.54077903378e-05)
(1.95174418858e-05 -1.61512760899e-05 3.16180318317e-05)
(0.000810899606224 0.000564594051409 -0.000514898778629)
(0.000417560135812 0.000700902985647 -0.00047742949461)
(0.000437236888319 0.000539637980593 -0.000803617525703)
(0.00153936557679 0.000861098537596 -0.000576172884707)
(0.00135490658236 0.00094854966961 -0.000594306266048)
(0.00129786172224 0.00075637640099 -0.000929120161261)
(0.00164199097023 0.00132187083346 -0.000605321676598)
(0.0018804742878 0.00158654527571 -0.000612660887341)
(0.00176278856036 0.00126288243489 -0.000976649708815)
(0.00107933254556 0.00168088029682 -0.00062662016192)
(0.00156740518268 0.00225555470874 -0.000612857470747)
(0.00147463942796 0.00179293530096 -0.00100619307488)
(0.000207183518232 0.00180061203079 -0.000626337080165)
(0.000707259687766 0.00258839698503 -0.000622983067292)
(0.000681296200408 0.00205604607865 -0.0010294899583)
(-0.000722583425851 0.00167722366046 -0.000589058239115)
(-0.000307466298637 0.00258596841622 -0.000603715041362)
(-0.000264898183616 0.00205406037323 -0.000997590861422)
(-0.00145161614174 0.0013108847132 -0.000522420158711)
(-0.00127577839469 0.00224073741731 -0.000554186511252)
(-0.00116383339306 0.00178033278446 -0.000909696216424)
(-0.00166931722515 0.000815924266042 -0.00043844226223)
(-0.00182520198882 0.0015574801594 -0.000497171170274)
(-0.00167710762381 0.00123967566256 -0.000792934400387)
(-0.00138312187332 0.000406229124795 -0.000342105518767)
(-0.00171582376243 0.000844467129747 -0.000421720105282)
(-0.00159209499898 0.000673644176987 -0.000650979521662)
(-0.000911290641258 0.000169884185868 -0.000245595536337)
(-0.0012216987698 0.000390541982431 -0.000317271350881)
(-0.00114479914713 0.000311882535448 -0.000486753850858)
(-0.000469642929986 5.55891721948e-05 -0.000165942058503)
(-0.000703201686468 0.000161264918435 -0.00021744535049)
(-0.000658983014429 0.000128584993705 -0.000337672320612)
(-0.000117154984611 5.3591856247e-06 -0.000107680985736)
(-0.000280667883274 5.21164651016e-05 -0.000142731415536)
(-0.000254654141962 4.08088626349e-05 -0.000224864469507)
(0.000131754786426 -1.43567891141e-05 -6.54661269986e-05)
(2.35320901586e-05 5.89798198382e-06 -9.06583895969e-05)
(4.03177642777e-05 2.32023978944e-06 -0.000144453889346)
(0.000291714156155 -2.13621404363e-05 -3.48679039292e-05)
(0.000222780163193 -1.44640167552e-05 -5.25079823442e-05)
(0.000234953764692 -1.35162773008e-05 -8.42347421814e-05)
(0.000381668786109 -2.33940338703e-05 -1.40935601776e-05)
(0.000344071956491 -2.20191228611e-05 -2.62022783992e-05)
(0.000353228584605 -1.98585533015e-05 -4.19155503381e-05)
(0.000420473276326 -2.38202150702e-05 -3.87985614961e-07)
(0.000405185890251 -2.48854313974e-05 -8.9810979642e-06)
(0.000412370554571 -2.23335133339e-05 -1.30617368545e-05)
(0.000424255398212 -2.39486732683e-05 8.38227625179e-06)
(0.000424242672613 -2.5914449996e-05 2.08034971814e-06)
(0.000429886346011 -2.33218168868e-05 5.98996662987e-06)
(0.000405565937896 -2.41954060022e-05 1.3542001734e-05)
(0.000415408466096 -2.65856245994e-05 8.88097784132e-06)
(0.000419732733256 -2.38189077662e-05 1.79965225797e-05)
(0.00037380120476 -2.45419476947e-05 1.61904162113e-05)
(0.000389421038846 -2.70405246714e-05 1.25518191238e-05)
(0.000392643929989 -2.41542654199e-05 2.48659373887e-05)
(0.000335656770388 -2.49802565207e-05 1.71988086579e-05)
(0.000354078050787 -2.74903176592e-05 1.41614150622e-05)
(0.00035644036366 -2.44585810866e-05 2.82262532636e-05)
(0.00029561871295 -2.54645098321e-05 1.71767048568e-05)
(0.000314819136198 -2.79589340914e-05 1.44720157151e-05)
(0.000316517844157 -2.47660456235e-05 2.92787270369e-05)
(0.000256511519533 -2.59543034887e-05 1.65492661e-05)
(0.000275202097227 -2.84353161896e-05 1.39948489429e-05)
(0.000276399556216 -2.507560107e-05 2.8895069555e-05)
(0.000219976469152 -2.6420506091e-05 1.56023037111e-05)
(0.000237404836103 -2.88972559607e-05 1.30905147378e-05)
(0.000238230452664 -2.53747249241e-05 2.7681078741e-05)
(0.000186846406394 -2.68453519415e-05 1.45213977704e-05)
(0.000202634221006 -2.93279694078e-05 1.19833653216e-05)
(0.00020318779632 -2.5653200914e-05 2.6044604854e-05)
(0.00015742243486 -2.72191331473e-05 1.34220365655e-05)
(0.000171436556801 -2.97141704291e-05 1.08214994367e-05)
(0.000171794066293 -2.59039877187e-05 2.4250333893e-05)
(0.000131688190878 -2.75387656673e-05 1.23701380931e-05)
(0.000143941263223 -3.00488237661e-05 9.69312350452e-06)
(0.000144158745547 -2.61205366075e-05 2.24546540151e-05)
(0.000109434911537 -2.78051163267e-05 1.14018602948e-05)
(0.00012002636891 -3.03319637325e-05 8.64798738454e-06)
(0.000120144034561 -2.62984029855e-05 2.07553126006e-05)
(9.03591678729e-05 -2.80213706839e-05 1.05318028515e-05)
(9.94305790271e-05 -3.0564839295e-05 7.70294124913e-06)
(9.94768649287e-05 -2.64412091063e-05 1.91998432813e-05)
(7.41279954444e-05 -2.81935002244e-05 9.75769332809e-06)
(8.18304419242e-05 -3.07505535434e-05 6.86839667138e-06)
(8.18240035296e-05 -2.65467797374e-05 1.78026417915e-05)
(6.04348899672e-05 -2.83280225279e-05 9.06531989177e-06)
(6.68998313992e-05 -3.08968767092e-05 6.12692490292e-06)
(6.68516816613e-05 -2.66259971261e-05 1.65524516545e-05)
(4.90248222443e-05 -2.8432143499e-05 8.4334293525e-06)
(5.43544436539e-05 -3.10063616885e-05 5.46073121344e-06)
(5.42721760346e-05 -2.66807760008e-05 1.54199528923e-05)
(3.97113686017e-05 -2.85157502304e-05 7.83611202516e-06)
(4.3963608899e-05 -3.10876544485e-05 4.84627180946e-06)
(4.38520123029e-05 -2.67162261194e-05 1.43731416726e-05)
(3.23896102781e-05 -2.85887372447e-05 7.25811611065e-06)
(3.5577198534e-05 -3.11485580915e-05 4.25013343701e-06)
(3.54467400418e-05 -2.67430434275e-05 1.33676202409e-05)
(2.69715649811e-05 -2.86759311617e-05 6.64103788992e-06)
(2.90453624392e-05 -3.1204653872e-05 3.68051478674e-06)
(2.88956359989e-05 -2.67528289565e-05 1.24087844507e-05)
(2.37113520718e-05 -2.87296555916e-05 6.08133444974e-06)
(2.46063335847e-05 -3.12852475155e-05 3.00872736305e-06)
(2.44648105044e-05 -2.67815426025e-05 1.13148559728e-05)
(2.18202687904e-05 -2.87162847473e-05 5.29072256315e-06)
(2.15158692445e-05 -3.12596101512e-05 2.55813109284e-06)
(2.13201728428e-05 -2.67112472371e-05 1.05928281118e-05)
(2.30179843317e-05 -2.8442640706e-05 4.8490583881e-06)
(2.15249656569e-05 -3.11417194801e-05 1.37985034478e-06)
(2.12835028239e-05 -2.65453301894e-05 8.90363207031e-06)
(2.3069533017e-05 -2.77440625125e-05 4.87300059541e-06)
(2.14039292999e-05 -3.05343066814e-05 1.63407144146e-06)
(2.10096557719e-05 -2.61017927693e-05 9.26046314001e-06)
(2.18902545911e-05 -2.675878379e-05 7.94192432874e-06)
(2.37689695778e-05 -2.95537977672e-05 1.38238601995e-06)
(2.27015964368e-05 -2.53449578879e-05 9.44944012517e-06)
(1.8208711552e-05 -2.80854172483e-05 7.62307131869e-06)
(1.80056574927e-05 -2.51916505326e-05 1.88487950249e-05)
(0.000934546312286 0.00106530653413 -0.000556836982028)
(0.000503532150283 0.00106114166664 -0.000486154199661)
(0.000510318151327 0.000921743235851 -0.00082736921968)
(0.0018136305778 0.00165265475362 -0.000630794268683)
(0.00164462522989 0.00151222346584 -0.000622157608449)
(0.00152593300793 0.00132615981273 -0.00100303156508)
(0.00192976870589 0.00248797010521 -0.000620196681491)
(0.00228795635674 0.00251192888227 -0.000563583957161)
(0.00207148863524 0.00218888223939 -0.000983232429178)
(0.00123964336625 0.00312014518168 -0.000609220376119)
(0.00187480969824 0.00352050378762 -0.000472243235981)
(0.00170691131674 0.00305985179938 -0.000919631485223)
(0.000208515811855 0.00332685318228 -0.000600361028488)
(0.000808593958976 0.00401231498627 -0.000449166302228)
(0.000758613630788 0.00348534367947 -0.000908072159843)
(-0.000882000969309 0.00310654055291 -0.000568843313499)
(-0.000411361900747 0.00400601366712 -0.000428805089947)
(-0.000341444466641 0.00348001106389 -0.000874487432995)
(-0.00174234876164 0.00245558564326 -0.000528937522815)
(-0.00158666489685 0.00348963144148 -0.000410855248452)
(-0.00139471587459 0.00303244747462 -0.000818424797424)
(-0.00197349033008 0.00156748690631 -0.000480449013327)
(-0.00224979397084 0.0024574574821 -0.000436877358013)
(-0.00199263269511 0.00214049672407 -0.000784151462349)
(-0.00159064890616 0.000819586899243 -0.000396885937397)
(-0.00207036865258 0.00136248995444 -0.000436076630264)
(-0.00185434937056 0.00119012282898 -0.000709259232835)
(-0.00101523960468 0.000377877154919 -0.000289121165034)
(-0.00142623779088 0.000653814014918 -0.000349846010937)
(-0.00129306626245 0.000571336189214 -0.000550872464045)
(-0.000514073335238 0.000156560630201 -0.000194234707523)
(-0.000801734997268 0.000292561452786 -0.000241146434263)
(-0.000727509218161 0.000255029500382 -0.000381845944085)
(-0.000136498765248 5.26100133612e-05 -0.000125708819396)
(-0.000324392856916 0.000115908099176 -0.000158200226371)
(-0.000283125834922 9.97527863941e-05 -0.000252594919567)
(0.000125854255968 6.4684853093e-06 -7.77002449425e-05)
(5.75838258497e-06 3.71524785754e-05 -0.000100752257007)
(3.0214935886e-05 2.97237484244e-05 -0.000162470247868)
(0.000290513020477 -1.40203186874e-05 -4.38423568142e-05)
(0.000215706421296 7.09514641564e-07 -5.98415417692e-05)
(0.000231904426087 -2.51492404376e-06 -9.75394777188e-05)
(0.000381667148292 -2.25706358559e-05 -2.10898161858e-05)
(0.000341511156602 -1.54576873289e-05 -3.19641106376e-05)
(0.000352563821202 -1.66046505843e-05 -5.21562864121e-05)
(0.000420600589494 -2.61352730945e-05 -6.51276263109e-06)
(0.000404186869823 -2.25338676895e-05 -1.37435003355e-05)
(0.00041209440794 -2.28519256811e-05 -2.18163116379e-05)
(0.000424045894006 -2.77470495482e-05 2.57905130767e-06)
(0.000423655033094 -2.57204683116e-05 -2.37385229746e-06)
(0.000429478157007 -2.56651061423e-05 -1.90460422942e-06)
(0.000405174458826 -2.86239061927e-05 7.89079523107e-06)
(0.000414866037409 -2.7277339776e-05 4.5762492511e-06)
(0.00041911552113 -2.6999122851e-05 1.01388065791e-05)
(0.000373268730148 -2.91993511022e-05 1.05228179747e-05)
(0.000388863927751 -2.81323812908e-05 8.31783459665e-06)
(0.000391877404773 -2.76848535901e-05 1.70501521688e-05)
(0.000335057528676 -2.96854338081e-05 1.14346221194e-05)
(0.000353495745755 -2.87026253558e-05 9.90805565715e-06)
(0.000355599364807 -2.81268841009e-05 2.03177021572e-05)
(0.000295006557355 -3.01458676596e-05 1.12901598011e-05)
(0.000314234287442 -2.91746942565e-05 1.01654512073e-05)
(0.00031566634006 -2.84804316498e-05 2.12381375108e-05)
(0.000255921952609 -3.05891659254e-05 1.05360975807e-05)
(0.000274639443703 -2.96071788657e-05 9.62332309423e-06)
(0.000275580845541 -2.88020695515e-05 2.07106089578e-05)
(0.000219429284745 -3.10071902371e-05 9.47157634831e-06)
(0.00023688221274 -3.00114648492e-05 8.65426077868e-06)
(0.000237470905338 -2.91036612962e-05 1.935780786e-05)
(0.000186351453812 -3.13884859819e-05 8.28346698787e-06)
(0.000202162283475 -3.03868738594e-05 7.4847151864e-06)
(0.000202500888625 -2.93835402632e-05 1.75962603154e-05)
(0.000156980989569 -3.17240219567e-05 7.09258637566e-06)
(0.000171019110809 -3.07193653644e-05 6.26461914868e-06)
(0.00017118384777 -2.96344913098e-05 1.56899696777e-05)
(0.000131294287363 -3.20136474675e-05 5.97097279597e-06)
(0.000143574500821 -3.10074070887e-05 5.0888168463e-06)
(0.000143623587867 -2.9852365208e-05 1.38023572519e-05)
(0.000109080069205 -3.22558073712e-05 4.94906833891e-06)
(0.000119705031454 -3.12578957531e-05 4.01922273724e-06)
(0.000119676102274 -3.00300389399e-05 1.20340675228e-05)
(9.00284376111e-05 -3.2450238758e-05 4.03953506897e-06)
(9.91467745845e-05 -3.14577228219e-05 3.04506880566e-06)
(9.90642533414e-05 -3.01704785271e-05 1.04200385141e-05)
(7.38026842018e-05 -3.26017538863e-05 3.23762824621e-06)
(8.15714949121e-05 -3.16181315038e-05 2.20779423765e-06)
(8.14492997883e-05 -3.02674824433e-05 8.98184703105e-06)
(6.00909113239e-05 -3.27108083007e-05 2.52233622459e-06)
(6.66520616764e-05 -3.1735126246e-05 1.45498920452e-06)
(6.64921468895e-05 -3.03375197903e-05 7.69539543284e-06)
(4.86273618104e-05 -3.27818013577e-05 1.8735736704e-06)
(5.40974805847e-05 -3.18024056485e-05 7.76443206662e-07)
(5.39004385669e-05 -3.0377524639e-05 6.52885041127e-06)
(3.92149494709e-05 -3.28154934483e-05 1.26029322131e-06)
(4.36719190007e-05 -3.18327692085e-05 1.50858764875e-07)
(4.34291646448e-05 -3.0392171482e-05 5.45210875944e-06)
(3.17217767564e-05 -3.28268141811e-05 6.72532113093e-07)
(3.5208666076e-05 -3.17974125796e-05 -4.78446922072e-07)
(3.49247278197e-05 -3.03899077967e-05 4.39601548609e-06)
(2.60570625755e-05 -3.28374168694e-05 4.82042598715e-08)
(2.85387376233e-05 -3.17640910156e-05 -1.06398340105e-06)
(2.82023161499e-05 -3.03730165257e-05 3.3922002485e-06)
(2.2476574434e-05 -3.27959951336e-05 -5.14475993843e-07)
(2.39299392427e-05 -3.17129390574e-05 -1.75444248173e-06)
(2.35447027074e-05 -3.03436263984e-05 2.21821486638e-06)
(2.02717225402e-05 -3.26390443932e-05 -1.35274112553e-06)
(2.06063143414e-05 -3.15701846833e-05 -2.20372890596e-06)
(2.00876305864e-05 -3.02145857355e-05 1.41319803366e-06)
(2.11214208112e-05 -3.21751614642e-05 -1.83513660186e-06)
(2.04669240162e-05 -3.1290660932e-05 -3.42738787076e-06)
(1.97485606728e-05 -2.99352929303e-05 -2.75723428854e-07)
(2.12091064416e-05 -3.12638283127e-05 -1.856543134e-06)
(2.02755136211e-05 -3.05615917472e-05 -3.16491853877e-06)
(1.92008670496e-05 -2.93561375785e-05 -1.62762569515e-08)
(2.0685312949e-05 -2.97302514873e-05 1.0635330099e-06)
(2.29015125945e-05 -2.93932533077e-05 -3.37424368544e-06)
(2.07253008667e-05 -2.85257706656e-05 1.01859182833e-07)
(1.82629138251e-05 -2.70760898678e-05 3.38026488203e-06)
(1.68403770026e-05 -2.75938640362e-05 9.33396975217e-06)
(0.00116702848818 0.00147802178062 -0.000551474826082)
(0.000641067053834 0.00131615129185 -0.000491504511099)
(0.000644950997911 0.00123551898062 -0.000838353224168)
(0.00226299765479 0.00232731652079 -0.000554947296927)
(0.002068914054 0.00193390082446 -0.000586594336097)
(0.0019047214668 0.00181170123369 -0.000969451932023)
(0.0023833828947 0.00347735197328 -0.000415630511651)
(0.00285763689308 0.00320344684918 -0.000369725830359)
(0.00256396955125 0.00297317328333 -0.000751478264208)
(0.00148663485958 0.00432644339028 -0.00031218916209)
(0.00229451539356 0.00444404721634 -0.000115103469852)
(0.00206756439622 0.00410933437031 -0.000474921231638)
(0.000205334995404 0.00459847537628 -0.000277610363687)
(0.000943233037244 0.00503326223435 -3.19990526362e-05)
(0.000874521183519 0.00465006778625 -0.000380035866364)
(-0.00113839940689 0.00430317008914 -0.000270817024901)
(-0.000556251333651 0.00502374824942 -1.11526625024e-05)
(-0.00046504384526 0.00464136230627 -0.000345586730654)
(-0.0022103592485 0.00342535077959 -0.00031879508365)
(-0.00201832407281 0.00439857176822 -5.36363519085e-05)
(-0.00176329740653 0.00406673422031 -0.000372669184514)
(-0.00247135481371 0.00221133746771 -0.00039250497495)
(-0.0028462404544 0.00312796472849 -0.000233638244982)
(-0.00250268890301 0.00290046696816 -0.00053974416186)
(-0.0019408874772 0.00117531421989 -0.000389036703804)
(-0.00257789229273 0.00175413053497 -0.000384290927555)
(-0.00228942161459 0.00163163596765 -0.000656672882643)
(-0.00120198059287 0.000558699741548 -0.000301871280165)
(-0.00172620107316 0.000853681526882 -0.000355573992286)
(-0.00154990696303 0.000793391602166 -0.000569199281584)
(-0.00060470932808 0.000248075456683 -0.000205111953111)
(-0.000951226233436 0.000396312389549 -0.000250299389055)
(-0.000854271830044 0.000366310072293 -0.000402337551475)
(-0.000177917648248 9.91564887139e-05 -0.000133243663981)
(-0.00039515734801 0.000169257264667 -0.000164848264331)
(-0.000342226235017 0.000154882906003 -0.000266748277421)
(0.000107273928374 3.12445624364e-05 -8.28935538334e-05)
(-2.60070486877e-05 6.5869338127e-05 -0.000105000326587)
(4.03551598216e-06 5.82694800304e-05 -0.000171342479815)
(0.000282109491069 -3.56178593754e-07 -4.79632955926e-05)
(0.000201100193155 1.74180639569e-05 -6.27474294014e-05)
(0.000220068774308 1.28681454651e-05 -0.00010415771519)
(0.000377960654658 -1.48721817695e-05 -2.46177947873e-05)
(0.000334800725508 -5.40214134115e-06 -3.4528218886e-05)
(0.000347146924029 -8.2169385776e-06 -5.79976154699e-05)
(0.000418798256919 -2.14359098168e-05 -9.6045900019e-06)
(0.000401064514603 -1.60736495978e-05 -1.58302171229e-05)
(0.000409385992486 -1.79753412293e-05 -2.68779625652e-05)
(0.000422984210258 -2.44862125993e-05 -3.76654354029e-07)
(0.000422071182385 -2.09994554709e-05 -4.24986808773e-06)
(0.0004278877701 -2.25461428819e-05 -6.80329590627e-06)
(0.000404421291138 -2.59968273964e-05 5.00328861668e-06)
(0.000413940243119 -2.33581489889e-05 2.71527304622e-06)
(0.000418009261173 -2.47387116706e-05 5.37285954538e-06)
(0.000372654719615 -2.68232874778e-05 7.70307227912e-06)
(0.000388232927525 -2.45873664697e-05 6.52884933059e-06)
(0.000390993959566 -2.58041842049e-05 1.23435677749e-05)
(0.000334508902653 -2.73569590081e-05 8.63888474507e-06)
(0.000353001241964 -2.52502596945e-05 8.17217087777e-06)
(0.000354826794444 -2.6384949637e-05 1.56205356859e-05)
(0.000294505859239 -2.77799962909e-05 8.49861450036e-06)
(0.000313805302473 -2.56964080041e-05 8.44825545577e-06)
(0.000314969209786 -2.67722821592e-05 1.65203577762e-05)
(0.000255466984992 -2.81529854378e-05 7.74148629217e-06)
(0.000274255147876 -2.60526375941e-05 7.91898691782e-06)
(0.000274950572183 -2.70816265516e-05 1.59614689899e-05)
(0.000219021930045 -2.84921750479e-05 6.66739961677e-06)
(0.000236537964374 -2.63627469549e-05 6.95250858601e-06)
(0.000236907233258 -2.73540867521e-05 1.45711020765e-05)
(0.000185996828774 -2.87974906902e-05 5.46586734721e-06)
(0.00020185832202 -2.6638037417e-05 5.78590570179e-06)
(0.000202005234093 -2.760011107e-05 1.2762127367e-05)
(0.000156676437348 -2.90658509461e-05 4.26084961932e-06)
(0.000170755213421 -2.68832838694e-05 4.56785825959e-06)
(0.000170754990997 -2.78169882341e-05 1.08236152851e-05)
(0.000131029529818 -2.92955170397e-05 3.13706678756e-06)
(0.000143348837869 -2.70986587169e-05 3.39277175612e-06)
(0.000143257492681 -2.8003747583e-05 8.91509151351e-06)
(0.000108860132683 -2.94852459287e-05 2.11522320399e-06)
(0.000119514975474 -2.72708742401e-05 2.33099651294e-06)
(0.000119368177423 -2.81557646933e-05 7.09867546751e-06)
(8.98396665467e-05 -2.96368022456e-05 1.21332797434e-06)
(9.89876575565e-05 -2.74153684594e-05 1.36807069829e-06)
(9.88087696758e-05 -2.82705711053e-05 5.46919608429e-06)
(7.36415059896e-05 -2.97512548907e-05 4.25155195965e-07)
(8.14384234102e-05 -2.75261721305e-05 5.46314828011e-07)
(8.12347555579e-05 -2.83502957169e-05 4.00849428994e-06)
(5.99500387077e-05 -2.98057979909e-05 -2.90903813407e-07)
(6.65511768167e-05 -2.76061847608e-05 -1.93842110692e-07)
(6.63051574838e-05 -2.83970556662e-05 2.71803313686e-06)
(4.84894016541e-05 -2.98103860014e-05 -9.46271698862e-07)
(5.40171487009e-05 -2.75702626047e-05 -9.09634931732e-07)
(5.37284149464e-05 -2.84181836967e-05 1.49918804061e-06)
(3.90784401523e-05 -2.97958461948e-05 -1.58788137851e-06)
(4.35878202312e-05 -2.75367063783e-05 -1.56069128019e-06)
(4.32531027797e-05 -2.84194730469e-05 4.10185538209e-07)
(3.15290042174e-05 -2.97559542259e-05 -2.21496243622e-06)
(3.51119241396e-05 -2.7528190884e-05 -2.19777068133e-06)
(3.47179920768e-05 -2.8388150807e-05 -4.93950473396e-07)
(2.58007630163e-05 -2.96892930301e-05 -2.86663014266e-06)
(2.84126144198e-05 -2.74595976579e-05 -2.78436531372e-06)
(2.79361480732e-05 -2.83239032852e-05 -1.43998934588e-06)
(2.21408990432e-05 -2.95703412193e-05 -3.44369539384e-06)
(2.37681862724e-05 -2.73655332288e-05 -3.47920731834e-06)
(2.32035425451e-05 -2.82380238578e-05 -2.51721817812e-06)
(1.98944826399e-05 -2.93330641609e-05 -4.27837565118e-06)
(2.04095191826e-05 -2.72038515551e-05 -3.92734926532e-06)
(1.96558645282e-05 -2.80818900845e-05 -3.24295069714e-06)
(2.07739864291e-05 -2.88168557039e-05 -4.75716980766e-06)
(2.03172352737e-05 -2.68817395167e-05 -5.13057787382e-06)
(1.92585377544e-05 -2.77584252246e-05 -4.84850906249e-06)
(2.11698794061e-05 -2.78780161655e-05 -4.68261909021e-06)
(2.02777126845e-05 -2.62069008776e-05 -4.87086463193e-06)
(1.8749672693e-05 -2.71816528721e-05 -4.55236770541e-06)
(2.09259039685e-05 -2.60370522617e-05 -1.05751181331e-06)
(2.33695081461e-05 -2.5138578194e-05 -4.89151371257e-06)
(2.05792583801e-05 -2.6327073138e-05 -4.13218056478e-06)
(1.87030258743e-05 -2.27432563264e-05 2.79245078633e-06)
(1.68058650504e-05 -2.4689036394e-05 6.13076598958e-06)
(0.00148574594841 0.00172987174588 -0.000526624021115)
(0.000812520989861 0.00142586732743 -0.000499992280532)
(0.00082630067252 0.00142042460878 -0.000852386313689)
(0.00284508872034 0.00274418186458 -0.000401372869529)
(0.00257833385961 0.00212470915261 -0.000519744789796)
(0.00239957688587 0.0021101357814 -0.000870241217118)
(0.00295467395172 0.00407228039922 -6.91987885601e-05)
(0.00352055428933 0.00350007255407 -9.28872740259e-05)
(0.00318720385689 0.00343837964369 -0.000351174445175)
(0.00179110157644 0.00502921477289 0.000165086639601)
(0.00277182804145 0.00480492999811 0.000364382314688)
(0.00251229184538 0.00469779972219 0.00022113892577)
(0.000199284177466 0.00532917603142 0.000234458648548)
(0.00109284211208 0.00540543003572 0.000517399501083)
(0.00101359405188 0.00527739334344 0.000423971742018)
(-0.0014587454782 0.0049984972476 0.00020602801049)
(-0.000720705004431 0.00539453800778 0.000538619017258)
(-0.000617631274709 0.00526645093802 0.000458477683044)
(-0.00280229500202 0.00400509436506 3.15204867598e-05)
(-0.00251261048711 0.00474983768602 0.000424058393656)
(-0.00222202822751 0.0046427577378 0.000320791092828)
(-0.00311079455163 0.00260807071117 -0.000225424197587)
(-0.00354001878783 0.00341113099969 5.07599514103e-05)
(-0.00314970617604 0.00334636737915 -0.000128640787259)
(-0.0023972209428 0.00139834551763 -0.000350828216037)
(-0.00317791332319 0.00193142446965 -0.00029907302374)
(-0.00285262399291 0.0019012677339 -0.000533858226476)
(-0.00144954377102 0.00067424491982 -0.000304002101176)
(-0.00208462221107 0.000947556167082 -0.000352755231947)
(-0.00188744411787 0.000930592471064 -0.000567568503553)
(-0.000726144375403 0.000309519992891 -0.000210035700276)
(-0.00113118567773 0.000448906486639 -0.000255626995897)
(-0.00102314771264 0.000438237625955 -0.000414224458307)
(-0.000236039673452 0.000132488527486 -0.000136604926937)
(-0.000482185362997 0.000199491131247 -0.000168905286273)
(-0.000423316714267 0.00019303103237 -0.000275273193107)
(8.02651974742e-05 5.06826341878e-05 -8.48542021551e-05)
(-6.60538025786e-05 8.36779671891e-05 -0.000106937173109)