/*--------------------------------*- C++ -*----------------------------------*\
| =========                 |                                                 |
| \\      /  F ield         | OpenFOAM: The Open Source CFD Toolbox           |
|  \\    /   O peration     | Version:  3.0.1                                 |
|   \\  /    A nd           | Web:      www.OpenFOAM.org                      |
|    \\/     M anipulation  |                                                 |
\*---------------------------------------------------------------------------*/
FoamFile
{
    version     2.0;
    format      ascii;
    class       volScalarField;
    location    "4.4";
    object      k;
}
// * * * * * * * * * * * * * * * * * * * * * * * * * * * * * * * * * * * * * //

dimensions      [0 2 -2 0 0 0 0];

internalField   nonuniform List<scalar> 
7968
(
0.000705613271301
0.000787493048994
0.000851735392448
0.000891184193117
0.000913120413982
0.00092352695543
0.000926869084562
0.000926421701038
0.000925397545506
0.000924447892283
0.000924992853234
0.000926523994635
0.000928110399541
0.00092820939535
0.000924122516906
0.000912882269134
0.000890294934948
0.000850550084586
0.000786476511117
0.000705163336557
0.000787400511328
0.0011290507028
0.00136174377854
0.00150532598595
0.00159088159963
0.0016377384203
0.00165971879828
0.00166710791865
0.00166800082057
0.00166794179813
0.00166981285141
0.00167288351808
0.00167344264529
0.00166572715879
0.00164208930068
0.00159288875975
0.00150512967767
0.0013601091829
0.00112711333939
0.000786390020662
0.00085164335798
0.00136183309119
0.0017044401717
0.00191813861069
0.00204878240638
0.00212357753938
0.0021617345881
0.00217787365763
0.00218322047111
0.00218526827895
0.00218763286989
0.00218956651093
0.00218639000535
0.00217022873103
0.00213010870662
0.00205232066706
0.00191876531189
0.00170307877453
0.00135982855959
0.000850307354395
0.00089128660398
0.0015058962297
0.00191868388379
0.00217786913897
0.00233806699898
0.00243150573426
0.00248126759087
0.00250491984755
0.00251841641263
0.00252426798187
0.0025259615927
0.00252313583992
0.00251456366201
0.00249200002366
0.00244060005502
0.0023438195745
0.00218011271819
0.00191836929366
0.00150449275413
0.000889859970364
0.000913523940415
0.00159206169977
0.00204999817951
0.00233874848176
0.00251808847915
0.00262458322409
0.0026909131058
0.00272716685194
0.00274385562985
0.00275047419979
0.0027520725582
0.00274819237943
0.00273336545088
0.0026981166919
0.00263597035151
0.00252671637264
0.00234341870023
0.00205148559904
0.00159186062795
0.000912215516531
0.000924204706909
0.00163932331372
0.00212520778451
0.00243260114397
0.0026249541714
0.00275139263081
0.00282691675214
0.00286561229718
0.002882577158
0.00288901337798
0.00289063116284
0.00288694316071
0.00287165402783
0.0028335983417
0.00275870733523
0.00263606258465
0.00244014990367
0.00212904849763
0.0016408007595
0.000923224659105
0.000927697642885
0.00166128263185
0.00216325884785
0.00248220251718
0.00269069000863
0.00282683285285
0.00290449666744
0.00294288999849
0.0029588188013
0.00296453502386
0.00296628447428
0.00296349052075
0.0029492934463
0.00291149638961
0.00283402746013
0.00269876848538
0.00249231717623
0.00216959538466
0.00166463635416
0.000927200898697
0.000927189065333
0.0016681104746
0.00217862980192
0.00250489012998
0.00272654377433
0.0028653460068
0.00294274975582
0.00297960870083
0.00299388649611
0.00299870138488
0.00300071872403
0.00299919066184
0.00298673649502
0.00295040787898
0.00287315501601
0.00273518304717
0.00251677498121
0.00218717810293
0.00167330475576
0.000927562681894
0.000925680261228
0.00166780730759
0.00218252438664
0.00251641921374
0.00274262314004
0.00288189040686
0.00295827630096
0.00299343116942
0.00300617811426
0.00301026026332
0.00301266005994
0.00301235592084
0.0030015357519
0.0029667589516
0.00289041286521
0.00275190948308
0.00252746661844
0.00219285279234
0.00167459487325
0.000926976836207
0.000924213243597
0.00166605063785
0.00218263971371
0.00252123586171
0.00274853056966
0.00288775298345
0.00296342739013
0.00299758935844
0.00300949516705
0.00301320789579
0.00301596214548
0.00301642716689
0.00300650486888
0.00297257369333
0.00289679102528
0.00275831567204
0.00253282117134
0.00219409997042
0.00167382699454
0.000926007827129
0.00092396531145
0.00166612305948
0.00218306602098
0.00252206699976
0.00274956750122
0.00288897196488
0.00296485038122
0.00299926734524
0.00301146973346
0.00301541509852
0.00301821104504
0.00301855087895
0.00300838665251
0.00297415034465
0.00289805944539
0.00275931744051
0.00253363194834
0.0021946343484
0.0016739485258
0.000925590427615
0.000925219719703
0.0016679883205
0.00218364871412
0.00251873423464
0.00274555402173
0.00288535585313
0.00296232453004
0.0029981776314
0.00301169847918
0.00301638109016
0.0030189387379
0.00301832097064
0.00300682330584
0.0029711687975
0.0028939176151
0.00275463659622
0.00252969931496
0.00219400104879
0.00167482985051
0.000926369082441
0.000926588973411
0.00166817409649
0.0021799931346
0.00250805857391
0.00273090843509
0.00287060397789
0.00294893747301
0.00298684486743
0.00300221735916
0.00300786501365
0.00301013023842
0.00300815296688
0.00299466568596
0.00295694340211
0.00287822833603
0.00273897679179
0.0025193484468
0.00218776543551
0.00167287242082
0.000926717535812
0.00092690787469
0.00166088969733
0.00216425896585
0.00248549349904
0.00269583562368
0.00283320187017
0.00291210337814
0.00295181747349
0.00296904193154
0.00297571727704
0.00297775364545
0.00297441184211
0.00295890331411
0.00291929003342
0.00283987604275
0.00270279697612
0.0024934207047
0.00216824101203
0.00166252013728
0.000925481242721
0.000923214946476
0.00163824902503
0.00212533024488
0.00243511029233
0.00263028539859
0.00275814766972
0.00283514261805
0.00287538774228
0.00289381283429
0.0029013036895
0.00290323973401
0.00289892716838
0.002882128012
0.00284195279193
0.00276466227806
0.00263877156419
0.00243859461256
0.00212490572736
0.0016364501609
0.000920673011174
0.000912431248236
0.00159032833103
0.00204903200271
0.00233988565554
0.00252207357741
0.00263151842154
0.00269909076044
0.00273707144012
0.00275532430637
0.00276310307649
0.00276505970693
0.00276056406348
0.00274421758614
0.00270671307462
0.0026413094391
0.00252658087004
0.00233881393183
0.00204455261165
0.00158541305272
0.000909008948063
0.000890242579516
0.00150378850777
0.0019168181235
0.00217753255799
0.00234011048494
0.00243639674225
0.00248909388623
0.00251523299218
0.00252946829139
0.00253655587594
0.00253870074337
0.00253589330598
0.00252672793192
0.0024998854296
0.00244309048119
0.00234090832304
0.00217313789549
0.00190958826143
0.00149683073148
0.000886419866574
0.000850758195491
0.00135970861844
0.00170210728806
0.00191667616337
0.0020489965529
0.00212602952533
0.00216673516958
0.00218546791109
0.00219317772321
0.00219692683937
0.0021998776532
0.00220090668285
0.00219522514358
0.00217501734508
0.00213007886128
0.00204767864532
0.0019108303898
0.00169397635424
0.00135223275976
0.000847163600692
0.000786766500122
0.0011273031008
0.00135954623051
0.00150345239848
0.00158996426166
0.00163827704267
0.00166203589032
0.00167137140541
0.00167408937976
0.0016753245812
0.00167756296286
0.00167992052679
0.00167854280613
0.00166783568709
0.00164068961437
0.00158818140697
0.00149819133318
0.00135262295894
0.00112115115478
0.000784065309883
0.000705335321989
0.000786735057825
0.000850638428699
0.000889987501989
0.000912031710115
0.000922743315841
0.000926550443605
0.000926839039047
0.000926425373079
0.00092584728968
0.000926240144053
0.000927481418613
0.000928256709117
0.000927313711373
0.00092213545667
0.000909956278026
0.000886877836213
0.000847266907126
0.00078405800224
0.000704180164698
0.000783385770191
0.00110622200304
0.00133237840698
0.00147603575724
0.00156514710591
0.00161747065792
0.00164532491462
0.00165793353566
0.00166176893685
0.00166294042724
0.00166463813371
0.00166610632667
0.00166322599281
0.00165067775189
0.0016220294567
0.0015684823366
0.0014781548758
0.00133354451799
0.00110661349644
0.000782750472002
0.00110604962357
0.00227497361217
0.0028788791718
0.00326061967448
0.00350329273576
0.00365160003871
0.00373620345421
0.00378012241332
0.00380054607997
0.00380941574855
0.00381247916593
0.0038089529105
0.00379190338891
0.00374921163299
0.00366391205544
0.0035138133737
0.00326916445673
0.00288584285765
0.00228059588708
0.0011063792127
0.00133209327572
0.00287826313956
0.00367741052474
0.00419236225939
0.00452682009902
0.00473574514734
0.00485772362029
0.00492278459923
0.00495335230695
0.00496572851873
0.00496797172126
0.00495936066549
0.00493069383842
0.00486626618238
0.00474349255133
0.0045334980259
0.00419859235909
0.00368408698385
0.00288543665773
0.00133306759187
0.00147574467653
0.00325961051105
0.00419210248115
0.0048005160461
0.0052006423537
0.00545357994342
0.00560287074702
0.00568437437705
0.00572193551913
0.00573591496155
0.00573676576082
0.0057237869979
0.00568495883865
0.0056044778817
0.00545451899134
0.00520179170754
0.00480336073171
0.00419799957476
0.00326837859316
0.00147746725893
0.00156485056209
0.00350196497321
0.00452663464479
0.00520104242158
0.00564781826704
0.0059319902189
0.00609974334368
0.00618718224973
0.00622637235439
0.00624000117105
0.00623965728677
0.00622488442209
0.00618361921859
0.00609423212409
0.00592528782569
0.00564321772085
0.00520073388463
0.00453224585791
0.00351289537142
0.00156762559049
0.00161702288874
0.00364975025044
0.00473572218816
0.00545488682749
0.00593328212231
0.0062365564806
0.00641113029665
0.00649984540183
0.00653760020931
0.0065494139036
0.00654816251769
0.00653343762835
0.00649214371221
0.00640009068607
0.00622411540098
0.0059234194087
0.0054521182308
0.00474178415909
0.0036634161133
0.00162115873806
0.00164450002537
0.0037334715573
0.00485776119101
0.00560543279222
0.00610363865066
0.00641406269151
0.00658982384691
0.00667583063555
0.00670980618869
0.00671892584732
0.00671718535313
0.00670405102794
0.00666537200352
0.00657496186184
0.00639742349575
0.00609019982619
0.00560100991398
0.00486480526225
0.0037500917033
0.00165014458674
0.00165647134567
0.00377611401181
0.00492267667183
0.00568811426691
0.00619396574445
0.00650649220126
0.006679841468
0.00676106025532
0.00679039133051
0.00679678330031
0.00679501674991
0.00678429970152
0.00674950480699
0.00666289766146
0.00648716771997
0.00617802091321
0.0056815829706
0.00493072673515
0.00379544763402
0.00166330114296
0.00165951617818
0.00379496178035
0.00495300779544
0.00572775816834
0.00623617837198
0.00654814076796
0.00671809591284
0.00679470542599
0.00682020706719
0.00682465833394
0.00682318916701
0.00681471508203
0.00678344364078
0.00670055494254
0.00652752527797
0.0062190331295
0.00572127642622
0.00496231942923
0.0038165219888
0.00166735494907
0.00165937086907
0.003802172016
0.0049650565501
0.00574324470854
0.00625274702485
0.00656388675666
0.00673161609861
0.00680557714743
0.00682910899996
0.00683270855218
0.00683157729181
0.00682439883227
0.00679504225616
0.00671419432356
0.00654276824435
0.00623493596037
0.00573657836203
0.00497491776101
0.00382494724503
0.00166794383474
0.00165971254014
0.00380393984163
0.00496730654121
0.00574574812722
0.00625548364641
0.00656676646753
0.00673462785969
0.00680880966982
0.00683266108226
0.00683655865821
0.00683557187166
0.00682830556005
0.00679863287121
0.00671731917998
0.00654538083034
0.00623708582615
0.00573842203089
0.00497667738086
0.00382661511002
0.00166809317543
0.0016605054931
0.00379992128693
0.00495934114822
0.00573484391034
0.00624394523099
0.00655635134843
0.00672669923406
0.00680391310968
0.00683028348579
0.00683554517613
0.00683446936166
0.00682573683094
0.00679354689009
0.00670929983013
0.00653474830841
0.0062248718553
0.00572621243823
0.00496697634615
0.0038209926426
0.00166786166577
0.00165783230028
0.00378333846903
0.00493198857873
0.0056987169734
0.00620562742583
0.00651895888682
0.00669301223162
0.00677516134418
0.00680573354569
0.00681325920618
0.00681201362348
0.00680084450024
0.00676460756886
0.00667578961582
0.00649756293471
0.00618615052973
0.00568837008115
0.00493685030246
0.00380140747589
0.00166367929468
0.00164586481219
0.00374167216927
0.00486848795723
0.00561820073169
0.00611759224439
0.00642923207013
0.00660609665108
0.00669334123739
0.00672875754268
0.0067391346786
0.00673793170289
0.00672418439463
0.00668359495276
0.00659023958436
0.00640931503417
0.00609898783429
0.0056078219518
0.004870655573
0.00375598795892
0.00165006005523
0.00161809490028
0.00365764404237
0.00474622632661
0.00546783738274
0.00594790242371
0.00625281731868
0.00642902014466
0.00651938670372
0.00655884917021
0.0065720396368
0.00657132413615
0.00655577881049
0.00651214841704
0.00641649013829
0.00623634896111
0.00593186650159
0.00545767348007
0.00474603385612
0.00366802259649
0.00162007976228
0.00156550985269
0.00350860911526
0.00453566096006
0.00521273587819
0.00566199228527
0.00594795775344
0.00611805266948
0.00620766156187
0.00624903968467
0.00626430165366
0.00626451563084
0.00624869357048
0.00620469652082
0.00611112997924
0.00593737604031
0.0056505407797
0.00520447612974
0.00453443276907
0.0035157786003
0.00156565403606
0.00147605197629
0.00326458045769
0.00419898807309
0.00480998087317
0.00521300585586
0.00546876712084
0.00562080783415
0.00570448786433
0.00574509164892
0.00576108119961
0.00576257152933
0.00574828457721
0.00570659894742
0.00562162538763
0.00546615728717
0.00520805146908
0.00480563011772
0.00419860921381
0.00326994545025
0.00147512139454
0.00133216851004
0.00288158276522
0.00368206940669
0.00419922627856
0.00453655579372
0.00474867002462
0.00487394105499
0.0049422202138
0.00497588514096
0.00499047975847
0.00499353850434
0.00498381228296
0.00495209733692
0.00488299956435
0.00475460368127
0.00453919439116
0.00420033693123
0.00368426556622
0.0028866580854
0.00133101509279
0.00110594132743
0.00227694592167
0.00288163997547
0.00326500710844
0.00351006855773
0.00366127562781
0.00374904550729
0.00379616763736
0.00381955912823
0.0038306265984
0.00383463247437
0.0038303793858
0.00381085237597
0.003764207457
0.00367414564341
0.00351948955733
0.00327155879526
0.00288697733
0.00228255088377
0.00110499125142
0.000782941128766
0.00110584621617
0.00133200225917
0.00147594203658
0.00156568447038
0.00161896704399
0.00164803736327
0.00166186039438
0.0016670226437
0.00166918952576
0.00167108400461
0.0016719708091
0.0016679701156
0.00165359657663
0.00162282784834
0.00156742509021
0.00147600218866
0.00133130966687
0.00110504887115
0.000781228680808
0.000845099150135
0.00132560332026
0.00166257487992
0.00188122429543
0.00202091436107
0.00210602256704
0.00215370839781
0.00217729937936
0.00218721263812
0.00219095878181
0.00219248750263
0.00219116030746
0.00218238993804
0.00215874080695
0.00211028502142
0.00202432480618
0.00188417102154
0.00166541128033
0.0013278133311
0.000844497386646
0.00132547240351
0.00286467646569
0.00367089954028
0.00419430621299
0.00453603896728
0.0047501121275
0.00487505017017
0.00494109242451
0.00497172609634
0.0049832813401
0.00498382559204
0.00497293942253
0.00494186790128
0.00487442114267
0.00474812731145
0.00453401553901
0.00419448299838
0.00367523907511
0.00287302932557
0.00132746242997
0.00166212752053
0.00366985521183
0.00471302412275
0.00540081570257
0.00585870916517
0.00615057458807
0.00632317128821
0.00641472498955
0.00645572155396
0.00646843045189
0.00646417105475
0.00644314471316
0.00639415919405
0.00629617415065
0.00612058723307
0.00583078905345
0.00538072609205
0.00470525945787
0.00367484290673
0.00166476297489
0.00188058464983
0.00419315453694
0.00540135467582
0.0062050278515
0.00674548774412
0.00709268468091
0.00729839835361
0.00740685772436
0.00745208459264
0.00746233467859
0.00745234594652
0.00742275527527
0.00736031356584
0.00723980872545
0.00702972549778
0.00668752756041
0.00616146090767
0.00537917356867
0.00419340186559
0.00188328452367
0.00202015600106
0.00453557428815
0.00586156689829
0.00674892281045
0.00734855124466
0.00773459210738
0.00795897830663
0.00807080957104
0.00811263999196
0.00811719812175
0.00810184090397
0.00806751673621
0.00799908634779
0.00786848577539
0.00763706954233
0.00726037385296
0.00668248851759
0.00582586020636
0.00453184509069
0.00202318772276
0.00210506849466
0.0047507735532
0.00615727586949
0.00710244217278
0.00774249155477
0.00814864255958
0.00837836218723
0.00848422077887
0.00851627470149
0.00851268361919
0.00849294424085
0.00845789310314
0.00838999040252
0.00825801000682
0.00802061731841
0.0076258366567
0.00701563389306
0.00611034507201
0.00474460787291
0.00210896913867
0.00215240459825
0.00487705443497
0.00633494420361
0.00731695203727
0.00797907379659
0.00839279326957
0.00861658462659
0.00870861993873
0.00872693333144
0.00871442214922
0.00869199395659
0.00865985011144
0.00859790989513
0.00847177934119
0.00823758666686
0.00784017100304
0.00721341065662
0.00627936626476
0.00486979867725
0.00215756600505
0.00217548037788
0.00494461976372
0.00643265569408
0.00743689908818
0.00810668344523
0.00851811883357
0.00872953349157
0.00880526431999
0.00880980381371
0.00878954377744
0.00876616353465
0.00873898876849
0.00868579668028
0.0085693827997
0.00834325307235
0.00795008358068
0.00732002612271
0.00637071221406
0.00493703183968
0.00218197241343
0.00218473289047
0.00497700176562
0.00648056524488
0.00749478231054
0.00816603486155
0.00857129445763
0.00877059515364
0.00883279317605
0.00882684099898
0.00880119478308
0.00877785718417
0.00875540317431
0.00871018930589
0.00860302055111
0.00838532528434
0.00799792939656
0.00736899241126
0.00641414988048
0.00496919802853
0.00219224876949
0.00218774299291
0.00499071291851
0.00650080481995
0.00751830608373
0.00818862300597
0.00858904132137
0.00878084680562
0.00883537809913
0.00882380856462
0.00879544675002
0.00877233668099
0.00875261095052
0.00871190825807
0.00861008354426
0.00839754796994
0.00801411721565
0.00738698078077
0.00643117773046
0.00498229500231
0.0021956137014
0.00218875154539
0.0049939702368
0.00650441100504
0.00752153878355
0.00819108246019
0.00859049372785
0.00878128481161
0.0088351398712
0.00882332237328
0.00879495200735
0.00877187128236
0.00875212248678
0.00871131497053
0.00860943259788
0.00839710075161
0.00801417800215
0.00738769616228
0.00643266837548
0.00498437249554
0.00219610155053
0.00218753067473
0.00498617011845
0.00649071095694
0.00750378734909
0.00817277231336
0.00857503742486
0.00877119940065
0.00883119132694
0.00882434526266
0.00879860705145
0.00877538271173
0.00875296126407
0.00870759226883
0.00860043113933
0.00838347922076
0.00799764875326
0.0073706401641
0.00641804115107
0.0049748339849
0.00219358885797
0.00217949213152
0.00495808323498
0.00644745998667
0.00744992830657
0.00811596062587
0.00852230655661
0.0087281916368
0.00879985169705
0.00880258771882
0.00878203787348
0.00875893269834
0.00873212544017
0.00867919981518
0.00856343391091
0.00833903980537
0.00794862476731
0.00732162665387
0.00637567783806
0.00494478973804
0.00218356907227
0.00215682704442
0.00489255455413
0.00635187181105
0.00733207067344
0.00798937283964
0.00839636643679
0.00861258715601
0.00869875285648
0.00871416926354
0.00870097295112
0.00867896221448
0.00864774105647
0.0085869372206
0.00846257163139
0.00823126654481
0.00783740168363
0.00721429348277
0.00628400777231
0.00487799065885
0.00215861839675
0.00210917915809
0.00476608934523
0.00617395497807
0.00711774060875
0.00775329342389
0.00815304413464
0.00837513283229
0.00847452584135
0.00850302151615
0.00849831220899
0.00847893770625
0.00844509023853
0.00837884537744
0.00824916002183
0.00801464502388
0.00762292959943
0.00701555568141
0.00611377310564
0.00475193215409
0.00210896430607
0.00202352893248
0.00454910448418
0.00587641025068
0.00676324095333
0.00736030556618
0.00774164439494
0.00796087123737
0.00806797535735
0.0081068122415
0.00811023515199
0.00809506278891
0.00806159320411
0.00799422163252
0.00786482229095
0.00763449911352
0.00725865909949
0.00668220579703
0.00582814777014
0.00453785815809
0.00202219917174
0.00188312054715
0.00420416469995
0.00541377577879
0.00621804276722
0.00675812946174
0.00710376743588
0.00730698003435
0.00741337650895
0.0074574149136
0.00746733280196
0.00745761271528
0.00742822313551
0.00736526901169
0.007244294757
0.00703271258126
0.00668899511115
0.00616235204473
0.0053812175879
0.00419851248812
0.00188188688162
0.00166386921117
0.00367821930011
0.00472301329158
0.005412503584
0.00587204373281
0.00616517988401
0.00633864350953
0.00643102286184
0.0064729217627
0.00648648594172
0.00648277586317
0.00646134499487
0.00641058025223
0.00630965138598
0.00613020214468
0.00583663601126
0.00538407061941
0.00470829577984
0.00367996528868
0.00166369578407
0.001326324892
0.00287040667448
0.00367833189739
0.00420408126417
0.00454866574656
0.00476575403471
0.00489363652907
0.00496247311519
0.00499556297573
0.00500895829381
0.00501038091108
0.00499889868217
0.0049654404271
0.00489402883039
0.00476279348963
0.00454386127139
0.00420081555166
0.00368025015767
0.00287899601532
0.001326907053
0.000844599407608
0.00132615129692
0.00166367276365
0.0018830766315
0.00202386962736
0.00211037453012
0.00215965656173
0.00218492901217
0.00219638259853
0.00220119624866
0.00220301359006
0.00220107067082
0.00219069489669
0.00216462716909
0.00211337795838
0.00202492579012
0.00188322468814
0.00166419910512
0.00132710185321
0.000842451653471
0.000887644883492
0.00148230347019
0.00190543504222
0.00218529016464
0.00236670578279
0.00247780830457
0.00253951071468
0.00256901839493
0.00258028580209
0.00258320691733
0.00258280525216
0.00257860973866
0.00256516420782
0.00253292263656
0.00246909442548
0.0023577665692
0.00217875652896
0.00190329567875
0.00148386759902
0.000887059936344
0.00148250754386
0.00330496173577
0.00428821070773
0.00494225739242
0.0053755108821
0.00564684253018
0.00580156368413
0.00587790100562
0.0059070927577
0.00591113301034
0.00590125550213
0.00587801884216
0.00583102013895
0.00574008431925
0.00557732061904
0.00530777629893
0.00488785838725
0.00425669159998
0.00329894205708
0.00148341173932
0.00190541124109
0.00428807005132
0.00555884466259
0.00641536119249
0.00699295282843
0.00735984811136
0.0075702864017
0.00767172694573
0.00770554743479
0.00770214713889
0.00767676594393
0.00763241362772
0.00755643079701
0.00742292066343
0.00719699620978
0.00683524655607
0.00628511682531
0.00547426886028
0.00425605043026
0.0019024541913
0.00218570212526
0.0049453710463
0.00642055848166
0.00742011300217
0.00809855450565
0.0085313097121
0.00877921647144
0.00889120263901
0.00891817448571
0.00889998322631
0.00885818800888
0.00879603203503
0.00869802529362
0.00853401009621
0.00826702179996
0.00784537717629
0.00720962210318
0.00627919063333
0.00488431749757
0.00217731305893
0.00236813853986
0.00538478050597
0.00700884472841
0.00811206475924
0.00886339156522
0.00934237376874
0.00960149558774
0.00970200914822
0.00970811062137
0.00966965072475
0.00961266645115
0.00954033631538
0.00943365655007
0.00925823374571
0.00897040507591
0.00851493118558
0.00782602467825
0.00681515814411
0.00529777954208
0.00235508886223
0.00248051237019
0.00566435284826
0.0073913414458
0.00856681167004
0.0093694589156
0.00986323273646
0.010106802244
0.0101755840692
0.010149498197
0.010088090137
0.0100203402469
0.00994774802311
0.00984679511477
0.00967728659527
0.00939036908038
0.00892675922379
0.00821274109737
0.00715363029789
0.0055570589213
0.00246449740245
0.00254357917706
0.00582891693711
0.00762171007692
0.0088457295181
0.00967045306753
0.0101535972782
0.0103616346288
0.0103859713565
0.0103229016058
0.0102404235876
0.010168310559
0.0101048033788
0.0100212716726
0.00987130950295
0.00960085683599
0.00914640903966
0.00843010254968
0.00734890957009
0.00570685330564
0.00252612298393
0.00257454944318
0.0059165726822
0.00774689292976
0.00899637410735
0.00982262676618
0.0102812396959
0.0104467914276
0.0104260184068
0.0103301710535
0.0102323059756
0.0101611537898
0.0101113381167
0.0100498173655
0.0099246819921
0.00967744380664
0.00924087877415
0.00853440847372
0.00744792939377
0.00578401787668
0.00255649826212
0.00258742211184
0.00595853190671
0.00780753780117
0.00906550426694
0.00988363160471
0.0103171737251
0.0104471586024
0.0103925083518
0.0102743573852
0.010167542145
0.0100991645734
0.0100612402588
0.0100179432506
0.00991386169291
0.00968725619894
0.0092682129502
0.00857346956631
0.00748987106626
0.00581832286582
0.00256885433214
0.00259219546102
0.0059766452335
0.0078331525562
0.00909099734172
0.00990083320816
0.0103178182389
0.0104273001947
0.0103549040024
0.0102259840389
0.0101153068416
0.010048882969
0.0100174585661
0.00998384736237
0.00989121361049
0.00967653693482
0.00926856926346
0.00858242497665
0.00750370655432
0.0058309753097
0.00257274470968
0.00259412828875
0.00598151956177
0.00783689925802
0.00909214872983
0.00989829258678
0.0103110977342
0.0104173623995
0.0103435491735
0.0102145206247
0.0101041689428
0.0100380892821
0.0100068912966
0.00997333354483
0.00988097963963
0.00966749134215
0.00926183086212
0.0085787083922
0.00750295464284
0.00583251649945
0.00257332108753
0.0025927060921
0.00597193003812
0.0078177637884
0.00906755454093
0.00987448672295
0.0102950050711
0.0104143701366
0.0103544005511
0.0102352810023
0.0101293101462
0.010062221544
0.0100255171763
0.00998317853607
0.00988091975169
0.00965877774727
0.00924722335851
0.00856175273541
0.00748705277108
0.0058222196227
0.00257024033705
0.00258199951938
0.0059352484742
0.0077599334029
0.0089953057521
0.00980255315182
0.0102386942857
0.0103845963823
0.0103523215337
0.0102529247432
0.0101557787285
0.0100872677653
0.0100410071567
0.00998355180788
0.00986446022234
0.00962726061658
0.00920466412787
0.00851396998268
0.00744174913335
0.00578854627117
0.00255780144772
0.00255158969669
0.00584860499031
0.00763302418241
0.00883805496686
0.00963733460256
0.0100896545291
0.0102689391705
0.0102738933498
0.0102024955203
0.0101192523843
0.0100511137149
0.00999484917143
0.00992103701931
0.00978417367475
0.00953114721106
0.00909742454258
0.0084023217007
0.00733864695527
0.00571020783501
0.00252630078726
0.00248769095073
0.00568159502402
0.00739830114174
0.00855483928742
0.00932894233996
0.00978824598376
0.00999797723122
0.0100416258132
0.0100024710806
0.00993798751066
0.0098746942577
0.00981244790353
0.00972644173198
0.00957618728051
0.00931216679381
0.00887287143957
0.00818117473506
0.00714014290265
0.00555837544529
0.00246298004606
0.00237382397053
0.00539827196258
0.00701175523756
0.00809813738714
0.00882611842285
0.00927476474694
0.00950227962638
0.00957760852138
0.00956915741442
0.00952609323522
0.00947292785576
0.00941139798565
0.00932088059911
0.00916580521956
0.00890041837684
0.0084665096671
0.007796084575
0.00680111908713
0.00529759201035
0.00235213963932
0.00218994845811
0.00495597934864
0.00642256585766
0.00740956262771
0.00807235415249
0.00848638994662
0.00871284056762
0.00880637379083
0.00882151499665
0.00879890484876
0.00875966141977
0.0087058277014
0.00862019775105
0.00847116267514
0.0082189395051
0.00781068560236
0.00718706156227
0.00626810308417
0.00488417761123
0.00217385592465
0.00190846419797
0.00429731395695
0.00556348677123
0.00641351828977
0.00698345348732
0.00734159987654
0.00754277991505
0.00763602360489
0.00766405255787
0.00765825146829
0.00763461122772
0.00759481402115
0.00752458530431
0.00739696259046
0.00717631818755
0.00681938124987
0.00627416923413
0.00546904131204
0.00425769482897
0.00189956266074
0.00148418815122
0.00331301207212
0.00429619987735
0.00494998255403
0.0053829892064
0.00565383970673
0.00580779292971
0.00588338937693
0.00591228995414
0.00591684013865
0.00590825756352
0.00588634279497
0.00583972329517
0.00574774083051
0.00558273968056
0.00531070048005
0.00488919762183
0.00425840415862
0.00330339283415
0.00148146739074
0.000887157506137
0.0014838477523
0.00190791507908
0.00218879967914
0.00237150415153
0.00248402233482
0.00254715159522
0.00257802020739
0.00259042791436
0.00259411417689
0.00259393013659
0.00258914364615
0.00257397210712
0.00253893830604
0.00247175113757
0.00235734531372
0.00217637380715
0.00190058085753
0.00148198238323
0.000883923291193
0.000922493634818
0.00162785500779
0.00214154834443
0.00248852475268
0.00271520821727
0.00285167677091
0.0029228375349
0.00295136533413
0.00295649046996
0.00295175424607
0.00294411610119
0.00293341450532
0.0029131414617
0.00287128701933
0.00279177843653
0.00265547677087
0.00243922778875
0.00211111604302
0.00161813348475
0.000921182218454
0.00162902175813
0.00375850279795
0.00496337881071
0.00579056565426
0.00634450114941
0.00668484604873
0.00686513504474
0.00693618714128
0.00694200456543
0.00691411404005
0.00687003622187
0.00681251673253
0.00673030234797
0.0065989653219
0.00638463179571
0.00604649217353
0.00553584420428
0.0047872921972
0.00367756648084
0.00161758686938
0.002143841406
0.0049681184317
0.00655019802472
0.00764848734958
0.0083948246495
0.00885921267243
0.00910582776221
0.00919518692189
0.00918814577184
0.0091276339684
0.00904001468843
0.00893212027194
0.00879287437939
0.00859137359768
0.00828745965938
0.00782976048513
0.00715879031254
0.00619687689212
0.00478455518275
0.00210975383536
0.0024944221009
0.00580945267339
0.0076673187029
0.00895868085385
0.00984266562411
0.0103929673054
0.0106759259907
0.0107539778796
0.0107076736664
0.0106011848835
0.010469803624
0.0103221440395
0.0101413179128
0.00989260367912
0.00953259834363
0.00900395211984
0.00823581479109
0.00713659448499
0.00552044618635
0.00243535676642
0.00272674139858
0.00638540076016
0.00844616318713
0.00988202831798
0.0108676163526
0.0114621240123
0.0117219952485
0.0117411109307
0.011628360624
0.0114674458425
0.0113002575677
0.0111334091775
0.0109430278758
0.0106857460881
0.0103098692477
0.00975298828158
0.0089378313609
0.0077569145579
0.00600375235342
0.00264594732022
0.00286990325544
0.00675364226142
0.00895582120521
0.0104965669487
0.0115389346474
0.0121124049802
0.012291639006
0.0122076511501
0.0120080880716
0.0117941496073
0.0116091958163
0.011452139682
0.0112881793978
0.0110609966953
0.0107096275768
0.0101662513645
0.00934620046034
0.0081325500365
0.00629880296624
0.00277308699252
0.00294841001202
0.00696685266503
0.00926120629171
0.0108696081873
0.0119115590246
0.0124131439828