/*--------------------------------*- C++ -*----------------------------------*\
| =========                 |                                                 |
| \\      /  F ield         | OpenFOAM: The Open Source CFD Toolbox           |
|  \\    /   O peration     | Version:  3.0.1                                 |
|   \\  /    A nd           | Web:      www.OpenFOAM.org                      |
|    \\/     M anipulation  |                                                 |
\*---------------------------------------------------------------------------*/
FoamFile
{
    version     2.0;
    format      ascii;
    class       volScalarField;
    location    "8.1";
    object      alpha.water;
}
// * * * * * * * * * * * * * * * * * * * * * * * * * * * * * * * * * * * * * //

dimensions      [0 0 0 0 0 0 0];

internalField   nonuniform List<scalar> 
7968
(
1.00000275474
1.00000131994
1.00000108565
1.00000095421
1.00000090997
1.000000908
1.00000091821
1.00000094931
1.00000099833
1.00000105815
1.00000113879
1.00000119567
1.00000122468
1.00000124865
1.00000127619
1.00000129053
1.00000136595
1.00000160471
1.00000218885
1.00000328787
1.00000128657
1.0000012706
1.00000097246
1.00000086527
1.00000115387
1.0000011282
1.00000098608
1.00000089057
1.0000008887
1.00000092733
1.00000099323
1.0000010403
1.00000112058
1.00000127353
1.00000151898
1.00000165414
1.00000136866
1.00000168078
1.00000220927
1.00000168368
1.0000018099
1.00000099893
1.00000083438
1.00000077835
1.00000089159
1.0000009086
1.00000086412
1.00000083774
1.00000085604
1.00000089816
1.00000095204
1.0000009836
1.00000103641
1.00000113674
1.00000132503
1.00000147354
1.00000139426
1.00000156839
1.00000197703
1.00000228947
1.00000115558
1.00000079049
1.00000069517
1.00000065921
1.00000070718
1.00000074001
1.00000074637
1.00000075717
1.000000785
1.00000082364
1.00000087457
1.00000089045
1.00000090955
1.00000096786
1.00000111101
1.00000127176
1.00000136443
1.00000160914
1.00000200146
1.00000178257
1.00000056576
1.00000050809
1.00000052743
1.00000054263
1.00000058599
1.00000062605
1.0000006569
1.00000068358
1.00000070854
1.00000073223
1.00000076736
1.0000007662
1.00000075913
1.00000078274
1.00000088888
1.00000104933
1.00000122827
1.0000015106
1.00000181859
1.00000137779
1.00000020979
1.00000020496
1.00000030675
1.0000004039
1.00000049232
1.00000055065
1.00000059773
1.00000063588
1.00000066016
1.00000067099
1.00000068287
1.00000066217
1.00000062989
1.00000062197
1.00000069799
1.0000008713
1.00000112291
1.00000145686
1.00000178736
1.00000110709
1.00000003792
1.00000003793
1.00000007811
1.00000025252
1.00000039214
1.0000004881
1.00000056536
1.00000062502
1.00000065834
1.00000066633
1.0000006568
1.00000061519
1.00000055845
1.00000052473
1.00000057621
1.0000007424
1.00000099278
1.00000127859
1.00000152572
1.00000095985
1.00000000665
1.00000000621
1.00000002578
1.00000008921
1.000000277
1.00000042917
1.0000005486
1.00000063898
1.00000069195
1.00000070736
1.00000068329
1.00000062147
1.00000054367
1.00000048995
1.00000051738
1.0000006706
1.0000008845
1.00000109488
1.00000123379
1.00000086787
1.00000000036
1.00000000025
1.00000000021
1.00000003342
1.0000001855
1.00000036597
1.000000526
1.00000064634
1.00000072075
1.00000074911
1.00000072559
1.0000006535
1.00000055727
1.00000047973
1.00000048878
1.00000064298
1.000000843
1.00000101404
1.00000110137
1.00000076935
1.0000000003
1.00000000032
1.00000000004
1.00000001119
1.00000010337
1.00000028577
1.0000004693
1.00000062222
1.0000007231
1.00000077066
1.00000075621
1.0000006832
1.00000057984
1.00000049315
1.00000049543
1.000000637
1.0000008305
1.00000100181
1.00000107524
1.00000067084
1.00000000016
1.00000000006
0.999999999908
1.00000000035
1.00000005986
1.00000021188
1.00000036496
1.0000005244
1.00000065493
1.00000072541
1.00000073027
1.00000066302
1.00000056044
1.00000046703
1.00000045279
1.00000057413
1.00000076611
1.00000094352
1.00000102135
1.00000067773
1.00000000014
0.999999999965
0.999999999739
0.999999999896
1.0000000167
1.00000011636
1.00000026854
1.00000040095
1.00000053233
1.00000062238
1.00000064341
1.00000058904
1.00000049301
1.00000039773
1.00000036853
1.00000048228
1.00000068916
1.00000087678
1.00000096725
1.00000070391
1.00000000212
0.999999999845
0.999999999713
0.999999999985
1.00000000234
1.00000007888
1.00000018068
1.00000029408
1.00000039145
1.00000048113
1.0000005183
1.00000047995
1.00000040266
1.00000032955
1.00000032325
1.00000042702
1.00000062765
1.00000086473
1.00000100917
1.00000064394
1.00000000038
1.00000000067
0.999999999975
0.999999999369
1.00000000121
1.00000004049
1.00000010122
1.00000018858
1.00000026779
1.00000033629
1.00000038123
1.00000036469
1.00000030929
1.00000025458
1.00000026111
1.00000036755
1.00000058336
1.00000088769
1.00000112821
1.0000006079
1.00000000002
1.00000000059
1.00000000004
1.00000000048
1.00000000163
1.00000001013
1.00000005724
1.00000010114
1.00000016523
1.00000022216
1.00000026291
1.00000026589
1.0000002386
1.00000020996
1.00000022639
1.00000032866
1.00000055066
1.00000090233
1.00000124603
1.00000072856
1
1.00000000024
0.999999999917
1.00000000261
1
1.00000000273
1.00000002636
1.00000006308
1.00000009315
1.00000014531
1.00000018835
1.00000020163
1.00000019992
1.00000019591
1.0000002229
1.0000003226
1.00000053481
1.00000088152
1.00000124897
1.00000096517
1
1.00000000017
1.00000000142
1
1
1
1.00000001169
1.00000004073
1.00000006965
1.00000010051
1.00000015339
1.00000018122
1.00000019709
1.00000021679
1.00000026252
1.00000037755
1.00000059531
1.00000097005
1.00000139332
1.00000129222
1.00000022765
1.00000000035
1
1
1
1.00000000091
1.0000000108
1.00000003456
1.0000000637
1.00000009384
1.00000014928
1.00000019259
1.00000022943
1.00000027483
1.00000035441
1.0000005036
1.00000068435
1.00000100797
1.00000142065
1.00000176678
1.00000010884
1
1
1
1.00000000067
1.00000000626
1.00000001654
1.00000004025
1.00000007021
1.00000010265
1.00000016521
1.00000021823
1.00000027637
1.00000035579
1.00000050367
1.00000075591
1.00000085818
1.00000121004
1.00000180753
1.00000146733
1.00000156222
1.00000019347
1.00000000775
1.00000000183
1.00000000397
1.00000000848
1.00000002218
1.00000004102
1.00000006389
1.00000009363
1.00000014478
1.00000018619
1.00000022737
1.00000025965
1.00000031209
1.00000042401
1.00000060837
1.00000090795
1.00000135286
1.00000230535
1.00000174738
1.00000129587
1.00000112335
1.00000100208
1.00000089541
1.00000080357
1.00000072818
1.00000077052
1.00000083971
1.00000082832
1.0000008652
1.00000094377
1.00000091664
1.00000089158
1.00000090131
1.00000093334
1.00000104498
1.00000128066
1.00000164427
1.00000185167
1.00000123123
1.00000109925
1.00000106165
1.00000098378
1.00000094055
1.00000091292
1.00000079056
1.00000047369
1.00000042731
1.00000041149
1.00000053899
1.00000053933
1.00000065693
1.00000086879
1.00000090809
1.0000009204
1.00000102316
1.00000121023
1.00000135996
1.00000098182
1.0000009717
1.00000097413
1.00000097697
1.00000092264
1.00000081151
1.00000077796
1.00000076456
1.00000068805
1.00000067788
1.00000070407
1.0000007723
1.0000007975
1.0000008157
1.00000084145
1.00000080851
1.00000082565
1.00000095688
1.00000111545
1.00000114867
1.0000005644
1.00000079441
1.0000008213
1.00000082924
1.00000074185
1.00000069765
1.00000069733
1.00000069276
1.00000068717
1.00000071906
1.00000076591
1.00000081532
1.00000082367
1.00000081604
1.00000079426
1.0000007425
1.00000074247
1.00000082172
1.00000092719
1.00000091179
1.00000032837
1.00000064069
1.0000006981
1.0000006328
1.00000060625
1.00000061528
1.00000062717
1.00000062827
1.00000064936
1.00000068945
1.00000072051
1.00000073547
1.00000073172
1.00000067949
1.00000066098
1.00000063237
1.00000064841
1.00000069101
1.00000074581
1.00000074948
1.00000020843
1.00000050088
1.00000052894
1.00000048773
1.00000051989
1.00000055973
1.00000058235
1.0000005896
1.00000056971
1.00000061667
1.00000065362
1.00000063498
1.00000061817
1.0000005296
1.00000048129
1.0000004678
1.00000053215
1.00000059415
1.00000063611
1.00000063031
1.00000010774
1.00000031313
1.00000025537
1.00000033604
1.00000043183
1.00000051877
1.00000055254
1.00000056125
1.00000058852
1.00000063235
1.00000065175
1.00000061564
1.00000056229
1.00000044962
1.00000034779
1.00000031226
1.00000040899
1.00000050322
1.00000055517
1.00000051141
1.0000000994
1.00000015599
1.00000002397
1.00000020727
1.00000035648
1.0000004902
1.00000048615
1.0000005757
1.00000066532
1.00000070963
1.00000070846
1.00000065776
1.0000005749
1.00000045792
1.0000003391
1.00000025445
1.00000026209
1.00000043257
1.00000047968
1.0000003359
1.00000009587
1.00000003211
1.00000001172
1.00000004646
1.00000025145
1.00000043204
1.00000053638
1.00000064555
1.00000073568
1.0000007765
1.00000076851
1.00000071045
1.00000061509
1.00000049699
1.00000035621
1.0000001869
1.00000002991
1.00000034007
1.00000044668
1.00000031619
1.00000012442
1.00000000931
1.00000000487
1.00000001817
1.00000009838
1.00000031312
1.00000049226
1.00000063573
1.00000073766
1.00000078813
1.00000078964
1.00000074121
1.0000006497
1.00000053177
1.00000038748
1.00000020951
1.00000007832
1.0000004497
1.00000055653
1.00000049579
1.00000016947
1.0000000004
1.00000000035
1.00000000483
1.00000003492
1.00000018439
1.0000003631
1.00000052798
1.00000065534
1.0000007299
1.00000075146
1.00000071867
1.00000063439
1.00000051652
1.00000036531
1.00000017169
1.00000004169
1.00000037559
1.00000050851
1.00000044971
1.00000016065
1.00000000043
1.0000000006
1.00000000068
1.00000000843
1.00000011569
1.00000026826
1.00000041571
1.00000053621
1.00000062344
1.0000006623
1.00000064326
1.00000056741
1.00000045549
1.00000031916
1.00000016231
1.00000001096
1.00000022288
1.00000036608
1.00000023852
1.00000010567
1.00000000237
1.00000000223
1.00000000178
1.00000000182
1.00000007482
1.00000017375
1.00000029858
1.00000040427
1.00000048814
1.00000053848
1.00000053594
1.0000004697
1.00000036181
1.00000025624
1.00000019573
1.00000019081
1.00000031616
1.00000039033
1.00000028158
1.00000008449
1
1.00000000077
1.00000000121
1.00000000152
1.00000003095
1.00000011249
1.00000021069
1.00000028385
1.00000035495
1.00000040291
1.00000041812
1.00000036737
1.00000026471
1.00000019823
1.00000016252
1.00000021499
1.00000032154
1.00000042987
1.00000042519
1.00000009214
1
1.00000000018
1.00000000037
1.00000000077
1.00000000734
1.00000007256
1.0000001266
1.00000017029
1.00000024725
1.000000285
1.00000031307
1.00000028371
1.00000019365
1.0000001741
1.00000016806
1.00000022024
1.00000032541
1.00000043244
1.000000471
1.00000011761
1
1.00000000001
1.00000000007
1.0000000004
1.00000000272
1.00000004079
1.0000000821
1.00000012618
1.00000018069
1.00000022201
1.00000024424
1.00000023924
1.00000018221
1.00000018745
1.00000019212
1.00000025084
1.00000036339
1.00000047597
1.00000053811
1.00000022482
1
1.00000000026
1.00000000066
1.00000000019
1.00000000272
1.00000002671
1.00000006083
1.000000089
1.00000013634
1.00000018524
1.00000021922
1.00000023308
1.00000024059
1.00000023537
1.00000025347
1.00000032174
1.00000044686
1.00000060484
1.00000067614
1.00000035498
1.00000001466
1.0000000181
1.00000001756
1.00000001474
1.00000001414
1.00000003461
1.00000006113
1.00000008534
1.00000011892
1.00000016666
1.00000021392
1.00000023767
1.00000027224
1.00000031075
1.00000035017
1.00000042913
1.00000058169
1.00000078225
1.00000090888
1.0000006215
1.00000009654
1.0000000686
1.00000005011
1.00000004356
1.00000005085
1.00000006329
1.00000007419
1.00000008054
1.00000010247
1.00000010914
1.00000017159
1.00000012267
1.00000019426
1.00000035508
1.00000043913
1.00000052083
1.0000006668
1.00000088832
1.00000109823
1.00000089017
1.00000051867
1.0000002022
1.00000006499
1.00000004476
1.0000000488
1.00000005492
1.0000000623
1.00000008293
1.00000011856
1.00000013867
1.00000016948
1.00000020409
1.00000016608
1.00000017889
1.00000024452
1.00000034935
1.00000046529
1.00000063509
1.00000084113
1.00000056462
1.00000171354
1.00000110673
1.000000971
1.00000079898
1.00000051467
1.0000001661
1.00000001561
1.00000001573
1.00000001162
1.00000000323
1.00000000312
1.00000003646
1.00000001333
1.00000022085
1.00000032413
1.00000040011
1.00000052721
1.00000067456
1.00000094231
1.00000104213
1.00000106313
1.00000108798
1.00000108322
1.00000093206
1.00000083578
1.00000069124
1.00000000065
1.00000000052
1.00000000093
1.00000000011
1.00000000092
1.00000000025
1.00000000012
1.00000018725
1.00000040017
1.00000042251
1.0000005415
1.00000068821
1.00000073072
1.00000036939
1.00000090186
1.00000103703
1.00000105121
1.00000084135
1.00000044787
1.00000036212
1.00000030796
1.00000022435
1.00000018864
1.00000015793
1.0000001627
1.00000017093
1.00000012393
1.00000016872
1.00000012911
1.0000001548
1.00000031851
1.00000057207
1.00000060436
1.00000025893
1.00000075501
1.00000088431
1.0000008281
1.00000042103
1.00000035815
1.00000040054
1.00000046391
1.00000043571
1.00000043183
1.00000036174
1.00000033613
1.0000004438
1.0000003299
1.00000029059
1.0000001153
1.00000011552
1.00000012332
1.00000029146
1.00000047288
1.00000012913
1.00000063173
1.00000081367
1.00000043893
1.00000034808
1.00000042649
1.00000049654
1.00000047235
1.00000026328
1.00000023696
1.00000015793
1.00000019067
1.00000025177
1.00000025186
1.00000025387
1.00000015361
1.00000015305
1.00000013862
1.00000014805
1.00000036478
1.00000000356
1.00000053157
1.00000071392
1.0000003185
1.00000040606
1.00000053383
1.00000054587
1.00000045211
1.0000002806
1.00000035059
1.00000026365
1.00000024183
1.0000003392
1.0000002465
1.00000020914
1.00000010393
1.00000013488
1.00000017492
1.00000014788
1.00000029242
1.00000000102
1.00000030703
1.00000021743
1.00000028634
1.00000051062
1.00000058963
1.00000053504
1.00000050575
1.00000047414
1.00000052938
1.0000005005
1.00000043951
1.00000040009
1.00000028162
1.00000018225
1.00000000114
1.00000001884
1.00000016626
1.00000021589
1.00000016039
1.0000000139
1.00000027213
1.0000000003
1.00000017851
1.00000051921
1.00000043254
1.00000043636
1.00000057895
1.00000068082
1.00000071012
1.0000006622
1.00000056923
1.00000046692
1.00000034003
1.00000022221
1.00000010872
1.00000000128
1.00000001197
1.00000012932
1.00000000333
1.00000000664
1.00000020712
1.00000000092
1.00000015257
1.00000053377
1.00000052553
1.00000061661
1.000000743
1.00000082766
1.00000081716
1.00000073839
1.00000063091
1.00000051771
1.00000039546
1.00000025863
1.00000005805
1.00000000118
1.00000000438
1.00000001658
1
1.00000000031
1.00000004409
1
1.00000012303
1.0000004638
1.00000045247
1.00000062927
1.00000078608
1.00000086056
1.00000083465
1.00000074983
1.00000065158
1.00000054438
1.0000004281
1.00000028688
1.00000006039
1.00000000036
1.00000000492
1.00000008004
1.00000026727
1.00000003645
1.00000002486
1.00000000013
1.00000008962
1.0000003649
1.00000033084
1.00000049937
1.00000069965
1.00000079406
1.00000078302
1.00000071762
1.00000063098
1.00000052976
1.00000041838
1.00000027687
1.0000000512
1.00000000047
1.00000000507
1.00000001523
1.00000018107
1.0000000409
1.00000005185
1
1.00000002963
1.00000024975
1.00000033878
1.00000047368
1.00000061555
1.0000006915
1.00000069892
1.00000065514
1.0000005802
1.00000048242
1.00000037011
1.00000023414
1.00000003435
1.00000000074
1.00000000496
1.00000000888
1
1.00000001119
1.0000000143
1
1.00000001398
1.00000014848
1.00000022462
1.00000036329
1.00000048426
1.00000055079
1.00000058205
1.00000056446
1.00000050641
1.00000041316
1.00000029176
1.00000018041
1.00000009913
1.00000000044
1.00000000905
1.00000014075
1.00000000236
1.00000001172
1.00000000884
1.00000003408
1.00000002791
1.00000007527
1.00000019921
1.00000030453
1.00000038696
1.00000038784
1.00000043905
1.00000043138
1.00000039891
1.00000033054
1.00000020777
1.00000013802
1.00000000005
1.00000000148
1.00000014703
1.00000021993
1.00000019527
1.00000001983
1.00000005417
1.00000011519
1.00000002137
1.00000003774
1.00000013019
1.0000002163
1.00000027513
1.0000002053
1.00000028907
1.00000026147
1.00000025822
1.0000002526
1.00000015651
1.00000012111
1.00000002444
1.00000009121
1.00000014324
1.00000014368
1.00000026443
1.00000001794
1.00000006704
1.00000012583
1.00000003383
1.00000002994
1.00000009088
1.000000147
1.00000022141
1.000000184
1.00000024458
1.0000001962
1.00000016839
1.00000021878
1.00000013827
1.00000013386
1.0000001033
1.00000012693
1.00000013751
1.0000001548
1.00000033825
1.00000007623
1.00000011543
1.00000018028
1.00000016893
1.00000007806
1.00000008702
1.00000013014
1.00000017336
1.00000023104
1.00000027102
1.00000026907
1.00000028066
1.00000030085
1.00000018303
1.00000017902
1.00000012442
1.00000012837
1.00000016185
1.00000036878
1.00000049854
1.0000002477
1.00000019585
1.00000025887
1.00000027613
1.00000023364
1.00000012461
1.00000013618
1.00000016591
1.00000018192
1.00000020402
1.0000002088
1.00000018676
1.0000001749
1.00000012554
1.00000013724
1.00000013801
1.00000018612
1.00000039699
1.00000065404
1.00000068239
1.00000034921
1.0000003347
1.00000032584
1.00000031506
1.00000028882
1.00000027288
1.00000024327
1.00000014109
1.00000001615
1.00000000239
1.00000000024
1.00000000027
1.00000000008
1
1.00000010349
1.00000030811
1.00000041459
1.00000056654
1.00000072846
1.00000074513
1.00000035494
1.00000055912
1.00000027089
1.00000018527
1.00000016866
1.00000015278
1.0000000942
1.00000005423
1.00000006042
1.00000002481
1.00000001707
1.00000000802
1.00000000008
1.0000000005
1.00000001545
1.00000002491
1.00000019798
1.00000031868
1.0000003931
1.00000033925
1.00000002083
1.00000068384
1.00000065195
1.00000060149
1.00000031862
1.00000000747
1.00000000236
1.0000000021
1.00000000198
1.00000000199
1.00000000172
1.00000000169
1.00000000297
1.00000000123
1.00000000087
1.00000001255
1.00000010433
1.00000028057
1.00000037347
1.00000044288
1.00000017218
1.00000063757
1.00000088117
1.0000008935
1.00000062614
1.00000045391
1.00000005458
1.00000000014
0.999999522278
0.999999050398
0.999999880621
1.00000000023
0.999999733393
1.00000000001
1.00000001138
1.00000000068
1.00000000055
1.00000011425
1.00000046337
1.00000049617
1.00000016113
1.00000058736
1.0000008926
1.0000008761
1.00000019935
1.00000000039
1.00000000129
1.00000000073
1.00000000015
1.00000000027
1.00000000058
1.00000000046
1.00000000108
1.00000000003
1.00000000013
1.00000000137
1.00000000162
1.0000000003
1.00000007794
1.00000043126
1.00000010407
1.00000044973
1.00000066427
1.0000002607
1
1
1
1.00000013678
1.00000008507
1.00000001444
1.00000002693
1.00000009564
1.00000000213
1.00000004617
1.00000001955
1.00000000296
1.00000000286
1.0000000024
1.00000000056
1.00000020229
1.00000001343
1.00000034056
1.00000060811
1
1
1
1.00000023549
1.00000013807
1.00000001586
1
1
1.00000002045
1.00000000004
1.00000000258
1.00000000365
1.00000000522
1.00000000324
1.00000000352
1.00000000168
1.00000000355
1.00000000152
1.0000001805
1.00000053393
1
1
1.00000038234
1.00000040004
1.00000025217
1.00000013681
1.00000017539
1.00000009629
1.00000007668
1.00000010131
1.00000009084
1.00000006472
1.00000000297
1.00000000364
1.00000000266
1.00000000248
1.0000000005
1.00000000126
1.00000000084
1
1
1.00000044992
1.00000042644
1.00000043173
1.00000047435
1.00000036948
1.00000043423
1.00000034771
1.00000026104
1.00000021647
1.00000014344
1.00000007743
1.00000000132
1.0000000018
1.00000000312
1.00000000399
1.00000000474
1.0000000005
1.00000001677
0.999999522285
1
1.00000031062
1.0000003553
1.00000040784
1.00000059567
1.0000007494
1.00000068865
1.00000055565
1.00000041783
1.0000003021
1.00000017222
1.00000011382
1.00000001619
1.00000000064
1.00000000156
1.00000000239
1.00000000066
1.00000000038
1.0000000355
0.999999428825
1.00000000029
1.00000024906
1.00000039304
1.00000064036
1.00000086579
1.00000094956
1.00000079954
1.00000062073
1.00000045513
1.00000034174
1.0000002308
1.00000014218
1.00000000983
1.00000000015
1.00000000187
1.00000000215
0.999999966095
1.00000000009
1.00000002887
0.999999829593
1
1.00000019475
1.0000003913
1.00000052564
1.00000094005
1.0000009823
1.00000079612
1.00000059756
1.00000032981
1.00000030051
1.00000020825
1.00000014476
1.00000001412
1.00000000009
1.00000000057
1.00000000144
1.00000000157
1.00000000012
1.00000002482
0.999999999885
1
1.00000018176
1.00000036962
1.00000047709
1.00000087616
1.00000092702
1.00000074929
1.00000056633
1.00000033297
1.00000026551
1.00000018879
1.0000001243
1.00000001047
1
1.00000000052
1.00000000127
1.00000000376
1.00000000153
1.0000000254
0.999999648415
1
1.00000026702
1.00000037845
1.00000061701
1.00000081969
1.00000085247
1.00000070822
1.00000055198
1.00000039893
1.00000031469
1.00000020736
1.00000011389
1.00000000299
1.00000000052
1.00000000237
1.00000000243
0.999999943979
1.00000000011
1.00000000252
0.999999951981
1
1.00000028713
1.00000036152
1.00000047885
1.00000064613
1.00000071211
1.0000006389
1.00000051799
1.00000040345
1.00000029444
1.00000017967
1.00000009435
1.00000001243
1.00000000021
1.00000000062
1.00000000206
1.00000000057
1.00000000017
1.00000000028
1.00000004141
1.0000000458
1.00000041643
1.00000044517
1.00000053373
1.00000054094
1.00000039851
1.00000046617
1.00000038331
1.0000003155
1.00000024252
1.00000013365
1.00000006879
1
1.00000000014
1.00000000135
1.00000000274
1.000000001
1.0000000002
1.00000022327
1.00000047117
1
1.00000016487
1.00000042704
1.00000049985
1.00000030171
1.00000020971
1.00000021267
1.00000016702
1.00000014448
1.00000016737
1.00000010187
1.0000000695
1.00000000003
1.00000000109
1.00000000158
1.00000000175
1.00000000111
1.00000000015
1.00000024805
1.00000045165
1
1.00000000001
1.00000025617
1.00000042221
1.00000024684
1.00000014624
1.00000001257
1.00000001205
1.00000000482
1.00000001042
1.00000004378
1.00000005774
1.00000000132
1.0000000019
1.00000000245
1.00000000115
1.00000005288
1.00000000509
1.00000029515
1.0000005198
1.00000047041
1
1
1.00000024681
1.00000035516
1.00000016005
1.00000014162
1.00000013461
1.00000011454
1.00000009686
1.00000001014
1.00000002536
1.00000000932
1.00000000103
1.0000000008
1.00000000023
1.00000032965
1.00000012131
1.00000035083
1.00000059498
1.00000069342
1.00000058346
1
1
1.00000013404
1.00000000069
1.00000000015
1.00000000007
1
1
1
1.00000000012
1.00000000005
1.00000000028
1.0000000002
1.00000037908
1.00000058268
1.00000025174
1.00000035766
1.00000051502
1.00000062564
1.00000060438
1.00000054635
1.00000035314
1.00000000007
0.999999661781
0.999999303794
0.999999999104
1.00000000004
0.999999895771
1
1.00000001869
1.00000001697
1.00000008321
1.0000003939
1.00000062444
1.00000064091
1.00000021058
1.00000008706
1.00000015944
1.00000020185
1.00000021506
1.00000012346
1.00000000965
1.00000000014
1.0000000018
1.00000000037
1.00000000009
1.00000000005
0.999999999282
1.00000000017
1.00000000002
1.0000000001
1.00000004205
1.00000019347
1.00000028132
1.0000001645
1.00000001673
1.00000008797
1.00000017483
1.00000015563
1.00000003929
1.00000000155
1.00000000066
1.00000000087
1.00000000082
1.00000000071
1.00000000056
1.00000000102
1.0000000004
1.0000000007
1.0000000002
1.00000000009
1.0000000147
1.00000006622
1.00000013775
1.00000019787
1.00000001525
1.00000017113
1.00000051685
1.00000057318
1.00000025533
1.00000002168
1.00000000005
1.00000000003
0.999994713147
0.999990241395
0.999996982783
0.99999875415
0.999993625588
0.999997850844
1.00000000019
1
1
1.00000000344
1.00000015147
1.00000028076
1.00000001698
1.00000018321
1.00000059397
1.00000045006
1.00000000017
0.999992215907
0.999991731506
1
0.999995012403
0.999988310489
0.999992769935
0.999994520838
0.999990635907
0.999995897564
1.00000000069
0.99999120295
0.999994837044
1
1.00000000031
1.00000018688
1.00000000438
1.00000012908
1.00000027026
1
0.999986619909
0.999989208013
0.99999770198
0.999990994069
0.99998174192
0.999981559954
0.999984435148
0.99998502192
0.999985635031
0.999989119041
1.00000000286
1.00000000388
0.999992547004
0.999990835338
1
1.00000000572
1.00000000078
1.00000007052
1.00000003857
0.999990996963
0.999986428089
0.999997796998
1
1
1
1
1
1
1
1.00000000003
1.00000000192
1.00000000517
1.0000000032
0.999993158661
0.999995102859
1
1.0000000003
1.00000004191
1.00000011062
0.999988335656
0.999991953272
1
1.00000022863
1.00000025881
1.00000011927
1.0000001221
1.00000004434
1.00000000835
1.0000000076
1.00000000977
1.00000001301
1.00000000158
0.999996170237
1
0.99999419774
1
1.00000000014
1.00000000033
1
0.999998809627
1
1.00000009771
1.00000045665
1.00000047071
1.00000036992
1.00000035668
1.00000020737
1.00000007839
1.00000001489
1.00000000981
1.00000000978
1.00000000033
0.999990311894
1
1
1
1.00000000007
1.00000000027
0.999995895539
0.999989563725
1
1.00000033023
1.00000046017
1.00000066379
1.00000075653
1.00000057811
1.00000034068
1.00000011782
1.00000003724
1.00000000486
1.00000001913
1.00000000037
0.999999331515
0.99998238522
0.999999478913
0.999997844081
1.00000000002
1.00000000032
0.999993127826
0.99998283199
1
1.00000038666
1.00000075368
1.00000095681
1.00000091796
1.00000062466
1.0000002376
1.00000000098
1.00000003128
1.00000000123
1.00000001736
1.00000000056
0.999998860358
0.999979898148
0.999996647256
0.999997775676
1.00000000007
1.0000000003
0.999998396711
0.999987081919
1
1.0000004082
1.00000068425
1.00000104169
1.00000092684
1.00000058016
1.00000012018
1.00000000054
1.00000000106
1.00000000136
1.00000000106
1.00000000061
0.999999332168
0.999979501706
0.999999835755
1
1.00000000008
1.00000000016
0.999999481294
0.999988130348
1
1.0000004116
1.00000066545
1.00000099619
1.00000088246
1.00000050766
1.00000009106
1.0000000001
1.00000000068
1.00000000082
1.00000000126
1.00000000008
0.999999121629
0.999979500547
0.999999841095
1
1.00000000014
1.00000000008
0.999993912357
0.99998415997
0.999999995343
1.00000042864
1.00000078208
1.00000093659
1.00000084333
1.00000054282
1.0000001036
1.0000000001
1.0000000068
1.00000000012
1.00000000388
1.00000000003
0.999998324297
0.999980042597
0.999996528181
0.999997389297
1.0000000001
1.00000000029
0.999996417207
0.999991305577
1
1.00000037301
1.00000064091
1.00000076961
1.00000078391
1.00000058645
1.00000035369
1.00000015224
1.00000007319
1.00000000488
1.00000000992
1.00000000014
0.999999642152
0.999980868079
0.999999862167
0.999997526838
1.00000000003
1.00000000055
1.00000000162
1
1.00000000251
1.00000012094
1.00000066939
1.00000063435
1.00000051037
1.00000049755
1.00000033857
1.00000020804
1.00000009159
1.00000001073
1
0.999999746
0.999989484129
1
1.00000000033
1.00000000005
1.00000000015
1.00000007936
1.00000038956
0.999990585564
0.999993387295
1
1.00000038406
1.00000046407
1.00000022926
1.00000026607
1.00000013603
1.00000007877
1.00000008099
1.00000004578
1.00000001108
1
0.9999924777
1.00000000002
0.999995594755
1
1.00000000034
1.00000013236
1.00000038355
0.999992033799
0.999988362029
0.999998769435
1.00000000354
1
1
0.999999999968
1
1
1
1
1.00000000001
1.00000000008
1.00000000138
0.999994301306
0.999995728248
1
1.00000000061
1.00000018926
1.00000056498
1.00000022563
0.99998868117
0.999990620802
0.999998083143
0.999993283991
0.999987763197
0.999985821498
0.999988253633
0.999988844894
0.9999894806
0.999992937569
1.0000000001
1.00000000158
0.99999305177
0.999991652497
1
1.00000005568
1.00000000536
1.00000021174
1.00000067288
1.00000080827
1.00000039547
0.999993674648
0.999994193073
1.00000000001
0.999996706819
0.999989894321
0.999993986697
0.999995403652
0.999991910754
0.999996552759
1.00000000047
0.999992260335
0.999995182686
1
1.00000001401
1.00000041789
1.00000007875
1.00000017874
1.00000045096
1.00000064458
1.00000059341
1.00000037871
1.00000007907
1.00000000005
0.999996365978
0.999991612297
0.999998515453
0.999999848411
0.99999559575
0.999998616553
1.00000000019
1.00000000001
1
1.0000000462
1.00000044903
1.0000004605
1.00000004285
1.00000001915
1.0000000297
1.00000004716
1.00000004519
1.00000002113
0.999999999927
0.999999999852
1.00000000034
1.00000000009
1.00000000013
1.00000000015
1.00000000005
1
1.00000000003
0.999999999649
1.00000001065
1.00000003932
1.00000008545
1.00000004133
1.00000000022
1.00000000025
1.00000001331
1.00000000414
1.00000000049
1.00000000053
0.999999999958
1.00000000011
1.0000000001
1.00000000009
1.00000000014
1.00000000004
1.0000000002
1.0000000001
1.00000000019
1.00000000003
1.00000000002
1.00000000001
1.00000000056
1.00000000082
1.00000000008
1.00000001365
1.00000004255
1.00000007425
1.00000000805
1.00000000003
1.00000000001
1.00000000001
0.999997825765
0.999992311748
0.999998436096
0.999999982603
0.999995631792
1
1
1
1
1.00000000003
1.00000000003
1.00000000425
1.00000000013
1.00000001842
1.00000009577
1.00000004132
1
0.999916787898
0.999644163382
0.999510983726
0.999495849621
0.999534024749
0.999564944061
0.999568652263
0.999540602732
0.999509031272
0.999541879534
0.999676878214
0.999925464709
1
1.00000000001
1.00000000067
1.00000000012
1.00000001124
1.00000003505
1
0.999801471821
0.999493819766
0.999612004593
0.999936672354
1
1
1
1
1
1
0.999878469996
0.999529554165
0.999553250899
0.99981906463
1
1.00000000028
1.00000000001
1.00000000048
1
0.999914986218
0.99948170593
0.999724099776
0.999817853521
0.999961479446
1
1
1
1
1.00000000316
1
1
0.999995124139
0.999610285535
0.999567356095
0.999927458665
1
1
1.00000000047
1
0.999636146325
0.999561407489
0.999658470446
0.999780702271
1.00000002335
1.00000002438
1.00000004795
1
1
1
1.00000000042
1.00000000578
1
1
0.999560229962
0.999697915654
1
1.00000000009
0.999999999951
1
0.999483475748
0.999693913068
0.999663513926
0.999964234815
1.00000011268
1.00000015047
1.00000008201
1
1
1
1
1.00000000078
1
1
0.99986308372
0.999578633958
1
1.00000000004
1.00000000001
0.999994009299
0.999474534893
0.999827347797
0.999872665869
1.00000009946
1.00000026222
1.00000025171
1.00000011952
1.00000000002
1.00000000015
1.00000000003
1
1
1.00000000406
1
1
0.999545147051
1
1.00000000002
1.00000000001
0.999986159952
0.999532182541
1.00000002736
1.00000008444
1.00000027443
1.00000036575
1.00000034087
1.00000010191
1.00000000001
1.00000000013
1.00000000026
1.00000000003
1
1.00000000056
1
1
0.999575617342
1.00000000001
1.00000000001
1.00000000001
0.999991991836
0.999569982846
1.00000005598
1.00000017108
1.00000032192
1.00000048131
1.00000039474
1
1
1.00000000004
1.0000000002
1.00000000015
1
1
1
0.999999999796
0.999609057069
1.00000000006
1.00000000006
1
0.999993290519
0.999574528776
1.00000006819
1.0000001756
1.00000038895
1.00000050428
1.00000035598
0.999999999999
1
1