/*--------------------------------*- C++ -*----------------------------------*\
| =========                 |                                                 |
| \\      /  F ield         | OpenFOAM: The Open Source CFD Toolbox           |
|  \\    /   O peration     | Version:  3.0.1                                 |
|   \\  /    A nd           | Web:      www.OpenFOAM.org                      |
|    \\/     M anipulation  |                                                 |
\*---------------------------------------------------------------------------*/
FoamFile
{
    version     2.0;
    format      ascii;
    class       volScalarField;
    location    "8.1";
    object      nut;
}
// * * * * * * * * * * * * * * * * * * * * * * * * * * * * * * * * * * * * * //

dimensions      [0 2 -1 0 0 0 0];

internalField   nonuniform List<scalar> 
7968
(
8.72026979721e-05
9.57068126298e-05
0.000101838644488
0.00010543273369
0.000107278338038
0.000107909041314
0.000107811977708
0.000107232010334
0.000106503162285
0.000105891414878
0.000105763291783
0.000106277763439
0.000106973217334
0.000107549107519
0.000107665395879
0.000107058606124
0.000105259748489
0.000101715126137
9.5626503135e-05
8.71592210533e-05
9.57252279437e-05
0.000119653507707
0.000132527766069
0.000138946989766
0.00014153782413
0.000141778733716
0.000140823458985
0.000139323969094
0.000137920965739
0.000137045892503
0.000136933049434
0.000137646000755
0.000138947670871
0.00014040481695
0.000141359879054
0.000141129450015
0.000138587895121
0.000132238666561
0.000119451347712
9.56039862304e-05
0.000101871003112
0.000132513845844
0.000148077978167
0.00015567297826
0.00015867610347
0.000158914068288
0.000157723607257
0.000156017171953
0.000154492719761
0.00015357342735
0.000153453962607
0.000154192720365
0.000155600910864
0.000157256175258
0.000158436783742
0.000158211559746
0.000155253600492
0.000147733351061
0.000132265041232
0.000101693613333
0.000105464332418
0.000138923320159
0.000155661607845
0.000163693456686
0.000166714625456
0.000166768733262
0.000165348243997
0.000163543544846
0.000162097403925
0.000161313680383
0.000161204557832
0.000161816949811
0.000163090173395
0.000164845192032
0.000166250595914
0.000166208842582
0.000163230917803
0.000155273800577
0.000138632282017
0.000105237825528
0.000107307206895
0.000141510709494
0.000158663263474
0.000166711875852
0.00016946790416
0.000169691397392
0.000169458410094
0.000168542966454
0.000167483610864
0.000166766271357
0.000166650577237
0.000167200181955
0.00016816522464
0.000169060722777
0.00016928595283
0.000168939820752
0.000166214069041
0.00015823416367
0.000141173205059
0.000107034012753
0.000107940899631
0.000141762725251
0.000158909449772
0.000166766444635
0.000169677290151
0.000171397979679
0.000171660163565
0.000170928995927
0.000169894135029
0.0001691318134
0.000168997597753
0.000169573707604
0.000170522619389
0.000171254320724
0.000171026349963
0.000169302811611
0.000166256004479
0.000158451852891
0.000141390524789
0.00010763403413
0.000107843915195
0.000140821406833
0.000157732790159
0.000165350066685
0.000169441243547
0.000171655578504
0.000172007097946
0.000171160565219
0.000169933070145
0.000169011886483
0.000168848007353
0.000169548567041
0.000170683167486
0.000171546465614
0.000171261720319
0.000169083057246
0.000164847984887
0.000157258747735
0.000140424406325
0.000107519426617
0.000107268954505
0.000139354540996
0.000156062919566
0.000163581771601
0.000168548362453
0.000170952073912
0.000171194844772
0.000170056428069
0.000168469927398
0.000167293521306
0.000167091565805
0.00016800193489
0.000169481664194
0.000170651460515
0.000170504745248
0.000168167059815
0.000163060195116
0.000155568931991
0.000138937769981
0.000106940040586
0.000106554767191
0.000138009747986
0.000154608993526
0.000162162908528
0.000167549575109
0.000169992520437
0.000170058659726
0.000168573394359
0.000166591097301
0.000165058400063
0.000164804943162
0.000166025545158
0.000167898415586
0.000169425003315
0.000169480304034
0.000167143323537
0.000161770896469
0.000154088116837
0.000137574203215
0.000106225568025
0.000105979820338
0.000137212646587
0.000153784231634
0.000161451458178
0.000166922988697
0.000169343000559
0.000169276355654
0.000167562281959
0.000165249372275
0.000163381457242
0.000163077379708
0.000164601318922
0.000166812070937
0.00016857781335
0.000168783125512
0.000166491305519
0.000161066010797
0.000153238007239
0.000136760110392
0.000105643480842
0.000105955004814
0.0001371935366
0.000153769541347
0.00016143927732
0.000166913315976
0.000169335698719
0.00016927094251
0.000167557895685
0.000165244577605
0.000163375006773
0.000163070609867
0.000164596303168
0.000166807771033
0.000168572572287
0.000168775812564
0.00016648084562
0.00016105136111
0.000153218066917
0.000136733543532
0.000105610056364
0.000106504042504
0.000137959076059
0.000154567624036
0.000162129732635
0.000167522531267
0.000169971628536
0.000170042850709
0.000168560610791
0.000166579018736
0.00016504477218
0.000164790991112
0.000166013580322
0.000167886285984
0.000169410029728
0.000169459918316
0.000167114993278
0.000161732180576
0.000154036379238
0.000137508302236
0.000106159009099
0.000107204098072
0.000139277772456
0.000155994882677
0.00016352752162
0.000168501705085
0.000170914276347
0.000171164138008
0.00017003010501
0.000168445960123
0.000167270054855
0.000167068047019
0.000167978784912
0.00016945617086
0.000170622144798
0.000170468222548
0.000168120113233
0.000163002357105
0.000155490640534
0.000138844228283
0.000106857380076
0.000107774445922
0.000140727429749
0.000157642820734
0.00016527087974
0.000169374794023
0.000171599919417
0.000171959518459
0.000171118519061
0.000169894207233
0.000168974281733
0.000168810301893
0.000169509732923
0.000170641637197
0.000171500212327
0.000171207564286
0.000169016742217
0.000164766865045
0.0001571598241
0.000140314604349
0.000107432583267
0.000107875688644
0.000141660885892
0.000158805145614
0.000166667910947
0.000169592911417
0.000171326484121
0.000171596914097
0.000170871622004
0.000169840700766
0.000169080422288
0.000168945986695
0.000169519686625
0.000170464574724
0.000171191142849
0.000170955092683
0.000169217387494
0.000166154676807
0.000158338326468
0.000141273807411
0.000107553203192
0.000107250721019
0.000141407424173
0.000158553803418
0.000166604305004
0.000169361587278
0.000169605110506
0.000169379619828
0.000168469384997
0.000167415474913
0.000166701108702
0.000166584843587
0.000167130465829
0.000168088302725
0.000168978892763
0.000169196462165
0.000168830790462
0.00016609933049
0.000158112724467
0.000141054025634
0.000106963626907
0.000105422674939
0.00013883194747
0.000155559151085
0.000163589074994
0.000166608541061
0.000166660284968
0.000165239744891
0.000163437146654
0.000162011326137
0.00016123300653
0.000161122582441
0.000161727836498
0.000162975120449
0.000164728101966
0.000166133083088
0.000166091906384
0.000163113306054
0.000155155778548
0.000138523676505
0.000105185468756
0.000101844156129
0.000132441166724
0.000147992587765
0.000155581999999
0.000158580101938
0.000158813686755
0.000157620344923
0.000155912019032
0.000154384523805
0.000153461197738
0.000153337788205
0.000154074283244
0.000155481030646
0.000157137423193
0.000158320615554
0.000158098755925
0.000155145490658
0.000147630422076
0.00013217538493
0.000101659935792
9.57138488649e-05
0.000119608453666
0.000132470796195
0.000138881146216
0.000141460308624
0.000141691464902
0.000140729729798
0.000139224731322
0.000137814128378
0.000136931161822
0.000136812442973
0.000137524779702
0.000138828871366
0.000140291176551
0.00014125364888
0.000141032982134
0.000138504180797
0.000132164718643
0.000119392445043
9.558869401e-05
8.72002200961e-05
9.56955922823e-05
0.000101818070968
0.000105401601866
0.000107233750631
0.000107850933484
0.000107743389602
0.000107153940176
0.000106415302575
0.000105794138451
0.000105658135504
0.000106173643705
0.000106874078648
0.000107458459601
0.000107586471294
0.000106994908443
0.000105212745253
0.000101681352085
9.56046072954e-05
8.71519231777e-05
9.47310739427e-05
0.000113663379171
0.000125894771883
0.000133054497571
0.000136888631113
0.000138534589167
0.000138835619137
0.000138393756738
0.000137748122009
0.000137276922336
0.00013719220885
0.00013754033148
0.000138114064148
0.000138530418151
0.000138238753309
0.000136620465501
0.000132836353553
0.000125735750408
0.000113556504089
9.46500589175e-05
0.00011371855834
0.000346141704709
0.000453575977517
0.000501861535511
0.000518678735419
0.000518749449226
0.000511245005772
0.000501477693014
0.000493060254216
0.000488086325299
0.000487534105511
0.00049161701344
0.000499418032047
0.000508836124988
0.000516176771818
0.000516016615014
0.000499407624241
0.00045172361964
0.000345405570684
0.000113487947286
0.000125961805612
0.000453029303221
0.000624692210036
0.000709362883084
0.000745350879974
0.000753828795334
0.000748426172269
0.000738153474391
0.000728280466579
0.000722024690586
0.000721154528883
0.000726004118072
0.000735000707478
0.000744815606102
0.000750050844797
0.000741708323084
0.00070623541202
0.000622619119567
0.000452526263804
0.000125661277011
0.000133117583231
0.000501030606992
0.000708965908981
0.000816584624446
0.000866136156003
0.000882015531646
0.000880253590166
0.000873728783823
0.000865073280678
0.000858495905313
0.000857308721864
0.00086202677143
0.000870141416895
0.000876257766658
0.000877541156492
0.000862036341447
0.000813213786254
0.000706871182571
0.00050066092194
0.000132769771909
0.000136947755269
0.000517793664265
0.000744801201712
0.000865937989761
0.000923889764843
0.000943590547777
0.000934234068225
0.000918095871068
0.000904068672994
0.000895600995427
0.000894034182583
0.00089993693497
0.000912488227263
0.000928140929465
0.000937787457716
0.000919360677054
0.000862418872492
0.000742663424964
0.000517421420206
0.000136559561597
0.00013859538947
0.000517957054872
0.000753294950781
0.000881767072497
0.000943602291843
0.00095005869186
0.000932448997761
0.000909632069893
0.000891129514554
0.000880473427181
0.000878460352664
0.00088579934607
0.000902396696816
0.000924860342878
0.000943131768849
0.000937879398328
0.000878104409561
0.000751094927243
0.000517529216061
0.00013817692625
0.000138901519312
0.000510601466041
0.000748032146674
0.00088000485556
0.000934481077953
0.000932796574263
0.000908477587987
0.000879941316327
0.000857168112855
0.000844132072555
0.000841651276252
0.000850569841122
0.000870979034692
0.000899207776035
0.000924636829314
0.000928088704051
0.00087690559192
0.000745784644599
0.000510066229856
0.000138464412027
0.000138476616438
0.000501103968229
0.000738129445049
0.000873959928878
0.000919154734728
0.000911026303934
0.000881150908187
0.000847362202746
0.000820371038802
0.000805582885644
0.000802741668373
0.000812625354052
0.000836621559853
0.000869981075792
0.000901308247705
0.000911741639981
0.000870338355122
0.000735627893917
0.000500388642741
0.000138030060373
0.000137866043313
0.0004931036567
0.000728929775602
0.000866650282924
0.00090659134394
0.000894344012844
0.000860522551586
0.000822681087755
0.000793880788818
0.000777127310827
0.000773903522316
0.00078522779204
0.000810595535198
0.000847638236182
0.000883049881421
0.000897801195317
0.000860811399397
0.000725930660201
0.000492151848281
0.000137412609315
0.000137447621414
0.000488632694932
0.000723524661957
0.000861454923974
0.000899891402013
0.000885906006203
0.000850141912136
0.000810782041297
0.000780249483531
0.000762099074771
0.000758649220951
0.000770972886183
0.000797963375154
0.000836237546584
0.000873627216308
0.000890225450439
0.000854763153514
0.000720177982423
0.000487501479251
0.000136984853846
0.000137429213002
0.000488577213833
0.00072346406309
0.000861431335792
0.000899923526397
0.000885998465701
0.000850290257142
0.000810980470703
0.000780483817706
0.000762352221515
0.000758907946479
0.000771227254137
0.000798200170541
0.000836432313639
0.000873765317459
0.000890295500866
0.000854764375571
0.000720133688775
0.000487454818585
0.000136959792165
0.00013781616431
0.000492929572373
0.000728733513653
0.00086654540103
0.000906642389102
0.000894561194357
0.000860896027313
0.000823194604782
0.000794506932941
0.000777815566886
0.00077461110701
0.000785922068941
0.000811222852439
0.000848141539897
0.000883395534851
0.000897963559301
0.000860790216294
0.000725792204283
0.000492013609542
0.00013734916556
0.000138402402013
0.000500785972458
0.000737759959425
0.000873693887459
0.000919108001467
0.000911198089337
0.000881540876613
0.000847953097326
0.000821140634173
0.000806482359544
0.000803679446245
0.000813525510275
0.000837378264501
0.000870564044276
0.00090167211685
0.000911862504829
0.000870194063537
0.000735360605354
0.000500141581608
0.000137940893293
0.000138813637846
0.000510126305923
0.00074747036068
0.000879569403848
0.000934226960107
0.000932740353656
0.000908648546119
0.000880343548879
0.000857770982207
0.000844870787372
0.000842434727049
0.000851296274355
0.000871564171574
0.000899599931474
0.000924811402782
0.000928040826327
0.000876622411724
0.000745360713976
0.00050969327715
0.000138362356611
0.000138504380177
0.000517333935468
0.00075255682979
0.000881146300547
0.000943133574335
0.000949725688038
0.000932302947129
0.000909699861446
0.00089139079623
0.000880865600978
0.000878893605986
0.000886168834369
0.000902627658794
0.000924922052339
0.000943025526926
0.000937617881987
0.000877658229813
0.000750503272414
0.000517018990089
0.000138072577
0.000136861726694
0.000517045757102
0.000743949989566
0.000865213337128
0.000923342047235
0.000943131644574
0.000933931718362
0.000917968320745
0.000904068168145
0.000895687096573
0.000894149073691
0.000900011945738
0.000912485684793
0.000928003498359
0.000937507067717
0.000918981634331
0.000861841194074
0.000741932875997
0.000516768294591
0.000136460237435
0.000133044733818
0.000500253092102
0.000708117024712
0.000815871100261
0.000865607342453
0.000881670548968
0.00088019417755
0.000873841159141
0.000865127569337
0.000858568848035
0.000857393598547
0.000862111940083
0.000870336256536
0.000876315164656
0.000877333373475
0.000861631770177
0.000812600194607
0.000706099836319
0.000499944999815
0.000132684106381
0.000125906625111
0.000452340929418
0.000623995499954
0.000708809531522
0.000744969413349
0.000753617032198
0.000748380338004
0.000738243014473
0.000728446978764
0.000722231276906
0.000721372881196
0.000726203436113
0.00073515016356
0.000744854451
0.000749933066076
0.000741411612499
0.000705745040052
0.000621964702361
0.000451867083657
0.0001255946415
0.000113685491065
0.000345719151646
0.000453204980308
0.000501610847298
0.000518548322443
0.000518729976561
0.000511320672598
0.000501628588604
0.000493257823311
0.000488307105225
0.000487762937251
0.000491838584718
0.000499609318601
0.000508971961642
0.000516229117396
0.000515952141638
0.000499204962429
0.000451378517733
0.000344986918825
0.000113445340628
9.47242436464e-05
0.000113617898573
0.000125830942786
0.000132979614154
0.000136803754742
0.000138440619853
0.000138733800906
0.000138283949552
0.000137628655401
0.000137148432165
0.000137058137797
0.000137406814719
0.00013798483497
0.000138408271231
0.000138125458987
0.000136517538455
0.000132745029067
0.000125656925767
0.000113497338311
9.46368729464e-05
0.000100947848547
0.000125469528238
0.000140780714417
0.000149722852911
0.000154642662089
0.000156985809125
0.000157778773955
0.00015777324482
0.000157536391955
0.000157356813199
0.000157295896113
0.000157367579091
0.000157520020919
0.000157475698783
0.000156670948157
0.000154345290936
0.000149469637007
0.000140589414907
0.000125336909774
0.000100840945056
0.000125560404324
0.000433126720161
0.000584726043796
0.000654065183623
0.000679324760282
0.000681400192718
0.000672949174025
0.000661538630657
0.00065185866472
0.000646190453912
0.00064536700893
0.000649651920004
0.0006583563696
0.000669206271349
0.000677400410399
0.000675252564796
0.000650288481439
0.000581873257174
0.000431967448716
0.00012521805932
0.000140889666002
0.00058383140165
0.000846599946456
0.000984092016256
0.00104708684266
0.00106687201891
0.0010643053237
0.00105231595989
0.00103985000151
0.00103180205891
0.0010303403076
0.00103592091806
0.00104675940766
0.00105801350981
0.00106053971604
0.00104117333802
0.00097919265781
0.000843521245689
0.000583172500278
0.000140452943452
0.000149833954266
0.000652753813977
0.000983401283521
0.0011693076949
0.00126341533
0.00130129444987
0.0013092572123
0.00129988102492
0.00128707005497
0.00127796136204
0.00127590033301
0.00128151105187
0.00129209929203
0.00130069195347
0.00129341637213
0.00125640365186
0.00116386120153
0.000980265610674
0.000652245947844
0.000149334903737
0.00015476188153
0.000678030199726
0.00104616865038
0.00126306431743
0.00137936467788
0.00142717456345
0.00143331476923
0.00142048375338
0.001404169033
0.00139284474765
0.00139010152896
0.00139667992071
0.00140971084216
0.00142148937241
0.00141657683209
0.00137143170146
0.00125704116989
0.00104272835688
0.000677318224149
0.000154204594443
0.000157122366164
0.000680369178028
0.00106608601871
0.00130098448119
0.00142731313962
0.00147348051628
0.00147366339163
0.00145352083298
0.00143122434958
0.00141654914729
0.0014131021229
0.00142167732647
0.0014391187678
0.00145712876058
0.00145886840692
0.0014165701808
0.00129423445715
0.00106211124154
0.000679265535734
0.000156513718561
0.00015793915855
0.000672301466723
0.00106397686156
0.00130961167028
0.00143450928773
0.00147558150233
0.00146739425592
0.00143802095998
0.00140852374646
0.00138988878651
0.0013858668082
0.00139713022944
0.00141997716458
0.00144529147298
0.00145541675316
0.00142047204263
0.00130081083528
0.00105916590489
0.000670697628935
0.000157293313859
0.000157966291674
0.000661436473962
0.00105285140792
0.00130163639349
0.00142409531074
0.00145939885157
0.00144273844192
0.00140438110322
0.00136774847699
0.00134513922697
0.00134063329733
0.0013547258163
0.00138312260872
0.00141570797498
0.00143377754567
0.00140638223407
0.00129081892128
0.00104703601453
0.000659274545917
0.000157302829848
0.000157769280047
0.00065249031634
0.00104167549742
0.00129087775169
0.00141094855509
0.00144154054113
0.00141847227295
0.00137323488192
0.00133095239415
0.00130497708408
0.00130001625245
0.00131643223748
0.00134938531171
0.00138783217748
0.00141207376227
0.00139022995585
0.0012781277539
0.00103486216458
0.000649779331887
0.000157102628533
0.000157632656511
0.000647649721608
0.00103513035948
0.00128406739858
0.00140281375359
0.00143093412084
0.0014045314112
0.00135568332919
0.00131023834843
0.00128230504342
0.00127705279557
0.00129479432162
0.00133030191414
0.0013719700544
0.00139952264332
0.00138050825657
0.0012701987111
0.00102770205952
0.000644573985953
0.000156962977867
0.000157618200539
0.000647602797186
0.00103508254409
0.00128406914911
0.00140289715289
0.00143110591619
0.00140477519602
0.0013559868887
0.0013105932568
0.00128269352698
0.00127745106901
0.00129518390737
0.00133067106423
0.00137230215366
0.00139979007414
0.00138067890254
0.00127026899241
0.0010277036183
0.000644554620303
0.000156941019846
0.000157724810008
0.000652319306138
0.00104149938517
0.00129084870029
0.00141115846182
0.00144202045402
0.00141919307066
0.00137416573922
0.0013320662399
0.00130620780911
0.00130128264006
0.00131766215588
0.00135051878578
0.0013888139852
0.00141283068265
0.00139069154457
0.00127830162231
0.00103484270601
0.000649706928859
0.000157042848845
0.00015789440299
0.000661079272761
0.00105246861739
0.00130148200022
0.00142431709531
0.00146008746607
0.00144389588207
0.00140594893663
0.00136964965485
0.00134725121357
0.00134281017209
0.00135682492835
0.00138500716664
0.00141726308425
0.00143488283204
0.00140698225912
0.00129097863968
0.00104691772725
0.000659098989499
0.000157214488779
0.00015784962658
0.000671718516904
0.00106333164791
0.00130924040533
0.00143456791391
0.00147623992548
0.00146874782086
0.00143998993789
0.00141095258568
0.00139259649324
0.00138865764203
0.00139979785564
0.00142231811302
0.0014471083832
0.00145656205752
0.00142097779388
0.00130082310689
0.001058861647
0.000670361708965
0.000157188572865
0.000157027144085
0.000679567804179
0.00106518738321
0.00130036977948
0.0014271127618
0.00147380859573
0.00147469237966
0.00145523343924
0.00143343279399
0.00141904846948
0.00141568691066
0.00142412413494
0.0014411955066
0.0014586080179
0.00145967450692
0.0014168130383
0.00129402083432
0.0010615689422
0.00067872964317
0.000156403559456
0.000154670704691
0.000677049321994
0.00104509861237
0.00126229138039
0.00137905163
0.00142723358669
0.00143384237503
0.00142151332366
0.00140560054221
0.00139452026988
0.00139185213464
0.00139831866914
0.00141105273055
0.00142239927833
0.00141704407208
0.00137148207422
0.00125661693742
0.0010419622118
0.000676567284945
0.000154097548586
0.000149754739384
0.000651696891058
0.000982319871398
0.0011685381788
0.00126305354064
0.00130135522191
0.00130969606763
0.00130068291989
0.00128814987685
0.0012792189458
0.00127721348864
0.00128274301203
0.00129313464421
0.00130142579449
0.00129383320409
0.00125635291712
0.00116335483334
0.000979397079429
0.000651349400959
0.000149238867579
0.000140827750345
0.000582870271598
0.00084572338307
0.000983535994106
0.00104689257459
0.00106703385539
0.0010647829565
0.00105306243624
0.00104080309301
0.00103288753699
0.00103146741831
0.00103698809451
0.00104767687808
0.0010587145542
0.00106095300463
0.0010412102965
0.000978818278145
0.000842775345804
0.000582300047244
0.000140374266984
0.000125521608868
0.000432518068774
0.00058428167534
0.000653857939142
0.000679347879164
0.00068163661422
0.000673365531774
0.000662101603148
0.0006525270996
0.000646921172663
0.000646121042245
0.000650387371997
0.000659022291555
0.000669765086674
0.000677802893713
0.000675434289036
0.000650202493448
0.000581500760675
0.000431385646689
0.000125163461183
0.000100947160109
0.000125402243686
0.000140691280228
0.000149622578703
0.000154532843811
0.000156867004669
0.000157651487799
0.000157637614727
0.000157390764673
0.000157202522196
0.000157135862018
0.000157206783421
0.000157362316029
0.000157325274592
0.000156530113857
0.000154214759183
0.000149349999711
0.000140482059983
0.000125253292947
0.000100832896596
0.000106282079778
0.000135704388208
0.000153273796938
0.000163421390926
0.000169180747304
0.000172221534287
0.000173673542443
0.000174318011769
0.000174649165307
0.000174819810525
0.000174785215804
0.0001745409324
0.000174134724087
0.000173423538339
0.000171932502039
0.000168888050364
0.000163164037229
0.000153084856552
0.000135595633691
0.000106166212402
0.000135847849481
0.000510304357629
0.000692660251904
0.000776287411917
0.000808841810968
0.000814637564192
0.000808481738758
0.000799302676345
0.000791911651065
0.000787791752813
0.000786802016167
0.000789164962356
0.00079525416988
0.000803626798873
0.000809380788947
0.000803482163419
0.00077126591295
0.000688760793089
0.000508645594315
0.000135393734051
0.000153436108359
0.000691572393259
0.00101469846615
0.00118521176307
0.00126649411848
0.00129634524479
0.00129896360044
0.00129028004057
0.00128018599647
0.00127350166387
0.00127155276089
0.00127476268858
0.00128238570836
0.00128993265099
0.00128727544647
0.00125807670825
0.0011781858357
0.00101006438303
0.000690262260409
0.000152864561927
0.000163595952989
0.000774935192717
0.00118460540714
0.00141865151708
0.00154203877105
0.00159872867497
0.00161416082453
0.00160878762824
0.0015975952785
0.0015888247733
0.0015858525086
0.00158930890076
0.00159633033091
0.00159964682132
0.00158538918754
0.00153088793872
0.00140994917069
0.00117908749232
0.000773175274777
0.000162932819996
0.000169383584363
0.000807893158962
0.00126599939396
0.00154193487306
0.00169671717305
0.00176798347545
0.00178707871083
0.00177948098969
0.00176450373696
0.001752919679
0.00174908246497
0.00175351035453
0.00176201740262
0.00176520349789
0.00174679576351
0.00168074735487
0.00153110302528
0.00125900352927
0.000805037764342
0.000168626842727
0.000172466877572
0.000814423616038
0.00129647750862
0.00159921133996
0.00176984614346
0.00184564430594
0.00186033487587
0.00184510774128
0.00182346496355
0.00180822679043
0.00180383503421
0.00181056934179
0.00182311308574
0.0018300828219
0.00181335562195
0.00174492233821
0.00158483334033
0.0012875552277
0.000810192280474
0.000171624663676
0.000173964117069
0.000809103859615
0.00130015411221
0.00161729118734
0.00179458432861
0.00186727044408
0.00187248086907
0.00184643552753
0.00181691367515
0.00179759365427
0.00179306166465
0.00180321629842
0.00182158894038
0.00183492094146
0.00182344989493
0.00175787521394
0.0015964017352
0.00128895566494
0.000803480365738
0.000173064973326
0.000174645042393
0.000800834705546
0.00129298139652
0.00161621607002
0.00179424100218
0.00186067403879
0.0018554065543
0.00181843841355
0.00178108582549
0.00175773863454
0.00175322340994
0.00176707740133
0.00179179303291
0.00181240741663
0.00180777359932
0.00174750645076
0.00158868659398
0.00127959332142
0.000794000747096
0.000173733964824
0.000174998087592
0.000794474420004
0.00128489226029
0.00160910427434
0.00178533409072
0.00184613404219
0.00183265274675
0.00178728959379
0.00174356334918
0.00171680089473
0.00171211872369
0.00172885331047
0.00175887779427
0.00178587225587
0.00178753257892
0.00173259616471
0.00157729321343
0.00126986980415
0.00078668165989
0.000174107538627
0.000175184977951
0.000791422092825
0.00128022346747
0.00160385013755
0.00177852515825
0.00183618509988
0.00181834670846
0.00176847190529
0.00172122809582
0.00169250839492
0.00168765844392
0.00170594444367
0.00173890878822
0.0017695751502
0.00177493217528
0.00172318596022
0.00157014719287
0.00126438516502
0.000783068439995
0.000174309467474
0.000175175499587
0.000791414516086
0.00128025304582
0.00160395483263
0.0017787219216
0.00183644979242
0.00181862400597
0.00176874516515
0.00172151706667
0.00169281928494
0.00168798292229
0.00170628225331
0.00173927678541
0.00176999186423
0.00177536754464
0.00172356343116
0.0015704059185
0.00126451739445
0.000783103077687
0.000174290859185
0.000174964883995
0.000794381031574
0.00128491987847
0.00160937836165
0.00178591693859
0.00184699408769
0.00183365898998
0.00178839020546
0.00174479176355
0.00171814050107
0.00171351406307
0.00173026373342
0.00176030225598
0.00178732164831
0.00178891005869
0.00173370947638
0.0015780160867
0.00127021412981
0.000786748750526
0.000174054894407
0.000174587815509
0.00080055093978
0.0012928730577
0.00161658533434
0.00179520898454
0.00186225486509
0.00185745389827
0.00182083688765
0.00178380988858
0.00176070487397
0.0017562959103
0.00177012711718
0.00179473071628
0.0018151595078
0.00181015543292
0.00174927198043
0.00158972943148
0.00128000289814
0.000794022008054
0.000173655024066
0.000173891750481
0.000808580048721
0.00129980210591
0.00161760688915
0.00179580420022
0.00186956195106
0.0018757560048
0.00185049906368
0.00182156898569
0.00180262471908
0.00179823133035
0.00180827944855
0.0018263094005
0.00183905337933
0.00182670217145
0.00176002305581
0.0015974939821
0.00128924128808
0.000803366499771
0.000172971584775
0.00017239204687
0.000813677137442
0.00129586452702
0.00159925026419
0.00177089665946
0.00184809308413
0.00186424169162
0.00185020834759
0.00182938494451
0.00181461640904
0.00181037973288
0.00181693513004
0.00182891739249
0.00183488297642
0.00181677647554
0.00174687807598
0.00158560538545
0.00128756663399
0.000809865815676
0.000171527515921
0.000169315996294
0.000806966842724
0.00126517142961
0.001541639922
0.00169727266528
0.00176979186006
0.00179039483612
0.0017840966021
0.0017699718751
0.00175886375019
0.00175518361931
0.0017594260086
0.00176730695873
0.00176933569111
0.0017494477621
0.00168206764494
0.0015314438693
0.00125867759796
0.000804453101318
0.000168534827074
0.000163542248164
0.000773906091414
0.00118370682046
0.00141824896693
0.00154226687697
0.00159978021505
0.00161614644066
0.00161173534183
0.00160122283186
0.00159284344283
0.00159000159735
0.00159330063323
0.00159980931856
0.00160225694677
0.00158704576965
0.0015316878579
0.00140999178673
0.0011785085108
0.000772364758999
0.000162853399703
0.000153400640121
0.000690590784071
0.00101393447456
0.001184894033
0.00126668831316
0.00129709216994
0.00130021691884
0.00129201953761
0.00128236196429
0.00127598862097
0.0012741294043
0.00127719919669
0.00128447300354
0.00129161462187
0.00128845904053
0.00125865224494
0.00117813924411
0.00100946632113
0.000689386323903
0.000152804455549
0.000135835661658
0.000509660114417
0.000692272907219
0.000776178685235
0.000809006396775
0.000815084089672
0.000809187488464
0.000800245836448
0.000793038904973
0.000789034024592
0.000788077868278
0.000790391096244
0.000796343102718
0.000804541952955
0.000810068476641
0.000803867346156
0.000771313685
0.000688455100172
0.000508030153326
0.000135359999527
0.000106303879311
0.00013563715633
0.000153184339489
0.000163319139421
0.000169065526816
0.000172094554095
0.000173536878992
0.000174173903146
0.000174496114076
0.000174658797481
0.00017461748188
0.000174369915329
0.000173963404215
0.000173257496858
0.000171776562379
0.000168744827647
0.000163035411249
0.000152971735925
0.000135508155099
0.000106179082266
0.000111597776407
0.000145912186516
0.000165376305009
0.000176601615465
0.000183293671312
0.000187249802368
0.000189591028308
0.000191025745833
0.000191949725366
0.000192440874788
0.000192431873048
0.000191919796978
0.000190955990326
0.000189460216875
0.000187064210455
0.00018306614643
0.000176391702071
0.000165236073569
0.000145893115527
0.000111499755141
0.00014612694094
0.000594775544693
0.000807094971485
0.000906219237733
0.000949326004016
0.000963053260835
0.000963583553128
0.000960447511068
0.000958042005575
0.000956720847569
0.000955647391754
0.00095506226416
0.000956043557381
0.000958216556484
0.000957104106813
0.000943181857542
0.000900469419433
0.000802558718211
0.00059275060115
0.000145581055166
0.000165596927034
0.00080613551578
0.0011818574065
0.00137919012116
0.00147656003939
0.00151724914663
0.0015277920441
0.00152541814415
0.00152051131337
0.00151609563869
0.00151351959108
0.00151336883538
0.00151457929984
0.00151467802635
0.00150447536068
0.00146521084204
0.00136964953902
0.0011752406535