/*--------------------------------*- C++ -*----------------------------------*\
| =========                 |                                                 |
| \\      /  F ield         | OpenFOAM: The Open Source CFD Toolbox           |
|  \\    /   O peration     | Version:  3.0.1                                 |
|   \\  /    A nd           | Web:      www.OpenFOAM.org                      |
|    \\/     M anipulation  |                                                 |
\*---------------------------------------------------------------------------*/
FoamFile
{
    version     2.0;
    format      ascii;
    class       volScalarField;
    location    "8.1";
    object      p_rgh;
}
// * * * * * * * * * * * * * * * * * * * * * * * * * * * * * * * * * * * * * //

dimensions      [1 -1 -2 0 0 0 0];

internalField   nonuniform List<scalar> 
7968
(
4891.4601381
4891.45889503
4891.42758963
4891.38274879
4891.33569975
4891.29324865
4891.26240101
4891.24254099
4891.22875381
4891.21619625
4891.20271465
4891.18830381
4891.17562559
4891.16994538
4891.17689606
4891.19665737
4891.22549146
4891.25582172
4891.27802893
4891.27571517
4891.46131613
4891.47851245
4891.45627629
4891.41562682
4891.36880412
4891.32718038
4891.29583707
4891.27618753
4891.26320885
4891.25107852
4891.23747287
4891.22241387
4891.20870198
4891.20232308
4891.20911474
4891.22878258
4891.2566096
4891.28257818
4891.29578903
4891.27555561
4891.43636903
4891.46248213
4891.4429473
4891.39957495
4891.34673282
4891.29930289
4891.2636871
4891.24073386
4891.2254244
4891.21193815
4891.19798166
4891.18362897
4891.17170047
4891.16832636
4891.17925608
4891.20443978
4891.23802957
4891.2664334
4891.2769191
4891.24808879
4891.40062897
4891.43121183
4891.40895771
4891.35987558
4891.30231534
4891.25432257
4891.22183554
4891.20309263
4891.19093124
4891.17876255
4891.16449538
4891.1482487
4891.13268553
4891.12479626
4891.13246036
4891.15781802
4891.19574208
4891.22939314
4891.24234504
4891.2091687
4891.36478386
4891.39585112
4891.36756077
4891.31374193
4891.2578828
4891.21811807
4891.1965161
4891.18880446
4891.18472233
4891.1765667
4891.16206484
4891.14129138
4891.1170275
4891.09762867
4891.09418684
4891.11126032
4891.14724843
4891.18517012
4891.20375784
4891.17006135
4891.33566305
4891.36722045
4891.33302979
4891.27863451
4891.2310322
4891.20499111
4891.1992565
4891.20715581
4891.2146419
4891.2123266
4891.19763598
4891.1705418
4891.13388429
4891.09814058
4891.07853025
4891.08210021
4891.10995838
4891.14812393
4891.17228818
4891.13807923
4891.31868034
4891.35000136
4891.31139694
4891.26009722
4891.22361206
4891.21364409
4891.22688336
4891.25352249
4891.2752279
4891.2800574
4891.26524458
4891.23068739
4891.17891794
4891.1235019
4891.08447297
4891.07211787
4891.08919777
4891.12423083
4891.15262347
4891.11856925
4891.31332993
4891.34505732
4891.30321093
4891.25626423
4891.23116292
4891.2371488
4891.26931832
4891.31516609
4891.35155013
4891.36701668
4891.35261734
4891.30703083
4891.2397236
4891.16417639
4891.10564176
4891.07732226
4891.08335339
4891.1141089
4891.14572029
4891.11127351
4891.31427834
4891.34693767
4891.30301844
4891.25952711
4891.24285594
4891.26078673
4891.30747992
4891.36814154
4891.42417438
4891.45144147
4891.43759194
4891.38095313
4891.29280419
4891.20133984
4891.12782085
4891.08738244
4891.08502589
4891.11251118
4891.14621765
4891.11088944
4891.3164167
4891.34963108
4891.30472044
4891.26287613
4891.25051019
4891.27459095
4891.32874694
4891.39921705
4891.46684048
4891.49902676
4891.48540382
4891.42485455
4891.32529491
4891.22208978
4891.14111223
4891.09445095
4891.08774933
4891.11359284
4891.14830792
4891.11241509
4891.31726317
4891.35052226
4891.30569219
4891.26394412
4891.25166302
4891.2758277
4891.33006239
4891.40059848
4891.46828502
4891.50053034
4891.48693154
4891.4263887
4891.32683516
4891.22363633
4891.14262982
4891.09590388
4891.08910968
4891.11483039
4891.14942648
4891.11349801
4891.31673881
4891.34953903
4891.30586086
4891.26267667
4891.24628074
4891.26449827
4891.31147846
4891.37239798
4891.42868449
4891.45614747
4891.44236071
4891.38570901
4891.29751207
4891.20600231
4891.13234642
4891.0916778
4891.08901791
4891.11613208
4891.14949916
4891.1140311
4891.31720886
4891.34916733
4891.30770826
4891.2613031
4891.23673145
4891.24328313
4891.27600939
4891.32237656
4891.35923684
4891.37507157
4891.36079497
4891.31513932
4891.24764233
4891.17188048
4891.11300365
4891.08421117
4891.0896632
4891.11981293
4891.1508997
4891.11620773
4891.32367794
4891.35524908
4891.31715385
4891.26658244
4891.23091704
4891.22181871
4891.23590191
4891.2633166
4891.28564806
4891.29087172
4891.27622585
4891.24162662
4891.18961668
4891.13376192
4891.09412817
4891.08103659
4891.09729937
4891.1314967
4891.15923429
4891.12493486
4891.34141769
4891.37319615
4891.33957481
4891.28607807
4891.23951553
4891.21456366
4891.20986706
4891.21870176
4891.22692645
4891.22508316
4891.21059063
4891.18343385
4891.14643274
4891.11007794
4891.08966098
4891.09230049
4891.11917356
4891.15637877
4891.17985241
4891.14547806
4891.37082358
4891.40222291
4891.37451677
4891.32166371
4891.2669854
4891.22846666
4891.20797175
4891.20125567
4891.19794378
4891.19028297
4891.17598033
4891.15511928
4891.1304455
4891.11033105
4891.10596329
4891.12199965
4891.15693346
4891.19391536
4891.2118931
4891.1779445
4891.40678866
4891.43769751
4891.41600642
4891.3678647
4891.31150783
4891.26483712
4891.23342337
4891.21565081
4891.20424817
4891.19255468
4891.17846486
4891.16209336
4891.14606955
4891.13741706
4891.14412157
4891.16841893
4891.20534833
4891.23819012
4891.25064104
4891.21734901
4891.44251194
4891.46898378
4891.44994051
4891.40738625
4891.35559881
4891.30936374
4891.27483016
4891.25283027
4891.23824312
4891.22519035
4891.21136962
4891.19685465
4891.18443875
4891.18030607
4891.19031117
4891.21454317
4891.24732016
4891.27509427
4891.28521268
4891.25629857
4891.46767688
4891.48501333
4891.46323247
4891.42328673
4891.37731026
4891.3367523
4891.30647557
4891.28776064
4891.27544926
4891.26369592
4891.25017587
4891.23492541
4891.22072727
4891.213618
4891.2195703
4891.23845787
4891.26567639
4891.2911406
4891.30409626
4891.28385765
4891.46663476
4891.4656698
4891.43474961
4891.39059745
4891.34445088
4891.30303727
4891.27315959
4891.25414359
4891.24095942
4891.22874108
4891.215322
4891.20071204
4891.18757898
4891.18123288
4891.18743179
4891.20639502
4891.23459813
4891.26442618
4891.2862681
4891.28370195
4891.43846119
4891.42450237
4891.38354898
4891.33191082
4891.28337681
4891.24351679
4891.21446734
4891.19679061
4891.18487628
4891.17312978
4891.15957671
4891.14427454
4891.12968389
4891.12161656
4891.12632233
4891.14447858
4891.17438583
4891.21126459
4891.24285698
4891.25297933
4891.42675834
4891.42449853
4891.38719574
4891.34019163
4891.29855628
4891.26632763
4891.24393865
4891.23090974
4891.22177256
4891.21124845
4891.19772377
4891.18114689
4891.16381883
4891.15104216
4891.14911563
4891.15982115
4891.18246978
4891.21421445
4891.24178329
4891.24022493
4891.39190117
4891.39345821
4891.35030351
4891.29755392
4891.25271552
4891.22027002
4891.19971637
4891.18838275
4891.18007743
4891.16978631
4891.1559295
4891.13864734
4891.12007614
4891.10558443
4891.1019645
4891.11253899
4891.13807655
4891.17512679
4891.20816673
4891.202753
4891.3496718
4891.35601641
4891.30700891
4891.25159508
4891.21010978
4891.18560997
4891.17535348
4891.17290321
4891.16995901
4891.16192837
4891.14773351
4891.12754651
4891.10304844
4891.07952321
4891.06576037
4891.06815012
4891.09011802
4891.1293007
4891.1675824
4891.15733143
4891.31275292
4891.32600396
4891.27358926
4891.22150522
4891.19192894
4891.18639094
4891.19578986
4891.21012967
4891.21881743
4891.21635684
4891.20188777
4891.17549115
4891.13850416
4891.09740177
4891.06372827
4891.0473661
4891.05780375
4891.09340446
4891.13450192
4891.11715314
4891.28607842
4891.30660709
4891.25385442
4891.20986058
4891.199065
4891.21688151
4891.25126622
4891.28774637
4891.31189795
4891.31710035
4891.30258359
4891.2681265
4891.2145847
4891.15011159
4891.09096788
4891.05182026
4891.04368131
4891.07120166
4891.11224313
4891.08740718
4891.27122931
4891.29817114
4891.24697471
4891.2130532
4891.2224808
4891.26561092
4891.32678902
4891.38761989
4891.42935828
4891.44334114
4891.42899003
4891.3856553
4891.31347608
4891.22311186
4891.13610131
4891.07188412
4891.04434724
4891.06194705
4891.10140658
4891.07002042
4891.26819164
4891.29982523
4891.25023898
4891.22545621
4891.25213509
4891.3178499
4891.4036048
4891.48787054
4891.54545167
4891.56313843
4891.54840773
4891.50171271
4891.41318909
4891.29817515
4891.18548204
4891.09845057
4891.0539018
4891.06297063
4891.10103984
4891.06498109
4891.27105939
4891.3055565
4891.2569332
4891.23790445
4891.27666654
4891.3583404
4891.46202096
4891.56251248
4891.62137026
4891.64180633
4891.62716072
4891.57663528
4891.48658162
4891.35559772
4891.22421243
4891.12088743
4891.06449419
4891.06806071
4891.10529888
4891.0664886
4891.27416594
4891.30989152
4891.26179895
4891.24524624
4891.28991009
4891.37949076
4891.49204835
4891.59760288
4891.65869415
4891.68242454
4891.66793606
4891.61342298
4891.51936928
4891.38542995
4891.24493629
4891.13360866
4891.07132753
4891.07227525
4891.10908871
4891.06896581
4891.27507607
4891.31084643
4891.26284342
4891.24634368
4891.29104496
4891.38069428
4891.49331458
4891.59892408
4891.66004624
4891.683876
4891.66941693
4891.61490159
4891.52083884
4891.38694313
4891.24647686
4891.13513815
4891.07277277
4891.07362481
4891.11028725
4891.07012441
4891.2736982
4891.3083487
4891.25999979
4891.24113374
4891.28014049
4891.36210726
4891.46601968
4891.56670756
4891.62576649
4891.64633999
4891.6317458
4891.58121646
4891.49119433
4891.3602736
4891.22892107
4891.12549269
4891.06880801
4891.07204029
4891.10884307
4891.06987712
4891.27229164
4891.30427135
4891.25504595
4891.23073654
4891.25796694
4891.32430658
4891.4105645
4891.49532067
4891.55332136
4891.57117612
4891.55650207
4891.50978235
4891.42126641
4891.30615912
4891.19329183
4891.10589195
4891.06084119
4891.0692764
4891.10669773
4891.07035027
4891.27642759
4891.30374813
4891.25315401
4891.22003897
4891.23036508
4891.27446234
4891.33652374
4891.39814592
4891.4405503
4891.45491698
4891.4406935
4891.39726002
4891.32482959
4891.23410686
4891.14656519
4891.0816333
4891.0533082
4891.0700293
4891.10867581
4891.07692814
4891.29199688
4891.31290117
4891.26094075
4891.21801164
4891.20840196
4891.22749598
4891.26302196
4891.3005213
4891.32546854
4891.33114378
4891.31682948
4891.2822649
4891.22833128
4891.1632375
4891.10325484
4891.06313548
4891.0539768
4891.08041989
4891.12056581
4891.09536646
4891.31913049
4891.33279197
4891.28115944
4891.23026987
4891.20209591
4891.19807366
4891.20864659
4891.22402517
4891.23354067
4891.23160053
4891.21733941
4891.19084046
4891.15339186
4891.1115627
4891.07692205
4891.05945574
4891.06873624
4891.10317626
4891.14344424
4891.12573157
4891.3562373
4891.36294984
4891.31458888
4891.2603998
4891.22049952
4891.19787554
4891.18850702
4891.18699617
4891.18484569
4891.17733181
4891.16332773
4891.14301819
4891.1180464
4891.09374135
4891.078968
4891.08022122
4891.10096253
4891.13904637
4891.17665362
4891.1661375
4891.39847472
4891.40031251
4891.35765291
4891.30592393
4891.2625158
4891.23159409
4891.21218478
4891.20190241
4891.19438475
4891.18458568
4891.17087284
4891.1534268
4891.13435814
4891.11906845
4891.1144726
4891.12394455
4891.14835182
4891.18450312
4891.21708495
4891.21155285
4891.43326897
4891.43126683
4891.39435098
4891.34816322
4891.30767069
4891.2766928
4891.25550697
4891.24364499
4891.2352409
4891.22513764
4891.21166574
4891.19485859
4891.17699337
4891.16341649
4891.1605983
4891.17037418
4891.19212917
4891.22322275
4891.25046533
4891.24884832
4891.44504184
4891.43137544
4891.39077703
4891.33989826
4891.29244928
4891.25380659
4891.22588665
4891.20910497
4891.19781701
4891.18646257
4891.17298132
4891.1574457
4891.14235225
4891.13356657
4891.13742799
4891.15471132
4891.18378089
4891.2200085
4891.25117741
4891.26079503
4891.41388918
4891.38770894
4891.34009813
4891.28334775
4891.23184561
4891.18965384
4891.1588375
4891.13845245
4891.12343362
4891.10954155
4891.09558729
4891.08178678
4891.0698006
4891.06445641
4891.07097488
4891.09160945
4891.12424578
4891.165991
4891.20406861
4891.22565033
4891.39004172
4891.38449795
4891.34630998
4891.30098744
4891.26375156
4891.23600661
4891.21673431
4891.20457556
4891.19384791
4891.18165659
4891.16763836
4891.15210216
4891.13600584
4891.12277932
4891.11764238
4891.12394032
4891.14237688
4891.17216223
4891.19992364
4891.20112615
4891.34867549
4891.35302467
4891.30332905
4891.24340148
4891.19612434
4891.16434224
4891.14610097
4891.13513551
4891.12588802
4891.11431822
4891.0997763
4891.08258368
4891.06429061
4891.04964623
4891.0444942
4891.05454423
4891.08239708
4891.12645328
4891.16559284
4891.15735411
4891.30157228
4891.3176277
4891.25306771
4891.18567005
4891.13993298
4891.11689996
4891.11600602
4891.11790959
4891.11730929
4891.10982449
4891.0947378
4891.07261527
4891.04496988
4891.01727378
4890.99707773
4890.99642289
4891.0225525
4891.07359029
4891.12692492
4891.10712087
4891.26208217
4891.29220161
4891.21743898
4891.15169159
4891.12009404
4891.11950382
4891.13815157
4891.15908169
4891.1715045
4891.17027052
4891.15481324
4891.12555883
4891.08456594
4891.03774148
4890.99583383
4890.97451782
4890.98613509
4891.03544298
4891.09826632
4891.06437973
4891.23351071
4891.2775679
4891.19859452
4891.14306616
4891.13164437
4891.15830721
4891.20317952
4891.24579823
4891.27258649
4891.27802888
4891.2617266
4891.22406623
4891.16730289
4891.09918622
4891.0322317
4890.98423946
4890.97537019
4891.01390725
4891.08063566
4891.03278115
4891.21705182
4891.27254421
4891.19383025
4891.15343944
4891.16301073
4891.21619856
4891.28754204
4891.35244062
4891.39411179
4891.40677885
4891.38912527
4891.34095942
4891.26612936
4891.17577119
4891.08532736
4891.01269526
4890.98235684
4891.00625718
4891.07329424
4891.01385913
4891.21168615
4891.27484608
4891.19762183
4891.17010471
4891.19910249
4891.27468508
4891.36982816
4891.45627735
4891.513653
4891.53414548
4891.51516162
4891.45571023
4891.36151771
4891.24915046
4891.13777679
4891.04478836
4890.99567848
4891.00713723
4891.07328869
4891.00630121
4891.21192812
4891.27930235
4891.20405377
4891.18586721
4891.22848953
4891.31979223
4891.43261792
4891.53700983
4891.60888218
4891.63583487
4891.61613892
4891.54880638
4891.43734209
4891.30609123
4891.17785232
4891.07034489
4891.00843569
4891.01126215
4891.07595689
4891.00500086
4891.2131814
4891.28244936
4891.20850181
4891.19493063
4891.24424934
4891.34357788
4891.46572185
4891.5797193
4891.65892747
4891.68942672
4891.66940217
4891.59804081
4891.47889058
4891.33718952
4891.19971166
4891.08459316
4891.01623826
4891.01475927
4891.07849791
4891.00568922
4891.21418136
4891.28350707
4891.2096733
4891.19614675
4891.24553505
4891.34499466
4891.46739499
4891.58162939
4891.66106256
4891.69169875
4891.67170003
4891.60029821
4891.48106442
4891.33924643
4891.20164595
4891.08645279
4891.01800964
4891.01628723
4891.07975036
4891.00698318
4891.21470067
4891.28237984
4891.20746002
4891.18949864
4891.23255223
4891.32436124
4891.43787061
4891.54296934
4891.61550708
4891.64281777
4891.62316867
4891.55570226
4891.44395932
4891.31229272
4891.18361342
4891.07581258
4891.01359429
4891.01589842
4891.07988744
4891.0087393
4891.21604265
4891.27977291
4891.20310917
4891.17612848
4891.20590938
4891.28235906
4891.37857616
4891.46640103
4891.52505088
4891.54621494
4891.52723855
4891.46741817
4891.37259626
4891.25934735
4891.14714651
4891.05353569
4891.00384083
4891.01444494
4891.07948793
4891.01214178
4891.22268067
4891.27873323
4891.20087247
4891.16141937
4891.17194289
4891.2262434
4891.29894009
4891.36540549
4891.40844226
4891.42186442
4891.4043439
4891.35581734
4891.28021576
4891.18886826
4891.09748871
4891.02405387
4890.99290452
4891.01557652
4891.08131865
4891.02129978
4891.23984492
4891.28431165
4891.20672127
4891.15253446
4891.14225924
4891.1700953
4891.21621495
4891.26024881
4891.28823565
4891.29447731
4891.27843382
4891.24046873
4891.18303782
4891.11407015
4891.04626619
4890.99743445
4890.98750682
4891.02450185
4891.08977356
4891.04127891
4891.26887902
4891.29947674
4891.22600034
4891.16186476
4891.13190011
4891.13289832
4891.15242799
4891.17458834
4891.18807139
4891.18754411
4891.1723095
4891.14296332
4891.1013732
4891.05381137
4891.01112552
4890.98878475
4890.99896977
4891.04657746
4891.10803207
4891.07349661
4891.30853259
4891.32511394
4891.26137878
4891.19583536
4891.15228034
4891.13348575
4891.13128815
4891.13404937
4891.13438818
4891.12763051
4891.11286075
4891.09050434
4891.06230488
4891.03384375
4891.0127252
4891.01061109
4891.03511273
4891.08460388
4891.13683805
4891.11640938
4891.35563903
4891.36036157
4891.31115957
4891.25271315
4891.20748571
4891.17786654
4891.16089888
4891.15124158
4891.14295196
4891.13202038
4891.11764281
4891.10022245
4891.08129927
4891.06560651
4891.0591775
4891.06771211
4891.09406738
4891.13679187
4891.17530383
4891.16648281
4891.39702347
4891.39165007
4891.3538317
4891.30954093
4891.27369741
4891.24756451
4891.23029206
4891.21907453
4891.20909957
4891.197366
4891.18344778
4891.16768503
4891.15099729
4891.13675832
4891.13045174
4891.13558296
4891.15289788
4891.1818416
4891.20914035
4891.21000825
4891.42050424
4891.39476642
4891.34755734
4891.29180845
4891.24185929
4891.20140525
4891.17203382
4891.1527694
4891.13848925
4891.1250251
4891.11113699
4891.09704123
4891.08447124
4891.0779686
4891.08323706
4891.10273772
4891.13424462
4891.17512257
4891.21246305
4891.23348526
4891.36963056
4891.33293038
4891.28166575
4891.22098195
4891.16439166
4891.11659116
4891.07955347
4891.05175182
4891.02970618
4891.01122895
4890.99638137
4890.98557494
4890.97962834
4890.98096493
4890.9936069
4891.02157238
4891.05907268
4891.10448387
4891.14583985
4891.17809028
4891.3351707
4891.32735903
4891.28524222
4891.23088267
4891.18161976
4891.14032881
4891.10868494
4891.08200076
4891.05821794
4891.03974033
4891.02478911
4891.01453806
4891.01003517
4891.01009746
4891.01811514
4891.03806091
4891.06859
4891.10777175
4891.1394299
4891.14324854
4891.29036194
4891.29222054
4891.23882653
4891.16718247
4891.10556132
4891.06005007
4891.03052715
4891.01063954
4890.99521327
4890.97970798
4890.96386568
4890.94830343
4890.93529675
4890.92985398
4890.9356416
4890.96025946
4891.00267385
4891.05784792
4891.1013735
4891.09614964
4891.23961352
4891.24775706
4891.17726174
4891.08910319
4891.02540819
4890.99647408
4890.98864109
4890.99081513
4890.9906308
4890.98260371
4890.96583003
4890.94112674
4890.91234572
4890.88494089
4890.86801756
4890.87773245
4890.92183901
4890.99388048
4891.05399931
4891.04243791
4891.19532621
4891.21033248
4891.12718416
4891.0361778
4890.98892477
4890.98937672
4891.01585187
4891.04388356
4891.05981435
4891.05870697
4891.03958603
4891.00378396
4890.95653281
4890.90571457
4890.86214214
4890.84243767
4890.86769933
4890.94116266
4891.01359518
4890.99520035
4891.16075032
4891.18242303
4891.09361192
4891.01540094
4890.99846085
4891.03711917
4891.09837465
4891.15050071
4891.17966539
4891.18255036
4891.15889451
4891.10989494
4891.04217967
4890.96714848
4890.89836627
4890.85107809
4890.84745493
4890.90538004
4890.9831942
4890.9579279
4891.13802304
4891.16387066
4891.0771557
4891.02196106
4891.03735541
4891.11359852
4891.20562098
4891.27935943
4891.31963524
4891.32491164
4891.29535707
4891.23149924
4891.14160094
4891.04230504
4890.95020597
4890.88037686
4890.85205249
4890.88675515
4890.96280565
4890.93279814
4891.12573949
4891.15234081
4891.07217476
4891.04019409
4891.0845496
4891.18980354
4891.30854658
4891.40388924
4891.45483191
4891.46265442
4891.42751997
4891.34887344
4891.23644668
4891.11464405
4891.00197742
4890.91316054
4890.86432217
4890.87797126
4890.94907066
4890.91808842
4891.11990129
4891.14550287
4891.07331301
4891.05846648
4891.1225651
4891.24756209
4891.38759308
4891.50214654
4891.56376619
4891.57513007
4891.53724521
4891.44870843
4891.31603993
4891.17389635
4891.0439654
4890.93993493
4890.87639931
4890.8765763
4890.93971466
4890.91026252
4891.11778534
4891.14311024
4891.07557831
4891.06878104
4891.14263477
4891.27768056
4891.42919643
4891.55396274
4891.620626
4891.63366554
4891.59439445
4891.50176379
4891.35982
4891.2071131
4891.06799564
4890.95567601
4890.88412222
4890.87709122
4890.93499987
4890.90706085
4891.11889588
4891.14464033
4891.0770889
4891.07040169
4891.14448511
4891.2800259
4891.43221791
4891.55767915
4891.62487674
4891.63808779
4891.59891029
4891.50611521
4891.36391835
4891.2107095
4891.07106187
4890.95826345
4890.88641031
4890.87913005
4890.93665084
4890.90850041
4891.12309643
4891.14939727
4891.07763548
4891.06335187
4891.12817591
4891.25485926
4891.39708193
4891.51368553
4891.576914
4891.5888741
4891.55097087
4891.46205037
4891.3284594
4891.18472542
4891.05305475
4890.94749859
4890.88298313
4890.88235367
4890.94434864
4890.91435633
4891.13074249
4891.15860261
4891.0789341
4891.04807934
4891.0938038
4891.20167634
4891.32372219
4891.42299254
4891.47733934
4891.48662685
4891.45104322
4891.37123922
4891.25683409
4891.1321153
4891.01639267
4890.92499514
4890.87450136
4890.88689159
4890.95628066
4890.92443062
4891.14441663
4891.17100906
4891.08573276
4891.03207202
4891.04912964
4891.12838184
4891.22403949
4891.30174478
4891.34537412
4891.35221187
4891.32264773
4891.25770651
4891.16548469
4891.06311317
4890.96759593
4890.8949694
4890.8650056
4890.89786052
4890.97183389
4890.94077365
4891.16812665
4891.19040887
4891.10324958
4891.02721491
4891.01139761
4891.05216795
4891.11660369
4891.17215648
4891.2038326
4891.20818472
4891.18491282
4891.13537423
4891.06569891
4890.98809333
4890.91652586
4890.86705904
4890.86209462
4890.91779737
4890.99330717
4890.96690407
4891.20295389
4891.21864099
4891.13717558
4891.04812142
4891.00280646
4891.00415765
4891.03261202
4891.0630224
4891.08050837
4891.08053034
4891.0619003
4891.02602936
4890.97776979
4890.92547712
4890.88029348
4890.85945424
4890.88311606
4890.95383168
4891.02414908
4891.00457029
4891.2472732
4891.25615007
4891.18739603
4891.10073834
4891.03872478
4891.00951337
4891.00566656
4891.00960086
4891.01082167
4891.00372215
4890.98727506
4890.96260635
4890.93282006
4890.90452452
4890.8863984
4890.89454384
4890.93627751
4891.00582422
4891.0644601
4891.05190215
4891.29785745
4891.30018086
4891.2478323
4891.17872963
4891.11855051
4891.07501433
4891.04802854
4891.02994659
4891.01569112
4891.00100938
4890.98543815
4890.9696287
4890.95576065
4890.9489917
4890.95300434
4890.9753826
4891.0154598
4891.06923489
4891.11135075
4891.10538089
4891.34251649
4891.33487759
4891.29352149
4891.24082783
4891.19351443
4891.15452727
4891.12434235
4891.09963439
4891.07718382
4891.05915642
4891.04414126
4891.03383713
4891.02815259
4891.02683805
4891.03313024
4891.0512292
4891.08029165
4891.11790485
4891.14879652
4891.15199096
4891.37664766
4891.3401315
4891.28961598
4891.23055846
4891.17593662
4891.12975775
4891.0944705
4891.06814461
4891.04708633
4891.0291228
4891.01434
4891.0032
4890.99646646
4890.99660367
4891.00772148
4891.03379252
4891.06969242
4891.11392361
4891.15428013
4891.18663065
4891.35667556
4891.3199987
4891.26912616
4891.20038422
4891.13301314
4891.07132563
4891.02009468
4890.97896891
4890.94646223
4890.92151087
4890.90500679
4890.89784398
4890.90055451
4890.91416859
4890.93845127
4890.9868626
4891.03291838
4891.08644931
4891.12783357
4891.16042837
4891.3223681
4891.29268148
4891.23941888
4891.16192182
4891.08481362
4891.01376815
4890.95475572
4890.89507187
4890.84565009
4890.83089331
4890.81753921
4890.8027415
4890.82181189
4890.84864875
4890.88418605
4890.93536502
4890.99290177
4891.05482841
4891.099172
4891.12528676
4891.27813735
4891.24595149
4891.17970632
4891.08177233
4890.97006417
4890.8843397
4890.84558942
4890.79933828
4890.75991845
4890.74885314
4890.73420356
4890.71172951
4890.7187698
4890.73989442
4890.75432189
4890.82453972
4890.91051416
4890.99230131
4891.04964344
4891.0785015
4891.21951845
4891.17864946
4891.09236502
4890.93207685
4890.82856079
4890.79138505
4890.77094636
4890.75559137
4890.75618109
4890.75329978
4890.73364064
4890.70447938
4890.6783923
4890.67182023
4890.65898273
4890.68511072
4890.76711524
4890.9016827
4890.97951947
4891.01670551
4891.16462543
4891.11375938
4890.99075262
4890.83389798
4890.78746394
4890.79679404
4890.83963415
4890.87923764
4890.90109276
4890.90022592
4890.87335817
4890.82366241
4890.76248336
4890.7011424
4890.65349835
4890.63529101
4890.67782624
4890.80566139
4890.91226021
4890.95857726
4891.11679592
4891.05602649
4890.91266095
4890.79722108
4890.80237713
4890.86815482
4890.95958923
4891.02465931
4891.05715835
4891.05553663
4891.01811864
4890.94788574
4890.86007645
4890.77064885
4890.69284293
4890.63419232
4890.64141393
4890.7299052
4890.85178065
4890.90762413
4891.08083311
4891.01055434
4890.88861506
4890.81675636
4890.85871833
4890.98322042
4891.10603679
4891.19137322
4891.22772824
4891.220017
4891.16959043
4891.07716519
4890.96207068
4890.84797394
4890.74748054
4890.65016728
4890.64117365
4890.69805128
4890.803611
4890.86834957
4891.05617461
4890.96895453
4890.84636963
4890.84352518
4890.93287376
4891.09157978
4891.24576908
4891.35274425
4891.39166662
4891.37723611
4891.31424397
4891.19939804
4891.05517068
4890.9197733
4890.80160374
4890.70417635
4890.61397942
4890.67138877
4890.76187556
4890.84017441
4891.0415128
4890.94177133
4890.82711925
4890.87246563
4890.99158898
4891.17184846
4891.35727613
4891.48643875
4891.53072937
4891.51541071
4891.44930742
4891.32435138
4891.14598344
4890.98290336
4890.84714289
4890.73300005
4890.61900646
4890.65150946
4890.7352296
4890.82212675
4891.03504561
4890.94335569
4890.83680262
4890.88582876
4891.02023925
4891.21497805
4891.41659505
4891.55325185
4891.59562818
4891.57725783
4891.51141002
4891.38505685
4891.19493155
4891.01974954
4890.87446014
4890.75263975
4890.62589005
4890.65414256
4890.7264299
4890.81356833
4891.03627236
4890.94718571
4890.84107814
4890.88796345
4891.02298726
4891.21914414
4891.42255431
4891.56020421
4891.603083
4891.5846455
4891.51911661
4891.39266212
4891.20198992
4891.02572331
4890.87924053
4890.75601229
4890.62909763
4890.65696495
4890.72852786
4890.81525195
4891.04495544
4890.94747392
4890.83545688
4890.87878548
4890.99996763
4891.18484167
4891.37608542
4891.50845541
4891.55492546
4891.53916125
4891.47336742
4891.34749433
4891.1677941
4891.0010418
4890.86136716
4890.74298476
4890.62845124
4890.65894985
4890.74018675
4890.82681825
4891.06145461
4890.9761284
4890.85842377
4890.85461412
4890.9473467
4891.11210566
4891.27370448
4891.39008594
4891.43663439
4891.42435912
4891.35837225
4891.24100953
4891.09123816
4890.94881342
4890.82404201
4890.72215128
4890.62459204
4890.68364709
4890.76982817
4890.84725033
4891.08741541
4891.01801135
4890.90099324
4890.83040926
4890.8761604
4891.00846999
4891.1383477
4891.23203011
4891.27522188
4891.26966181
4891.21779482
4891.12200156
4891.00127114
4890.88083774
4890.77301455
4890.66923809
4890.65933514
4890.7118295
4890.81398112
4890.87696913
4891.12420573
4891.0648434
4890.92805942
4890.81489896
4890.81949081
4890.88982384
4890.98920034
4891.06062476
4891.09765515
4891.09805825
4891.06078603
4890.98880374
4890.89626125
4890.80161838
4890.71894247
4890.64823038
4890.66103446
4890.74793085
4890.86290728
4890.91696503
4891.17241853
4891.12295954
4891.00361421
4890.85162623
4890.80617084
4890.81588611
4890.86152179
4890.90646005
4890.93106512
4890.93184989
4890.90579773
4890.85569165
4890.7920249
4890.72825908
4890.67787651
4890.65820497
4890.70079761
4890.821686
4890.92323358
4890.96798662
4891.22724964
4891.18756087
4891.10287662
4890.94919721
4890.84739031
4890.81091477
4890.79656114
4890.79127983
4890.79057732
4890.78836444
4890.76959039
4890.74032076
4890.71251649
4890.69720847
4890.6823456
4890.70773353
4890.7859329
4890.91464609
4890.98982155
4891.02568594
4891.28565216
4891.25410629
4891.18984954
4891.09416343
4890.98809652
4890.90797823
4890.8668843
4890.82692309
4890.78869931
4890.77787013
4890.76291272
4890.74060512
4890.74498962
4890.76346897
4890.77790405
4890.8430678
4890.92457613
4891.00352009
4891.05941127
4891.08707582
4891.32963885
4891.30017061
4891.24823016
4891.17299558
4891.09842779
4891.02962183
4890.97322672
4890.91952816
4890.87111015
4890.8576246
4890.84347489
4890.83002621
4890.84519529
4890.86853233
4890.90165398
4890.94987405
4891.00481144
4891.06525694
4891.10807324
4891.13324514
4891.36380933
4891.32721057
4891.27725435
4891.21020506
4891.14499577
4891.08580014
4891.0370618
4890.99799054
4890.96682867
4890.94257589
4890.92613732
4890.91842848
4890.92002663
4890.93197399
4890.95424602
4890.99965342
4891.04364351
4891.09552521
4891.13566198
4891.16811786
4891.4167892
4891.37893397
4891.33122883
4891.26008434
4891.19018935
4891.12605981
4891.07365802
4891.03384394
4891.00440148
4890.98160571
4890.96386493
4890.95235106
4890.95000129
4890.96118202
4890.98832816
4891.03202724
4891.08321121
4891.13949252
4891.17886681
4891.21239774
4891.3819428
4891.3092217
4891.24158957
4891.1369835
4891.03037933
4890.92721932
4890.84058462
4890.76805145
4890.7038926
4890.68553122
4890.66960874
4890.65518702
4890.68378178
4890.72358545
4890.78685554
4890.86903032
4890.95734732
4891.04628398
4891.10714232
4891.17568744
4891.34068977
4891.24717395
4891.16666537
4891.0418715
4890.6875325
4889.82088775
4889.36605693
4889.259731
4889.32555106
4889.3808116
4889.36728751
4889.27742852
4889.19386277
4889.32217612
4889.76365097
4890.54080447
4890.85559439
4890.96848761
4891.04222285
4891.13121884
4891.28089627
4891.15473807
4891.05387902
4890.35198241
4889.34986426
4889.53197815
4890.35595108
4890.52738472
4890.53775304
4890.53096035
4890.5029469
4890.45629744
4890.40220073
4890.04493408
4889.14969682
4889.31839694
4890.19406972
4890.84548782
4890.94457591
4891.06630065
4891.2254805
4891.06285562
4890.71438381
4889.33756967
4889.83391823
4890.09398653
4890.52486689
4890.68382517
4890.72809516
4890.73426521
4890.68873377
4890.60654549
4890.51780737
4890.42826135
4890.34702167
4889.33354431
4889.33983033
4890.5201384
4890.84515638