/*--------------------------------*- C++ -*----------------------------------*\
| =========                 |                                                 |
| \\      /  F ield         | OpenFOAM: The Open Source CFD Toolbox           |
|  \\    /   O peration     | Version:  3.0.1                                 |
|   \\  /    A nd           | Web:      www.OpenFOAM.org                      |
|    \\/     M anipulation  |                                                 |
\*---------------------------------------------------------------------------*/
FoamFile
{
    version     2.0;
    format      ascii;
    class       volScalarField;
    location    "1.5";
    object      rAU;
}
// * * * * * * * * * * * * * * * * * * * * * * * * * * * * * * * * * * * * * //

dimensions      [-1 3 1 0 0 0 0];

internalField   nonuniform List<scalar> 
7968
(
1.04861875665e-05
1.04705120193e-05
1.04692228632e-05
1.04699490339e-05
1.04698074525e-05
1.0464004718e-05
1.04616475895e-05
1.04653377119e-05
1.04664855984e-05
1.04668630166e-05
1.04668649637e-05
1.04664898689e-05
1.04653438251e-05
1.04616517459e-05
1.0464004356e-05
1.04698083534e-05
1.04699497962e-05
1.04692271545e-05
1.04705149931e-05
1.04861860941e-05
1.04705148844e-05
1.04308427791e-05
1.0418788041e-05
1.04140992329e-05
1.04107703204e-05
1.04070832399e-05
1.04056338448e-05
1.04067389661e-05
1.04075885602e-05
1.04079352169e-05
1.0407937111e-05
1.04075922275e-05
1.04067437369e-05
1.04056363493e-05
1.04070887556e-05
1.04107792273e-05
1.04141012986e-05
1.04187898616e-05
1.04308437138e-05
1.04705155191e-05
1.04692287582e-05
1.04187891007e-05
1.04003017475e-05
1.03919687835e-05
1.0386947182e-05
1.03836863896e-05
1.03826260616e-05
1.03834458528e-05
1.03844380077e-05
1.0384936584e-05
1.03849372283e-05
1.03844401907e-05
1.03834484963e-05
1.03826287135e-05
1.03836904812e-05
1.03869545515e-05
1.03919719557e-05
1.04003033411e-05
1.04187902658e-05
1.04692328101e-05
1.04699688819e-05
1.04141054401e-05
1.03919714105e-05
1.03819261813e-05
1.03761761737e-05
1.03729128434e-05
1.03721642505e-05
1.03731444398e-05
1.03747536389e-05
1.0375639099e-05
1.03756420348e-05
1.0374760152e-05
1.03731222422e-05
1.03721572011e-05
1.03729126308e-05
1.03761820188e-05
1.03819311351e-05
1.03919746681e-05
1.04141095665e-05
1.04699767928e-05
1.04697099674e-05
1.04107535233e-05
1.03869446733e-05
1.0376176876e-05
1.03694435319e-05
1.03656884055e-05
1.03642987009e-05
1.03649059675e-05
1.03661270473e-05
1.0366758827e-05
1.03667592254e-05
1.03661249656e-05
1.03648977938e-05
1.03642887776e-05
1.03656897151e-05
1.0369435514e-05
1.03761775525e-05
1.03869453976e-05
1.04107503556e-05
1.0469689187e-05
1.04639499337e-05
1.04070595675e-05
1.03836854398e-05
1.03729244644e-05
1.03656952913e-05
1.03585772757e-05
1.03538214745e-05
1.03527829273e-05
1.03523359832e-05
1.03518100653e-05
1.03518112797e-05
1.03523349544e-05
1.03527754312e-05
1.03538082028e-05
1.03585665589e-05
1.03656987479e-05
1.03729223277e-05
1.03836835091e-05
1.04070485931e-05
1.04639230987e-05
1.04617134999e-05
1.04056365374e-05
1.03826338649e-05
1.03721963127e-05
1.0364324634e-05
1.03538042383e-05
1.03478028058e-05
1.0347076028e-05
1.0347680933e-05
1.03488171929e-05
1.03488112176e-05
1.03476566591e-05
1.0347082572e-05
1.0347796618e-05
1.0353798899e-05
1.03643270621e-05
1.03721980596e-05
1.03826359296e-05
1.0405630317e-05
1.04617104602e-05
1.04653524088e-05
1.04067494585e-05
1.03834510868e-05
1.03732562932e-05
1.03649322359e-05
1.03527272181e-05
1.03469793897e-05
1.03544220187e-05
1.03589917007e-05
1.03603864613e-05
1.03603855232e-05
1.03589914384e-05
1.03544161719e-05
1.03469771007e-05
1.03527286243e-05
1.03649424119e-05
1.03732825571e-05
1.03834580986e-05
1.04067510152e-05
1.04653483274e-05
1.04664913541e-05
1.04075959112e-05
1.03844368895e-05
1.03747240484e-05
1.03661780513e-05
1.0352293114e-05
1.03477363513e-05
1.03590052161e-05
1.03642418778e-05
1.03660145761e-05
1.03660162626e-05
1.03642430794e-05
1.03590046843e-05
1.03477335003e-05
1.03523024208e-05
1.03661924737e-05
1.0374735396e-05
1.0384444673e-05
1.04076012301e-05
1.04664906124e-05
1.04668622805e-05
1.04079391046e-05
1.03849312955e-05
1.03756099195e-05
1.03668266797e-05
1.03517930238e-05
1.03487639924e-05
1.036038458e-05
1.0366018997e-05
1.03679128036e-05
1.03679145582e-05
1.03660220822e-05
1.03603844704e-05
1.03487676227e-05
1.03518067735e-05
1.03668490964e-05
1.03756149467e-05
1.03849382737e-05
1.0407945772e-05
1.0466863589e-05
1.04668518027e-05
1.04079319007e-05
1.03849308708e-05
1.03756078375e-05
1.03668176315e-05
1.03517913246e-05
1.03487205951e-05
1.03603604539e-05
1.03659940479e-05
1.03678899629e-05
1.03678897277e-05
1.03659937728e-05
1.0360357774e-05
1.03487237057e-05
1.03518072588e-05
1.0366843051e-05
1.03756083447e-05
1.03849346665e-05
1.04079370324e-05
1.04668536407e-05
1.0466459858e-05
1.04075743561e-05
1.03844316887e-05
1.03747211289e-05
1.03661525612e-05
1.03522921656e-05
1.03475349064e-05
1.03589227335e-05
1.03641624336e-05
1.03659374235e-05
1.03659368526e-05
1.03641601347e-05
1.03589189191e-05
1.03475459533e-05
1.03523075815e-05
1.03661747805e-05
1.03747172779e-05
1.03844335569e-05
1.04075789843e-05
1.04664605453e-05
1.04652878295e-05
1.04067132314e-05
1.03834393585e-05
1.0373328873e-05
1.03649000323e-05
1.03527222938e-05
1.0346999286e-05
1.03542186629e-05
1.03588371404e-05
1.03602371897e-05
1.03602355742e-05
1.03588358171e-05
1.03542184917e-05
1.0346994627e-05
1.03527374893e-05
1.03649201176e-05
1.03733444458e-05
1.03834418709e-05
1.04067171797e-05
1.04652868818e-05
1.04615398065e-05
1.04055995611e-05
1.0382618216e-05
1.037216825e-05
1.03642916916e-05
1.03538009172e-05
1.03478120541e-05
1.03470513559e-05
1.03471428338e-05
1.03483712015e-05
1.03483711476e-05
1.03471443982e-05
1.03470564492e-05
1.03478193192e-05
1.03538219868e-05
1.03643127379e-05
1.03721785571e-05
1.03826235011e-05
1.04056035538e-05
1.04615376043e-05
1.04639650919e-05
1.0407057613e-05
1.03836730498e-05
1.03728947579e-05
1.03656616948e-05
1.03585746655e-05
1.03538368628e-05
1.03527887142e-05
1.0352342855e-05
1.03518220862e-05
1.03518272765e-05
1.03523487073e-05
1.03527940577e-05
1.03538457542e-05
1.03585903147e-05
1.03656700434e-05
1.03729011873e-05
1.0383678754e-05
1.0407061211e-05
1.04639650046e-05
1.04698490277e-05
1.04107616961e-05
1.03869334532e-05
1.0376151142e-05
1.03693951355e-05
1.03656641341e-05
1.036431479e-05
1.03649269511e-05
1.03661630217e-05
1.03668062662e-05
1.03668082171e-05
1.03661647282e-05
1.03649235936e-05
1.03643141638e-05
1.03656680762e-05
1.03694023561e-05
1.03761544342e-05
1.03869383694e-05
1.04107631953e-05
1.04698518597e-05
1.04699573835e-05
1.04140904327e-05
1.03919547e-05
1.03819035499e-05
1.03761502058e-05
1.03728910316e-05
1.03721252167e-05
1.03729737772e-05
1.03747050909e-05
1.03755852321e-05
1.03755846402e-05
1.03747031976e-05
1.0372922722e-05
1.03721148886e-05
1.03728915846e-05
1.03761550085e-05
1.0381907755e-05
1.0391959634e-05
1.04140965746e-05
1.04699594136e-05
1.04692226453e-05
1.04187732598e-05
1.04002857799e-05
1.03919479373e-05
1.03869295795e-05
1.03836770917e-05
1.03826222315e-05
1.03834326731e-05
1.03844184097e-05
1.03849114809e-05
1.03849108372e-05
1.03844155356e-05
1.03834292343e-05
1.03826211083e-05
1.03836823289e-05
1.03869379128e-05
1.03919516451e-05
1.04002900737e-05
1.04187763551e-05
1.04692224843e-05
1.04705115081e-05
1.04308305882e-05
1.04187723427e-05
1.04140774599e-05
1.04107516923e-05
1.04070775861e-05
1.04056330065e-05
1.04067349886e-05
1.04075797399e-05
1.04079268193e-05
1.04079276592e-05
1.04075811895e-05
1.04067368813e-05
1.0405638073e-05
1.04070968081e-05
1.04107682057e-05
1.0414082803e-05
1.04187780415e-05
1.04308363157e-05
1.04705146524e-05
1.04861825339e-05
1.04705046247e-05
1.04692166476e-05
1.04699381652e-05
1.04697902156e-05
1.04639977844e-05
1.04616577202e-05
1.04653386812e-05
1.04664858377e-05
1.04668636772e-05
1.04668644104e-05
1.0466488912e-05
1.04653413845e-05
1.04616451907e-05
1.04640293866e-05
1.04698298645e-05
1.04699320366e-05
1.04692186826e-05
1.04705109164e-05
1.04861895112e-05
1.04723448287e-05
1.0434423212e-05
1.04222762163e-05
1.04179709832e-05
1.04146717344e-05
1.04092425634e-05
1.04079566091e-05
1.04108513431e-05
1.04122419828e-05
1.04127997651e-05
1.04127999387e-05
1.04122429756e-05
1.04108516134e-05
1.04079516387e-05
1.04092465488e-05
1.04146808392e-05
1.04179695249e-05
1.0422277359e-05
1.04344273376e-05
1.0472341623e-05
1.04344214299e-05
1.02536512469e-05
1.0168519565e-05
1.01306668823e-05
1.01120964986e-05
1.01029569764e-05
1.01002977005e-05
1.0101348085e-05
1.01028647448e-05
1.01037332368e-05
1.01037366011e-05
1.01028731219e-05
1.01013590155e-05
1.01003114453e-05
1.01029702479e-05
1.01121066878e-05
1.0130673378e-05
1.01685269393e-05
1.02536602516e-05
1.043442337e-05
1.04222848951e-05
1.01685242257e-05
1.004172213e-05
9.9810568502e-06
9.9501897478e-06
9.93537944805e-06
9.92996717122e-06
9.92946077006e-06
9.93045462728e-06
9.93122155946e-06
9.93122531813e-06
9.93046520994e-06
9.92947600808e-06
9.92998363816e-06
9.93539163331e-06
9.95019785418e-06
9.98106215969e-06
1.00417280003e-05
1.01685295638e-05
1.04222880732e-05
1.04179839365e-05
1.01306817186e-05
9.9810721403e-06
9.90686413818e-06
9.86812753162e-06
9.84924768553e-06
9.8424701205e-06
9.8411325594e-06
9.84187064969e-06
9.84260895701e-06
9.84261378454e-06
9.8418835174e-06
9.84112669811e-06
9.84248828507e-06
9.84925742701e-06
9.86813497087e-06
9.90686925799e-06
9.98107725053e-06
1.01306864917e-05
1.04179873963e-05
1.04146138549e-05
1.01121182455e-05
9.95022238632e-06
9.8681460706e-06
9.82334285438e-06
9.80559318511e-06
9.79763953141e-06
9.79630597883e-06
9.79727245649e-06
9.79814240676e-06
9.79814881224e-06
9.79728961595e-06
9.7963278817e-06
9.79766347684e-06
9.80561595531e-06
9.82331142382e-06
9.86815598082e-06
9.95023181382e-06
1.01121225151e-05
1.04145968574e-05
1.04092110957e-05
1.01029975146e-05
9.93542737647e-06
9.8492811975e-06
9.80559080694e-06
9.78465907282e-06
9.77801184533e-06
9.77810704126e-06
9.77984156123e-06
9.78099016529e-06
9.78099637104e-06
9.77985975537e-06
9.77813639431e-06
9.77804244533e-06
9.78469007865e-06
9.80562085922e-06
9.84930072863e-06
9.93544633028e-06
1.01030071491e-05
1.04091921516e-05
1.04080061244e-05
1.01003544603e-05
9.93001588928e-06
9.84247830995e-06
9.79761698585e-06
9.77797321751e-06
9.77353591599e-06
9.77530743404e-06
9.77883447732e-06
9.78200040916e-06
9.78199731929e-06
9.77882531055e-06
9.77533393426e-06
9.7735655267e-06
9.77800919465e-06
9.79765613768e-06
9.84251739767e-06
9.93004552517e-06
1.01003751336e-05
1.04080068616e-05
1.04108761958e-05
1.01014013729e-05
9.92949586774e-06
9.84121067706e-06
9.79624546739e-06
9.77802324068e-06
9.77525820278e-06
9.78364257065e-06
9.78998291431e-06
9.79292564902e-06
9.79293469522e-06
9.79000064052e-06
9.78365786953e-06
9.77528415616e-06
9.77805741718e-06
9.79628454454e-06
9.84126466046e-06
9.92953079149e-06
1.01014271731e-05
1.04108771448e-05
1.04122571796e-05
1.0102910924e-05
9.93047617978e-06
9.84182838321e-06
9.79719537854e-06
9.77973705157e-06
9.77893464543e-06
9.7900303375e-06
9.79682239156e-06
9.80006458915e-06
9.80007573404e-06
9.79684267143e-06
9.79005347713e-06
9.77895674746e-06
9.77976495499e-06
9.79722816426e-06
9.84186237005e-06
9.93050844166e-06
1.01029368078e-05
1.04122596239e-05
1.04128086777e-05
1.01037707717e-05
9.93123264872e-06
9.84256535469e-06
9.79806103186e-06
9.78087153545e-06
9.78197199942e-06
9.79293148923e-06
9.80007074351e-06
9.8034949695e-06
9.80350048951e-06
9.80008397004e-06
9.79294601039e-06
9.7819920397e-06
9.78088595219e-06
9.7980851608e-06
9.84259046461e-06
9.93125863752e-06
1.01037936987e-05
1.04128118623e-05
1.04127999791e-05
1.01037597821e-05
9.93122864362e-06
9.8425656322e-06
9.7980580038e-06
9.78086798572e-06
9.78191692682e-06
9.79289705322e-06
9.80003399265e-06
9.8034649825e-06
9.80346332243e-06
9.80003537566e-06
9.79289680608e-06
9.78192569062e-06
9.78087086487e-06
9.79807155261e-06
9.84258013531e-06
9.93124743652e-06
1.01037787825e-05
1.04128024013e-05
1.04122291582e-05
1.01028781511e-05
9.93046135266e-06
9.84182622606e-06
9.7971871382e-06
9.77972363749e-06
9.77870522637e-06
9.78990901864e-06
9.79670841318e-06
9.79995772469e-06
9.79995606099e-06
9.79670085972e-06
9.78990026121e-06
9.77871218438e-06
9.77971770903e-06
9.79719010111e-06
9.84183072643e-06
9.93047483698e-06
1.01028925149e-05
1.04122305274e-05
1.04108237161e-05
1.01013478483e-05
9.92946693367e-06
9.84127924418e-06
9.79622697853e-06
9.77799147169e-06
9.77520333237e-06
9.78338367431e-06
9.78977457427e-06
9.79271370605e-06
9.79271170884e-06
9.78976720534e-06
9.78337540298e-06
9.77519258495e-06
9.77797941539e-06
9.7962240459e-06
9.84129367696e-06
9.92947845359e-06
1.01013598255e-05
1.04108241742e-05
1.04079170677e-05
1.01002856641e-05
9.9299642405e-06
9.84245799933e-06
9.79758355601e-06
9.77791829675e-06
9.77345053085e-06
9.77518900432e-06
9.77825646842e-06
9.78149968598e-06
9.78149507499e-06
9.77825045986e-06
9.77518496738e-06
9.77344049839e-06
9.77790516787e-06
9.79758302762e-06
9.8424601202e-06
9.92997888513e-06
1.01002983544e-05
1.04079199917e-05
1.04092144727e-05
1.01029176818e-05
9.93535369825e-06
9.84920926899e-06
9.80552857574e-06
9.78458668002e-06
9.77790147026e-06
9.77796040134e-06
9.77967313605e-06
9.78080600152e-06
9.7808056859e-06
9.77967033801e-06
9.77795643568e-06
9.77789380196e-06
9.7845813787e-06
9.80552880071e-06
9.84922306888e-06
9.93537138464e-06
1.01029310687e-05
1.04092183866e-05
1.0414658981e-05
1.0112028933e-05
9.95013334164e-06
9.86805695334e-06
9.82318344994e-06
9.8055065622e-06
9.79753959877e-06
9.79617229399e-06
9.79711787474e-06
9.79797630066e-06
9.79797733238e-06
9.79711796642e-06
9.79616864318e-06
9.79753370424e-06
9.80550386846e-06
9.82319247255e-06
9.86807075056e-06
9.95015034257e-06
1.01120392009e-05
1.04146599897e-05
1.04179557731e-05
1.01305871619e-05
9.98097926647e-06
9.90677397634e-06
9.86804089752e-06
9.84915393768e-06
9.84235051315e-06
9.84089072934e-06
9.8417368493e-06
9.84246503372e-06
9.84246403137e-06
9.84173352441e-06
9.84084369746e-06
9.8423336123e-06
9.84914199834e-06
9.86804365556e-06
9.90678529703e-06
9.98099181834e-06
1.01305942556e-05
1.0417958359e-05
1.04222587732e-05
1.01684390645e-05
1.00416367032e-05
9.98097542398e-06
9.95011436475e-06
9.93531530387e-06
9.9298999039e-06
9.92938096514e-06
9.93035720576e-06
9.93111258863e-06
9.9311097909e-06
9.93034875483e-06
9.92936728079e-06
9.92988440624e-06
9.93530750063e-06
9.95011721573e-06
9.98098290841e-06
1.00416443456e-05
1.01684437893e-05
1.0422258442e-05
1.04344040472e-05
1.02535874966e-05
1.01684506209e-05
1.01305911975e-05
1.01120274302e-05
1.01029051722e-05
1.01002539146e-05
1.01012908103e-05
1.01027970823e-05
1.01036574031e-05
1.01036543933e-05
1.01027887849e-05
1.01012777826e-05
1.01002405808e-05
1.01029035952e-05
1.01120354332e-05
1.01305987314e-05
1.01684572452e-05
1.0253592583e-05
1.04344049173e-05
1.04723372565e-05
1.04344111625e-05
1.04222541716e-05
1.04179420438e-05
1.04146444097e-05
1.04092394717e-05
1.04079593908e-05
1.0410844393e-05
1.04122301574e-05
1.0412787239e-05
1.0412786223e-05
1.04122268773e-05
1.0410839793e-05
1.04079444001e-05
1.04092632978e-05
1.04146791976e-05
1.04179392432e-05
1.04222530992e-05
1.04344132315e-05
1.04723420887e-05
1.04708546203e-05
1.04237935549e-05
1.04060919763e-05
1.03989666173e-05
1.03933343353e-05
1.03878433113e-05
1.03872126085e-05
1.03893742626e-05
1.0390568212e-05
1.03910471664e-05
1.03910466705e-05
1.03905666982e-05
1.03893691944e-05
1.03872009149e-05
1.03878472944e-05
1.03933436744e-05
1.0398960089e-05
1.04060896698e-05
1.04237932781e-05
1.04708424046e-05
1.04238003196e-05
1.01760351025e-05
1.00522787244e-05
9.99394998497e-06
9.96460299795e-06
9.95060574626e-06
9.94580216809e-06
9.94577117815e-06
9.94701366327e-06
9.94787900669e-06
9.94788140359e-06
9.94701988099e-06
9.94577989075e-06
9.94581107119e-06
9.95061286772e-06
9.96460725908e-06
9.99394998443e-06
1.00522814461e-05
1.01760410036e-05
1.04237995545e-05
1.04061109202e-05
1.00522949004e-05
9.86180944392e-06
9.76516484761e-06
9.71434469219e-06
9.68931298577e-06
9.67894659191e-06
9.67610980894e-06
9.67620474266e-06
9.67671953147e-06
9.67672439292e-06
9.67621928432e-06
9.67613117169e-06
9.67896782988e-06
9.68932438075e-06
9.7143521482e-06
9.7651682755e-06
9.86181324868e-06
1.00522983948e-05
1.0406113218e-05
1.03989724309e-05
9.99398660375e-06
9.76519305733e-06
9.64434748417e-06
9.57796178728e-06
9.5448893122e-06
9.53495030373e-06
9.53110027046e-06
9.53052528323e-06
9.53081856059e-06
9.53082318612e-06
9.53053956805e-06
9.53112426501e-06
9.53499595193e-06
9.54491945238e-06
9.57796602044e-06
9.64436015982e-06
9.76520255353e-06
9.99399032294e-06
1.03989710947e-05
1.03933131886e-05
9.96467123286e-06
9.71440364549e-06
9.57799194077e-06
9.50441043182e-06
9.47313771063e-06
9.45860306154e-06
9.45532575038e-06
9.45544459883e-06
9.4560235085e-06
9.45602991308e-06
9.45546469003e-06
9.45535403306e-06
9.45863370623e-06
9.47316312951e-06
9.50441078572e-06
9.57801263883e-06
9.71442375366e-06
9.96468098532e-06
1.0393299791e-05
1.03878560011e-05
9.95070274216e-06
9.68938592768e-06
9.54491616756e-06
9.47315081413e-06
9.43801816459e-06
9.42798027614e-06
9.42816669087e-06
9.4298583461e-06
9.43081154272e-06
9.43080056492e-06
9.42985891645e-06
9.42820435361e-06
9.42800286037e-06
9.43805643986e-06
9.47318639684e-06
9.54496173231e-06
9.6894184898e-06
9.95072510264e-06
1.03878431786e-05
1.03872859009e-05
9.94591390142e-06
9.67901694846e-06
9.53492736423e-06
9.45857756484e-06
9.42794346419e-06
9.42381704253e-06
9.42816147255e-06
9.43137312871e-06
9.4329172721e-06
9.4329160654e-06
9.43140327801e-06
9.42815500154e-06
9.42382436e-06
9.42798223645e-06
9.45862734827e-06
9.53499869623e-06
9.67906338653e-06
9.94594763405e-06
1.03872844514e-05
1.03894326143e-05
9.94588251217e-06
9.67616290557e-06
9.53108862573e-06
9.45525413605e-06
9.42808572107e-06
9.42789526229e-06
9.43453185587e-06
9.4389681361e-06
9.44130892995e-06
9.44134356554e-06
9.43899454606e-06
9.43456034918e-06
9.42790460985e-06
9.42813611723e-06
9.45530275857e-06
9.53114317338e-06
9.67621321263e-06
9.94592113595e-06
1.03894355297e-05
1.03906197024e-05
9.94711972905e-06
9.67623869145e-06
9.53051316169e-06
9.45534936323e-06
9.42974666803e-06
9.43108445882e-06
9.4390271665e-06
9.44483342935e-06
9.44760584005e-06
9.44768841665e-06
9.44489338602e-06
9.43907408944e-06
9.43108913523e-06
9.42979316808e-06
9.45538771126e-06
9.53055742329e-06
9.67628352441e-06
9.94715835155e-06
1.03906259336e-05
1.03910937916e-05
9.94797472305e-06
9.67673419657e-06
9.53080484795e-06
9.45591770835e-06
9.43062984226e-06
9.43266832822e-06
9.44138667486e-06
9.44780196062e-06
9.45077747154e-06
9.4507492717e-06
9.44784912609e-06
9.4414552009e-06
9.43270044847e-06
9.43064407848e-06
9.45594405066e-06
9.5308379503e-06
9.67677142301e-06
9.9480100209e-06
1.03911005029e-05
1.03910839782e-05
9.94795912327e-06
9.67672726095e-06
9.53080356223e-06
9.45591401202e-06
9.43063144746e-06
9.43264579792e-06
9.44132697985e-06
9.44771052009e-06
9.45071598209e-06
9.45069120705e-06
9.44773229967e-06
9.44136493537e-06
9.43265428098e-06
9.43063116518e-06
9.45592656207e-06
9.53082504154e-06
9.67675505207e-06
9.94798839801e-06
1.03910898651e-05
1.03905904372e-05
9.94707191661e-06
9.67621588193e-06
9.53050671146e-06
9.45533792458e-06
9.42973227516e-06
9.43099811504e-06
9.43887659907e-06
9.4446107184e-06
9.44752023664e-06
9.44753062338e-06
9.44459166825e-06
9.43887876692e-06
9.43096566208e-06
9.42972939587e-06
9.45533587807e-06
9.53051656648e-06
9.67623666347e-06
9.94709589525e-06
1.03905948139e-05
1.03893805566e-05
9.94580637242e-06
9.67612186114e-06
9.53107497269e-06
9.45522487899e-06
9.42804491207e-06
9.42778987711e-06
9.43431491358e-06
9.43877109133e-06
9.44111571732e-06
9.44112160402e-06
9.43875972254e-06
9.43429739057e-06
9.42779310431e-06
9.42802971059e-06
9.45521418838e-06
9.53107520544e-06
9.67613876366e-06
9.94582523514e-06
1.03893846919e-05
1.03872104726e-05
9.94580996858e-06
9.67894194827e-06
9.5349375946e-06
9.45852646588e-06
9.427862046e-06
9.42367399255e-06
9.42790817443e-06
9.43109011664e-06
9.43264469336e-06
9.4326423779e-06
9.43112785275e-06
9.42793266113e-06
9.42367134405e-06
9.42783043737e-06
9.45851776108e-06
9.53492417867e-06
9.67895915437e-06
9.94582835939e-06
1.03872177906e-05
1.0387831628e-05
9.9505729442e-06
9.68927079961e-06
9.54484828227e-06
9.47307499299e-06
9.437906573e-06
9.42782261623e-06
9.4279608383e-06
9.4296172353e-06
9.43054741405e-06
9.43052777847e-06
9.4295978098e-06
9.42795918626e-06
9.42781000839e-06
9.43789393104e-06
9.47307647519e-06
9.54485496365e-06
9.68929139381e-06
9.95059174464e-06
1.03878364246e-05
1.03933096986e-05
9.96452194865e-06
9.7142707297e-06
9.57785472555e-06
9.50427032049e-06
9.4730375353e-06
9.45844753869e-06
9.45511882441e-06
9.45521248724e-06
9.4557784497e-06
9.45577958344e-06
9.45521272336e-06
9.45511468683e-06
9.45843783685e-06
9.47303148741e-06
9.50427352764e-06
9.57785209093e-06
9.71429259768e-06
9.96453835687e-06
1.03933087681e-05
1.03989324295e-05
9.99383455795e-06
9.76504642052e-06
9.64420445451e-06
9.57781553653e-06
9.54476607226e-06
9.53482657109e-06
9.53094948008e-06
9.53035462695e-06
9.53063830628e-06
9.5306359001e-06
9.53034898355e-06
9.5309413912e-06
9.53482092675e-06
9.54475353128e-06
9.57778288333e-06
9.64420801814e-06
9.76506275768e-06
9.99384436389e-06
1.03989321134e-05
1.04060760976e-05
1.00521552558e-05
9.86166815673e-06
9.7650293535e-06
9.71422327614e-06
9.68918772729e-06
9.67882151906e-06
9.67596553671e-06
9.67603809069e-06
9.67653656924e-06
9.67653518359e-06
9.67603012648e-06
9.67594969278e-06
9.67879614374e-06
9.68916605193e-06
9.71421462748e-06
9.76503288431e-06
9.86167441633e-06
1.00521597179e-05
1.0406075647e-05
1.04237744377e-05
1.01759285369e-05
1.00521572398e-05
9.99382236403e-06
9.96448059462e-06
9.95049918778e-06
9.94569748776e-06
9.94565445741e-06
9.9468811874e-06
9.94773547165e-06
9.94772886588e-06
9.94686161213e-06
9.94562512711e-06
9.94566357113e-06
9.95047412135e-06
9.96447088633e-06
9.99382068102e-06
1.00521574502e-05
1.01759303182e-05
1.04237714821e-05
1.04708345782e-05
1.04237706094e-05
1.04060565342e-05
1.03989181627e-05
1.03932979916e-05
1.03878267568e-05
1.03872014795e-05
1.03893524472e-05
1.03905425356e-05
1.03910166806e-05
1.03910123362e-05
1.03905342696e-05
1.03893378861e-05
1.03871784283e-05
1.03878375452e-05
1.03933212278e-05
1.03989136008e-05
1.0406050904e-05
1.04237663745e-05
1.04708282471e-05
1.04691806822e-05
1.04181019457e-05
1.03976747016e-05
1.03886521154e-05
1.03808303445e-05
1.03738835767e-05
1.03713691382e-05
1.0370646212e-05
1.03701728041e-05
1.03703820557e-05
1.03703829129e-05
1.03701745056e-05
1.03705902248e-05
1.03713018184e-05
1.03738409201e-05
1.03808174787e-05
1.03886444695e-05
1.03976755858e-05
1.0418095962e-05
1.04691583878e-05
1.04181324375e-05
1.01407776946e-05
9.99720820693e-06
9.92685243476e-06
9.88981240361e-06
9.87061238736e-06
9.86171082048e-06
9.85841322693e-06
9.85779471671e-06
9.85832510163e-06
9.85832799563e-06
9.85780367946e-06
9.8583749876e-06
9.86166892022e-06
9.87057981876e-06
9.8897958846e-06
9.92684404626e-06
9.99720673106e-06
1.01407725848e-05
1.04181304507e-05
1.03977235454e-05
9.99723418663e-06
9.77209385219e-06
9.65362025777e-06
9.58955886756e-06
9.55737020889e-06
9.54343694579e-06
9.53851463887e-06
9.53676685607e-06
9.53580322459e-06
9.53579927448e-06
9.5367746602e-06
9.53853208406e-06
9.54345572822e-06
9.5573706366e-06
9.58956166834e-06
9.65362187715e-06
9.77209655838e-06
9.99723885776e-06
1.03977241516e-05
1.03886763612e-05
9.92691282253e-06
9.65365410614e-06
9.50282515649e-06
9.42421136145e-06
9.38343071751e-06
9.36922501066e-06
9.36438287444e-06
9.36317133623e-06
9.36298957507e-06
9.36298783731e-06
9.36317086818e-06
9.36438185525e-06
9.36923470238e-06
9.38345734221e-06
9.42422928164e-06
9.50282803055e-06
9.65366611579e-06
9.92691378243e-06
1.03886742864e-05
1.03808578725e-05
9.88991701175e-06
9.58962404304e-06
9.42424291723e-06
9.33486468929e-06
9.29586210461e-06
9.28471784723e-06
9.28418607268e-06
9.2843180022e-06
9.28438197442e-06
9.28439103155e-06
9.28433965417e-06
9.28420262906e-06
9.28473623812e-06
9.2958651096e-06
9.33488801392e-06
9.42426683112e-06
9.58964422873e-06
9.88991763795e-06
1.03808337335e-05
1.03739900771e-05
9.87078213345e-06
9.55744019205e-06
9.38347523731e-06
9.29590304279e-06
9.2634677817e-06
9.25890127493e-06
9.26027422571e-06
9.26165071903e-06
9.26223050085e-06
9.26222754992e-06
9.261670575e-06
9.26031364694e-06
9.25892903971e-06
9.26350803308e-06
9.29593373455e-06
9.38351996876e-06
9.55746433192e-06
9.87078428135e-06
1.03739521567e-05
1.03715493269e-05
9.86194340245e-06
9.54352298282e-06
9.3692990323e-06
9.28472588963e-06
9.25894545612e-06
9.25636100129e-06
9.26404661092e-06
9.27106466815e-06
9.27744180889e-06
9.27747914188e-06
9.27103760105e-06
9.26414173753e-06
9.25650110919e-06
9.25898783098e-06
9.28478040895e-06
9.36935668511e-06
9.54356419502e-06
9.861955577e-06
1.03715182717e-05
1.03708825339e-05
9.85870047212e-06
9.5386048414e-06
9.36444370647e-06
9.28404855772e-06
9.26018473796e-06
9.26624430466e-06
9.28316471798e-06
9.29352148822e-06
9.29631404571e-06
9.29626950156e-06
9.2934849385e-06
9.28341387704e-06
9.26652444299e-06
9.26025684205e-06
9.28409035281e-06
9.36450231848e-06
9.5386570148e-06
9.85872986009e-06
1.0370871653e-05
1.0370176828e-05
9.85787187087e-06
9.53685331422e-06
9.3632094079e-06
9.28413445788e-06
9.26155575675e-06
9.27353593423e-06
9.29372232925e-06
9.29627357453e-06
9.29699446938e-06
9.29719804846e-06
9.29667003181e-06
9.29379424353e-06
9.27372041533e-06
9.261613948e-06
9.28417278894e-06
9.36326317079e-06
9.53691108658e-06
9.85791020323e-06
1.03701803288e-05
1.03703821806e-05
9.85839112374e-06
9.53581836327e-06
9.36304724969e-06
9.28423098566e-06
9.26207758206e-06
9.27828830765e-06
9.29597113025e-06
9.29661812578e-06
9.29922678677e-06
9.29915199471e-06
9.29673799954e-06
9.29609451394e-06
9.27840675586e-06
9.26210294729e-06
9.28426643467e-06
9.36308861576e-06
9.53589623599e-06
9.85842201887e-06
1.03703843061e-05
1.03703842291e-05
9.85838376786e-06
9.53579016482e-06
9.36305493008e-06
9.28420174771e-06
9.26204106301e-06
9.27827851702e-06
9.29599693166e-06
9.29726290385e-06
9.29948688319e-06
9.29959520022e-06
9.29708550154e-06
9.29595835468e-06
9.2783778245e-06
9.26205279768e-06
9.28422092088e-06
9.36308686165e-06
9.53587055594e-06
9.85840600722e-06
1.03703831523e-05
1.03701768773e-05
9.85784801782e-06
9.53681276302e-06
9.36323795141e-06
9.28409034734e-06
9.26143074423e-06
9.27335242992e-06
9.29332849041e-06
9.29652094836e-06
9.29693227367e-06
9.29710403341e-06
9.29660333553e-06
9.29336626235e-06
9.27350944981e-06
9.26143303246e-06
9.28408613113e-06
9.36325857884e-06
9.53687372622e-06
9.85786300782e-06
1.03701745708e-05
1.03707138555e-05
9.85850997106e-06
9.53856165985e-06
9.36446075942e-06
9.28397813465e-06
9.26000932657e-06
9.26569402996e-06
9.28294039061e-06
9.29286602693e-06
9.29548813398e-06
9.29551174334e-06
9.29288407004e-06
9.28301121913e-06
9.26574589812e-06
9.2600112734e-06
9.28395896154e-06
9.36446941431e-06
9.53859595232e-06
9.8585457357e-06
1.03707408662e-05
1.0371372099e-05
9.86172928212e-06
9.54344514773e-06
9.36931719119e-06
9.28464065619e-06
9.25872629599e-06
9.25577820238e-06
9.26395608024e-06
9.271089604e-06
9.27702562559e-06
9.27701184793e-06
9.27105936576e-06
9.26398250253e-06
9.2557974955e-06
9.25870763958e-06
9.28462742317e-06
9.36931546713e-06
9.54346855819e-06
9.86175386623e-06
1.0371392816e-05
1.03738765331e-05
9.87057508372e-06
9.55730267354e-06
9.38339039476e-06
9.2958437429e-06
9.26327210158e-06
9.25859522777e-06
9.25985886053e-06
9.26122289517e-06
9.26179818117e-06
9.26180184558e-06
9.26124534858e-06
9.25989183067e-06
9.25861130307e-06
9.26326104971e-06
9.29584295744e-06
9.38339863372e-06
9.55731398765e-06
9.87058975502e-06
1.0373882601e-05
1.03808077889e-05
9.88973214476e-06
9.58947321893e-06
9.42413137639e-06
9.3348705102e-06
9.29577912722e-06
9.28450224816e-06
9.28384769021e-06
9.28394766197e-06
9.28400794747e-06
9.28402719102e-06
9.28396281797e-06
9.28386719401e-06
9.28450019367e-06
9.29576771055e-06
9.33486942757e-06
9.42419618629e-06
9.58949000922e-06
9.88974188428e-06
1.03807973806e-05
1.03886387069e-05
9.9267406296e-06
9.65348750514e-06
9.50263369334e-06
9.42409497669e-06
9.38330200864e-06
9.36914918476e-06
9.36425050791e-06
9.3630047499e-06
9.36281771529e-06
9.36282591876e-06
9.3630000649e-06
9.3642373089e-06
9.36913256227e-06
9.38328908125e-06
9.42413815312e-06
9.50259447373e-06
9.65349890688e-06
9.92674678191e-06
1.03886294739e-05
1.03976935375e-05
9.99707921675e-06
9.77192290203e-06
9.6534569253e-06
9.58939845979e-06
9.55719274683e-06
9.5432954496e-06
9.53836795911e-06
9.53662059648e-06
9.53562719946e-06
9.53564630464e-06
9.53663384984e-06
9.53836885913e-06
9.54327566328e-06
9.55716675865e-06
9.58938102092e-06
9.65345069518e-06
9.77192665286e-06
9.99708106304e-06
1.03976922796e-05
1.04181045299e-05
1.01406540883e-05
9.99706350007e-06
9.92670371449e-06
9.88966881589e-06
9.87046890917e-06
9.8615672518e-06
9.85825553003e-06
9.85763032071e-06
9.85814512465e-06
9.85814011894e-06
9.8576143363e-06
9.85817609367e-06
9.86148815884e-06
9.87040891539e-06
9.88963504786e-06
9.9266897705e-06
9.99706002974e-06
1.0140648718e-05
1.04181020818e-05
1.04691173134e-05
1.04180727899e-05
1.03976453565e-05
1.03886186022e-05
1.03807969508e-05
1.0373859484e-05
1.03713520994e-05
1.03706294385e-05
1.03701611531e-05
1.0370366779e-05
1.03703674985e-05
1.03701614883e-05
1.03705683699e-05
1.03712933538e-05
1.03738373655e-05
1.03807968052e-05
1.03886110446e-05
1.03976382244e-05
1.04180681556e-05
1.04691249986e-05
1.04633534401e-05
1.04127916689e-05
1.03911656416e-05
1.03773274039e-05
1.03697561451e-05
1.03645989534e-05
1.03635397028e-05
1.03639168465e-05
1.03642599241e-05
1.03642711712e-05
1.03642719109e-05
1.03642593845e-05
1.03639139437e-05
1.03635339154e-05
1.03645944853e-05
1.036976198e-05
1.03773355845e-05
1.03911647462e-05
1.04127717773e-05
1.04633417859e-05
1.04128089263e-05
1.01206286657e-05
9.96559391616e-06
9.88495327413e-06
9.84377807254e-06
9.82281105869e-06
9.81352675335e-06
9.81040898492e-06
9.80975314161e-06