/*--------------------------------*- C++ -*----------------------------------*\
| =========                 |                                                 |
| \\      /  F ield         | OpenFOAM: The Open Source CFD Toolbox           |
|  \\    /   O peration     | Version:  3.0.1                                 |
|   \\  /    A nd           | Web:      www.OpenFOAM.org                      |
|    \\/     M anipulation  |                                                 |
\*---------------------------------------------------------------------------*/
FoamFile
{
    version     2.0;
    format      ascii;
    class       surfaceVectorField;
    location    "0.8";
    object      Uf;
}
// * * * * * * * * * * * * * * * * * * * * * * * * * * * * * * * * * * * * * //

dimensions      [0 1 -1 0 0 0 0];

internalField   nonuniform List<vector> 
45932
(
(0.0008085333996 0.000171097921628 -0.00037946790512)
(0.000406152764338 0.000309467984822 -0.000443762170624)
(0.00044798920628 0.000203777514072 -0.000713753565511)
(0.00148014881987 0.000271033624274 -0.000377527209209)
(0.00126125294204 0.000400503317826 -0.000503700123446)
(0.00125768075363 0.0002889032052 -0.000736331789341)
(0.00155581941128 0.000451524873331 -0.000379925085881)
(0.00174106163721 0.000730284946262 -0.000532619740689)
(0.00170558150362 0.000512454487153 -0.000768130616921)
(0.000967076085528 0.000598485503206 -0.000386322577883)
(0.00142466824998 0.00109907641138 -0.00055723587316)
(0.00139164644626 0.000755774877101 -0.000804691397273)
(5.48609191318e-05 0.000649996356463 -0.000382321043041)
(0.00056867865401 0.00128751993349 -0.000576004912698)
(0.000558507379457 0.000878943198417 -0.000831371542919)
(-0.000921052212342 0.000603099142761 -0.000356431876352)
(-0.000456226604396 0.0012917615644 -0.000558344949571)
(-0.000440549871436 0.000880422506131 -0.00080374817981)
(-0.00168753309255 0.0004587539617 -0.000315470468655)
(-0.00143133574636 0.00110674197199 -0.000504590958671)
(-0.00139174588734 0.00075716196556 -0.000723450548284)
(-0.00193463537115 0.000265497357781 -0.000268179146295)
(-0.00199177079229 0.000739764626032 -0.000432223817605)
(-0.00194203640838 0.000513500767159 -0.000616187921757)
(-0.00166904283567 0.000109961105983 -0.000215245261064)
(-0.00192045904792 0.00036479702669 -0.000348999686515)
(-0.00188136154031 0.000262581695103 -0.00049759731646)
(-0.00119712330887 2.52610565223e-05 -0.000160322409478)
(-0.00146248860093 0.000136485022684 -0.000258019152421)
(-0.00144008236412 0.000106803586256 -0.000372465917749)
(-0.000733818120742 -1.03680355593e-05 -0.000113697969163)
(-0.000950270358831 3.07787909057e-05 -0.00017817478134)
(-0.000939587257307 3.08380720527e-05 -0.000262452957673)
(-0.000347935758042 -2.12089935881e-05 -7.78791530791e-05)
(-0.000508204091826 -1.15586863705e-05 -0.000120697765592)
(-0.000503767449234 -1.71814872768e-06 -0.000181396451461)
(-5.29005824343e-05 -2.17582630826e-05 -5.09416221957e-05)
(-0.000166011409469 -2.62243654599e-05 -7.96627869802e-05)
(-0.000164315509742 -1.3412564942e-05 -0.000121301443997)
(0.000160126203711 -1.93789988877e-05 -3.13604094824e-05)
(8.00173102616e-05 -2.68598595346e-05 -5.07534073194e-05)
(8.13309633827e-05 -1.59687410221e-05 -7.96606175574e-05)
(0.000303087961513 -1.70359992705e-05 -1.63852586676e-05)
(0.000249886837511 -2.36643093967e-05 -2.93890526943e-05)
(0.000251978386464 -1.60136603716e-05 -4.78242289263e-05)
(0.000390765392494 -1.52070565368e-05 -4.91338638589e-06)
(0.000359803282221 -2.05664699513e-05 -1.39085749665e-05)
(0.000362181797629 -1.5296680982e-05 -2.32793325725e-05)
(0.000435679767222 -1.39947366889e-05 4.03329843351e-06)
(0.00042223614094 -1.84571533922e-05 -2.59636239225e-06)
(0.000424734237942 -1.45681801798e-05 -4.00499367491e-06)
(0.000449486141183 -1.3356314612e-05 1.08182780512e-05)
(0.000448873398851 -1.70406002904e-05 5.97047165945e-06)
(0.000451260504199 -1.41073338715e-05 1.01351866332e-05)
(0.000441090281814 -1.3153385723e-05 1.55613747509e-05)
(0.000449699895106 -1.64442154765e-05 1.19025014246e-05)
(0.000451707949559 -1.38928742861e-05 2.06424930012e-05)
(0.000417896059911 -1.32089220657e-05 1.87046081738e-05)
(0.00043263333451 -1.63099992596e-05 1.58128997748e-05)
(0.000434218577871 -1.38574138203e-05 2.79096736085e-05)
(0.000385690445276 -1.34144271824e-05 2.06059545813e-05)
(0.000404051933991 -1.64664668742e-05 1.81817924921e-05)
(0.000405231345492 -1.39410326129e-05 3.25737078885e-05)
(0.000348821596989 -1.369404115e-05 2.15780329506e-05)
(0.000368891381555 -1.67879949055e-05 1.94049158368e-05)
(0.000369713551978 -1.40904591657e-05 3.52283285025e-05)
(0.000310412061725 -1.39988594969e-05 2.18857721654e-05)
(0.000330800348246 -1.7187018445e-05 1.98122157405e-05)
(0.000331331860271 -1.42682241874e-05 3.63986776438e-05)
(0.000272580526581 -1.43007663063e-05 2.17441436967e-05)
(0.00029234416602 -1.76099699115e-05 1.96676299378e-05)
(0.000292653303335 -1.44524964722e-05 3.65330818666e-05)
(0.000236676541289 -1.45845341288e-05 2.1317202533e-05)
(0.000255221473931 -1.80261122605e-05 1.91727933853e-05)
(0.000255369087689 -1.46322998447e-05 3.59854442666e-05)
(0.000203490438149 -1.48418589809e-05 2.07230590077e-05)
(0.000220480843444 -1.84168047316e-05 1.84739619724e-05)
(0.000220514323797 -1.47993023973e-05 3.50168707131e-05)
(0.000173417771253 -1.50683075879e-05 2.00428602716e-05)
(0.000188699223981 -1.87707714422e-05 1.76724071613e-05)
(0.000188653626384 -1.49493118111e-05 3.38136155707e-05)
(0.000146593217563 -1.52621630852e-05 1.93300176506e-05)
(0.000160129104142 -1.90817259563e-05 1.68352397189e-05)
(0.000160029997269 -1.50793454088e-05 3.24999364585e-05)
(0.000122986022356 -1.54245653512e-05 1.86161156682e-05)
(0.000134810784729 -1.93461974992e-05 1.60032692885e-05)
(0.000134676548855 -1.51867699689e-05 3.11551412776e-05)
(0.000102483343258 -1.5559430345e-05 1.79176580434e-05)
(0.000112661009945 -1.95671298238e-05 1.51964566164e-05)
(0.000112505571828 -1.52736998062e-05 2.98232484726e-05)
(8.49392787682e-05 -1.56715805635e-05 1.72420381747e-05)
(9.35446257102e-05 -1.97502822872e-05 1.44227102291e-05)
(9.33799165799e-05 -1.53424144718e-05 2.8526559477e-05)
(7.01969824232e-05 -1.57689910557e-05 1.65905446105e-05)
(7.7301113321e-05 -1.9902964133e-05 1.36822546661e-05)
(7.71384304008e-05 -1.539562106e-05 2.72778600604e-05)
(5.81296813805e-05 -1.58551190497e-05 1.59723209454e-05)
(6.37920356587e-05 -2.00406961924e-05 1.29687753219e-05)
(6.36447871428e-05 -1.54426490908e-05 2.60776363011e-05)
(4.85223423064e-05 -1.59497795083e-05 1.53534548126e-05)
(5.27960774599e-05 -2.01569806909e-05 1.23011604693e-05)
(5.26704203745e-05 -1.54729387812e-05 2.49635264578e-05)
(4.15704673349e-05 -1.60213726052e-05 1.48270150108e-05)
(4.44557170807e-05 -2.03032046841e-05 1.15694143898e-05)
(4.43816794431e-05 -1.55312108989e-05 2.3781664009e-05)
(3.62040737407e-05 -1.6085633967e-05 1.41631097992e-05)
(3.78712670882e-05 -2.03569974171e-05 1.10954907223e-05)
(3.7806780367e-05 -1.55022718917e-05 2.3042440776e-05)
(3.41405664587e-05 -1.59866920989e-05 1.38103091029e-05)
(3.4603567633e-05 -2.04233142531e-05 1.00358382627e-05)
(3.45920426117e-05 -1.5482649852e-05 2.14571282219e-05)
(3.06413522716e-05 -1.57206746875e-05 1.39257324288e-05)
(3.13031135861e-05 -2.00905892515e-05 1.02531947477e-05)
(3.12565933255e-05 -1.51977490629e-05 2.18421363127e-05)
(2.58409890136e-05 -1.56012956718e-05 1.70668417769e-05)
(2.98396679242e-05 -1.9632701103e-05 1.02332212732e-05)
(2.95038339265e-05 -1.49498891388e-05 2.20347254621e-05)
(1.99936705469e-05 -1.94405657052e-05 1.64232021933e-05)
(2.11169594413e-05 -1.55542868074e-05 3.23626520474e-05)
(0.00083204361282 0.000593596722045 -0.00056799438895)
(0.000427129329498 0.00074387356107 -0.00051714191017)
(0.000454600714589 0.000570230946053 -0.000850447691256)
(0.00161878167878 0.00094309074281 -0.000658792654926)
(0.00143825575875 0.00103485899946 -0.000676228399154)
(0.00136904335289 0.000825945187892 -0.00102774394998)
(0.0017173010115 0.00149473903249 -0.000709930527968)
(0.00201553352701 0.00179840215349 -0.000717084281035)
(0.001869122846 0.00142966547551 -0.00111738015549)
(0.00106579441276 0.00192808168735 -0.000746918207974)
(0.00164105540374 0.00260257277823 -0.000730520059975)
(0.00152409848454 0.00206439059173 -0.00117771592518)
(6.95598267162e-05 0.00207622462364 -0.000752028819228)
(0.0006475485898 0.00300685185927 -0.000750748526525)
(0.00061181709857 0.0023832624029 -0.0012211549015)
(-0.000991255600982 0.00193305266129 -0.00070650403189)
(-0.000515940576901 0.0030099721368 -0.000729412375583)
(-0.000468232054589 0.00238543777219 -0.00118772436442)
(-0.001823603211 0.00150022610533 -0.00062134430762)
(-0.00162848724828 0.0026010226224 -0.000666518165084)
(-0.00149732377511 0.00206202427601 -0.00107803421123)
(-0.0020712550513 0.000916387785029 -0.000513044357824)
(-0.00226028848699 0.00179202034979 -0.000591649010839)
(-0.00208669090743 0.00142407341495 -0.000928385833844)
(-0.0017492338778 0.000435875944216 -0.000391773577872)
(-0.00213511902191 0.000949369699047 -0.000492556459773)
(-0.00199283181838 0.000757909715206 -0.000745574488155)
(-0.00122108166756 0.000163506808317 -0.000275871524283)
(-0.00157325959217 0.000416033645667 -0.000363392890136)
(-0.00148972863503 0.000333618038309 -0.000543639022576)
(-0.000727154704251 3.80041339259e-05 -0.000185174577769)
(-0.000990180285758 0.000153719525917 -0.000245431679033)
(-0.000947234110744 0.000123890866203 -0.000369923409971)
(-0.000327218402808 -1.17565284937e-05 -0.000122481399493)
(-0.000514016830708 3.56680342142e-05 -0.000161795829976)
(-0.000492480316029 2.89927856068e-05 -0.000247208860442)
(-3.19314685826e-05 -2.70194136585e-05 -7.94745721038e-05)
(-0.000158188297003 -9.59724510709e-06 -0.000106134081635)
(-0.000146573282245 -8.30017169632e-06 -0.000164279758255)
(0.000178981299788 -2.92402743967e-05 -4.87820505313e-05)
(9.12290812535e-05 -2.52535821736e-05 -6.79773932093e-05)
(9.92770908294e-05 -2.08308361895e-05 -0.000107070862046)
(0.000318812696983 -2.74858813057e-05 -2.69123689933e-05)
(0.000260489578148 -2.85124901408e-05 -4.03307302128e-05)
(0.000267507707739 -2.39407015408e-05 -6.50761742145e-05)
(0.000403635910544 -2.52657953509e-05 -1.15915509729e-05)
(0.000368581115102 -2.79367299261e-05 -2.13497645732e-05)
(0.000375084903508 -2.39445318608e-05 -3.50492222026e-05)
(0.000446163472133 -2.35493432e-05 -6.5918916631e-07)
(0.000429155241587 -2.6921517737e-05 -8.16961149492e-06)
(0.000435198312962 -2.32477314423e-05 -1.2804932488e-05)
(0.000457910299984 -2.25399094905e-05 7.05469503288e-06)
(0.000454176948259 -2.58837079547e-05 1.16933886121e-06)
(0.000459651036213 -2.26828453743e-05 2.96715336269e-06)
(0.000447917935516 -2.22157331773e-05 1.21540264485e-05)
(0.000453671156042 -2.54959186894e-05 7.51245400922e-06)
(0.000458427944093 -2.24079746678e-05 1.4048168708e-05)
(0.000423436058895 -2.230787771e-05 1.52900840931e-05)
(0.000435617175048 -2.54996957012e-05 1.14958741521e-05)
(0.000439591538698 -2.24031735379e-05 2.14333708246e-05)
(0.00039018005368 -2.26538624504e-05 1.69807537476e-05)
(0.000406289039049 -2.57717680372e-05 1.37618241952e-05)
(0.000409516954318 -2.25873408351e-05 2.59381060307e-05)
(0.000352449705762 -2.31328965153e-05 1.76390986266e-05)
(0.000370564002033 -2.62026133128e-05 1.47865152386e-05)
(0.000373120315197 -2.28800687071e-05 2.8286202559e-05)
(0.000313326800366 -2.36644786201e-05 1.75940735129e-05)
(0.000332044050047 -2.67084540716e-05 1.49576170148e-05)
(0.000334025594898 -2.32233197642e-05 2.90903456991e-05)
(0.000274901436626 -2.41996752062e-05 1.70962796264e-05)
(0.000293258707209 -2.72380910298e-05 1.45661882192e-05)
(0.000294766218836 -2.35811420657e-05 2.88487241909e-05)
(0.000238502124877 -2.47092909602e-05 1.63295528247e-05)
(0.000255880028436 -2.77538207731e-05 1.3832350947e-05)
(0.000257006857086 -2.39326107615e-05 2.79352570116e-05)
(0.000204901808569 -2.51761837139e-05 1.5423310126e-05)
(0.000220937405716 -2.82365493381e-05 1.29136040838e-05)
(0.000221762727935 -2.42635533816e-05 2.66274296664e-05)
(0.000174480018294 -2.55904039779e-05 1.44647866086e-05)
(0.000188993291858 -2.86731184877e-05 1.19165812553e-05)
(0.000189581543748 -2.45617603372e-05 2.51202188582e-05)
(0.000147356786632 -2.59460063542e-05 1.35084913569e-05)
(0.00016028852109 -2.90555336307e-05 1.09059742828e-05)
(0.00016069086674 -2.48214958458e-05 2.35417769132e-05)
(0.000123488210686 -2.62426680024e-05 1.25836102366e-05)
(0.000134852014161 -2.93757146832e-05 9.92726089307e-06)
(0.000135108398412 -2.50341226248e-05 2.19695274851e-05)
(0.000102750433553 -2.64859550315e-05 1.17015088021e-05)
(0.000112589443971 -2.96377116119e-05 8.99325911795e-06)
(0.000112731943393 -2.52038783032e-05 2.04445852377e-05)
(8.4987868322e-05 -2.66844952758e-05 1.08629267205e-05)
(9.33560341608e-05 -2.98459310529e-05 8.1108738374e-06)
(9.34119623907e-05 -2.53328040393e-05 1.89814748254e-05)
(7.00358561694e-05 -2.6853282571e-05 1.00604853775e-05)
(7.69792355716e-05 -3.00105331346e-05 7.27775560304e-06)
(7.69724176839e-05 -2.54270752633e-05 1.75875868186e-05)
(5.77596439428e-05 -2.69985874392e-05 9.29761484583e-06)
(6.33158904941e-05 -3.01497908464e-05 6.47830314972e-06)
(6.32709977632e-05 -2.5502779786e-05 1.62507226275e-05)
(4.79448597127e-05 -2.7143730956e-05 8.51712004648e-06)
(5.2115668087e-05 -3.02577554762e-05 5.73404801453e-06)
(5.20430857629e-05 -2.55471398363e-05 1.50112474836e-05)
(4.07505159783e-05 -2.7249311344e-05 7.83789010124e-06)
(4.35610504902e-05 -3.03751856642e-05 4.89445515114e-06)
(4.34952916852e-05 -2.56066662118e-05 1.36718571616e-05)
(3.52269439234e-05 -2.72857596574e-05 6.9682191858e-06)
(3.66531402223e-05 -3.03874297037e-05 4.35573521629e-06)
(3.65712508142e-05 -2.5571615105e-05 1.27946337529e-05)
(3.29163987701e-05 -2.70796164386e-05 6.47872390753e-06)
(3.32018549887e-05 -3.03272735031e-05 3.12887989787e-06)
(3.30524662389e-05 -2.54096482853e-05 1.10614548635e-05)
(2.9641267231e-05 -2.64794109562e-05 6.56068359209e-06)
(2.97197560918e-05 -2.97929963971e-05 3.34509788608e-06)
(2.94522383833e-05 -2.50577577579e-05 1.13420699114e-05)
(2.46148547195e-05 -2.57852871972e-05 9.58958168963e-06)
(2.83267029579e-05 -2.89183303227e-05 3.21837465301e-06)
(2.74601805803e-05 -2.44215663796e-05 1.1800816611e-05)
(1.93783277491e-05 -2.78819850995e-05 9.14021372648e-06)
(1.93523290455e-05 -2.45845394029e-05 2.07505208028e-05)
(0.000979664304592 0.00116237694295 -0.000625375920374)
(0.000528079302845 0.00114295732547 -0.000532479120224)
(0.000540362704388 0.000991293815295 -0.000888931667339)
(0.00194452910616 0.00186356819063 -0.000734520025263)
(0.00178279160633 0.00168014721559 -0.000717940954208)
(0.00163828218941 0.00147305670288 -0.00112772700662)
(0.00206079286461 0.0028651183135 -0.000737673813042)
(0.0025017236557 0.00287528952354 -0.000665787429957)
(0.00223365883318 0.00249810106574 -0.00113499650333)
(0.00126007219714 0.00362671666865 -0.000734350378526)
(0.00200953362295 0.00408315967928 -0.000567003511065)
(0.00179997991205 0.00353477146432 -0.00108016053329)
(7.42150501983e-05 0.00388087446255 -0.00072813208288)
(0.000771693480619 0.00467805078365 -0.000545419087426)
(0.000706180614961 0.00404743826436 -0.00107816317949)
(-0.00117793548856 0.00362312306348 -0.000689426508777)
(-0.000636142708233 0.00467817190356 -0.000522357471234)
(-0.000555275073978 0.00404754344722 -0.00104199453972)
(-0.00216429877533 0.00285198420104 -0.000636822868303)
(-0.00199393279571 0.00406675451287 -0.00049833767091)
(-0.00176510002367 0.00351982937868 -0.000972427507246)
(-0.002426483857 0.00180095872404 -0.000571161112788)
(-0.00275904606138 0.00284684229342 -0.000524324357615)
(-0.00245213391508 0.00247152934744 -0.000923643352848)
(-0.00198963482661 0.000917596365092 -0.000464175772037)
(-0.00255037251536 0.001553238283 -0.000515357277095)
(-0.00229574264194 0.00135578941108 -0.000822255347134)
(-0.00133790848098 0.00040081695714 -0.000332953044886)
(-0.0018098956106 0.000717519070399 -0.000407672916042)
(-0.00165908507752 0.000628646486652 -0.000627347862622)
(-0.000773376314751 0.000149561658131 -0.00022205293124)
(-0.00109983136788 0.000299534995292 -0.00027756480732)
(-0.00102192200523 0.000262782858132 -0.000428096013454)
(-0.000343363611668 3.79129532502e-05 -0.000145448512118)
(-0.00055901305983 0.00010385388706 -0.000182285748444)
(-0.000520133030665 9.06742834906e-05 -0.000283206402204)
(-3.35826690769e-05 -6.58035506779e-06 -9.46369027401e-05)
(-0.00017341582841 2.21837506645e-05 -0.000118845907802)
(-0.00015344811998 1.79864088674e-05 -0.000186681920191)
(0.000181234791574 -2.28083824095e-05 -5.95260728908e-05)
(8.7476727429e-05 -9.67006999583e-06 -7.70742125696e-05)
(9.98020355286e-05 -1.10160428583e-05 -0.000123001336957)
(0.000321466619542 -2.75966289871e-05 -3.47681257927e-05)
(0.000260632534249 -2.22842971157e-05 -4.70585584212e-05)
(0.000269800627044 -2.18005966685e-05 -7.63532584926e-05)
(0.000405408938524 -2.83855963946e-05 -1.79278250952e-05)
(0.000369531582787 -2.5986458988e-05 -2.6605164665e-05)
(0.00037699864566 -2.52476054128e-05 -4.39296993171e-05)
(0.000447226283863 -2.81654615583e-05 -6.3410834674e-06)
(0.000429859675726 -2.69801302146e-05 -1.26927942929e-05)
(0.000436312760788 -2.62276395581e-05 -2.0855979731e-05)
(0.000458199551224 -2.78431809056e-05 1.62709783755e-06)
(0.000454475156081 -2.71721911688e-05 -3.19866146348e-06)
(0.000460053023112 -2.64402743723e-05 -4.20104787683e-06)
(0.000447756201958 -2.77926238622e-05 6.8543017128e-06)
(0.000453567360947 -2.71704433245e-05 3.28258869839e-06)
(0.000458304848517 -2.65201537836e-05 6.89625150123e-06)
(0.000423006239059 -2.80001591176e-05 9.96761425424e-06)
(0.000435240752993 -2.73895592162e-05 7.30506078796e-06)
(0.000439132374723 -2.66905085725e-05 1.42675028451e-05)
(0.000389610047756 -2.83719885504e-05 1.15675856862e-05)
(0.000405762838538 -2.77394660011e-05 9.54063482744e-06)
(0.00040886821346 -2.6959669168e-05 1.86706475573e-05)
(0.000351822900565 -2.88372738249e-05 1.21050336267e-05)
(0.000369968788613 -2.81772887179e-05 1.05054076615e-05)
(0.000372382062524 -2.72964064676e-05 2.08747987864e-05)
(0.000312692155016 -2.93425767324e-05 1.19297317212e-05)
(0.000331432832306 -2.86591127913e-05 1.06051925949e-05)
(0.000333261786066 -2.766793844e-05 2.15236784172e-05)
(0.000274289426931 -2.98505666087e-05 1.13022595398e-05)
(0.000292664532315 -2.91537777437e-05 1.01363431194e-05)
(0.000294016655394 -2.8051148312e-05 2.11251852617e-05)
(0.000237926929845 -3.03365109616e-05 1.04164022061e-05)
(0.00025532146854 -2.96346947072e-05 9.32622769072e-06)
(0.000256294368774 -2.84268212681e-05 2.0070236297e-05)
(0.000204368708413 -3.07857700313e-05 9.40687521306e-06)
(0.000220422741056 -3.00881513942e-05 8.33759695798e-06)
(0.000221099564078 -2.87844037115e-05 1.86384595109e-05)
(0.000173988351117 -3.11861447107e-05 8.3577689294e-06)
(0.000188525969129 -3.05008164053e-05 7.28659817202e-06)
(0.000188972953771 -2.91085622119e-05 1.70250661469e-05)
(0.000146899623016 -3.15279050498e-05 7.32474381899e-06)
(0.000159867510525 -3.08601287736e-05 6.22135990752e-06)
(0.000160135907054 -2.93902315698e-05 1.53555151075e-05)
(0.000123050385932 -3.18082694688e-05 6.33690977438e-06)
(0.000134469618413 -3.11596965621e-05 5.21105993804e-06)
(0.000134598433016 -2.96171427906e-05 1.37145126903e-05)
(0.000102308135921 -3.20305282145e-05 5.40262415326e-06)
(0.000112231108587 -3.13973409402e-05 4.24461432359e-06)
(0.000112249953611 -2.97929445301e-05 1.21360453157e-05)
(8.45064421444e-05 -3.22019380617e-05 4.52570271994e-06)
(9.30001432705e-05 -3.15767402208e-05 3.34226942469e-06)
(9.29330161272e-05 -2.99163404462e-05 1.06363610639e-05)
(6.94666420029e-05 -3.2334357035e-05 3.69557337525e-06)
(7.65947570892e-05 -3.17088261828e-05 2.50356322239e-06)
(7.64585811777e-05 -2.99930024003e-05 9.22235159588e-06)
(5.7041684157e-05 -3.24300897587e-05 2.91473631842e-06)
(6.28675413211e-05 -3.18018395184e-05 1.70447590036e-06)
(6.2677010101e-05 -3.00356782384e-05 7.86818147944e-06)
(4.70050497482e-05 -3.24936033902e-05 2.11138311918e-06)
(5.15506684099e-05 -3.18478340621e-05 9.61276301466e-07)
(5.12983109809e-05 -3.0040274008e-05 6.61159462832e-06)
(3.95069614698e-05 -3.24928624006e-05 1.41230026619e-06)
(4.28409273137e-05 -3.18412577257e-05 9.19385325335e-08)
(4.25424913203e-05 -3.00285467734e-05 5.21792745352e-06)
(3.36735890977e-05 -3.23672364427e-05 5.16395928352e-07)
(3.5712828016e-05 -3.17410980553e-05 -4.6302780249e-07)
(3.53395718818e-05 -2.99348720507e-05 4.27286968952e-06)
(3.10560100319e-05 -3.19555424111e-05 -4.74612357903e-09)
(3.21115775426e-05 -3.14475835621e-05 -1.72651833532e-06)
(3.15222549519e-05 -2.96582447925e-05 2.43141916931e-06)
(2.77713913698e-05 -3.11363604888e-05 2.78894699631e-09)
(2.85567865791e-05 -3.08035966625e-05 -1.51174332254e-06)
(2.76650581195e-05 -2.91610456868e-05 2.65510052205e-06)
(2.32681431571e-05 -2.97956922678e-05 2.76900668986e-06)
(2.73625340505e-05 -2.97209654935e-05 -1.5948750236e-06)
(2.54523458866e-05 -2.84452123757e-05 3.05632522367e-06)
(1.93763523816e-05 -2.75502335216e-05 4.70285617794e-06)
(1.8104257805e-05 -2.77584015114e-05 1.13040548747e-05)
(0.00125742489787 0.00163189808305 -0.000625044154058)
(0.000692512664975 0.00142834967163 -0.000545004578688)
(0.000701593669702 0.0013387793386 -0.000914110892656)
(0.00247988993946 0.00264666368807 -0.000649208358902)
(0.00228938214363 0.00216731054767 -0.000681797975432)
(0.00208711482161 0.00202410347438 -0.00109837995733)
(0.00260184660935 0.00402113046242 -0.00049511712798)
(0.00318094850602 0.00368042133766 -0.000437196754729)
(0.00281454044998 0.00339599621404 -0.000866047202928)
(0.00155849317013 0.00503976221533 -0.000378072219964)
(0.0025117163284 0.00515976962519 -0.000140024023733)
(0.0022270836708 0.0047394433792 -0.000554811451244)
(7.40823928108e-05 0.0053724905303 -0.000339644475779)
(0.000936059799002 0.00587005732848 -4.41064078153e-05)
(0.000846695080051 0.00538764741288 -0.000449628903473)
(-0.00147948724534 0.0050268215141 -0.000331268633367)
(-0.000804781976462 0.00586724733485 -2.02642118173e-05)
(-0.000697126512269 0.00538501878298 -0.000412091307032)
(-0.00271392400043 0.00398922966555 -0.000385839160222)
(-0.00250191961482 0.00512809604292 -7.0439518231e-05)
(-0.00219332284354 0.00470976504656 -0.000443933277019)
(-0.003010110674 0.00255544479708 -0.000468520521923)
(-0.00346013357506 0.0036309544603 -0.000282115455091)
(-0.00304365053381 0.00334629437716 -0.000635876066561)
(-0.00239917276026 0.00133197850531 -0.0004588544211)
(-0.00314645466433 0.00201187084693 -0.000455990494931)
(-0.00280003710976 0.00186382841923 -0.000764023805733)
(-0.00155259705306 0.000607876182108 -0.000352284678476)
(-0.00215968288053 0.000949840900779 -0.00041863604786)
(-0.00195507193973 0.000881126978259 -0.000655587301488)
(-0.000872615579884 0.000251582067428 -0.000237797624524)
(-0.00126949716611 0.00041775774788 -0.000291971548727)
(-0.00116387987721 0.000385797344905 -0.000458220257799)
(-0.000385255478624 8.81931061482e-05 -0.000155683144128)
(-0.000635325502178 0.000163419475144 -0.000192183539765)
(-0.000582480645226 0.000149440690964 -0.000303259054088)
(-5.11983757332e-05 1.96001359627e-05 -0.000101283217631)
(-0.000204483640997 5.360778701e-05 -0.000124577775281)
(-0.000177958689432 4.71018201996e-05 -0.000198463895263)
(0.000175259216581 -8.57848303261e-06 -6.46066981e-05)
(7.52303680617e-05 8.31020490428e-06 -8.08408980808e-05)
(9.07954582554e-05 4.60675886747e-06 -0.00013121864394)
(0.000319762745443 -1.99046077902e-05 -3.88955972935e-05)
(0.000255914534426 -1.16330336101e-05 -5.01646872422e-05)
(0.000266673100902 -1.35944404211e-05 -8.29122821822e-05)
(0.000404889566899 -2.38524501364e-05 -2.13701338627e-05)
(0.000367951295184 -1.93116999816e-05 -2.90183371501e-05)
(0.000375980007192 -2.05915298177e-05 -4.92465736851e-05)
(0.000446932736096 -2.52481718156e-05 -9.55037228902e-06)
(0.000429230914875 -2.22282346342e-05 -1.47779101793e-05)
(0.000435789019715 -2.33622832029e-05 -2.57796950855e-05)
(0.000457894709017 -2.57712609692e-05 -1.54317060265e-06)
(0.000454100769112 -2.34632409993e-05 -5.27693809505e-06)
(0.00045956307526 -2.4521704189e-05 -9.19318435414e-06)
(0.000447292273416 -2.60843274006e-05 3.73334777356e-06)
(0.000453204008105 -2.40511098215e-05 1.19327015473e-06)
(0.000457729528988 -2.50696949916e-05 2.18165612203e-06)
(0.000422466430488 -2.64358789374e-05 6.87808136116e-06)
(0.000434817294125 -2.44893761919e-05 5.28000977372e-06)
(0.000438469214994 -2.54577153627e-05 9.51523246214e-06)
(0.000389039504158 -2.68344560881e-05 8.47845680273e-06)
(0.000405306526034 -2.48911582791e-05 7.52613780766e-06)
(0.000408164019805 -2.58198855541e-05 1.38699461869e-05)
(0.00035125512704 -2.7269582698e-05 9.0055666296e-06)
(0.00036950251131 -2.53008656697e-05 8.49504198968e-06)
(0.000371676440628 -2.61858255252e-05 1.6022318986e-05)
(0.000312149143422 -2.77197967066e-05 8.81180399314e-06)
(0.000330976580056 -2.57167376512e-05 8.59131207464e-06)
(0.000332581486318 -2.65564502829e-05 1.6618308176e-05)
(0.000273785851765 -2.81653222594e-05 8.16031127035e-06)
(0.000292232460666 -2.6127827626e-05 8.11768455904e-06)
(0.000293378663312 -2.69253991819e-05 1.61639012113e-05)
(0.000237468623054 -2.85917386824e-05 7.2474224426e-06)
(0.000254921772719 -2.65241874303e-05 7.30020121167e-06)
(0.000255707858795 -2.72836285277e-05 1.50563104453e-05)
(0.000203956720895 -2.89871796267e-05 6.21731991694e-06)
(0.000220060348797 -2.6899574677e-05 6.30078570382e-06)
(0.000220569322345 -2.76244644567e-05 1.3575223476e-05)
(0.000173628248656 -2.9339402463e-05 5.15018915013e-06)
(0.000188204756644 -2.72400923995e-05 5.24403736097e-06)
(0.000188502786791 -2.79348026992e-05 1.19108117352e-05)
(0.000146586466395 -2.96399118776e-05 4.10767602657e-06)
(0.000159588339118 -2.7537950361e-05 4.17611343526e-06)
(0.000159726613065 -2.82028941675e-05 1.02053816997e-05)
(0.0001227793487 -2.98834026607e-05 3.11876448726e-06)
(0.000134230675179 -2.77865488228e-05 3.16814511832e-06)
(0.000134245081051 -2.84206458247e-05 8.53643569473e-06)
(0.000102065609843 -3.00675261598e-05 2.18425959502e-06)
(0.000112027778607 -2.79809945476e-05 2.20775266466e-06)
(0.000111942843315 -2.85818523259e-05 6.94592274745e-06)
(8.4274905523e-05 -3.01958756971e-05 1.32012992715e-06)
(9.28230657176e-05 -2.81152124709e-05 1.31415477753e-06)
(9.26584562254e-05 -2.86853936964e-05 5.43863252759e-06)
(6.92258543908e-05 -3.02730898707e-05 5.12465747498e-07)
(7.64314979325e-05 -2.81947840201e-05 4.92472114437e-07)
(7.6195993354e-05 -2.87348735732e-05 4.01473794182e-06)
(5.67688689697e-05 -3.02874951458e-05 -2.48984116593e-07)
(6.27106639866e-05 -2.82148053261e-05 -2.88788672642e-07)
(6.24009761301e-05 -2.87354144679e-05 2.64520051942e-06)
(4.66845785058e-05 -3.02537191167e-05 -1.05816828518e-06)
(5.1373348924e-05 -2.81330731307e-05 -1.05634316315e-06)
(5.09753876928e-05 -2.87065196455e-05 1.33066320301e-06)
(3.91019758284e-05 -3.01719502714e-05 -1.78338953614e-06)
(4.26225038643e-05 -2.80675780919e-05 -1.93337479838e-06)
(4.21403992763e-05 -2.86407894776e-05 2.0506103817e-08)
(3.32402497924e-05 -2.99485808732e-05 -2.70594206616e-06)
(3.54651833632e-05 -2.79478423838e-05 -2.48764701552e-06)
(3.48553169039e-05 -2.8508897904e-05 -8.59808787767e-07)
(3.06153793548e-05 -2.94550580075e-05 -3.23351553427e-06)
(3.18988216825e-05 -2.76233533401e-05 -3.74926897539e-06)
(3.09684854798e-05 -2.81771791394e-05 -2.50940845461e-06)
(2.76210256987e-05 -2.85688329559e-05 -3.10940729313e-06)
(2.84820536692e-05 -2.6987401923e-05 -3.52582700518e-06)
(2.71353808174e-05 -2.76542892654e-05 -2.3167613711e-06)
(2.34330633038e-05 -2.6766202087e-05 3.38974464489e-07)
(2.7758737966e-05 -2.59474093332e-05 -3.39720068836e-06)
(2.51852063877e-05 -2.68852506328e-05 -1.67744842408e-06)
(1.98158641123e-05 -2.35339958844e-05 3.87357755681e-06)
(1.79929452765e-05 -2.5352941225e-05 7.70207431295e-06)
(0.00163817362907 0.00192174447496 -0.000601758400062)
(0.000898493656934 0.00155417774209 -0.000562462679424)
(0.000919110055541 0.00154643603341 -0.000944905814686)
(0.00317274315558 0.00313210542035 -0.000469786371259)
(0.00289773215354 0.00239133991885 -0.00060758385283)
(0.00267237753245 0.00236448945699 -0.000991267638237)
(0.0032818697471 0.0047138966268 -8.21036504819e-05)
(0.0039699029085 0.00402625380219 -0.000109540571871)
(0.00354714669987 0.00392539020458 -0.000400282541921)
(0.00192558782451 0.00585782606387 0.000193941788416)
(0.0030818156246 0.0055768571393 0.000431329565742)
(0.00275203431294 0.00540751934354 0.000261240619521)
(7.06808782787e-05 0.00622358480649 0.000275273856147)
(0.00111832479558 0.00629965807876 0.000612718815446)
(0.00101465077555 0.00610081216669 0.000498098467694)
(-0.00185708208582 0.00583677058936 0.000240564903318)
(-0.000996622697366 0.00629527895604 0.000637112006021)
(-0.000872839743582 0.006096031591 0.000536126067168)
(-0.00340879661691 0.00466537339685 3.32841869005e-05)
(-0.00308358543611 0.00553403275936 0.000499222046815)
(-0.00272585075513 0.00536430428723 0.000370184296035)
(-0.00375982966119 0.00302005457961 -0.000269585428099)
(-0.00427496815577 0.00396068069122 5.66797024584e-05)
(-0.0037925246367 0.00385434744896 -0.000154003683238)
(-0.00293476020516 0.00159412466571 -0.000415772121691)
(-0.00385143867091 0.00222129801939 -0.000355409039185)
(-0.00345235557963 0.00217356161496 -0.000621837836442)
(-0.00184008408073 0.000743026923536 -0.000358322918112)
(-0.00257930096529 0.001061928472 -0.000418528142314)
(-0.00234538929824 0.00103889107823 -0.000659376419653)
(-0.00100906725229 0.000322528062294 -0.000246357463968)
(-0.00147584705462 0.000480347307448 -0.000301445483295)
(-0.00135520506246 0.000467300625885 -0.000478093739029)
(-0.000446502688696 0.000126346942477 -0.000161078170918)
(-0.000730994922658 0.000199150467213 -0.000198832336741)
(-0.000670298506931 0.000191893042832 -0.000317024162734)
(-7.83913214754e-05 4.15189752503e-05 -0.00010413545573)
(-0.000245488594011 7.52577638237e-05 -0.000127684047057)
(-0.000215053146204 7.06877730277e-05 -0.00020571696167)