/*--------------------------------*- C++ -*----------------------------------*\
| =========                 |                                                 |
| \\      /  F ield         | OpenFOAM: The Open Source CFD Toolbox           |
|  \\    /   O peration     | Version:  3.0.1                                 |
|   \\  /    A nd           | Web:      www.OpenFOAM.org                      |
|    \\/     M anipulation  |                                                 |
\*---------------------------------------------------------------------------*/
FoamFile
{
    version     2.0;
    format      ascii;
    class       volScalarField;
    location    "4.1";
    object      k_0;
}
// * * * * * * * * * * * * * * * * * * * * * * * * * * * * * * * * * * * * * //

dimensions      [0 2 -2 0 0 0 0];

internalField   nonuniform List<scalar> 
7968
(
0.000805576252474
0.000894253308796
0.000963404189356
0.00100546885935
0.00102859956433
0.00103944452001
0.00104286298753
0.00104236523968
0.00104123476397
0.00104025276026
0.00104094040399
0.00104251413034
0.0010442444618
0.00104440034859
0.00104023978379
0.00102856591643
0.00100478095171
0.000962396793164
0.000893371690262
0.000805184585787
0.000894167076891
0.00126823997294
0.00152224344231
0.00167804657357
0.00177029297984
0.00182050502361
0.00184389612332
0.00185171904336
0.0018526812291
0.00185272127612
0.0018548537609
0.00185821343344
0.00185893350871
0.00185089543931
0.0018258534886
0.00177322544872
0.00167862499123
0.00152116072612
0.00126662380657
0.000893283844028
0.000963325275918
0.00152235376528
0.00189725751617
0.00213002926073
0.00227162442582
0.00235232205891
0.00239332614114
0.00241067852043
0.00241652475993
0.00241893146992
0.00242173505409
0.00242409765169
0.0024209975781
0.00240394626259
0.00236101450691
0.0022771192513
0.00213220365507
0.00189689069027
0.0015208166457
0.000962144319665
0.00100560122554
0.00167866882097
0.00213058022832
0.00241331830258
0.0025873998355
0.00268863633001
0.00274249087274
0.00276855552957
0.00278359163289
0.0027901429032
0.00279237172376
0.00278984390991
0.00278074720652
0.00275672889643
0.00270134864641
0.00259640456222
0.00241807225903
0.00213180868288
0.00167790543666
0.0010043244319
0.00102905514416
0.00177152865042
0.00227276728674
0.00258794072236
0.00278316278669
0.00289896583905
0.00297135687757
0.00301055592334
0.00302881920186
0.00303643346985
0.00303878231121
0.00303531681973
0.00302001022932
0.00298251443076
0.00291544497322
0.00279646973426
0.00259620223574
0.0022764176647
0.00177216648604
0.00102788033818
0.00104019962097
0.00182210393825
0.00235368859907
0.00268926556514
0.00289894588101
0.00303671221236
0.00311844818141
0.00316053664217
0.00317939822357
0.00318708334773
0.00318965786953
0.00318652417241
0.00317077390211
0.00313020253688
0.00304933548097
0.00291604635013
0.00270152279412
0.00236035781161
0.00182465270458
0.00103934072033
0.00104378965295
0.00184537918033
0.00239428255377
0.00274244797411
0.00297011848371
0.00311769115642
0.00320198896152
0.00324408533643
0.00326212545539
0.00326927591325
0.0032721667228
0.00327008819785
0.00325550514118
0.00321509301964
0.00313125555393
0.00298401522426
0.00275829012114
0.00240411143876
0.00185006369706
0.00104340931795
0.00104324607983
0.00185249185765
0.00241045336991
0.0027666795776
0.00300814780961
0.00315872183021
0.00324301408625
0.00328373152785
0.00330023848464
0.00330662044024
0.00330993734439
0.00330927875353
0.00329655615471
0.00325762065162
0.00317382540832
0.00302344460185
0.00278493087199
0.00242308677607
0.00185927073853
0.00104356540795
0.00104167097481
0.00185205354098
0.00241436857717
0.00277936677223
0.00302497256806
0.00317616882763
0.0032595617825
0.00329864570345
0.00331368412146
0.00331944093856
0.0033232803714
0.00332396083985
0.00331296558107
0.00327562830373
0.00319267947638
0.00304155252029
0.0027960907816
0.00242926944037
0.00186067395656
0.00104282894755
0.00104012225842
0.00185011837467
0.00241430949784
0.00278423983105
0.00303101666187
0.00318225657596
0.00326500773002
0.00330315433771
0.00331740695253
0.0033229008024
0.00332719880421
0.00332868857958
0.00331862126098
0.00328214563234
0.00319972980861
0.00304853628571
0.00280184863057
0.00243073071482
0.0018599600908
0.00104182694131
0.00103990988762
0.00185015890053
0.00241466645601
0.00278502017192
0.00303202736402
0.00318349918317
0.0032665271522
0.0033050168045
0.00331966308634
0.003325457442
0.00332980022221
0.00333114664041
0.00332080682209
0.00328398285751
0.0032012096517
0.00304970299013
0.00280279474175
0.00243144369577
0.00186024817562
0.00104149694991
0.00104119512025
0.00185211217252
0.00241529102906
0.00278153196439
0.00302782521887
0.00317969544629
0.00326387276459
0.00330389280309
0.00331994418797
0.00332647342271
0.00333052331885
0.00333086566325
0.00331911332868
0.00328077392378
0.00319677581732
0.00304473893695
0.00279883273202
0.00243089356613
0.00186130786652
0.0010423826035
0.00104260459029
0.00185235083553
0.00241150163068
0.00276953527104
0.00301236371121
0.00316403749246
0.00324955573291
0.00329166824786
0.00330960535022
0.00331707124478
0.00332075103018
0.00331963389224
0.00330576037852
0.00326523770434
0.00317974939834
0.00302788781463
0.00278830667928
0.00242432020863
0.00185934087907
0.00104286403764
0.00104296228102
0.00184474524428
0.0023948981785
0.00274539381799
0.0029750315696
0.00312406394586
0.00320994827222
0.00325377672139
0.00327351414201
0.00328193360305
0.00328527080466
0.00328264456029
0.00326660823893
0.00322413024301
0.00313805550062
0.00298882546653
0.00276028780605
0.0024034404469
0.00184847647692
0.00104192700209
0.00103918985301
0.00182081753428
0.00235343719396
0.00269140763941
0.00290408754055
0.00304337786683
0.00312692258866
0.00317098552302
0.00319172927368
0.00320080453081
0.00320388001431
0.00320013281937
0.00318271928443
0.00313976655339
0.00305623730224
0.00291993681968
0.00270082608487
0.00235685472815
0.00182081295941
0.00103703998924
0.00102797695344
0.00176968022778
0.0022715249509
0.002588758431
0.00278696622791
0.00290600168704
0.00297961956187
0.00302089791972
0.0030411118205
0.00305020803422
0.00305310105777
0.00304905197133
0.0030321293546
0.00299244316157
0.00292226136287
0.00279741376531
0.0025923542328
0.00227006778518
0.00176621222356
0.00102492442077
0.00100460607303
0.00167657123989
0.0021285906932
0.00241276828733
0.00258927100053
0.00269357253538
0.00275071069497
0.00277928434235
0.00279510151264
0.00280316019291
0.00280602353367
0.00280400575698
0.00279470388651
0.00276618492955
0.00270506586917
0.00259437505805
0.00241174540705
0.00212356421101
0.00167072159244
0.00100111718202
0.000962506978591
0.00152033168519
0.00189493475631
0.00212847211144
0.00227170276928
0.00235472353028
0.0023984943127
0.00241872981784
0.00242725658856
0.00243163846268
0.00243522059897
0.00243676322149
0.00243111672051
0.00240984648872
0.00236186169499
0.00227314569892
0.00212480704731
0.00188826986404
0.00151366519013
0.00095917918908
0.000893595065761
0.0012666101441
0.00152011593067
0.00167616542404
0.00176930803964
0.00182098087704
0.00184623559787
0.00185614758663
0.00185910099845
0.00186058910005
0.00186322957742
0.00186596433762
0.00186474868589
0.00185365038774
0.00182499893956
0.00176897867823
0.0016720979372
0.0015140567043
0.00126098624032
0.000891095777846
0.000805328507456
0.000893563770613
0.000962382275604
0.00100433123211
0.00102754998192
0.00103869042118
0.00104257634803
0.00104276821542
0.00104219123845
0.00104158449493
0.00104217732692
0.00104353142556
0.00104457673409
0.00104373238736
0.00103847819407
0.00102586156555
0.00100157653585
0.000959304387679
0.00089109325045
0.000804261872017
0.000890105701511
0.0012455042911
0.00149295911677
0.00164880636389
0.00174461250988
0.00180034065771
0.00182969084999
0.00184279860907
0.00184674116391
0.00184802597157
0.00185001147877
0.00185172810105
0.00184883479066
0.00183583280351
0.00180565025313
0.00174857436262
0.00165135195255
0.00149431070055
0.00124591212582
0.000889560275462
0.00124531572299
0.00254566667917
0.00321049551749
0.00362722864318
0.0038901667442
0.00404976758522
0.00414024556406
0.00418699128128
0.00420877198157
0.0042184950743
0.0042223031895
0.00421932271503
0.00420202919671
0.00415719733909
0.00406619407871
0.00390442417084
0.00363863219043
0.00321910023917
0.00255166248893
0.00124579448245
0.00149263905456
0.00320979345886
0.0040883150389
0.00464996904058
0.00501234016073
0.00523753511904
0.00536859696124
0.00543856399417
0.00547183283204
0.00548604136293
0.00548972723053
0.00548203009459
0.00545291377724
0.0053850874886
0.0052537592346
0.00502694657346
0.00466255828109
0.00409905156154
0.00321850651167
0.00149394701482
0.00164845443533
0.00362587397022
0.00464930575797
0.00531219887176
0.00574566704147
0.00601874342657
0.00617979686097
0.00626824673316
0.00630966575182
0.0063264707946
0.00632953680537
0.00631792583756
0.00627854854173
0.00619369917688
0.00603293303303
0.00575943434086
0.00532538106198
0.00466208574376
0.00363766404951
0.00165074366888
0.00174420284875
0.00388803375538
0.00501098427618
0.00574513165999
0.00622926443816
0.00653669341925
0.00671800772041
0.00681379635543
0.00685832992636
0.00687582090704
0.00687844946089
0.006865480887
0.00682363436996
0.00672913910419
0.0065476686939
0.00624180281564
0.00575912757999
0.005026339958
0.00390354051801
0.00174779021141
0.0017996982408
0.00404645867428
0.00523521970441
0.00601766297538
0.00653635284965
0.00686445208152
0.00705450073089
0.0071530282293
0.00719728259312
0.00721382371902
0.00721618429919
0.00720365968138
0.0071618185831
0.00706415002987
0.00687433894836
0.00654758197386
0.0060327749479
0.0052536893975
0.00406618659726
0.00180488923195
0.00182856254802
0.00413524732955
0.00536493641899
0.00617810470017
0.00671803647418
0.00705500542167
0.00724773669741
0.00734468690522
0.00738600811473
0.00740047980594
0.0074028384572
0.00739224473082
0.00735312133373
0.00725680887437
0.00706455972998
0.00672967330053
0.00619462663817
0.00538669187616
0.0041592504603
0.0018354982184
0.00184089843903
0.00417981243326
0.00543318111099
0.00626561022926
0.00681401087065
0.0071542054372
0.00734551769737
0.00743842310042
0.00747563728742
0.00748778592668
0.00749044070836
0.00748252958598
0.00744745486338
0.00735485264315
0.00716391120128
0.00682606040846
0.00628200044737
0.00545773871279
0.00420762867599
0.00184940298151
0.00184383571604
0.00419905444527
0.00546445422379
0.00630658658923
0.00685852658465
0.00719894862191
0.00738749527436
0.00747623285143
0.00750993749937
0.00752037218725
0.00752352077314
0.00751803357274
0.00748662754235
0.00739776060983
0.00720927940783
0.00687152976266
0.00632543743298
0.00549177222518
0.00422994319242
0.00185365282446
0.00184356164604
0.00420618070078
0.00547664358694
0.00632242606255
0.0068759129575
0.00721596103348
0.0074026462951
0.00748900664296
0.00752092080018
0.00753062804282
0.00753421759338
0.00753011411743
0.00750068659545
0.00741386217658
0.00722684885466
0.00688945839931
0.00634233343672
0.00550537679495
0.0042388269353
0.00185426907978
0.00184389999149
0.00420785495951
0.00547879449556
0.00632492577791
0.00687882320881
0.00721923336714
0.00740626693208
0.00749302616595
0.0075253888176
0.00753547295105
0.00753923539482
0.00753502484806
0.00750521418328
0.00741780849796
0.0072301331622
0.00689211074045
0.00634451087122
0.00550737263544
0.00424065410539
0.00185456142261
0.00184476774715
0.00420375251103
0.00547053206807
0.00631368447736
0.00686682742841
0.00720834120073
0.00739792615376
0.00748781135339
0.00752278462753
0.00753427487168
0.00753790623817
0.00753209392558
0.00749954827536
0.0074089573119
0.00721848276124
0.00687881805244
0.0063312824767
0.00549706579106
0.00423483258051
0.00185448724075
0.00184211904383
0.00418663765711
0.00544212799831
0.00627632397033
0.00682653802339
0.00716858761407
0.00736167261405
0.00745643176585
0.00749558691152
0.00750930076243
0.00751263119458
0.00750413119031
0.0074671901103
0.00737171542584
0.00717744116617
0.00683642497389
0.00629018929531
0.00546475713366
0.00421412566083
0.00185018850292
0.00182973059874
0.00414296353014
0.00537524627192
0.0061909412945
0.00673305277491
0.00707260677152
0.00726787164152
0.00736733269824
0.00741108923737
0.00742744507252
0.00743055056656
0.00741911578803
0.00737744833381
0.0072772069811
0.00708037536618
0.00674114853209
0.00620312427844
0.00539348451627
0.00416563752058
0.00183572230725
0.00180056681247
0.0040538548225
0.00524531192565
0.00603072144442
0.00655196836896
0.00688316565054
0.00707651802758
0.00717820604721
0.00722537569638
0.00724406668019
0.00724722020133
0.00723358417089
0.00718859690789
0.00708608704249
0.0068907140374
0.00655877953824
0.00603993244304
0.00525872387976
0.00407113887493
0.00180406124501
0.00174469201457
0.00389423333396
0.00501961277791
0.00575689047449
0.00624427902409
0.00655458507973
0.00673985597275
0.00683933080507
0.00688733979537
0.00690729919764
0.00691076454114
0.00689640743725
0.00685098967972
0.00675100070279
0.00656344473369
0.00625148117117
0.0057641169477
0.00502904214186
0.00390660566533
0.00174601542614
0.00164864301251
0.00363049077592
0.00465579227222
0.0053215196757
0.00575844972948
0.00603516652407
0.00620004607381
0.00629180263529
0.00633748035865
0.00635708803083
0.006361051102
0.00634769660197
0.006304964065
0.0062146995039
0.0060473049343
0.00576731416428
0.00532840043029
0.00466293042021
0.0036392935002
0.00164855185887
0.00149263655408
0.00321283840148
0.00409255438775
0.00465641758276
0.00502187505579
0.0052507207588
0.00538575551961
0.00545973605656
0.00549691958058
0.00551394225522
0.0055187480795
0.00550982909021
0.00547727238114
0.00540412656549
0.00526638842596
0.00503342766667
0.00466456664401
0.00409924767241
0.00321973196534
0.00149201114252
0.00124516320369
0.00254737505079
0.00321280568033
0.00363101612791
0.00389629538811
0.00405891991891
0.00415287031564
0.00420325903732
0.00422848097574
0.00424079435589
0.00424579613561
0.00424212785488
0.00422217010539
0.00417304304405
0.00407687141836
0.00391019467821
0.0036409203807
0.00322009778848
0.00255356318364
0.00124448971561
0.000889709769285
0.00124517999199
0.0014925957064
0.00164865321522
0.00174502284318
0.00180168717393
0.00183229754797
0.00184676434976
0.00185224025045
0.00185463531445
0.0018569347077
0.001858138204
0.00185401011107
0.00183908886517
0.00180670966469
0.00174772288675
0.00164938480842
0.00149226141778
0.00124451147742
0.000888145899439
0.000956510089366
0.00148548779751
0.00185415766424
0.00209147344399
0.00224197869169
0.00233309744086
0.0023838914054
0.00240896482678
0.00241960646808
0.00242389935249
0.00242602312031
0.00242516196979
0.00241639673461
0.00239171848798
0.00234028652071
0.00224808426107
0.00209651351991
0.00185820523696
0.00148805168337
0.000956049505372
0.0014853213977
0.00319367706971
0.0040774347776
0.00464588036353
0.0050143073432
0.0052439881416
0.00537788821198
0.00544910304473
0.00548303916566
0.00549711636146
0.00549982763054
0.00549056252656
0.00545972785645
0.00538960311242
0.00525546041486
0.00502519510054
0.00465675057209
0.0040889220287
0.00320508626946
0.00148789659786
0.00185355872746
0.00407597675151
0.00521561978907
0.00595999296512
0.00645223302145
0.00676504014067
0.00695053143251
0.00705020515855
0.00709695097159
0.00711426620851
0.0071139279833
0.00709582883022
0.00704765715626
0.00694629069333
0.00676019135494
0.00644882305999
0.00596073293193
0.00522254908248
0.00408832125683
0.00185776620521
0.00209044989582
0.00464342495252
0.00595938782305
0.00682679583698
0.00740673948055
0.00777891942101
0.00800090610825
0.00812007365252
0.00817335631
0.00819032848184
0.00818612566755
0.0081609127898
0.00810001466386
0.00797574795245
0.00775314874736
0.00738533505505
0.00681464447532
0.00595987822867
0.00465576325636
0.00209584067445
0.00224047871128
0.00501117772062
0.00645206083471
0.00740802440082
0.00805096216983
0.00846513498958
0.00870845163485
0.00883390591438
0.00888636040509
0.00889973844498
0.0088918146469
0.00886300861171
0.0087965984204
0.00866178357395
0.00841611539876
0.00801057591168
0.00738294016619
0.00644656344232
0.00502407746359
0.002247267794
0.00233094102719
0.00524020257046
0.00676612416424
0.00778340033964
0.00846962918968
0.00890654005352
0.00915812913761
0.00928049889242
0.00932553254744
0.00933250334328
0.00932139867763
0.00929257610606
0.00922685820389
0.00909009964454
0.0088369413452
0.00841036946351
0.00774646695404
0.00675598151302
0.00525468408066
0.00233954129792
0.00238085212058
0.00537333103227
0.00695349838442
0.00801015157367
0.00872054007073
0.00916763756891
0.00941614556115
0.00952720489875
0.00956031506966
0.00955952870889
0.00954641167943
0.00952082698965
0.00946104841735
0.00932961071365
0.00907840187823
0.00864709919074
0.00796331136817
0.0069400545513
0.00539005754397
0.00239150880106
0.00240483082812
0.00544372500403
0.00705569184359
0.00813611361006
0.00885618089933
0.00930333348977
0.00954177557706
0.00963828650739
0.00965870179804
0.00965071056332
0.0096368918244
0.00961640556705
0.00956537852889
0.00944335989806
0.00919939524885
0.00877079419279
0.00808133609086
0.00704003700234
0.00546273044504
0.00241746649331
0.00241419254894
0.00547696627037
0.0071054552882
0.00819682121518
0.00891994597859
0.00936267209387
0.00959052768691
0.00967448288932
0.00968482960375
0.00967155139818
0.00965778725965
0.00964208519688
0.00959912920106
0.00948630660467
0.0092503725872
0.00882664039425
0.0081369045953
0.00708814690839
0.00549758133334
0.00242834920724
0.00241708979788
0.00549080391163
0.00712641249259
0.00822174451843
0.00894499984037
0.009384008625
0.00960524268622
0.0096819673899
0.00968677090866
0.0096706979031
0.00965708646504
0.00964411096962
0.00960571443904
0.00949822073241
0.00926722192987
0.00884692349567
0.00815814820274
0.00710732786829
0.00551184272924
0.00243194749108
0.0024180631748
0.00549401780836
0.00713022239807
0.00822572331328
0.00894885476469
0.00938746080652
0.00960809769303
0.00968432873244
0.00968890499573
0.00967276939186
0.0096590971589
0.00964597728149
0.00960731597505
0.00949954695312
0.00926845660048
0.00884828846198
0.00815974636811
0.00710934451751
0.00551419616341
0.00243259666622
0.00241686388194
0.00548606717193
0.00711630113036
0.00820811321228
0.00893090852609
0.00937248085275
0.00959852580073
0.00968093407091
0.00969055276183
0.00967708197517
0.00966317237254
0.0096471039149
0.00960343609209
0.00948986384982
0.0092536785339
0.00883029040049
0.00814115590573
0.00709356163634
0.00550398277249
0.00243006822793
0.00240862311303
0.0054572096008
0.00707185946235
0.00815298528342
0.00887247151259
0.00931763804399
0.00955294649682
0.00964678895873
0.00966598444546
0.0096577327273
0.00964380618885
0.00962292717148
0.009571015969
0.00944808907531
0.00920391274745
0.00877580857847
0.00808707060235
0.00704732011725
0.00547155658256
0.0024195018978
0.00238500459928
0.0053890294594
0.00697246065408
0.00803039523472
0.0087401715097
0.00918476060101
0.0094292085934
0.00953676195517
0.00956825134678
0.00956714531848
0.00955401458805
0.00952816536239
0.00946760815637
0.00933536726667
0.00908397003815
0.0086528523766
0.00796952314489
0.00694748786881
0.00539936932676
0.00239293990934
0.00233478353399
0.00525592556738
0.00678540358447
0.00780478575487
0.00849107446511
0.00892629499209
0.0091745561697
0.00929372181359
0.00933722021209
0.00934387281839
0.00933273721137
0.00930356059261
0.00923687075589
0.00909892172978
0.00884458109537
0.00841682846315
0.00775205323096
0.00676215528008
0.00526291998245
0.00233979161742
0.00224362611879
0.00502520118968
0.00646955341177
0.00742833903878
0.00807282653402
0.00848684323009
0.00872932580968
0.0088537239056
0.00890567094742
0.00891904759844
0.00891101504433
0.00888135964907
0.00881302471995
0.00867557135289
0.00842662639382
0.00801763300638
0.00738767030182
0.00645102572148
0.00503061087033
0.00224640332591
0.00209280889562
0.0046547947827
0.00597383934626
0.00684444941169
0.00742723533887
0.00780133901282
0.00802424494749
0.00814472906934
0.00819925992065
0.00821710960784
0.00821304870304
0.00818650923059
0.00812227922292
0.00799436033312
0.0077665014421
0.00739345253861
0.00681902222434
0.00596316162642
0.00466095275296
0.00209447150617
0.00185514679577
0.00408436118154
0.00522650055016
0.00597404236125
0.00646984365058
0.00678613752769
0.00697480107097
0.00707757201732
0.007126938325
0.00714607692962
0.0071464146242
0.0071270694328
0.00707530874478
0.0069686673842
0.00677602990695
0.00645832472562
0.00596565719918
0.0052258339338
0.0040931767259
0.00185668779874
0.00148604809056
0.00319903930897
0.00408458591749
0.00465572440526
0.00502761487085
0.00526119609061
0.00539913466877
0.00547432430347
0.0055117317394
0.0055283261243
0.00553214810928
0.00552199061281
0.00548794306248
0.00541266805059
0.00527223530998
0.00503590909355
0.004663052763
0.00409347147528
0.00321062251782
0.00148735925173
0.000956075801738
0.0014860658575
0.001855224452
0.00209319416569
0.00224472916895
0.00233726752098
0.00238980422446
0.00241680852786
0.00242927626698
0.00243488700783
0.0024374715548
0.00243604112123
0.00242556626944
0.0023982628328
0.0023437946437
0.00224889938742
0.00209567655361
0.00185709847079
0.00148748706367
0.000954167206785
0.00100103242116
0.00165180971798
0.00211150354814
0.00241301068268
0.00260725823293
0.00272589936628
0.0027919803291
0.00282408082262
0.00283708934705
0.00284149827212
0.00284257231863
0.00283964166394
0.00282678630762
0.00279367443561
0.00272635894838
0.00260731786529
0.00241409754265
0.002114515953
0.00165557630071
0.00100081572378
0.00165195257258
0.00365846584134
0.00472249339464
0.00542183384344
0.00588154796075
0.00616896363642
0.00633421879961
0.00641833566453
0.00645417946191
0.00646450389017
0.00646077359766
0.00644308985719
0.00639995585638
0.00630921105289
0.00614017514135
0.00585413599916
0.00540233191348
0.00471612356121
0.00366543596113
0.00165539318734
0.00211106293425
0.00472125795019
0.00608700991776
0.00699602306906
0.0076047730531
0.00799174616783
0.00821675378911
0.00833037942637
0.0083756198513
0.00838326608097
0.00836868576268
0.0083340885538
0.0082653360308
0.00813387496217
0.00790115654854
0.00751908737119
0.00692896840839
0.00604939737357
0.00471555818745
0.00211402657816
0.00241232541969
0.00542187453565
0.00699892592034
0.00805429039728
0.00876657776764
0.00922256058967
0.00948869630409
0.00961728638766
0.00966052666578
0.00965832568436
0.00963192832518
0.00958352912949
0.00949577975847
0.00933540656352
0.00906113879321
0.00861627358671
0.00793464901706
0.00692599932387
0.00540054024998
0.00241326703046
0.00260662797957
0.00588490730562
0.00761483710786
0.00877621393263
0.00956381711699
0.0100688841565
0.0103511097295
0.0104742436274
0.0105022968662
0.0104845764478
0.0104466152796
0.0103905738173
0.0102955651371
0.0101239550893
0.00982753690844
0.0093457284872
0.00860569701206
0.00750885242529
0.00584970060264
0.00260592769944
0.00272534877933
0.0061768767436
0.00801254287017
0.00924854328054
0.0100897945978
0.0106145200701
0.0108880566487
0.0109863467525
0.0109877137155
0.0109507474189
0.0109040797567
0.0108485559053
0.0107590012924
0.0105920560014
0.0102942823002
0.00980061768207
0.00903035636445
0.00787858921062
0.0061315252292
0.00272419516354
0.00279143317469
0.00634749872975
0.00825127371605
0.00953809766641
0.0104051202288
0.0109256844275
0.0111710965494
0.0112313521159
0.0111999181642
0.0111438947356
0.0110932576771
0.0110462324147
0.0109728506835
0.0108235903616
0.0105397186744
0.0100517096759
0.00927423401896
0.00809476305208
0.00629542807082
0.00279085277379
0.00282351343389
0.00643780281232
0.00838121217124
0.00969587576572
0.0105689822202
0.0110713281278
0.0112805617454
0.0113002154868
0.0112381658693
0.0111670471726
0.0111166368362
0.0110822514892
0.0110297303422
0.0109038790276
0.0106412594581
0.0101683643957
0.00939706261307
0.00820752595847
0.00638119897963
0.00282389568452
0.00283655524936
0.00648081377604
0.00844492613869
0.00977053969813
0.0106396341138
0.0111217392245
0.0112995299566
0.0112875624634
0.0112035632116
0.0111226955306
0.0110739632732
0.0110506327324
0.0110158308314
0.0109104950237
0.0106674886056
0.0102103045748
0.00944806419792
0.00825792155894
0.00642044887506
0.00283754635028
0.00284119751955
0.00649941170689
0.00847269329201
0.00980064393463
0.0106645850305
0.011133220939
0.0112926011988
0.0112634691544
0.0111680978243
0.0110823372209
0.0110346590375
0.0110173129347
0.0109920412088
0.0108980362653
0.0106664804332
0.0102192709027
0.00946386230616
0.00827618726407
0.00643559135604
0.00284202182015
0.00284306400376
0.00650484196732
0.00847854229298
0.0098059429572
0.0106682449143
0.0111341994858
0.0112909636173
0.0112601846387
0.0111640752428
0.0110779980038
0.0110301525399
0.011012648496
0.0109871317805
0.0108930659069
0.0106621469094
0.0102163928262
0.0094629231281
0.00827708240129
0.0064378936177
0.0028428288281
0.00284166815841
0.00649603621379
0.00846142333602
0.00978508229262
0.01064917398
0.0111229641775
0.011292338648
0.0112748419936
0.0111883909713
0.0111066547878
0.0110576966025
0.0110342918473
0.0109992609034
0.0108943278419
0.0106537341992
0.0102011744694
0.00944476769628
0.00826008069441
0.00642659094961
0.00283952834498
0.00283079995202
0.00646000062679
0.0084050814044
0.00971560237745
0.0105798909579
0.0110680183081
0.0112622895138
0.0112714594474
0.0112046165692
0.0111320641733
0.0110818897402
0.011048513252
0.0109972327369
0.0108739553077
0.0106168865706
0.0101523617882
0.00939061665094
0.00820943654726
0.00638923684288
0.00282597969253
0.0027994375358
0.00637267209336
0.00827786609762
0.00955858352313
0.0104135514428
0.0109150188885
0.0111395579244
0.0111839239047
0.0111444023997
0.0110858869852
0.0110362255249
0.0109923713259
0.0109235103367
0.0107808968755
0.0105066860771
0.0100305495762
0.00926513162112
0.00809496749436
0.0063030868798
0.00279181371651
0.00273276249598
0.00620124192487
0.00803790824556
0.00926891285032
0.0100970420969
0.0106015050253
0.0108519725077
0.0109315415145
0.0109223202513
0.010881683656
0.010836317793
0.0107856827926
0.0107034512595
0.0105462433613
0.0102603665652
0.00977927330203
0.00901997089699
0.00787648924747
0.00613718767626
0.00272329873969
0.00261273827008
0.00590610790937
0.00763685743126
0.00879517318163
0.00957406166162
0.0100633050667
0.0103260242158
0.0104323458018
0.0104502402498
0.0104285870151
0.0103916146613
0.0103402615336
0.0102523427477
0.0100897226831
0.0098029072694
0.00932972306033
0.0085960855184
0.00750517605606
0.00585305322694
0.00260332853059
0.00241700137022
0.00543918555379
0.00701743758535
0.00807200382276
0.00878098974755
0.00923019608339
0.00948592080292
0.00960435383273
0.00964078550098
0.00963563834814
0.00960963911522
0.00956392592266
0.00947977471124
0.00932346310528
0.00905195375387
0.00860845242281
0.00792813042707
0.00692244791853
0.00540248824455
0.00240986911993
0.00211433805018
0.00473469699962
0.00610252781646
0.00701317427338
0.00762287779594
0.00800956373534
0.00823306945746
0.00834472544517
0.00838812280992
0.00839490259484
0.00838078770656
0.00834683537164
0.00827732348839
0.00814344052698
0.00790680170858
0.00752053832391
0.00692754773165
0.00604793321646
0.00471768053349
0.0021109987694
0.00165360728146
0.00366766333429
0.00473450258047
0.00543731970008
0.00590092370229
0.0061921238886
0.0063607262732
0.00644764992869
0.00648568116494
0.00649763193437
0.00649475530808
0.00647636361282
0.00643005968569
0.00633367226234
0.0061573415315
0.00586398772224
0.00540666364752
0.00471823191391
0.00366921286253
0.00165335035547
0.00100065922309
0.00165353632073
0.0021143481702
0.00241710931753
0.00261297383073
0.00273352232793
0.00280168633834
0.00283588962719
0.00285071954083
0.00285637783728
0.00285784904528
0.00285415525185
0.00283904684527
0.00280235473851
0.0027307787043
0.00260782532819
0.0024120379054
0.00211184179188
0.00165376055842
0.00099792514726
0.00103558331502
0.0017966200291
0.00234451382486
0.00271042071557
0.00294787664951
0.00309099340042
0.0031668476817
0.00319924844756
0.00320803985636
0.00320710736455
0.00320355186734
0.00319689081257
0.00318000286219
0.0031398570207
0.00305893242224
0.00291614420086
0.00268570630087
0.00233187521359
0.00179570998783
0.0010354867124
0.00179766880425
0.00409601865185
0.00536075110036
0.00621394494361
0.0067800514297
0.00712847076822
0.0073174019647
0.0073995766943
0.00741925830899
0.0074075380891
0.00738142799951
0.00734241002209
0.00727738488441
0.0071591172703
0.00695000275856
0.00660453227412
0.00606804319324
0.00526670494911
0.0040616430082
0.00179556694296
0.00234586918596
0.00536344930832
0.00700559080116
0.00812606670742
0.00888188266854
0.00935469569111
0.00961379811953
0.00972197066627
0.00973868848551
0.00970547868129
0.0096475213892
0.00956949015615
0.00945759708504
0.00927749414258
0.00898405749858
0.00852015221176
0.00781922630214
0.00679382805426
0.00526548992318
0.00233130504009
0.0027139766904
0.00622778975161
0.00814189319785
0.00945073975359
0.0103417339122
0.0109023137491
0.0112035165014
0.0113099428521
0.0112989162569
0.0112312485256
0.0111397830885
0.0110307092132
0.0108843861823
0.0106620246256
0.0103149517671
0.00977983430433
0.00897801789925
0.00780735128296
0.00606083824304
0.00268393801236
0.00295515292375
0.00681171423686
0.00892577549441
0.0103764412912
0.0113695427542
0.0119796601511
0.0122701587903
0.0123322127519
0.0122680258496
0.0121563404011
0.0120361526126
0.0119119872003
0.0117577284254
0.0115264506752
0.0111616259159
0.0105944621081
0.00973998187644
0.00847928733055
0.00658332140396
0.00291149340621
0.00310256109343
0.00718209400903
0.00943695756916
0.0109930150723
0.0120476863214
0.0126499943959
0.01287798597
0.0128541892992
0.0127157976187
0.0125583039734
0.0124228005871
0.0123074216745
0.0121762166989
0.0119701322062
0.0116239353664
0.0110637816143
0.0101965733805
0.00889387837853
0.00690571846168
0.00304941226329
0.00318289078478
0.00739585331518
0.00974451147453
0.0113717787394
0.0124370799929
0.0129854892794
0.0131089026307
0.0129747163815
0.0127559604671
0.0125614724262
0.0124283082642
0.0123440948041
0.0122613180421
0.0121063709872
0.0118040219011