/*--------------------------------*- C++ -*----------------------------------*\
| =========                 |                                                 |
| \\      /  F ield         | OpenFOAM: The Open Source CFD Toolbox           |
|  \\    /   O peration     | Version:  3.0.1                                 |
|   \\  /    A nd           | Web:      www.OpenFOAM.org                      |
|    \\/     M anipulation  |                                                 |
\*---------------------------------------------------------------------------*/
FoamFile
{
    version     2.0;
    format      ascii;
    class       volScalarField;
    location    "4.1";
    object      p;
}
// * * * * * * * * * * * * * * * * * * * * * * * * * * * * * * * * * * * * * //

dimensions      [1 -1 -2 0 0 0 0];

internalField   nonuniform List<scalar> 
7968
(
4702.48934295
4702.48596861
4702.46995863
4702.4440533
4702.40940561
4702.36896507
4702.32612267
4702.28336766
4702.24285591
4702.20588957
4702.17386695
4702.14823899
4702.12945117
4702.11752369
4702.111656
4702.11036103
4702.11124237
4702.1120766
4702.11199095
4702.10793471
4702.48702671
4702.49160907
4702.48004401
4702.45698076
4702.42327703
4702.38257469
4702.33872111
4702.29481762
4702.25316833
4702.21547621
4702.18303274
4702.15732667
4702.13881416
4702.12741765
4702.12206758
4702.12072879
4702.12062445
4702.11897008
4702.11543661
4702.10478841
4702.473537
4702.48258966
4702.47355429
4702.45193746
4702.41810731
4702.37616262
4702.33048808
4702.28475623
4702.24155698
4702.20287165
4702.16993122
4702.14454448
4702.12694961
4702.11686722
4702.11294474
4702.1126717
4702.11276111
4702.11000353
4702.10468925
4702.09051809
4702.45227766
4702.46425921
4702.45671102
4702.43545674
4702.40058809
4702.35662292
4702.30852945
4702.26055449
4702.21535646
4702.17553132
4702.1417162
4702.11682984
4702.10047277
4702.09209938
4702.09020304
4702.09181322
4702.09305385
4702.09029531
4702.08407785
4702.06780843
4702.42508028
4702.43812382
4702.43051591
4702.40826176
4702.37144997
4702.32494839
4702.2739132
4702.22322015
4702.17596214
4702.13457595
4702.10056899
4702.0759091
4702.06065494
4702.05421502
4702.05467634
4702.05871974
4702.06198921
4702.06052467
4702.05473499
4702.03807065
4702.3954904
4702.40839791
4702.39960603
4702.37536168
4702.33599581
4702.28628374
4702.23220299
4702.17863038
4702.12905338
4702.08608266
4702.05161371
4702.02726135
4702.01322152
4702.00876745
4702.01169883
4702.0184215
4702.02421581
4702.02487108
4702.02044692
4702.00441287
4702.36734739
4702.37932096
4702.36871562
4702.34203692
4702.2996808
4702.24686716
4702.18961161
4702.13317583
4702.08131941
4702.03679568
4702.00166353
4701.97746995
4701.96452389
4701.96189602
4701.96718723
4701.97646154
4701.98480873
4701.98780886
4701.98516791
4701.97030161
4702.34343725
4702.35426121
4702.34174975
4702.31270917
4702.2675214
4702.21171671
4702.15154336
4702.09251273
4702.03844291
4701.99227141
4701.95638762
4701.93221659
4701.92004588
4701.91889816
4701.92612155
4701.93754749
4701.94809957
4701.95313816
4701.95218229
4701.93831189
4702.32593401
4702.33558106
4702.32137271
4702.29010339
4702.2426801
4702.18435622
4702.12174733
4702.06040329
4702.00419967
4701.95643216
4701.91980333
4701.89547474
4701.8837959
4701.88359616
4701.89215314
4701.90506501
4701.91708474
4701.9236755
4701.92403253
4701.91107838
4702.31579348
4702.32466989
4702.30923768
4702.27643098
4702.22727182
4702.16708141
4702.10267536
4702.03945698
4701.98149538
4701.93250369
4701.89539289
4701.87021938
4701.85856325
4701.85866625
4701.86773008
4701.8812461
4701.89392396
4701.90126166
4701.90235145
4701.89008735
4702.31381894
4702.32220503
4702.30613779
4702.27250112
4702.22237201
4702.1611187
4702.09558221
4702.03118115
4701.97197044
4701.92139787
4701.8825097
4701.85797431
4701.8460208
4701.8457159
4701.85432183
4701.86742525
4701.87980152
4701.88700178
4701.88814322
4701.87623944
4702.32011407
4702.3282986
4702.31220047
4702.2784843
4702.22819984
4702.16673725
4702.10081226
4702.03602434
4701.97644509
4701.92552453
4701.88619262
4701.86007923
4701.84686088
4701.84525561
4701.85239705
4701.8640594
4701.87516504
4701.8813223
4701.88183053
4701.86994799
4702.33389464
4702.34230353
4702.32673102
4702.2937186
4702.24393689
4702.18305929
4702.11752146
4702.05298638
4701.99357621
4701.94255468
4701.90253233
4701.87505542
4701.86012871
4701.8564445
4701.86127251
4701.87059736
4701.8795869
4701.88389923
4701.88317657
4701.87107096
4702.35419641
4702.36290235
4702.34820305
4702.31625918
4702.26776956
4702.20818853
4702.14377071
4702.08003523
4702.02110984
4701.97015479
4701.92945526
4701.90059229
4701.88356768
4701.87726484
4701.87914852
4701.88543565
4701.89154791
4701.8935191
4701.89118484
4701.8789185
4702.37894157
4702.38786697
4702.37412737
4702.34354802
4702.2967769
4702.23892135
4702.17617535
4702.11377186
4702.05567204
4702.00487212
4701.96347937
4701.93303678
4701.91364955
4701.90438626
4701.90291484
4701.90576063
4701.9086787
4701.90799917
4701.90392298
4701.89101253
4702.40544055
4702.41399468
4702.40082832
4702.37146421
4702.32636354
4702.27058511
4702.20971435
4702.14890878
4702.09184329
4702.04133838
4701.99927866
4701.96724432
4701.94547935
4701.93317069
4701.92825385
4701.92758903
4701.92736233
4701.9242254
4701.91875907
4701.90557144
4702.43010012
4702.43732595
4702.42387485
4702.39503571
4702.35128324
4702.29733662
4702.23848534
4702.1793442
4702.12335918
4702.07321424
4702.03071337
4701.99708726
4701.97328889
4701.95813454
4701.95003293
4701.94623548
4701.9434203
4701.93859238
4701.93253927
4701.9197744
4702.44967703
4702.45405686
4702.43903602
4702.40964016
4702.36659866
4702.31421429
4702.25721642
4702.19973604
4702.14495346
4702.09529703
4702.05253448
4702.01794768
4701.99209968
4701.97451647
4701.96377749
4701.95756904
4701.95310569
4701.94776396
4701.94198826
4701.93137181
4702.46244438
4702.46293462
4702.44564676
4702.41488389
4702.371845
4702.32042953
4702.26488199
4702.2088183
4702.15508571
4702.10595568
4702.06312048
4702.02785608
4702.00071324
4701.98150818
4701.9690868
4701.96153602
4701.9564983
4701.9516906
4701.94701399
4701.93845505
4702.4648578
4702.45838898
4702.43720553
4702.4039379
4702.36007263
4702.3089015
4702.25424434
4702.19919639
4702.14615668
4702.09758064
4702.0550573
4702.01985172
4701.9925585
4701.97312056
4701.96034818
4701.95285071
4701.94858102
4701.94561616
4701.94321112
4701.93913735
4207.08914431
4207.08177909
4207.06183862
4207.03270951
4206.99628056
4206.9553088
4206.91236165
4206.86976839
4206.82906628
4206.79176909
4206.75868725
4206.7317202
4206.71158037
4206.69861042
4206.69234399
4206.69141818
4206.69395854
4206.69780215
4206.70140235
4206.70129267
4207.08236855
4207.0830326
4207.06658313
4207.04095781
4207.00860787
4206.9717536
4206.93237472
4206.89247111
4206.85333161
4206.81618118
4206.78214282
4206.75317339
4206.73021569
4206.71392971
4206.70413254
4206.69966236
4206.69898412
4206.70020925
4206.7014894
4206.69491546
4207.0643311
4207.06845407
4207.05251717
4207.02841545
4206.99855023
4206.96436414
4206.92722777
4206.88882841
4206.85034448
4206.81296561
4206.77789455
4206.74748931
4206.72262898
4206.70429268
4206.69236438
4206.68593637
4206.68376628
4206.68442252
4206.68614135
4206.67724481
4207.03907209
4207.04657561
4207.03210677
4207.01008814
4206.98279189
4206.95079469
4206.91500886
4206.87714453
4206.83855197
4206.80066997
4206.76341505
4206.73200604
4206.70546553
4206.68600663
4206.67269819
4206.66486336
4206.66140365
4206.66127773
4206.66265062
4206.65147194
4207.00933649
4207.02078072
4207.00870685
4206.98924111
4206.96449464
4206.93412107
4206.8992388
4206.86072324
4206.82058088
4206.7807677
4206.74287442
4206.71005689
4206.68303121
4206.66260089
4206.64824195
4206.63940703
4206.63473504
4206.63353482
4206.6337544
4206.61977593
4206.97860712
4206.99412602
4206.98468421
4206.96745629
4206.94432188
4206.91502835
4206.87902394
4206.83858794
4206.796016
4206.75393344
4206.7148651
4206.68140768
4206.65443963
4206.63428231
4206.6202626
4206.61096172
4206.60557218
4206.60346077
4206.60221886
4206.58525409
4206.95002603
4206.9691907
4206.96204278
4206.94630917
4206.92421263
4206.89368876
4206.85551576
4206.81211207
4206.76631506
4206.72160732
4206.68132962
4206.64788293
4206.62175122
4206.60276778
4206.58989439
4206.58125076
4206.57578512
4206.57319169
4206.5705668
4206.55088921
4206.92625505
4206.94833621
4206.94277706
4206.92759097
4206.905143
4206.87275045
4206.83164411
4206.78441884
4206.73491379
4206.68741559
4206.64582767
4206.61259329
4206.58799739
4206.57090336
4206.55982125
4206.55244279
4206.54748971
4206.54486799
4206.54121079
4206.519555
4206.90898041
4206.93298312
4206.92825409
4206.91320893
4206.88931352
4206.85455264
4206.81020989
4206.75923332
4206.70617894
4206.65593509
4206.61302398
4206.57989997
4206.55666767
4206.5416299
4206.53247215
4206.52659338
4206.52268791
4206.52002286
4206.51574785
4206.49286626
4206.89941296
4206.92396735
4206.91919756
4206.90346864
4206.87810997
4206.84115992
4206.79409918
4206.74026278
4206.68440922
4206.63192024
4206.58778403
4206.55441148
4206.53186121
4206.51807086
4206.51017939
4206.5053639
4206.5021704
4206.49970636
4206.4952983
4206.47207477
4206.89781489
4206.92172634
4206.91619207
4206.89934859
4206.87258702
4206.83409314
4206.78545542
4206.73001591
4206.67260663
4206.61866899
4206.57337951
4206.53952104
4206.51664992
4206.50272406
4206.49486966
4206.49021496
4206.48720057
4206.48490482
4206.4807259
4206.45808385
4206.90427106
4206.92639345
4206.9194144
4206.90109342
4206.87308346
4206.83377686
4206.78475618
4206.72913108
4206.67162972
4206.61745467
4206.57145606
4206.53637892
4206.51204586
4206.49654695
4206.48746296
4206.48201169
4206.47857659
4206.476317
4206.47262352
4206.45136952
4206.9184935
4206.93767456
4206.92855549
4206.90821217
4206.87917935
4206.83950669
4206.79089338
4206.73622257
4206.67972286
4206.62612994
4206.579685
4206.54315452
4206.51657184
4206.49875972
4206.48768728
4206.48081582
4206.47646666
4206.47419314
4206.47118025
4206.45185904
4206.93928104
4206.95481146
4206.94307057
4206.92062873
4206.89003174
4206.84998984
4206.80193323
4206.74872573
4206.69383734
4206.64126245
4206.59449617
4206.55647371
4206.52763363
4206.50744487
4206.49425824
4206.48586783
4206.48070294
4206.47819638
4206.47594282
4206.45874175
4206.96498793
4206.97642867
4206.96171205
4206.93676091
4206.90376617
4206.86337045
4206.81573463
4206.76372997
4206.71033926
4206.65883308
4206.61208972
4206.57296284
4206.5423138
4206.52012608
4206.50516201
4206.49551789
4206.48981327
4206.48718125
4206.48578926
4206.47133583
4206.99304045
4207.00021185
4206.98249676
4206.95480489
4206.91955709
4206.8771534
4206.82954594
4206.77827656
4206.72605721
4206.67552054
4206.6291987
4206.58951305
4206.55764518
4206.53410027
4206.51794647
4206.50767869
4206.50173685
4206.49920929
4206.49864823
4206.48699146
4207.02042361
4207.02362417
4207.00336986
4206.97300493
4206.93508973
4206.8908389
4206.84191644
4206.79073937
4206.7393138
4206.68955449
4206.64378851
4206.60419308
4206.57148872
4206.54740213
4206.53080071
4206.52033233
4206.51451967
4206.51222696
4206.51224359
4206.50311827
4207.04394784
4207.04387627
4207.02215519
4206.98980893
4206.94949946
4206.90319079
4206.85291722
4206.80105706
4206.7495118
4206.70015161
4206.65491454
4206.61559628
4206.58345988
4206.55929117
4206.54263444
4206.5322445
4206.5266186
4206.52435275
4206.5242634
4206.51713581
4207.06115201
4207.05816649
4207.03617076
4207.00256959
4206.96009423
4206.91140758
4206.8590911
4206.80580555
4206.7536062
4206.70430655
4206.65963603
4206.6211899
4206.59010657
4206.56688963
4206.55110809
4206.54145093
4206.53628796
4206.53389618
4206.53291348
4206.52718158
4207.0679245
4207.0579128
4207.03297835
4206.99635895
4206.95027446
4206.89789658
4206.84237366
4206.78670042
4206.73341553
4206.68413193
4206.64049527
4206.60391455
4206.57516982
4206.55451982
4206.54150871
4206.53457393
4206.53182679
4206.53131081
4206.53170124
4206.53039121
3711.71301816
3711.70400046
3711.68095555
3711.64816479
3711.60850532
3711.56488663
3711.51984203
3711.4755299
3711.4333665
3711.39445555
3711.35890635
3711.33043635
3711.30913554
3711.29566577
3711.28982413
3711.2903295
3711.29523012
3711.30209096
3711.30851269
3711.31015184
3711.70378661
3711.70852405
3711.69276617
3711.66607954
3711.63369037
3711.59733919
3711.55841312
3711.51831579
3711.47819309
3711.4392928
3711.40261484
3711.3710337
3711.34545138
3711.3267178
3711.31494115
3711.30932294
3711.30857316
3711.31091546
3711.31206629
3711.30251847
3711.68154822
3711.6936331
3711.67989701
3711.6544037
3711.62488859
3711.59226573
3711.55681485
3711.51933521
3711.48055384
3711.44158286
3711.40352877
3711.36966656
3711.34101401
3711.31884535
3711.30378563
3711.29553647
3711.29340414
3711.29595608
3711.29680576
3711.28199339
3711.65128848
3711.6694918
3711.65702815
3711.63168839
3711.60355813
3711.57272198
3711.53845708
3711.50187013
3711.4630363
3711.42340168
3711.38363029
3711.34815043
3711.31784044
3711.29362652
3711.27695135
3711.2679208
3711.26599848
3711.27002838
3711.27139149
3711.25251963
3711.61703005
3711.64252177
3711.6329616
3711.60900425
3711.5824476
3711.55271428
3711.45017511
3711.38688119
3711.37300894
3711.33736574
3711.30239566
3711.27127855
3711.29248551
3711.30111415
3711.24717577
3711.23822199
3711.2362105
3711.24067136
3711.2411225
3711.21724034
3711.58265035
3711.6155752
3711.60984958
3711.58776051
3711.56235848
3711.32954233
3711.01841411
3711.01687487
3711.10687271
3711.08893616
3711.0727074
3711.06099776
3711.21130359
3711.40229859
3711.32823627
3711.20840049
3711.2060147
3711.21012107
3711.20863886
3711.17956776
3711.55143461
3711.59084435
3711.58882268
3711.56814528
3711.46802661
3710.90828701
3710.59813113
3710.80732208
3711.01008712
3710.99395892
3710.98090233
3710.97367986
3711.23716753
3711.63008579
3711.59126536
3711.22077662
3711.1764121
3711.17993148
3711.1762334
3711.14261442
3711.52603632
3711.57025005
3711.57111253
3711.55135998
3711.3579716
3710.66760659
3710.49053403
3710.83434057
3711.09564355
3711.06533193
3711.03989603
3711.02208888
3711.33789076
3711.82828508
3711.84158943
3711.28488786
3711.14862524
3711.15161415
3711.14599406
3711.10904918
3711.50811251
3711.55506502
3711.55764712
3711.5379787
3711.31387831
3710.61818298
3710.49275451
3710.88625464
3711.16497225
3711.12292423
3711.08738806
3711.06111403
3711.39179004
3711.90929508
3711.92413598
3711.30939647
3711.12344865
3711.12634758
3711.11948293
3711.08068328
3711.4985018
3711.54622453
3711.54913014
3711.52884302
3711.29792385
3710.58300274
3710.4549062
3710.85884455
3711.14402164
3711.09943217
3711.06248041
3711.0360382
3711.37704322
3711.90972983
3711.92492849
3711.2929402
3711.10225216
3711.10517152
3711.09790765
3711.05868947
3711.49752317
3711.5442515
3711.54615171
3711.52456272
3711.28681941
3710.55330698
3710.42357201
3710.83950156
3711.13255453
3711.08648873
3711.04855534
3711.02147727
3711.37158001
3711.91815558
3711.9323768
3711.28210907
3711.08616943
3711.08919375
3711.08221713
3711.04387707
3711.50521476
3711.54926059
3711.54890951
3711.52541042
3711.28093612
3710.52956707
3710.39929443
3710.82906926
3711.13157539
3711.08533043
3711.04668967
3711.01849419
3711.37670324
3711.93569439
3711.9475337
3711.27790387
3711.0761215
3711.07923305
3711.0730988
3711.0368
3711.52120368
3711.56093538
3711.55718619
3711.53136354
3711.34636207
3710.65122662
3710.53803363
3710.9677261
3711.26013715
3711.20418721
3711.15478314
3711.11484894
3711.4496129
3711.96527965
3711.92043222
3711.23992584
3711.07262198
3711.0756786
3711.07088686
3711.03762509
3711.54456421
3711.57847995
3711.57054838
3711.54205553
3711.46756869
3711.00597834
3710.88406174
3711.24046451
3711.47213985
3711.40050566
3711.33406898
3711.27587704
3711.52482313
3711.880109
3711.67960591
3711.14307626
3711.07529588
3711.07837849
3711.07521146
3711.04582995
3711.57365387
3711.60061125
3711.58821277
3711.55716265
3711.52044208
3711.35811314
3711.24471286
3711.42126734
3711.54024562
3711.46615806
3711.39592664
3711.33295295
3711.44503197
3711.53541049
3711.29019217
3711.08660267
3711.08364581
3711.08648817
3711.08490378
3711.06012465
3711.60585927
3711.62538169
3711.60885944
3711.57540223
3711.53657546
3711.49286194
3711.3991274
3711.3879493
3711.39232668
3711.33436055
3711.27978661
3711.23131644
3711.23301821
3711.20003707
3711.11026215
3711.09964395
3711.09616886
3711.09845397
3711.09807214
3711.07818236
3711.63801093
3711.65055021
3711.63114722
3711.59625381
3711.55566377
3711.51036837
3711.46052246
3711.40884265
3711.35555285
3711.30307174
3711.25382097
3711.21019879
3711.17406354
3711.14624109
3711.12715338
3711.11591043
3711.11153987
3711.11261525
3711.11256282
3711.09720925
3711.66656375
3711.67344693
3711.65297745
3711.61811023
3711.57642428
3711.52955929
3711.47872429
3711.42569408
3711.37205302
3711.31979996
3711.27110578
3711.22798685
3711.19219704
3711.16470227
3711.14549451
3711.13364616
3711.12799486
3711.12704219
3711.12610839
3711.11425632
3711.68801871
3711.68859831
3711.66667239
3711.63106472
3711.58708579
3711.53706944
3711.48319916
3711.42776002
3711.37284271
3711.32049068
3711.27264881
3711.23109547
3711.19724321
3711.1717167
3711.15419212
3711.14348636
3711.13808235
3711.13627958
3711.1349162
3711.12676719
3711.69726553
3711.68567868
3711.65743162
3711.61655211
3711.5662141
3711.50982009
3711.45061051
3711.39156062
3711.33502357
3711.28284314
3711.23664758
3711.19796564
3711.16788339
3711.14674991
3711.13402984
3711.12820803
3711.12725548
3711.12894424
3711.13127867
3711.13107647
3216.36009201
3216.34912216
3216.32260351
3216.28551325
3216.24186202
3216.19481683
3216.14697062
3216.10027468
3216.05598512
3216.01573407
3215.97403709
3215.94407415
3215.92080242
3215.9061761
3215.90044269
3215.90240302
3215.90986442
3215.91997971
3215.92944909
3215.93320747
3216.34763924
3216.35553668
3216.34103249
3216.31390813
3216.28154936
3216.2453369
3216.20620843
3216.16506906
3216.12299561
3216.0814757
3216.04011655
3216.00502696
3215.9758679
3215.95395042
3215.93976085
3215.93274447
3215.93154916
3215.93434807
3215.93506427
3215.92386593
3216.32003223
3216.34020264
3216.33095575
3216.3051325
3216.27484293
3216.24113755
3216.20426244
3216.16475531
3216.12343736
3216.08168563
3216.03800723
3216.00129422
3215.96930893
3215.94452392
3215.92795571
3215.91934877
3215.91777482
3215.92109034
3215.91953477
3215.89977212
3216.28316238
3216.3135523
3216.30592143
3216.27732585
3216.2443732
3216.08508855
3215.8314408
3215.77786666
3215.80274106
3215.78323896
3215.76423694
3215.74969817
3215.84521658
3215.9971888
3215.95352976
3215.88281567
3215.88469325
3215.89229552
3215.89175668
3215.86552314
3216.24267697
3216.28465035
3216.27933365
3216.24811403
3215.91647258
3215.20340318
3214.85034609
3215.04954449
3215.25217658
3215.27094563
3215.29164862
3215.31724901
3215.59744096
3216.08553043
3216.25498764
3216.00323551
3215.84796288
3215.85926365
3215.8590395
3215.82534683
3216.2031086
3216.2564521
3216.25395817
3216.08612783
3215.05391078
3214.26327957
3214.33887191
3214.78684276
3215.07407265
3215.09673947
3215.12295686
3215.15543192
3215.52375278
3216.22765679
3216.73772832
3216.51510409
3215.88653579
3215.82498876
3215.82417495
3215.78316168
3216.16811613
3216.23100493
3216.23108704
3215.7155945
3214.28977924
3213.95421709
3214.21096047
3214.68782455
3214.99727055
3215.01617802
3215.04062808
3215.0730619
3215.48365658
3216.28652335
3217.00936083
3217.1536262
3216.11954752
3215.79140675
3215.78953349
3215.74239357
3216.14034948
3216.20995409
3216.211951
3215.43402578
3214.05445296
3213.97772867
3214.24233406
3214.73858526
3215.05524033
3215.06048687
3215.07372613
3215.09729129
3215.52720077
3216.38298689
3217.16193474
3217.52016624
3216.39610388
3215.75993738
3215.75704137
3215.70571147
3216.1213829
3216.1944557
3216.19765446
3215.34518493
3214.01755327
3214.00234912
3214.28018687
3214.79118329
3215.11222083
3215.10696407
3215.11140708
3215.12765703
3215.56640423
3216.44727602
3217.24743972
3217.64376645
3216.49115369
3215.73182336
3215.72825531
3215.67485676
3216.11181697
3216.18568243
3216.1888017
3215.31351395
3213.95383443
3213.94573827
3214.23776851
3214.76436927
3215.09347041
3215.08576614
3215.08901528
3215.10525205
3215.55569661
3216.45864397
3217.2768652
3217.67918451
3216.49013751
3215.70873744
3215.70456345
3215.65086823
3216.11186691
3216.18426237
3216.18607138
3215.28789797
3213.89689915
3213.89718185
3214.20479997
3214.74946209
3215.08783589
3215.07883768
3215.08116013
3215.09670761
3215.55674245
3216.48082692
3217.31547644
3217.72221079
3216.49542454
3215.6909368
3215.68696869
3215.6345478
3216.12147939
3216.19021958
3216.18972283
3215.2685919
3213.84710095
3213.85706625
3214.18162556
3214.74687315
3215.0956965
3215.0865428
3215.08821442
3215.10271419
3215.57201538
3216.51490688
3217.36424921
3217.77385033
3216.50801671
3215.67942123
3215.67632249
3215.62658001
3216.14027225
3216.2031493
3216.19931836
3215.40669355
3213.99030667
3213.99688322
3214.34415753
3214.92804832
3215.27687494
3215.25464905
3215.24222952
3215.2417961
3215.70280237
3216.6378195
3217.46606144
3217.79539787
3216.43180912
3215.67564826
3215.67327321
3215.62742678
3216.16743943
3216.22210877
3216.21449978
3215.80099943
3214.51194691
3214.37382911
3214.74984106
3215.33995046
3215.66940891
3215.61779405
3215.57431611
3215.54135122
3215.96246064
3216.8331703
3217.5701676
3217.54765886
3216.12749011
3215.67901818
3215.67751142
3215.63679454
3216.20138437
3216.24583556
3216.23449324
3216.1198379
3215.3419472
3214.93669513
3215.23346856
3215.80791642
3216.09947189
3216.01589065
3215.93876714
3215.87074403
3216.22587761
3216.9750566
3217.38416351
3216.77758064
3215.79513415
3215.68861561
3215.68775898
3215.65337892
3216.23939066
3216.27264531
3216.25800957
3216.21549444
3215.99093272
3215.65820366
3215.76140222
3216.20866171
3216.41720734
3216.31254958
3216.21298654
3216.12116521
3216.34264557
3216.73508139
3216.58300684
3215.97442006
3215.69463831
3215.70282161
3215.70207541
3215.67469541
3216.27796013
3216.30035456
3216.28348989
3216.24324154
3216.19542317
3216.06157112
3215.97031874
3216.12556844
3216.19169646
3216.11381261
3216.04001271
3215.97289844
3216.01403784
3216.05477618
3215.85356692
3215.71656448
3215.71549977
3215.71957339
3215.71813189
3215.69755573
3216.31300905
3216.32620525
3216.30823088
3216.27089554
3216.22573122
3216.17474902
3216.11939449
3216.06118784
3216.00218895
3215.9449525
3215.89119911
3215.84365511
3215.8043457
3215.77444006
3215.75397089
3215.74193302
3215.7367678
3215.73633719
3215.73355574
3215.71849834
3216.33980591
3216.34253305
3216.32049536
3216.28260744
3216.23615348
3216.18329665
3216.12600408
3216.06633685
3216.00658638
3215.94914624
3215.89622451
3215.84994317
3215.81211875
3215.7835809
3215.764032
3215.75221651
3215.74642194
3215.74483865
3215.74307519
3215.73411374
3216.3523345
3216.33862492
3216.30625752
3216.25988516
3216.20375422
3216.14162906
3216.07698296
3216.01281912
3215.95142307
3215.89464655
3215.8442223
3215.8019313
3215.76921477
3215.74674552
3215.73399714
3215.72930547
3215.73031785
3215.73438996
3215.73883398
3215.74012945
2721.03643039
2721.02212807
2720.99174969
2720.9498429
2720.90169946
2720.85084595
2720.80003512
2720.75077645
2720.70353492
2720.65873948
2720.61588279
2720.58034525
2720.55298552
2720.535732
2720.52920352
2720.53221017
2720.54209828
2720.55549225
2720.56813306
2720.5750836
2721.01860686
2721.02406357
2721.0085388
2720.97962755
2720.94652589
2720.91021038
2720.87119347
2720.82980789
2720.78616777
2720.74115954
2720.69535056
2720.65383698
2720.61825843
2720.59101217
2720.57330439
2720.56471663
2720.56368516
2720.56801574
2720.57060769
2720.56275971
2720.98383455
2721.00471795
2720.99580952
2720.96712526
2720.93376363
2720.77590354
2720.52339518
2720.46558055
2720.48603454
2720.46388536
2720.44158593
2720.42193802
2720.51072648
2720.65666527
2720.61369106
2720.54432637
2720.54488003
2720.55112125
2720.55164818
2720.53424229
2720.93822741
2720.9726184
2720.96445642
2720.92004276
2720.363817
2719.65596443
2719.3803822
2719.55612728
2719.74466919
2719.77215635
2719.80158143
2719.83601603
2720.10027321
2720.55657358
2720.84900235
2720.76661587
2720.50575013
2720.51602637
2720.51920322
2720.49414957
2720.88946289
2720.93947726
2720.93153244
2720.33679232
2719.0978843
2718.62047454
2718.73483098
2719.06767815
2719.31630904
2719.36144508
2719.41089266
2719.46751651
2719.82349351
2720.5075466
2721.1534017
2721.34476704
2720.76217154
2720.47639909
2720.48220391
2720.44798377
2720.8430492
2720.90865197
2720.76313835
2719.28995153
2718.30839608
2718.18387341
2718.26883266
2718.61650961
2718.89611632
2718.95943384
2719.02956567
2719.10911133
2719.53016109
2720.35274688
2721.18675275
2721.80516349
2721.50240527
2720.51432227
2720.44382733
2720.40036499
2720.80327997
2720.88207744
2720.38603266
2718.55066827
2718.06222443
2717.89338513
2717.96006986
2718.31550346
2718.6121947
2718.68601091
2718.76958021
2718.8647389
2719.32724266
2720.24385685
2721.21454851
2721.98043237
2722.17028303
2720.7478807
2720.40656213
2720.35517679
2720.77281709
2720.86100023
2720.10543355
2718.35801536
2718.00921855
2717.82341736
2717.88628941
2718.24257589
2718.54116349
2718.60966366
2718.69221608
2718.78987416
2719.2730386
2720.24242261
2721.28866024
2722.12742472
2722.46948857
2721.01929287
2720.37201233
2720.31500079
2720.7528315
2720.84631058
2720.01919054
2718.32657515
2718.00280272
2717.82213086
2717.89340456
2718.25409504
2718.55906439
2718.62172497
2718.70000682
2718.79402858
2719.28531263
2720.28054233
2721.35697848
2722.21741072
2722.57661776
2721.10950781
2720.34122989
2720.28120775
2720.74365815
2720.83856312
2719.98905553
2718.25806403
2717.94178195
2717.77345549
2717.85996015
2718.2325072
2718.5459617
2718.60599871
2718.68328512
2718.77740892
2719.27898077
2720.29546604
2721.39185969
2722.26421524
2722.62165639
2721.10557402
2720.31499608
2720.25455241
2720.74528417
2720.83817926
2719.96573265
2718.19805113
2717.89129209
2717.73763179
2717.84108584
2718.23022092
2718.55212556
2718.611144
2718.68772948
2718.78126512
2719.29100688
2720.32620708
2721.44002769
2722.32193405
2722.67526911
2721.10826381
2720.29464626
2720.23585029
2720.75751003
2720.84508455
2719.94903423
2718.1466046
2717.85142256
2717.71475156
2717.83655467
2718.24690923
2718.57686256
2718.63603994
2718.7119741
2718.80435594
2719.32107052
2720.37290971
2721.50213494
2722.39153146
2722.7385466
2721.11877622
2720.28141494
2720.22600786
2720.78004222
2720.85899907
2720.09386161
2718.26484316
2717.99086614
2717.88283668
2718.02739899
2718.46304374
2718.79272571
2718.8377603
2718.89843261
2718.97507847
2719.4871052
2720.53816447
2721.64868066
2722.50133566
2722.78235165
2721.03781488
2720.27638485
2720.22603117
2720.81216521
2720.87938112
2720.49631187
2718.69839326
2718.39106927
2718.33682637
2718.51520022
2718.9767272
2719.29660856
2719.30667133
2719.32950718
2719.3665959
2719.84753446
2720.85164352
2721.86547363
2722.59248876
2722.60357161
2720.72902539
2720.27993033
2720.23611839
2720.8524342
2720.90553285
2720.81775416
2719.57580542
2718.92710143
2718.95351724
2719.1792888
2719.65668123
2719.94968751
2719.9115463
2719.88380947
2719.86859964
2720.28951798
2721.18582166
2722.02462913
2722.54727988
2721.83696339
2720.39957732
2720.29102335
2720.25507262
2720.89800784
2720.93594849
2720.91584847
2720.54207275
2719.73893839
2719.61760626
2719.89240614
2720.36067764
2720.60574518
2720.51981398
2720.44215887
2720.37518498
2720.70719295
2721.43466623
2722.0383562
2721.91205955
2720.79400981
2720.30263913
2720.30747201
2720.2801935
2720.9448232
2720.96842731
2720.94794864
2720.89272178
2720.51988118
2720.37353057
2720.56037476
2720.91893847
2721.08896657
2720.97244495
2720.86199176
2720.76023555
2720.9652073
2721.34674897
2721.33224952
2720.82741367
2720.32175677
2720.32440539
2720.32655959
2720.30766845
2720.98806146
2720.99992328
2720.97937128
2720.93619484
2720.88443839
2720.74260931
2720.64170582
2720.79422953
2720.85702967
2720.77221507
2720.69162285
2720.61778935
2720.65616204
2720.69596661
2720.48860989
2720.34686062
2720.34398363
2720.34632281
2720.34561982
2720.33335467
2721.02159188
2721.02085384
2720.99566405
2720.95327199
2720.90258059
2720.84557963
2720.78399907
2720.71957945
2720.65422892
2720.59009509
2720.5298276
2720.47620171
2720.43196034
2720.39880126
2720.37666635
2720.36404598
2720.35876592
2720.35857359
2720.35845395
2720.35273507
2721.0393187
2721.02195281
2720.98453462
2720.93147355
2720.86819372
2720.79896966
2720.72762724
2720.65706918
2720.58936757
2720.52626812
2720.46960556
2720.42159606
2720.38438241
2720.35916148
2720.34558717
2720.34174939
2720.34474983
2720.35134208
2720.35803152
2720.36158096
2225.74784222
2225.72853433
2225.69358941
2225.64481218
2225.5901128
2225.53409043
2225.47990783
2225.42843932
2225.37864082
2225.32973677
2225.28207669
2225.23988998
2225.20633299
2225.18483053
2225.17684181
2225.18111509
2225.19424433
2225.21191215
2225.2283897
2225.24021415
2225.72135604
2225.71539808
2225.69391258
2225.65838145
2225.62026884
2225.58070763
2225.47586378
2225.40721174
2225.38498716
2225.34196321
2225.296044
2225.25235666
2225.25819224
2225.25779282
2225.20616939
2225.19828521
2225.20057664
2225.21010567
2225.21913075
2225.22284008
2225.67628585
2225.68428356
2225.66932759
2225.6318842
2225.30661955
2224.76526327
2224.49817085
2224.51169639
2224.60888155
2224.6213466
2224.6333247
2224.6483598
2224.81741013
2225.1147639
2225.37780162
2225.30999244
2225.16863508
2225.18234514
2225.19101586
2225.18834074
2225.61730991
2225.63898519
2225.62286861
2225.04363952
2224.09775126
2223.57223998
2223.58388815
2223.79380605
2223.97460297
2224.01539165
2224.05943923
2224.11017747
2224.39673856
2224.95427681
2225.50159457
2225.66290402
2225.39674381
2225.13515748
2225.14904582
2225.14025709
2225.55571837
2225.59483328
2225.26720252
2223.89402916
2223.12844869
2222.87392952
2222.81222728
2223.01674848
2223.232114
2223.30866838
2223.39201143
2223.48536956
2223.85506491
2224.57747777
2225.36001479
2225.99610353
2226.03504585
2225.2579657