/*--------------------------------*- C++ -*----------------------------------*\
| =========                 |                                                 |
| \\      /  F ield         | OpenFOAM: The Open Source CFD Toolbox           |
|  \\    /   O peration     | Version:  3.0.1                                 |
|   \\  /    A nd           | Web:      www.OpenFOAM.org                      |
|    \\/     M anipulation  |                                                 |
\*---------------------------------------------------------------------------*/
FoamFile
{
    version     2.0;
    format      ascii;
    class       volScalarField;
    location    "6.4";
    object      rAU;
}
// * * * * * * * * * * * * * * * * * * * * * * * * * * * * * * * * * * * * * //

dimensions      [-1 3 1 0 0 0 0];

internalField   nonuniform List<scalar> 
7968
(
1.05264478356e-05
1.05195993161e-05
1.05207210863e-05
1.05250182709e-05
1.05023476865e-05
1.04883202459e-05
1.05036390224e-05
1.05109657827e-05
1.05144779954e-05
1.05157358299e-05
1.05157361132e-05
1.05144803604e-05
1.0510974675e-05
1.05036596204e-05
1.04883386111e-05
1.05023549382e-05
1.05250214643e-05
1.05207212082e-05
1.05195982632e-05
1.05264465471e-05
1.05196018651e-05
1.05032094329e-05
1.04996677778e-05
1.05018974249e-05
1.04907171715e-05
1.04784253966e-05
1.04826471154e-05
1.04895674621e-05
1.04934670764e-05
1.04949030216e-05
1.04949043659e-05
1.04934725262e-05
1.04895813576e-05
1.04826665419e-05
1.04783664495e-05
1.04906499911e-05
1.0501899385e-05
1.04996692607e-05
1.05032094459e-05
1.05196016641e-05
1.05207215627e-05
1.04996655013e-05
1.04929749233e-05
1.04933187302e-05
1.04872194504e-05
1.04770052315e-05
1.04771953215e-05
1.04843869462e-05
1.04894324482e-05
1.04916422191e-05
1.04916466013e-05
1.0489446275e-05
1.04844106649e-05
1.04772192935e-05
1.04769796259e-05
1.04871863815e-05
1.04933233556e-05
1.04929791009e-05
1.04996656383e-05
1.05207209178e-05
1.05250218737e-05
1.05018939277e-05
1.04933164002e-05
1.04926629779e-05
1.04878105388e-05
1.04791090787e-05
1.04779043195e-05
1.04842433476e-05
1.04899209109e-05
1.04924030994e-05
1.04924077637e-05
1.04899359596e-05
1.04842690802e-05
1.0477920706e-05
1.04790915438e-05
1.04877853935e-05
1.04926670166e-05
1.0493321401e-05
1.05018944946e-05
1.05250230123e-05
1.05023576097e-05
1.0490672975e-05
1.0487203644e-05
1.04878048585e-05
1.04854446366e-05
1.04720131596e-05
1.04661621865e-05
1.04693955955e-05
1.04722091351e-05
1.04732186481e-05
1.04732188393e-05
1.04722111201e-05
1.04693981277e-05
1.0466151579e-05
1.04719624334e-05
1.04854253799e-05
1.04877915906e-05
1.04871877537e-05
1.04906399852e-05
1.05023489754e-05
1.04883395312e-05
1.04783915247e-05
1.04770039015e-05
1.04791186573e-05
1.04720334684e-05
1.04553103545e-05
1.0448428453e-05
1.04510909911e-05
1.04534685327e-05
1.04543664118e-05
1.04543692714e-05
1.04534769114e-05
1.04511028204e-05
1.04484283443e-05
1.04552664556e-05
1.04719804847e-05
1.04791094525e-05
1.04769895973e-05
1.04783584368e-05
1.04883263967e-05
1.05036582287e-05
1.04826598614e-05
1.04772155307e-05
1.04779360676e-05
1.04661983322e-05
1.04484392873e-05
1.04425271277e-05
1.04463057623e-05
1.04497381778e-05
1.04564461772e-05
1.04564622166e-05
1.04497554968e-05
1.04463333518e-05
1.04425497145e-05
1.04484230361e-05
1.04661687494e-05
1.04779423042e-05
1.04772270898e-05
1.04826614103e-05
1.0503651561e-05
1.05109735591e-05
1.04895691006e-05
1.04843929876e-05
1.04842538283e-05
1.04694192236e-05
1.04510829197e-05
1.04462906008e-05
1.04560353679e-05
1.0469276269e-05
1.04732248592e-05
1.04732330407e-05
1.04693054496e-05
1.04561087443e-05
1.04463138549e-05
1.04510774586e-05
1.0469401363e-05
1.04842684002e-05
1.0484407306e-05
1.04895710015e-05
1.05109680052e-05
1.05144788444e-05
1.04934611649e-05
1.04894277392e-05
1.04899216975e-05
1.04722235444e-05
1.04534476017e-05
1.0449708687e-05
1.04692218438e-05
1.04787503179e-05
1.0482625976e-05
1.04826310355e-05
1.04787656007e-05
1.04692495506e-05
1.04497234229e-05
1.04534388707e-05
1.04722074485e-05
1.04899296306e-05
1.04894367762e-05
1.0493461779e-05
1.05144762712e-05
1.05157341757e-05
1.04948953016e-05
1.04916354096e-05
1.04924029815e-05
1.0473232709e-05
1.04543396403e-05
1.04562815614e-05
1.04731831303e-05
1.04826113984e-05
1.04864678934e-05
1.04864705868e-05
1.04826189799e-05
1.04731935546e-05
1.04562827625e-05
1.04543246934e-05
1.04732163031e-05
1.049240219e-05
1.04916369489e-05
1.04948941857e-05
1.05157332796e-05
1.05157275271e-05
1.04948923658e-05
1.04916417462e-05
1.04924119463e-05
1.04732313221e-05
1.04543481955e-05
1.04563264848e-05
1.04731961231e-05
1.04826140193e-05
1.04864634534e-05
1.04864646382e-05
1.04826161561e-05
1.04731960542e-05
1.04563006707e-05
1.04543276033e-05
1.04732141508e-05
1.04924023631e-05
1.04916357705e-05
1.0494887784e-05
1.05157259639e-05
1.05144580707e-05
1.04934512322e-05
1.04894434016e-05
1.04899440249e-05
1.04722179528e-05
1.04534655846e-05
1.04497453486e-05
1.04692701447e-05
1.04787579192e-05
1.04826149081e-05
1.04826156934e-05
1.04787587388e-05
1.04692629192e-05
1.04497414776e-05
1.04534471696e-05
1.04722029464e-05
1.04899319675e-05
1.04894348691e-05
1.04934447896e-05
1.05144559831e-05
1.05109371239e-05
1.04895559977e-05
1.04844126161e-05
1.04842856404e-05
1.04694051976e-05
1.04511011166e-05
1.04463440065e-05
1.04561190412e-05
1.04692743148e-05
1.04732127412e-05
1.0473214428e-05
1.046928019e-05
1.04561271268e-05
1.04463459217e-05
1.04510932779e-05
1.0469399549e-05
1.0484279432e-05
1.04844089609e-05
1.04895513929e-05
1.05109362804e-05
1.05036106164e-05
1.04826505347e-05
1.04772336759e-05
1.04779481563e-05
1.04661647079e-05
1.04484365189e-05
1.04425758285e-05
1.04463503187e-05
1.04497634713e-05
1.04563345381e-05
1.04563425781e-05
1.04497696076e-05
1.04463610817e-05
1.04425896464e-05
1.04484417412e-05
1.04661691331e-05
1.04779574901e-05
1.04772404711e-05
1.0482653611e-05
1.05036148784e-05
1.04882888314e-05
1.04783863352e-05
1.04769924141e-05
1.04791033502e-05
1.04719540217e-05
1.04552491976e-05
1.04484202649e-05
1.04510861172e-05
1.04534517447e-05
1.04543387723e-05
1.04543409811e-05
1.04534591203e-05
1.04511006161e-05
1.04484386704e-05
1.04552550854e-05
1.04719533984e-05
1.04791130105e-05
1.04770037182e-05
1.04783946831e-05
1.04882987609e-05
1.05023258458e-05
1.04906651464e-05
1.048718298e-05
1.04877768333e-05
1.04854200572e-05
1.04719464366e-05
1.0466140428e-05
1.04693804389e-05
1.0472189471e-05
1.04732017024e-05
1.04732020422e-05
1.04721929226e-05
1.0469389494e-05
1.04661512834e-05
1.04719394661e-05
1.04853978855e-05
1.04877784012e-05
1.04871863248e-05
1.04906687627e-05
1.0502331896e-05
1.0525013825e-05
1.05018897718e-05
1.04933163314e-05
1.04926613956e-05
1.04877890543e-05
1.0479109058e-05
1.04779337351e-05
1.04842645943e-05
1.04899228382e-05
1.04923917071e-05
1.04923911294e-05
1.04899235367e-05
1.0484271024e-05
1.04779425862e-05
1.0479100607e-05
1.04877734775e-05
1.04926578138e-05
1.04933153324e-05
1.05018889747e-05
1.05250143132e-05
1.05207164039e-05
1.04996622441e-05
1.04929735037e-05
1.04933157798e-05
1.04872005343e-05
1.04770049229e-05
1.04772251566e-05
1.04844049789e-05
1.04894336485e-05
1.04916307611e-05
1.04916301582e-05
1.04894350366e-05
1.04844125437e-05
1.04772379882e-05
1.04769937099e-05
1.04871815942e-05
1.04933146608e-05
1.0492974288e-05
1.04996626031e-05
1.05207173514e-05
1.05195989232e-05
1.05032048791e-05
1.04996600801e-05
1.05018861473e-05
1.04906922249e-05
1.04784179945e-05
1.04826634131e-05
1.04895719789e-05
1.04934613189e-05
1.04948892605e-05
1.04948894854e-05
1.04934639899e-05
1.04895824649e-05
1.04826820108e-05
1.04783908078e-05
1.04906563427e-05
1.05018890461e-05
1.04996632799e-05
1.05032070076e-05
1.05196011652e-05
1.05264443648e-05
1.05195943279e-05
1.05207115074e-05
1.05250059978e-05
1.05023604786e-05
1.04883470745e-05
1.05036498077e-05
1.05109692672e-05
1.05144788375e-05
1.05157312874e-05
1.05157334619e-05
1.05144834274e-05
1.05109836014e-05
1.05036795675e-05
1.04883845551e-05
1.05023815626e-05
1.05250101783e-05
1.05207140537e-05
1.05195956035e-05
1.05264456715e-05
1.0524415092e-05
1.05131873914e-05
1.05089725817e-05
1.05082413765e-05
1.05032011985e-05
1.04962741574e-05
1.04957817027e-05
1.04999038375e-05
1.05033900706e-05
1.05049097733e-05
1.0504910959e-05
1.05033946114e-05
1.04999123234e-05
1.04957885992e-05
1.04962659929e-05
1.05031838107e-05
1.05082302911e-05
1.0508965825e-05
1.05131808399e-05
1.05244102709e-05
1.05131900823e-05
1.04619264313e-05
1.04288236704e-05
1.04143587758e-05
1.04064415452e-05
1.04023859966e-05
1.04044661759e-05
1.04104124904e-05
1.04157374688e-05
1.04185485325e-05
1.04185523486e-05
1.04157480231e-05
1.04104282198e-05
1.04044798454e-05
1.04023841483e-05
1.04064274281e-05
1.04143468447e-05
1.04288155411e-05
1.04619189177e-05
1.05131850518e-05
1.05089781867e-05
1.0428827923e-05
1.03736088955e-05
1.03460065844e-05
1.03338755426e-05
1.03310006174e-05
1.03342472548e-05
1.03407140087e-05
1.03470252478e-05
1.03507502531e-05
1.03507581255e-05
1.03470460047e-05
1.03407430359e-05
1.03342776081e-05
1.03310221857e-05
1.03338827917e-05
1.03460045888e-05
1.03736030963e-05
1.04288199298e-05
1.0508972919e-05
1.0508243459e-05
1.04143668808e-05
1.0346017426e-05
1.0308016949e-05
1.02937987735e-05
1.02902340659e-05
1.02910612628e-05
1.0295629629e-05
1.03023048376e-05
1.03065273924e-05
1.03065387952e-05
1.03023338627e-05
1.02956661286e-05
1.02910907768e-05
1.02902633731e-05
1.02938364563e-05
1.03080244363e-05
1.03460140385e-05
1.0414357971e-05
1.05082368174e-05
1.05031948158e-05
1.04064556928e-05
1.03338931694e-05
1.02938006009e-05
1.02767245658e-05
1.0264573548e-05
1.02632507511e-05
1.02676086047e-05
1.02733805725e-05
1.02771797383e-05
1.02771925951e-05
1.02734139675e-05
1.02676516393e-05
1.02632926024e-05
1.02645996043e-05
1.02767612447e-05
1.02938296976e-05
1.03338956813e-05
1.04064462184e-05
1.05031864209e-05
1.0496275341e-05
1.04024073303e-05
1.03310139271e-05
1.02902343869e-05
1.02645665454e-05
1.02535137514e-05
1.02538915013e-05
1.02593822408e-05
1.02657718858e-05
1.02696399239e-05
1.02696542967e-05
1.02658106401e-05
1.02594352997e-05
1.02539455003e-05
1.02535567238e-05
1.02645867311e-05
1.02902556198e-05
1.03310276299e-05
1.04024033291e-05
1.04962690061e-05
1.04958026324e-05
1.04044915253e-05
1.03342530772e-05
1.02910557983e-05
1.02632213869e-05
1.02538630133e-05
1.02551706738e-05
1.02613778474e-05
1.02680104161e-05
1.02779027102e-05
1.02779278973e-05
1.02680474922e-05
1.0261428848e-05
1.02552250409e-05
1.0253909459e-05
1.02632506621e-05
1.02910730207e-05
1.0334272915e-05
1.04044949591e-05
1.04957994278e-05
1.04999237394e-05
1.04104318624e-05
1.03407098245e-05
1.02955965807e-05
1.02675557439e-05
1.02593204056e-05
1.02613415802e-05
1.02732329191e-05
1.02905742244e-05
1.02980892314e-05
1.02981054067e-05
1.02906228639e-05
1.02733281329e-05
1.02613848575e-05
1.02593574266e-05
1.02675781312e-05
1.02956163712e-05
1.03407279576e-05
1.04104384382e-05
1.04999242377e-05
1.05033979634e-05
1.04157467185e-05
1.03470104193e-05
1.0302250626e-05
1.02733053444e-05
1.026568806e-05
1.02679532662e-05
1.02905069899e-05
1.03051371176e-05
1.03122137346e-05
1.03122245549e-05
1.03051665771e-05
1.0290549718e-05
1.02679763494e-05
1.02657023836e-05
1.02733102436e-05
1.03022551537e-05
1.03470179084e-05
1.04157501353e-05
1.05033993231e-05
1.0504910494e-05
1.04185538866e-05
1.03507339933e-05
1.03064707237e-05
1.02771038808e-05
1.02695621833e-05
1.02776937001e-05
1.02980122127e-05
1.03121912749e-05
1.03194182599e-05
1.03194238235e-05
1.03122040987e-05
1.0298022366e-05
1.02776870854e-05
1.02695460456e-05
1.02770803064e-05
1.03064496556e-05
1.03507240677e-05
1.04185494993e-05
1.05049098415e-05
1.05049113616e-05
1.04185582729e-05
1.0350749862e-05
1.03064998697e-05
1.02771380571e-05
1.02695964399e-05
1.02777548809e-05
1.02980328632e-05
1.03121898011e-05
1.03194034332e-05
1.03194039152e-05
1.03121878773e-05
1.02980170438e-05
1.02777022639e-05
1.0269551784e-05
1.02770859865e-05
1.03064516115e-05
1.03507212081e-05
1.04185444961e-05
1.05049080996e-05
1.05033956416e-05
1.04157545834e-05
1.03470477492e-05
1.03023196187e-05
1.02733892448e-05
1.02657781407e-05
1.02680197818e-05
1.02905633133e-05
1.03051284333e-05
1.03121679923e-05
1.03121655444e-05
1.03051181324e-05
1.02905333272e-05
1.02679790096e-05
1.02657180586e-05
1.02733248111e-05
1.03022597746e-05
1.03470095708e-05
1.041573603e-05
1.0503392778e-05
1.04999114632e-05
1.04104340235e-05
1.03407530181e-05
1.02956732179e-05
1.02676558114e-05
1.0259435375e-05
1.02614276648e-05
1.02733139517e-05
1.02905385667e-05
1.02980004712e-05
1.02979978952e-05
1.02905293568e-05
1.02732929793e-05
1.02613846276e-05
1.02593775658e-05
1.0267597022e-05
1.02956215288e-05
1.03407165447e-05
1.04104166439e-05
1.049991176e-05
1.04957783324e-05
1.04044826375e-05
1.03342913136e-05
1.02911095615e-05
1.02633139576e-05
1.02539730346e-05
1.02552517636e-05
1.02614087511e-05
1.02679909979e-05
1.02777072261e-05
1.02777091551e-05
1.02679773536e-05
1.02613847033e-05
1.0255215998e-05
1.02539288293e-05
1.02632699436e-05
1.02910732795e-05
1.03342619882e-05
1.0404469536e-05
1.04957807238e-05
1.04962463235e-05
1.04023826304e-05
1.03310345303e-05
1.02902829449e-05
1.02646222183e-05
1.02535931581e-05
1.02539508595e-05
1.02593957737e-05
1.02657324956e-05
1.02695632596e-05
1.02695583848e-05
1.02657196584e-05
1.0259376145e-05
1.02539261959e-05
1.02535671587e-05
1.02645952135e-05
1.0290257433e-05
1.03310161656e-05
1.04023745888e-05
1.0496246875e-05
1.05031741884e-05
1.04064212229e-05
1.03338879648e-05
1.02938546161e-05
1.02767877526e-05
1.02646034919e-05
1.02632739541e-05
1.02676009385e-05
1.02733288219e-05
1.02770888626e-05
1.0277083507e-05
1.02733149016e-05
1.02675824111e-05
1.02632542343e-05
1.0264583733e-05
1.02767600416e-05
1.02938450309e-05
1.03338772664e-05
1.04064152339e-05
1.05031757134e-05
1.05082358299e-05
1.04143389514e-05
1.03460037975e-05
1.03080326119e-05
1.02938476627e-05
1.02902591315e-05
1.02910631541e-05
1.02956022841e-05
1.03022353879e-05
1.03064199697e-05
1.03064130551e-05
1.03022182406e-05
1.02955805972e-05
1.02910395756e-05
1.02902383003e-05
1.02938366927e-05
1.03080228255e-05
1.03459918988e-05
1.04143315021e-05
1.05082386079e-05
1.05089738105e-05
1.04288076351e-05
1.03735968197e-05
1.03460050959e-05
1.03338848273e-05
1.0331012673e-05
1.03342462946e-05
1.03406881277e-05
1.03469671824e-05
1.03506639643e-05
1.03506569378e-05
1.03469494579e-05
1.0340665701e-05
1.03342229404e-05
1.03309891925e-05
1.03338621739e-05
1.03459855745e-05
1.03735828227e-05
1.04287990939e-05
1.05089748998e-05
1.05131956672e-05
1.04619121611e-05
1.04288104661e-05
1.04143444023e-05
1.0406431209e-05
1.0402382943e-05
1.04044636847e-05
1.04103978932e-05
1.04157045211e-05
1.04184993273e-05
1.04184947915e-05
1.04156933901e-05
1.04103845783e-05
1.04044485085e-05
1.04023625116e-05
1.04064096387e-05
1.0414328223e-05
1.04287987411e-05
1.04619050655e-05
1.05131956884e-05
1.05244357855e-05
1.05131982014e-05
1.05089652955e-05
1.05082247127e-05
1.05031868073e-05
1.04962713089e-05
1.04957904569e-05
1.04999134946e-05
1.05033924582e-05
1.0504905882e-05
1.05049055808e-05
1.05033932839e-05
1.04999174034e-05
1.0495794448e-05
1.0496265128e-05
1.05031777402e-05
1.05082217625e-05
1.0508962553e-05
1.05131958998e-05
1.05244343577e-05
1.05164372319e-05
1.04997733846e-05
1.04938438131e-05
1.04926271687e-05
1.04921429643e-05
1.04920105906e-05
1.0493425418e-05
1.04954598776e-05
1.04958794228e-05
1.04947298749e-05
1.04947301256e-05
1.04958823199e-05
1.04954666457e-05
1.04934322899e-05
1.04920130993e-05
1.04921287097e-05
1.04925984109e-05
1.04938132659e-05
1.04997491211e-05
1.05164302232e-05
1.04997882105e-05
1.04241820461e-05
1.03827822109e-05
1.0366598748e-05
1.03631286453e-05
1.03654248203e-05
1.03702901063e-05
1.03758978544e-05
1.0379748886e-05
1.03810004338e-05
1.03810049451e-05
1.03797610328e-05
1.03759155414e-05
1.03703075738e-05
1.03654342185e-05
1.03631229521e-05
1.03665788245e-05
1.03827548469e-05
1.04241367079e-05
1.04997587918e-05
1.04938691554e-05
1.03828151026e-05
1.03102289548e-05
1.02724308695e-05
1.02561740404e-05
1.02545955091e-05
1.02601096061e-05
1.02683107222e-05
1.02763257697e-05
1.02813342007e-05
1.02813452778e-05
1.02763549312e-05
1.02683532304e-05
1.02601608626e-05
1.02546483443e-05
1.02562087088e-05
1.02724433527e-05
1.03102269775e-05
1.03827724964e-05
1.04938261033e-05
1.04926618004e-05
1.0366652894e-05
1.02724489758e-05
1.02078081851e-05
1.01950877813e-05
1.01865854747e-05
1.01853645409e-05
1.01901520609e-05
1.01968105097e-05
1.02014848271e-05
1.02014970788e-05
1.01968413292e-05
1.01901913795e-05
1.01854032656e-05
1.01866238916e-05
1.01951549935e-05
1.02078668259e-05
1.02724498282e-05
1.03666165204e-05
1.04926234673e-05
1.0492177571e-05
1.03631871932e-05
1.02562002134e-05
1.0195088917e-05
1.01581113908e-05
1.01383676168e-05
1.01353794303e-05
1.01402167008e-05
1.01469659391e-05
1.01516783507e-05
1.01516956284e-05
1.01470100988e-05
1.01402752363e-05
1.01354390562e-05
1.01384147661e-05
1.0158138665e-05
1.01951447114e-05
1.02562068144e-05
1.03631674788e-05
1.04921570635e-05
1.04920364538e-05
1.03654706553e-05
1.02546049078e-05
1.01865882847e-05
1.01383588196e-05
1.01183857855e-05
1.01163867e-05
1.01223217227e-05
1.01296986745e-05
1.01346192566e-05
1.01346390066e-05
1.01297510635e-05
1.0122390936e-05
1.01164571308e-05
1.01184473644e-05
1.01384002859e-05
1.01866189934e-05
1.02546325223e-05
1.03654675145e-05
1.04920294922e-05
1.04934336203e-05
1.03703118846e-05
1.02600980115e-05
1.01853531557e-05
1.01353415957e-05
1.011635236e-05
1.01162586175e-05
1.01239232225e-05
1.01322654008e-05
1.01380043581e-05
1.01380244643e-05
1.0132316421e-05
1.01239908246e-05
1.01163254146e-05
1.01164112177e-05
1.01353884695e-05
1.01853804954e-05
1.02601350664e-05
1.03703227244e-05
1.04934374288e-05
1.04954503879e-05
1.03758914045e-05
1.02682828754e-05
1.01901179354e-05
1.01401434372e-05
1.0122242349e-05
1.01238744808e-05
1.0133460021e-05
1.01441752104e-05
1.0150787717e-05
1.01508048087e-05
1.01442201815e-05
1.01335165672e-05
1.01239215298e-05
1.01222813009e-05
1.01401780833e-05
1.01901403308e-05
1.02683143071e-05
1.03759107499e-05
1.04954610494e-05
1.04958495115e-05
1.03797192085e-05
1.02762872162e-05
1.01967572282e-05
1.01468682457e-05
1.01295886015e-05
1.01321831587e-05
1.01441329752e-05
1.01562033332e-05
1.01634940795e-05
1.01635063452e-05
1.01562344608e-05
1.01441649247e-05
1.01321988738e-05
1.01295945791e-05
1.01468760632e-05
1.01967629903e-05
1.02763029218e-05
1.03797364937e-05
1.04958611527e-05
1.04946999814e-05
1.03809703348e-05
1.02812953275e-05
1.02014280838e-05
1.01515793497e-05
1.01345062941e-05
1.01378957274e-05
1.01507222056e-05
1.01634674838e-05
1.01711715968e-05
1.01711776524e-05
1.01634805105e-05
1.01507252814e-05
1.01378753121e-05
1.0134472347e-05
1.01515504139e-05
1.02014084785e-05
1.02812868551e-05
1.03809705856e-05
1.04947006293e-05
1.04947144899e-05
1.03809891549e-05
1.02813177556e-05
1.0201455483e-05
1.01516204571e-05
1.01345498385e-05
1.01379317176e-05
1.01507392283e-05
1.01634646498e-05
1.01711536595e-05
1.01711530324e-05
1.01634590421e-05
1.01507134867e-05
1.01378745074e-05
1.01344768003e-05
1.01515547616e-05
1.02014082512e-05
1.02812841522e-05
1.03809683527e-05
1.04947021713e-05
1.0495880036e-05
1.0379757945e-05
1.02763427102e-05
1.01968237753e-05
1.01469723111e-05
1.01296999678e-05
1.01322659105e-05
1.01441717741e-05
1.01561900787e-05
1.01634399378e-05
1.01634345802e-05
1.01561718837e-05
1.01441284922e-05
1.0132190348e-05
1.01296048188e-05
1.01468873378e-05
1.01967620368e-05
1.02762958561e-05
1.0379727957e-05
1.04958645103e-05
1.04954717279e-05
1.03759231984e-05
1.02683523913e-05
1.01901963825e-05
1.01402748242e-05
1.01223852633e-05
1.01239783234e-05
1.01334990967e-05
1.01441390119e-05
1.0150691299e-05
1.01506837192e-05
1.01441149408e-05
1.01334484044e-05
1.0123895637e-05
1.0122289142e-05
1.01401918537e-05
1.01901373852e-05
1.02683057258e-05
1.03758959515e-05
1.04954607807e-05
1.04934362325e-05
1.03703210552e-05
1.02601657956e-05
1.01854211691e-05
1.01354641325e-05
1.01164919318e-05
1.01163550169e-05
1.01239415005e-05
1.01322043094e-05
1.01378662255e-05
1.0137857719e-05
1.01321775877e-05
1.01238904653e-05
1.01162820597e-05
1.01164153246e-05
1.01354008403e-05
1.01853749101e-05
1.02601297085e-05
1.03703023802e-05
1.04934307094e-05
1.04920094582e-05
1.03654494041e-05
1.0254652872e-05
1.0186646594e-05
1.01384429379e-05
1.01184914238e-05
1.01164600134e-05
1.01223197394e-05
1.01296167692e-05
1.01344762932e-05
1.01344666019e-05
1.01295900708e-05
1.01222763396e-05
1.01164067964e-05
1.01184430666e-05
1.01384022657e-05
1.01866117446e-05
1.02546304291e-05
1.03654440449e-05
1.04920143737e-05
1.04921322803e-05
1.03631420661e-05
1.02562102048e-05
1.01951760631e-05
1.01581521711e-05
1.013841706e-05
1.01354084009e-05
1.0140193981e-05
1.01468778267e-05
1.01515350677e-05
1.01515254186e-05
1.01468515706e-05
1.0140155945e-05
1.01353678917e-05
1.01383804739e-05
1.01581163059e-05
1.0195152896e-05
1.02561956658e-05
1.03631470462e-05
1.04921493319e-05
1.04926205888e-05
1.03666094196e-05
1.02724512482e-05
1.02078890716e-05
1.01951666431e-05
1.01866091668e-05
1.01853511545e-05
1.01900981865e-05
1.01967064502e-05
1.02013365426e-05
1.02013263969e-05
1.01966787115e-05
1.01900592059e-05
1.01853090296e-05
1.01865702035e-05
1.0195141295e-05
1.02079216459e-05
1.02724350911e-05
1.03666147864e-05
1.04926390963e-05
1.04938862909e-05
1.03828197457e-05
1.03102404978e-05
1.02724499626e-05
1.02562070785e-05
1.02546252043e-05
1.02601014858e-05
1.02682535598e-05
1.02762188974e-05
1.02811851556e-05
1.0281174584e-05
1.02761915973e-05
1.02682170288e-05
1.02600648964e-05
1.02545933107e-05
1.02561761568e-05
1.02724232422e-05
1.0310224415e-05
1.03828184059e-05
1.04938942734e-05
1.04998795991e-05
1.04242556098e-05
1.03827889111e-05
1.03665831012e-05
1.03631161843e-05
1.03654154406e-05
1.03702696905e-05
1.03758501982e-05
1.03796684803e-05
1.03808928823e-05
1.03808839894e-05
1.03796477452e-05
1.03758254362e-05
1.03702451047e-05
1.03653954862e-05
1.03631028177e-05
1.03665757492e-05
1.03827848809e-05
1.0424250772e-05
1.04998782478e-05
1.05165324186e-05
1.04998561315e-05
1.04938459074e-05
1.04925886253e-05
1.04921183449e-05
1.0492005737e-05
1.04934275454e-05
1.04954541816e-05
1.04958612385e-05
1.04947009265e-05
1.04946975439e-05
1.04958562281e-05
1.04954513311e-05
1.04934270535e-05
1.049201025e-05
1.04921289964e-05
1.04926018056e-05
1.04938533826e-05
1.04998528795e-05
1.0516528278e-05
1.0480368977e-05
1.04649608671e-05
1.04696094652e-05
1.04668878377e-05
1.04640931745e-05
1.04630305538e-05
1.04622808605e-05
1.04609347355e-05
1.04596567596e-05
1.04587997374e-05
1.04587945314e-05
1.04596509456e-05
1.04609389141e-05
1.0462293089e-05
1.04630475443e-05
1.04641092493e-05
1.04668976861e-05
1.04696162935e-05
1.04649738702e-05
1.04803774846e-05
1.04649655668e-05
1.03720772214e-05
1.03368085125e-05
1.03209863497e-05
1.03168775871e-05
1.03195286609e-05
1.03256894737e-05
1.03324864552e-05
1.03376580709e-05
1.0340269483e-05
1.03402757703e-05
1.03376752227e-05
1.03325163322e-05
1.03257278312e-05
1.0319568447e-05
1.03169126232e-05
1.03210137219e-05
1.03368290039e-05
1.03720888012e-05
1.04649658345e-05
1.04695981801e-05
1.03368136506e-05
1.02678748653e-05
1.02288643165e-05
1.020842194e-05
1.02041981297e-05
1.02185813216e-05
1.02337943856e-05
1.02450658381e-05
1.02506189722e-05
1.0250633959e-05
1.02451056944e-05
1.02338747443e-05
1.02186802771e-05
1.02042987974e-05
1.02084223479e-05
1.02288823964e-05
1.02678938167e-05
1.03368211002e-05
1.04695966942e-05
1.04668729916e-05
1.03209947012e-05
1.02288797166e-05
1.01446757824e-05
1.01378908884e-05
1.01263951205e-05
1.01269360551e-05
1.01337792599e-05
1.01414038722e-05
1.01463821441e-05
1.01463974237e-05
1.01414443392e-05
1.01338330403e-05
1.0126992914e-05
1.01264516189e-05
1.01379461177e-05
1.01447733753e-05
1.02288872119e-05
1.03210084295e-05
1.04668799213e-05
1.04640821025e-05
1.03168860126e-05
1.02084949018e-05
1.01379004087e-05
1.00872042485e-05
1.00639610638e-05
1.00603161713e-05
1.00652446984e-05
1.00717428989e-05
1.00761899575e-05
1.00762089779e-05
1.00717938237e-05
1.006530602e-05
1.00603704514e-05
1.00640085537e-05
1.00872493825e-05
1.01379456983e-05
1.02084118851e-05
1.03169083018e-05
1.04640955285e-05
1.04630121932e-05
1.03195267289e-05
1.02041827311e-05
1.01263923512e-05
1.00639539566e-05
1.00365429734e-05
1.00311051931e-05
1.00352392781e-05
1.00413572099e-05
1.00456328895e-05
1.00456545709e-05
1.0041415543e-05
1.00353057279e-05
1.00311528875e-05
1.00365734087e-05
1.00639880759e-05
1.01264379088e-05
1.02042564145e-05
1.03195574773e-05
1.04630297541e-05
1.04622494789e-05
1.03256653075e-05
1.02185258424e-05
1.01269089053e-05
1.00602864594e-05
1.00310807139e-05
1.00249426179e-05
1.00292743198e-05
1.00359834386e-05
1.00406013601e-05
1.00406225842e-05
1.00360418589e-05
1.00293387809e-05
1.00249788444e-05
1.00310931361e-05
1.00603048032e-05
1.01269492152e-05
1.0218611575e-05
1.03257026363e-05
1.04622669045e-05
1.04608986775e-05
1.03324375479e-05
1.02337202872e-05
1.01337221951e-05
1.00651806808e-05
1.00351727925e-05
1.0029229324e-05
1.00345732853e-05
1.00424855273e-05
1.00480078571e-05
1.00480261143e-05
1.00425322227e-05
1.0034611833e-05
1.00292379938e-05
1.00351538763e-05
1.00651761583e-05
1.01337514419e-05
1.02337782099e-05
1.03324752278e-05
1.04609107177e-05
1.04596229679e-05
1.03375970854e-05
1.02449785137e-05
1.01413213802e-05
1.0071648813e-05
1.0041257074e-05
1.00359081327e-05
1.00424503782e-05
1.00522001137e-05
1.00587967126e-05
1.00588113494e-05
1.00522344789e-05
1.00424645406e-05
1.00358780263e-05
1.00412038233e-05
1.00716186943e-05
1.01413332017e-05
1.02450231734e-05
1.03376246719e-05
1.04596286946e-05
1.04587699445e-05
1.03402137127e-05
1.02505250297e-05
1.01462912732e-05
1.00760805404e-05
1.00455178602e-05
1.00405076171e-05
1.00479423879e-05
1.0058765181e-05
1.00659580305e-05
1.00659671922e-05
1.00587835465e-05
1.00479333743e-05
1.00404466276e-05
1.00454324404e-05
1.00760206321e-05
1.01462772509e-05
1.02505463327e-05
1.03402248102e-05
1.04587709794e-05
1.04587798711e-05
1.03402354275e-05
1.02505548706e-05
1.01463206e-05
1.00761164985e-05
1.00455545923e-05
1.00405341016e-05
1.00479528997e-05
1.00587607161e-05
1.0065939848e-05
1.00659428583e-05
1.00587620784e-05
1.00479203651e-05
1.00404440229e-05
1.00454358171e-05
1.00760235366e-05
1.01462776353e-05
1.02505475512e-05
1.03402302746e-05
1.04587774337e-05
1.04596514965e-05
1.03376573434e-05
1.02450531132e-05
1.01413955505e-05
1.00717386319e-05
1.00413496101e-05
1.00359764236e-05
1.00424749467e-05
1.00521811949e-05
1.00587418631e-05
1.00587402203e-05
1.00521709985e-05
1.00424264251e-05
1.00358680782e-05
1.00412114948e-05
1.00716270509e-05
1.01413351954e-05
1.02450262597e-05
1.03376405867e-05
1.04596470224e-05
1.04609452644e-05
1.03325203128e-05
1.02338415465e-05
1.01338135301e-05
1.00652954387e-05
1.00352864916e-05
1.0029310485e-05
1.00345856611e-05
1.00424314704e-05
1.0047899964e-05
1.00478945943e-05
1.00424129085e-05
1.00345257506e-05
1.00291866816e-05
1.00351443603e-05
1.00651813455e-05
1.01337535281e-05
1.02337954307e-05
1.03324994598e-05
1.04609364195e-05
1.04623065022e-05
1.03257511277e-05
1.02186732976e-05
1.01269914553e-05
1.00603961681e-05
1.00311893184e-05
1.00249990086e-05
1.00292519538e-05
1.00358786066e-05
1.00404343711e-05
1.0040426521e-05
1.00358542866e-05
1.00291834371e-05
1.00248847891e-05
1.00310636583e-05
1.00603030875e-05
1.01269497323e-05
1.02186401467e-05
1.03257346091e-05
1.04622965687e-05
1.04630660466e-05
1.03196036153e-05
1.0204311089e-05
1.01264635551e-05
1.00640315043e-05
1.0036623151e-05
1.00311447465e-05
1.00351847608e-05
1.00412176132e-05
1.00454294499e-05
1.00454195097e-05
1.00411897373e-05
1.00351257205e-05
1.00310529147e-05
1.00365374674e-05
1.00639764761e-05
1.01264381769e-05
1.02042950402e-05
1.03195953073e-05
1.04630619855e-05
1.04641231064e-05
1.03169537377e-05
1.0208424289e-05
1.01379654157e-05
1.00872569159e-05
1.0064001101e-05
1.00603253867e-05
1.00651851715e-05
1.00716070062e-05
1.007599164e-05
1.00759805341e-05
1.00715757679e-05
1.00651323074e-05
1.00602603068e-05
1.0063947893e-05
1.00872196006e-05
1.01379315016e-05
1.02083764719e-05
1.03169515786e-05
1.04641260432e-05
1.04669120141e-05
1.03210572389e-05
1.0228913758e-05
1.01448098003e-05
1.01379498683e-05
1.01264172297e-05
1.01269070406e-05
1.01336989122e-05
1.01412613287e-05
1.0146184329e-05
1.01461720837e-05
1.01412290484e-05
1.01336529364e-05
1.01268593336e-05
1.01263744658e-05
1.01379046327e-05
1.01448445916e-05
1.02288886598e-05
1.03210568614e-05
1.04669182982e-05
1.0469656217e-05
1.03368679956e-05
1.02679299589e-05
1.02289050083e-05
1.02084312232e-05
1.02042576546e-05
1.02185795022e-05
1.02337177523e-05
1.0244924746e-05
1.02504292801e-05
1.02504182613e-05
1.02448952454e-05
1.02336782564e-05
1.02185446109e-05
1.02042314981e-05
1.02083523724e-05
1.02288684056e-05
1.026791331e-05
1.0336870815e-05
1.04696636543e-05
1.04650194989e-05
1.03721229022e-05
1.03368594212e-05
1.032104302e-05
1.0316932078e-05
1.03195712821e-05
1.03257075423e-05
1.03324671469e-05
1.03376036416e-05
1.03401913209e-05
1.0340185595e-05
1.03375878223e-05
1.03324460243e-05
1.03256873913e-05
1.03195551871e-05
1.03169185428e-05
1.0321032253e-05
1.0336855357e-05
1.03721329791e-05
1.04650325042e-05
1.04804308845e-05
1.04649969983e-05
1.0469638291e-05
1.04668992456e-05
1.04641180339e-05
1.04630689552e-05
1.04623186749e-05
1.04609685691e-05
1.04596885726e-05
1.04588292812e-05
1.04588298432e-05
1.04596902503e-05
1.04609703113e-05
1.04623223572e-05
1.04630775739e-05
1.04641300391e-05
1.04669118898e-05
1.04696478383e-05
1.04650114737e-05
1.0480446591e-05
1.04574398557e-05
1.04492227121e-05
1.0455383054e-05
1.04525400436e-05
1.04484552108e-05
1.04443681055e-05
1.04400118782e-05
1.04357226978e-05
1.04320736282e-05
1.04310083262e-05
1.04309958861e-05
1.04320577457e-05
1.04357248478e-05
1.04400208818e-05
1.04443774728e-05
1.04484739109e-05
1.0452561886e-05
1.04554057541e-05
1.04492601388e-05
1.0457457404e-05
1.04492412862e-05
1.03379618487e-05
1.03034818816e-05
1.02888492377e-05
1.02869637331e-05
1.02920307823e-05
1.03002347867e-05
1.03079368781e-05