/*--------------------------------*- C++ -*----------------------------------*\
| =========                 |                                                 |
| \\      /  F ield         | OpenFOAM: The Open Source CFD Toolbox           |
|  \\    /   O peration     | Version:  3.0.1                                 |
|   \\  /    A nd           | Web:      www.OpenFOAM.org                      |
|    \\/     M anipulation  |                                                 |
\*---------------------------------------------------------------------------*/
FoamFile
{
    version     2.0;
    format      ascii;
    class       surfaceVectorField;
    location    "6.4";
    object      Uf_0;
}
// * * * * * * * * * * * * * * * * * * * * * * * * * * * * * * * * * * * * * //

dimensions      [0 1 -1 0 0 0 0];

internalField   nonuniform List<vector> 
22672
(
(0.00451856117962 0.00184372541028 -0.00358068093188)
(0.00184122409608 0.00452182787922 -0.00358021589129)
(0.00294470048016 0.00294789462894 -0.00904039979342)
(0.00978464332551 0.00112146993201 -0.00327897604598)
(0.00674688843869 0.00381951844723 -0.00519587664537)
(0.0085329460839 0.00301357342632 -0.00908561362974)
(0.0143724487421 0.000690638355823 -0.00253075788155)
(0.0125262130279 0.00345743171867 -0.00529985222233)
(0.0138397702447 0.00311116014525 -0.00804525261691)
(0.017305031139 0.000596659947436 -0.00145716715535)
(0.0167389782581 0.00345856893498 -0.00454089473208)
(0.0174795887146 0.00332818641993 -0.00639116941306)
(0.0179342776954 0.000781072882879 -0.000544499712959)
(0.0189070642846 0.00390959795305 -0.00334662906574)
(0.0191190543759 0.00372442717756 -0.00453886515926)
(0.0166397266593 0.00112659073032 1.23055364392e-05)
(0.0184251222343 0.0045213585853 -0.00252530437826)
(0.0183831306188 0.00411923843193 -0.00322683050635)
(0.0137879988613 0.00160411596498 0.000381873484085)
(0.016330477348 0.00519050470012 -0.00187435007678)
(0.0161058992762 0.00455489474548 -0.0023388017193)
(0.00975435660833 0.00211205332672 0.000524356913304)
(0.0126334036341 0.00588617108432 -0.00144044137098)
(0.0123657412651 0.00503035526112 -0.00185255486288)
(0.00502107075978 0.00250128742269 0.000520206753513)
(0.00787312251792 0.00647495468509 -0.00125563068387)
(0.00766713334208 0.00546244382108 -0.0017416953548)
(9.27982214944e-06 0.00264582912761 0.000498723348121)
(0.00266959867139 0.00680898791933 -0.00122344428241)
(0.00259155415795 0.00571913210848 -0.00179722328369)
(-0.00500337282923 0.00250225364465 0.000520496146859)
(-0.00264806035075 0.00680918536568 -0.0012229922875)
(-0.00257128729812 0.00571925452957 -0.00179655820081)
(-0.00973894337114 0.00211368792635 0.000524794169411)
(-0.007853192722 0.00647553133012 -0.00125442521876)
(-0.00764842893711 0.00546273353375 -0.00173998497154)
(-0.013775955661 0.00160590270061 0.000382442299296)
(-0.0126165846818 0.00588698969646 -0.00143864134855)
(-0.01235000794 0.00503058995655 -0.00184999986449)
(-0.0166315999244 0.00112814394838 1.27170065714e-05)
(-0.0163180242297 0.00519129537537 -0.00187228149789)
(-0.0160942872825 0.00455483492831 -0.00233567142965)
(-0.0179293554992 0.000782608879347 -0.000544162760266)
(-0.01841704023 0.00452196124488 -0.00252379702379)
(-0.0183756634856 0.00411890742468 -0.00322422344553)
(-0.0173036637974 0.000598187249355 -0.00145735651836)
(-0.018902470884 0.00391107258431 -0.00334493019695)
(-0.0191146399982 0.00372433659567 -0.00453677920873)
(-0.0143727324168 0.000692052044955 -0.00253196040602)
(-0.0167379856354 0.00345992674863 -0.00454089828922)
(-0.0174780266927 0.00332810948702 -0.00639087004513)
(-0.00978534207009 0.00112301480545 -0.00328086892573)
(-0.0125262893254 0.00345917986229 -0.00530084603942)
(-0.013839089731 0.00311145143621 -0.00804657941219)
(-0.00451884577564 0.00184536917458 -0.00358306089532)
(-0.00674729489381 0.0038218019564 -0.00519781553671)
(-0.00853264854894 0.00301430593657 -0.00908830581445)
(-0.00184130136266 0.00452458322956 -0.00358261800734)
(-0.00294442404309 0.00294893721034 -0.00904343364715)
(0.00381781301938 0.00674931375322 -0.00519541160478)
(0.00111966289758 0.00978734260163 -0.00327780315543)
(0.00301239145309 0.00853547843919 -0.0090833401113)
(0.00980494897507 0.00646296455496 -0.00721675282173)
(0.0064624264441 0.00980436899506 -0.00721631397093)
(0.00895283087553 0.00895177752799 -0.0119720013311)
(0.0151984199411 0.00655471932517 -0.00730998907287)
(0.0130576405331 0.0100255254185 -0.00807424834047)
(0.0145404080677 0.00948006487855 -0.0119615819759)
(0.0186133104116 0.00711992712834 -0.00643035664247)
(0.0178456088006 0.0106865769278 -0.00740848905169)
(0.0183353828212 0.0103335347395 -0.0106429182926)
(0.0195163366846 0.00801600136176 -0.00532743373104)
(0.0203163172909 0.0118551823461 -0.00610938551568)
(0.0200160574546 0.011470696004 -0.00884863284348)
(0.0181481423748 0.00896835876186 -0.00441195999148)
(0.0199460563903 0.0131502480299 -0.00494208356615)
(0.019326036255 0.0126153991402 -0.0072607192405)
(0.0150287950569 0.00987903004555 -0.00369666493184)
(0.0176875399904 0.0143334475331 -0.00403376625249)
(0.0169285793847 0.0136489941134 -0.00602362096714)
(0.010614350878 0.0106785815599 -0.00322042896816)
(0.0136963678399 0.015441255526 -0.00335382337836)
(0.0130102019927 0.0145871521002 -0.00514066636535)
(0.00545746346817 0.0112280269385 -0.0029992817198)
(0.00854877527269 0.0163021982777 -0.0029758649005)
(0.00809618341295 0.0153203457431 -0.00467038223408)
(1.21794306008e-05 0.0114232319336 -0.00294515991802)
(0.00290200927223 0.0167682185696 -0.00284358412174)
(0.00274625308193 0.0157202258925 -0.00451397202673)
(-0.00543386907498 0.0112278841732 -0.00299791365312)
(-0.00287481563116 0.0167680615243 -0.0028428424089)
(-0.00271956627197 0.015719696927 -0.0045128519956)
(-0.0105930671791 0.0106784413934 -0.00321786073673)
(-0.00852328299785 0.0163018218588 -0.00297368663101)
(-0.00807102786412 0.0153188455359 -0.0046671153752)
(-0.0150113554184 0.0098789666131 -0.00369336514573)
(-0.0136744758141 0.0154408568145 -0.00335045288788)
(-0.0129881771078 0.0145849156107 -0.00513560015893)
(-0.0181354312998 0.00896828451247 -0.00440879552825)
(-0.0176708210989 0.0143329589223 -0.00402979935765)
(-0.0169111395474 0.0136463033704 -0.00601760697007)
(-0.0195080695006 0.00801661434131 -0.00532456446048)
(-0.0199344245481 0.013149690973 -0.00493856047835)
(-0.0193134242045 0.012612577877 -0.00725510852356)
(-0.018609365701 0.00712131908747 -0.0064284719678)
(-0.0203093952225 0.0118561023937 -0.00610597741009)
(-0.0200076722254 0.0114689584283 -0.0088437479901)
(-0.0151971193711 0.00655652868546 -0.00730978392261)
(-0.0178427250609 0.010687853411 -0.00740705672174)
(-0.0183307535679 0.010332437466 -0.010640184597)
(-0.0098049251455 0.00646560311803 -0.00721779265041)
(-0.013056724595 0.0100278436081 -0.00807420131943)
(-0.0145379796619 0.00948003352402 -0.0119608670631)
(-0.00381799084226 0.00675290545666 -0.00519737264873)
(-0.00646248343824 0.00980799689224 -0.0072175036785)
(-0.00895179203184 0.00895291508094 -0.0119731367363)
(-0.00111983704977 0.00979270336963 -0.00327995310201)
(-0.00301211459184 0.00853796278988 -0.00908611550477)
(0.00345674566753 0.0125258172953 -0.00529870552158)
(0.000689306437728 0.0143726049231 -0.00252912382157)
(0.0031111050113 0.0138393890759 -0.00804202096711)
(0.0100281068997 0.0130539546254 -0.00807380948967)
(0.00655543819739 0.0151935532803 -0.00730885969664)
(0.00948298705211 0.0145352116061 -0.0119605607562)
(0.0160286039271 0.0138390821615 -0.00817274831929)
(0.0138449049998 0.0160209247244 -0.00817267319028)
(0.0155253605082 0.0155176784615 -0.0119959136519)
(0.0198214543194 0.0150783885193 -0.0070875179249)
(0.019134841595 0.0172872957603 -0.00724324417862)
(0.0195496079172 0.0169102567763 -0.0103935884695)
(0.0209138713038 0.0166058887657 -0.00572403535079)
(0.0218551126444 0.0190229529682 -0.00566138577651)
(0.021296130559 0.0186149113759 -0.00826020843625)
(0.0195262283423 0.0180782276232 -0.00456388982716)
(0.0215605658027 0.020812281751 -0.0041895833273)
(0.0206112125653 0.0203025596694 -0.00627441262107)
(0.0162189837602 0.0193871496841 -0.003690924699)
(0.0191259785227 0.0223426664338 -0.00308215741178)
(0.0180663855953 0.0217637065694 -0.00470199656654)
(0.0114987096424 0.0204851211313 -0.0031092593107)
(0.0148347088287 0.0237140911139 -0.0022860454538)
(0.013935050658 0.0230238858315 -0.00355258346436)
(0.00593405011443 0.0212135885078 -0.00282016730244)
(0.00928029118659 0.0247399463841 -0.00184623717159)
(0.0087198709395 0.0239646979027 -0.00287310981847)
(1.49151966284e-05 0.0214672126811 -0.00274126661261)
(0.00315503765388 0.0252815525391 -0.00168934721507)
(0.00297041270767 0.0244652640337 -0.00259421925464)
(-0.00590516058008 0.021213052515 -0.00281861538678)
(-0.0031230992293 0.025281109608 -0.00168855759483)
(-0.00293859105228 0.0244645344326 -0.0025929913916)
(-0.0114726346103 0.0204842917277 -0.00310627878215)
(-0.00925014085954 0.0247387412003 -0.00184384540582)
(-0.00868988146635 0.0239625970577 -0.00286946327918)
(-0.0161976115133 0.0193860625207 -0.00368688709979)
(-0.0148088264689 0.0237127048405 -0.00228233252402)
(-0.0139087235414 0.0230206944416 -0.0035468879678)
(-0.0195102069845 0.0180769405729 -0.00455956430775)
(-0.0191061089989 0.022340446512 -0.00307734226879)
(-0.0180451839277 0.0217597955011 -0.00469490775517)
(-0.0209032350789 0.0166054035913 -0.00571997342797)
(-0.0215462289193 0.0208100064144 -0.00418484197437)
(-0.0205953222624 0.0202985719457 -0.00626730155356)
(-0.0198156763361 0.0150789869447 -0.00708456216403)
(-0.0218463742914 0.0190224355576 -0.00565700922021)
(-0.0212853218281 0.0186121092937 -0.00825390436428)
(-0.0160260732126 0.0138406555977 -0.00817147411856)
(-0.0191305030971 0.0172875898772 -0.00724074284084)
(-0.0195429914865 0.016908410743 -0.0103893500097)
(-0.0100274476134 0.013057062147 -0.00807391234752)
(-0.0138431448353 0.0160229419726 -0.00817165143138)
(-0.0155216386195 0.0155173651622 -0.0119937324135)
(-0.00345680168091 0.012530992682 -0.00530008413178)
(-0.00655515184902 0.0151976956594 -0.00730919532109)
(-0.0094811747658 0.0145367303748 -0.0119603518533)
(-0.000689605061221 0.0143800130553 -0.00253101685188)
(-0.00311067641366 0.0138437013893 -0.00804411572392)
(0.00345857103199 0.016734977512 -0.00453927799663)
(0.000596002058111 0.0173010354866 -0.00145473620435)
(0.00332880030279 0.0174750906352 -0.00638701454947)
(0.0106906024149 0.017837004145 -0.00740772339725)
(0.00712168882856 0.0186031160603 -0.00642893863638)
(0.0103377927021 0.0183256585092 -0.0106416090561)
(0.0172970588817 0.0191235103883 -0.0072431690496)
(0.0150859038402 0.0198082036687 -0.00708782416718)
(0.0169196799583 0.0195374053569 -0.0103937517942)
(0.0214695728838 0.0208506777002 -0.00581711203023)
(0.0208640892027 0.0214539639165 -0.00581777003547)
(0.0212327370432 0.0212188119374 -0.00833919965225)
(0.0226955781299 0.0228113798814 -0.00412693375302)
(0.0238201028562 0.0235242839263 -0.00386912907079)
(0.023049292451 0.0231999606717 -0.00572735427881)
(0.0212038598885 0.02462519195 -0.00270785091192)
(0.0235380033759 0.0256098430222 -0.00205500809692)
(0.0222829628151 0.0251411133113 -0.0033058609967)
(0.017599651175 0.026185529797 -0.00167727816659)
(0.0208589972933 0.0273382051208 -0.000667477914322)
(0.0194874777526 0.0267879929505 -0.00139134713789)
(0.0124733466512 0.0274619440976 -0.00102302331469)
(0.016165922551 0.0288369236398 0.000347087258656)
(0.0150138361182 0.0281696455607 3.45614961913e-06)
(0.00643886947195 0.0282915647865 -0.000715417084222)
(0.0101081490354 0.0299423586583 0.000927000515852)
(0.00939599217089 0.0291707765536 0.000832050587246)
(1.68815025465e-05 0.0285768291745 -0.000636638197291)
(0.00343521724127 0.0305208404871 0.00114293241409)
(0.00320171607983 0.0296927645968 0.00118268704863)
(-0.00640602912685 0.0282905553758 -0.000713787613863)
(-0.0033999371275 0.0305199755738 0.00114396972087)
(-0.00316642752779 0.0296917723148 0.00118403269706)
(-0.0124431244467 0.0274600352956 -0.00101989914769)
(-0.0100748026811 0.0299397925348 0.000930178872179)
(-0.00936259715072 0.0291678952923 0.000836032647072)
(-0.0175753777844 0.0261828731751 -0.00167278769302)
(-0.0161372565279 0.0288325947517 0.000352058486789)
(-0.0149843441747 0.0281651964914 1.2352386378e-05)
(-0.0211850971699 0.0246221548452 -0.00270261993541)
(-0.0208369473587 0.0273334499885 -0.000661315898346)
(-0.0194634604866 0.0267824751976 -0.00138329499989)
(-0.0226828321186 0.0228092220322 -0.00412187776661)
(-0.023521972207 0.0256052176148 -0.00204900662605)
(-0.0222646388319 0.0251353752555 -0.00329748695118)
(-0.0214622025797 0.0208499115792 -0.00581318989702)
(-0.023810117763 0.0235215730078 -0.00386358897577)
(-0.0230366202394 0.023195478625 -0.0057197770784)
(-0.0172934684372 0.0191242386982 -0.00724092015367)
(-0.0208588508239 0.0214524331192 -0.00581410912334)
(-0.0212246371677 0.0212155972986 -0.00833358639213)
(-0.0106894085387 0.0178400311291 -0.00740693440495)
(-0.0150836156596 0.0198090488233 -0.00708559857037)
(-0.01691494073 0.0195362623636 -0.0103901744575)
(-0.00345854231712 0.0167413554554 -0.00454012804119)
(-0.00712123325934 0.0186068518148 -0.0064279916746)
(-0.0103353020945 0.0183271304069 -0.010640029177)
(-0.000596640406642 0.0173095952694 -0.00145582161234)
(-0.0033282601909 0.0174809735242 -0.00638812880477)
(0.00391059141354 0.0188967943139 -0.00334439684409)
(0.000780913241681 0.0179252003835 -0.000542212906824)
(0.00372610830733 0.0191080123741 -0.00453476893279)
(0.0118605280626 0.0203016757187 -0.0061090394063)
(0.00801823601257 0.0195014698804 -0.0053271776855)
(0.0114762963444 0.0200012556576 -0.00884830472542)
(0.0190344688279 0.021837884554 -0.00566242515305)
(0.0166144192014 0.0208962552522 -0.00572614146797)
(0.0186259284589 0.0212796752704 -0.00826200752772)
(0.0235419744146 0.0238006049768 -0.00386978707603)
(0.0228259774752 0.0226756926182 -0.00412974298022)
(0.0232154102474 0.0230315613533 -0.00572924980437)
(0.0248540344407 0.0259941463753 -0.00179720341469)
(0.0260150509645 0.024831735484 -0.00179891658219)
(0.0250875441047 0.0250684419836 -0.00261952672703)
(0.0232114784015 0.0280144283759 -1.46350993257e-05)
(0.0256821691368 0.0269701093576 0.000433946548693)
(0.0241956464684 0.0270859655361 0.0002822757796)
(0.0192492941438 0.0297023429258 0.00135688751092)
(0.0227226220537 0.0287043737652 0.0021773879503)
(0.0211141591432 0.0287728047225 0.00259600362234)
(0.0136334256838 0.0310448830325 0.0022971110892)
(0.0175786805495 0.0301569875379 0.00349526379124)
(0.0162420250654 0.0301539806715 0.00429579491303)
(0.0070346445408 0.0319088906031 0.00278535001416)
(0.0109730445778 0.0312130202024 0.00427744036552)
(0.0101507862802 0.0311376914509 0.00532811203831)
(1.82234664435e-05 0.0322050016502 0.00292354033224)
(0.00372407503698 0.0317677305231 0.0045877806166)
(0.00345557413161 0.0316479315606 0.00576952498824)
(-0.00699932127479 0.0319066959313 0.00278793620691)
(-0.00368729104847 0.0317663469994 0.00458901440141)
(-0.00341832621154 0.0316465160665 0.00577116803412)
(-0.0136014848211 0.0310406204579 0.00230213650665)
(-0.0109383144398 0.0312088871768 0.00428121164542)
(-0.0101156050079 0.0311335619261 0.00533306367163)
(-0.0192229559779 0.0296967086973 0.00136353028146)
(-0.0175485896043 0.0301504537916 0.00350134583191)
(-0.0162110542476 0.0301475828464 0.00430360630668)
(-0.0231914492897 0.028008533463 -7.70258898122e-06)
(-0.0226991558886 0.028696375698 0.00218456394595)
(-0.0210890308431 0.0287650181708 0.0026055607865)
(-0.0248403635833 0.0259892796975 -0.0017907178352)
(-0.0256649964686 0.0269620803762 0.000440916586294)
(-0.0241764232757 0.02707795326 0.000292043783796)
(-0.0235339454679 0.0237973042643 -0.00386450820208)
(-0.026004186862 0.0248256855139 -0.00179233095649)
(-0.025074061838 0.0250616331469 -0.00261053887714)
(-0.0190304498488 0.0218365421899 -0.00565878754004)
(-0.0228199133293 0.0226711279015 -0.00412516893683)
(-0.0232066194473 0.0230261598811 -0.00572219844579)
(-0.0118591967798 0.0203031826627 -0.00610665584002)
(-0.0166114318366 0.0208946106036 -0.00572291033156)
(-0.0186206822001 0.021276783642 -0.0082568222131)
(-0.00391081776827 0.0189025040842 -0.00334368524575)
(-0.00801721435919 0.0195033487334 -0.00532513775677)
(-0.0114733959825 0.0200015365375 -0.0088448827585)
(-0.000781710755657 0.0179329133718 -0.000542523197667)
(-0.00372575919753 0.0191138029387 -0.0045341403747)
(0.0045223072293 0.0184121035737 -0.00252499374823)
(0.00112707354569 0.0166285206126 1.37686051334e-05)
(0.00412142157825 0.018368656932 -0.0032256397359)
(0.0131557927144 0.0199285386484 -0.00494427974717)
(0.00897140552999 0.0181315253226 -0.00441362178892)
(0.0126219398002 0.0193087142426 -0.00726355464903)
(0.0208243109418 0.0215405105523 -0.00419345929514)
(0.018087851197 0.0195072870202 -0.00456842462162)
(0.0203147426866 0.0205928934428 -0.00627956424743)
(0.0256281778671 0.0235155056393 -0.00205887248637)
(0.0246406543391 0.0211831447897 -0.0027135126726)
(0.0251575270821 0.0222639435009 -0.00331133315048)
(0.0269930797346 0.0256579923661 0.000432233381196)
(0.0280363149461 0.023188313846 -2.00489472731e-05)
(0.0271057809105 0.0241752947554 0.000278506784961)
(0.0251622463739 0.0275671830033 0.00262596959832)
(0.0275923386134 0.0251383370008 0.00262385464521)
(0.0260670448481 0.026046190398 0.00366259474248)
(0.0208335099833 0.0291163469266 0.00431576423062)
(0.0243622629955 0.02668670926 0.00468726889993)
(0.022697978274 0.0275826379517 0.00634639272626)
(0.0147283036144 0.0303226446018 0.00547559306756)
(0.0188000836374 0.0279616394678 0.00626284070589)
(0.0174222675156 0.0288126814616 0.00830054912866)
(0.00758762750133 0.0310886068005 0.00607987096796)
(0.0116935954829 0.0288846436043 0.0072435047102)
(0.0108654499258 0.0296820901431 0.0094690497822)
(1.84025908242e-05 0.0313479816554 0.00625325468577)
(0.00395872751172 0.0293711108076 0.00753404210376)
(0.00369247533352 0.0301326096121 0.00996584315107)
(-0.00755186836059 0.0310853158609 0.00608228983992)
(-0.00392265255042 0.0293692309318 0.00753483413591)
(-0.00365532972041 0.0301307799044 0.00996738601386)
(-0.0146956970329 0.0303163069048 0.00548042097067)
(-0.0116593329898 0.0288789754252 0.00724707915607)
(-0.0108302503278 0.0296767136903 0.00947373894974)
(-0.0208061125165 0.0291076601978 0.00432237949639)
(-0.0187702358686 0.0279526421141 0.00626876586515)
(-0.0173911180024 0.028804202697 0.00830822436986)
(-0.0251410439927 0.0275575055135 0.00263318312122)
(-0.0243387286387 0.0266753166439 0.00469434327411)
(-0.0226724908842 0.027572066043 0.00635598597443)
(-0.0269782236947 0.0256492818389 0.00043930346501)
(-0.0275748477503 0.0251264532694 0.00263105706251)
(-0.0260473665948 0.0260350548555 0.00367280042154)
(-0.0256189738687 0.0235085526887 -0.00205299169123)
(-0.0280250424273 0.02317829319 -1.29265813904e-05)
(-0.0270918958817 0.0241653253518 0.000288134865204)
(-0.0208190949525 0.021535852804 -0.00418929172835)
(-0.024634100193 0.0211747292685 -0.00270865362846)
(-0.0251481856928 0.0222553397314 -0.00330348832482)
(-0.0131533806237 0.0199274533002 -0.00494139224832)
(-0.0180842154645 0.0195023087393 -0.004564676163)
(-0.0203088242342 0.0205872325096 -0.00627342024709)
(-0.00452186471195 0.0184162678771 -0.00252397570869)
(-0.00896969995643 0.0181308483322 -0.00441084005325)
(-0.0126182391835 0.0193069083707 -0.00725902305684)
(-0.00112789893399 0.0166348790645 1.39807361597e-05)
(-0.00412082269928 0.0183733437816 -0.00322383561808)
(0.0051929504605 0.0163158730315 -0.00187485943555)
(0.00160567377514 0.0137754343698 0.00038331636176)
(0.00455854933763 0.0160894985894 -0.00233987640645)
(0.0143407295639 0.0176696132871 -0.00403776666337)
(0.00988379771224 0.0150131971019 -0.00369978985828)
(0.0136577291279 0.0169110617469 -0.00602946449202)
(0.022356205388 0.0191062165737 -0.00308847799908)
(0.019398400345 0.0162022999181 -0.00369747462549)
(0.0217779791968 0.0180489121286 -0.00471050271714)
(0.0273579459222 0.0208372520009 -0.000674689133496)
(0.0262020602375 0.0175820093671 -0.00168529173162)
(0.0268059357618 0.0194701282849 -0.00140061868953)
(0.0287286649148 0.0226993557067 0.00217157231674)
(0.0297255381796 0.0192301785756 0.00134732186153)
(0.0287939205643 0.0210957999157 0.00258740405195)
(0.0267117359235 0.0243381194598 0.00468515394682)
(0.029142861801 0.0208137931386 0.00430896069804)
(0.0276045544062 0.0226793416313 0.00634146303993)
(0.0220643768665 0.0256487342881 0.00663434537519)
(0.0256742814322 0.0220440048583 0.00663183454859)
(0.0239845313009 0.02396522914 0.00929005665085)
(0.0155514422915 0.02663131206 0.00803075234853)
(0.0197537523373 0.0230343629819 0.0083622227691)
(0.0183704493225 0.0249978851689 0.0114402072834)
(0.00797368624752 0.0272500343503 0.008697675846)
(0.0122479889875 0.0236859372618 0.00914505914142)
(0.011425422518 0.0257142026096 0.0127764609097)
(1.74893798984e-05 0.0274730579332 0.0088156215539)
(0.00412924163265 0.0240390869629 0.00932417571585)
(0.00387563795404 0.0260969805905 0.0132882205142)
(-0.00793951226079 0.0272458023535 0.00869962345206)
(-0.00409626238899 0.0240369050758 0.00932451049424)
(-0.00384052105008 0.0260948623768 0.0132893275003)
(-0.0155202802592 0.0266230108044 0.00803542405055)
(-0.0122167433885 0.02367906541 0.00914741556593)
(-0.0113921457559 0.0257077734147 0.0127806771945)
(-0.0220382231109 0.0256372607295 0.00664072964287)
(-0.0197268604514 0.023023424463 0.00836603493061)
(-0.0183411376658 0.02498765301 0.0114471580452)
(-0.0266914220174 0.0243249205127 0.0046922172154)
(-0.025652970032 0.0220297546026 0.0066381623218)
(-0.023960622405 0.0239521231209 0.00929875625759)
(-0.0287142862865 0.0226866274726 0.00217882701611)
(-0.0291270372145 0.0207982542387 0.00431543542285)
(-0.0275861072342 0.022665045754 0.00635105643169)
(-0.0273489225469 0.0208262883265 -0.000668588518621)
(-0.0297150649487 0.0192159176869 0.00135407458714)
(-0.0287808864411 0.0210822902987 0.00259700329685)
(-0.0223509744612 0.0190978719051 -0.00308403806311)
(-0.0261960346152 0.0175696805082 -0.00168091212013)
(-0.0267971787353 0.0194579641198 -0.00139290845999)
(-0.0143381321367 0.0176652613947 -0.00403412396794)
(-0.0193948498198 0.0161934962617 -0.00369367873029)
(-0.0217722151197 0.0180398791374 -0.00470403893262)
(-0.00519250286802 0.0163174831311 -0.0018728836084)
(-0.00988191082046 0.0150091503762 -0.00369637428482)
(-0.0136539533861 0.016906219844 -0.00602394035816)
(-0.00160674822741 0.0137789748056 0.000384281569396)
(-0.00455805545101 0.0160916114567 -0.00233660502349)
(0.00588992026784 0.0126194534168 -0.00144161406097)
(0.0021140033233 0.00974093696472 0.000526528382602)
(0.00503524878068 0.0123500453662 -0.00185543534552)
(0.015450211069 0.0136815837817 -0.00335949782039)
(0.0106847294624 0.0106019840298 -0.00322431060533)
(0.0145978832582 0.0129956964088 -0.00514909176634)
(0.0237286179282 0.0148198384783 -0.00229428835803)
(0.0204976923013 0.0114876014213 -0.00311691392925)
(0.0230400284268 0.0139218215124 -0.00356372286015)
(0.028858155545 0.0161503364193 0.000336719263411)
(0.0274790880585 0.0124638876168 -0.00103230552704)
(0.0281889185778 0.0150018034013 -1.1430026497e-05)
(0.0301826153445 0.0175620642004 0.00348471024284)
(0.031068506506 0.0136230625814 0.00228446230753)
(0.0301763894516 0.0162298188839 0.00428264334212)
(0.0279883132589 0.0187830154763 0.00625564129982)
(0.0303499285294 0.0147176133277 0.00546480811357)
(0.0288360357238 0.0174101483062 0.00829047131487)
(0.0230564447341 0.0197357544846 0.0083597119425)
(0.0266584312029 0.0155406296928 0.00802383183114)
(0.0250186738806 0.0183581476837 0.011435236035)
(0.0161744817878 0.0204641885947 0.009476529562)
(0.0204841862329 0.0161621662871 0.00947674857129)
(0.0191359248783 0.019122487551 0.0137541547849)
(0.00828674745612 0.0209293381524 0.00977155901127)
(0.0126662256271 0.0166083166283 0.00993248905291)
(0.0118873441662 0.0196730761483 0.0149653522078)
(1.52633205341e-05 0.0210852226163 0.00983306465619)
(0.00425024911665 0.0168495433612 0.0100571487699)
(0.00401919998469 0.0199535831554 0.015461026063)
(-0.00825712595932 0.0209246835257 0.00977230260811)
(-0.00422239099904 0.0168473362903 0.0100574644601)
(-0.00398814807973 0.0199513058012 0.0154619564219)
(-0.0161478644087 0.0204549951121 0.00947802644599)
(-0.0126402167707 0.0166014251117 0.009933635136)
(-0.0118582012534 0.0196661941276 0.0149683761831)
(-0.0230340506694 0.0197222558893 0.00836346760954)
(-0.0204623167577 0.0161506715741 0.00947843431089)
(-0.0191108144393 0.019111265103 0.013758934812)
(-0.0279711218642 0.0187665160708 0.00626138052925)
(-0.0266412954837 0.015524686273 0.0080282365275)
(-0.024998382845 0.0183430338652 0.0114421329507)
(-0.0301703862411 0.0175451528121 0.00349068299388)
(-0.0303374284138 0.0146996108794 0.00546906477214)
(-0.0288205634498 0.017393037368 0.00829789894916)
(-0.0288501659194 0.0161348141722 0.000341750985623)
(-0.0310600230109 0.0136054260015 0.00228917082825)
(-0.0301654328383 0.0162127949382 0.00429026098329)
(-0.0237241045748 0.0148071554663 -0.00229055278731)
(-0.0274741395408 0.0124478716921 -0.00102936330463)
(-0.0281816125679 0.014986112633 -4.26359934644e-06)
(-0.0154476956702 0.0136732967305 -0.00335592904718)
(-0.0204946962109 0.011475351997 -0.00311400929175)
(-0.0230351515314 0.0139091735558 -0.00355827571006)
(-0.00588951749692 0.0126175284167 -0.00143920910702)
(-0.0106830097542 0.0105947521151 -0.0032212246502)
(-0.0145945775228 0.0129873319618 -0.00514379106555)
(-0.00211509513944 0.00974101334509 0.00052792089542)
(-0.00503497958466 0.0123483860092 -0.00185156399128)
(0.0064791877937 0.00786087652571 -0.00125616816176)
(0.00250314355433 0.00500573215312 0.000523669635861)
(0.00546755698088 0.00765404458181 -0.00174399614202)
(0.0163121471596 0.0085395457483 -0.00298172671419)
(0.0112344436936 0.00544815523921 -0.00300235941496)
(0.015331836099 0.00808678396409 -0.0046791455031)
(0.0247555193252 0.00927357435819 -0.00185493109826)
(0.0212262981491 0.00592909777748 -0.00282717679606)
(0.0239815823 0.00871330114068 -0.00288488410179)
(0.029963242323 0.0101027824083 0.000915437517086)
(0.0283081651044 0.00643719689417 -0.000723941903808)
(0.0291904438801 0.00939188120022 0.000818952267735)
(0.0312386172017 0.010967789271 0.00426456017827)
(0.0319310905575 0.00703452139957 0.00277292886633)
(0.0311602246932 0.0101478352084 0.00531315188836)
(0.0289119350963 0.0116885518679 0.00723299864489)
(0.0311146584182 0.00758779795693 0.00606811808078)
(0.0297056076091 0.0108629523555 0.00945648510077)
(0.0237101030771 0.012242322971 0.00914086845993)
(0.0272754642596 0.00797429232424 0.00869426588277)
(0.0257358166 0.0114230013631 0.0127681596255)
(0.0166232556072 0.0126582927047 0.0099327080622)
(0.020949303626 0.00828530761793 0.00977315305685)
(0.0196881203184 0.0118838772415 0.0149636989293)
(0.00850741684327 0.0129131716415 0.0102180788116)
(0.0129225779251 0.00850265495509 0.0102186858141)
(0.0121998099797 0.0121944503644 0.0162214951256)
(1.23573298405e-05 0.0130012030895 0.0102815485739)
(0.00432351240147 0.00861899210256 0.0103438838741)
(0.00411110183271 0.0123542638883 0.0167256064106)
(-0.00848366303205 0.0129085992446 0.010218796988)
(-0.00430128288907 0.00861694730752 0.0103442076453)
(-0.00408538546388 0.0123520425073 0.0167264049593)
(-0.0166023225347 0.0126488685632 0.00993404300089)
(-0.0129022749085 0.00849622169566 0.0102196486144)
(-0.0121760753734 0.0121876265586 0.0162238576066)
(-0.0236929902187 0.0122280860108 0.00914320322884)
(-0.0209328677759 0.00827420756556 0.00977445279862)
(-0.0196682404888 0.0118724077432 0.0149671247183)
(-0.0288992175879 0.0116707435023 0.00723592077039)
(-0.0272633352491 0.00795879226289 0.00869608737448)
(-0.0257203702812 0.0114073895761 0.0127721122879)
(-0.0312296940385 0.0109486871788 0.00426755260651)
(-0.0311061651058 0.00756982877471 0.00606903140427)
(-0.0296942389999 0.0108447645847 0.00946024739673)
(-0.0299574077821 0.0100845092422 0.000918056537996)
(-0.031925205044 0.00701616097903 0.00277416864947)
(-0.0311522460147 0.0101290280924 0.00531696611816)
(-0.0247519458974 0.00925799831134 -0.00185281980906)
(-0.0283045790268 0.00642043762293 -0.000723239264346)
(-0.029185203851 0.00937423917949 0.000821958886464)
(-0.0163102213584 0.00852830335738 -0.00297930489477)
(-0.0212243005971 0.00591542870961 -0.00282610690516)
(-0.0239782958225 0.00869833787531 -0.00288181458264)
(-0.00647892808124 0.00785564413722 -0.00125409464776)
(-0.0112333768232 0.00543909126371 -0.0030006803488)
(-0.0153297365191 0.00807584523271 -0.0046756459498)
(-0.00250388098405 0.00500285150253 0.000525003887229)
(-0.00546756199217 0.00764882946667 -0.00174077582763)
(0.00681291290388 0.00265716444663 -0.00122252161734)
(0.00264784262061 -9.90728898338e-06 0.000502488280404)
(0.00572379725598 0.0025798845024 -0.00179728757674)
(0.0167775113086 0.00289701128168 -0.00284780949683)
(0.0114284474655 4.1950980308e-06 -0.00294673171518)
(0.0157307363185 0.00274100851932 -0.00452065434644)
(0.0252960081035 0.0031553193488 -0.0016961876016)
(0.0214781283805 1.46318969129e-05 -0.0027465415148)
(0.0244809392529 0.002969954545 -0.00260404781237)
(0.0305397107358 0.00343909761315 0.00113354944543)
(0.028591009383 2.1707160696e-05 -0.000642925012579)
(0.0297109111355 0.00320491212595 0.00117177016056)
(0.0317904525447 0.00372973320483 0.00457648676884)
(0.0322236009757 2.68076930395e-05 0.00291403135776)
(0.0316683018514 0.00346130168934 0.00575695584826)
(0.0293956266858 0.00396452599667 0.00752938531866)
(0.0313699092042 2.8115712391e-05 0.00624343868685)
(0.030153642342 0.00369911705844 0.00995449391118)
(0.0240595734801 0.00413387081091 0.00932655047969)
(0.0274934090033 2.64938531878e-05 0.00881778023352)
(0.0261155426158 0.00388198641645 0.0132838399532)
(0.0168632766563 0.00425233538827 0.0100591308088)
(0.0211016314817 2.17192239937e-05 0.00983567348952)
(0.0199670316354 0.00402430542301 0.015459875936)
(0.00862500691077 0.00432303857485 0.0103444908766)