/*--------------------------------*- C++ -*----------------------------------*\
| =========                 |                                                 |
| \\      /  F ield         | OpenFOAM: The Open Source CFD Toolbox           |
|  \\    /   O peration     | Version:  3.0.1                                 |
|   \\  /    A nd           | Web:      www.OpenFOAM.org                      |
|    \\/     M anipulation  |                                                 |
\*---------------------------------------------------------------------------*/
FoamFile
{
    version     2.0;
    format      ascii;
    class       volScalarField;
    location    "0.15";
    object      alpha.water;
}
// * * * * * * * * * * * * * * * * * * * * * * * * * * * * * * * * * * * * * //

dimensions      [0 0 0 0 0 0 0];

internalField   nonuniform List<scalar> 
1915
(
0.475519
0.358095
0.966849
0.616866
0.9999
0.7528
0.999963
0.776197
0.999992
0.778846
0.999998
0.82145
1
0.978715
0.999883
0.999874
0.996647
0.995638
0.966334
0.989875
2.11243e-21
1.89933e-20
3.01239e-20
1.86772e-20
7.36788e-21
2.04673e-21
4.87104e-22
1.04537e-22
1.69769e-23
2.17726e-24
2.28583e-25
2.03174e-26
1.57731e-27
1.10027e-28
7.06652e-30
4.23475e-31
2.39116e-32
1.31222e-33
6.94683e-35
3.57891e-36
1.77717e-37
8.51873e-39
3.84639e-40
1.65385e-41
6.63276e-43
2.46055e-44
8.50869e-46
2.70108e-47
7.72735e-49
2.03369e-50
4.74327e-52
1.00226e-53
1.83034e-55
2.94644e-57
3.94284e-59
4.49594e-61
4.05632e-63
2.7128e-65
1.20325e-67
3.00981e-70
1.36529e-19
1.18665e-18
2.14237e-18
1.38407e-18
5.28255e-19
1.46329e-19
3.47986e-20
7.28489e-21
1.17185e-21
1.51485e-22
1.63073e-23
1.5071e-24
1.22512e-25
8.95526e-27
6.0166e-28
3.79123e-29
2.28094e-30
1.33435e-31
7.62013e-33
4.27708e-34
2.3416e-35
1.24783e-36
6.36795e-38
3.11696e-39
1.43638e-40
6.21743e-42
2.51248e-43
9.35373e-45
3.19001e-46
9.92293e-48
2.77038e-49
6.88071e-51
1.49893e-52
2.82888e-54
4.50308e-56
5.88349e-58
6.04177e-60
4.55469e-62
2.21901e-64
5.01332e-67
4.33634e-18
3.45245e-17
6.91017e-17
4.58395e-17
1.70116e-17
4.62356e-18
1.09586e-18
2.25936e-19
3.64313e-20
4.78939e-21
5.28962e-22
5.04369e-23
4.24193e-24
3.21034e-25
2.22614e-26
1.44598e-27
8.93367e-29
5.3297e-30
3.09463e-31
1.75251e-32
9.65311e-34
5.14405e-35
2.62418e-36
1.2789e-37
5.86229e-39
2.52177e-40
1.01192e-41
3.74285e-43
1.26802e-44
3.91583e-46
1.0869e-47
2.67965e-49
5.80456e-51
1.08812e-52
1.72287e-54
2.23823e-56
2.28461e-58
1.7123e-60
8.29952e-63
1.87206e-65
9.70064e-17
6.61012e-16
1.38809e-15
9.44339e-16
3.36784e-16
8.93908e-17
2.12832e-17
4.32102e-18
7.0424e-19
9.48533e-20
1.08214e-20
1.0713e-21
9.37946e-23
7.40274e-24
5.35025e-25
3.61313e-26
2.31732e-27
1.42536e-28
8.51001e-30
4.91618e-31
2.75617e-32
1.48464e-33
7.65104e-35
3.74871e-36
1.72555e-37
7.45963e-39
2.99569e-40
1.10907e-41
3.76849e-43
1.16336e-44
3.23029e-46
7.96257e-48
1.72816e-49
3.2383e-51
5.13059e-53
6.66358e-55
6.80051e-57
5.10235e-59
2.47447e-61
5.60004e-64
1.71311e-15
9.36839e-15
1.9001e-14
1.31904e-14
4.5327e-15
1.17358e-15
2.79791e-16
5.65815e-17
9.41838e-18
1.3105e-18
1.5561e-19
1.61104e-20
1.4787e-21
1.22481e-22
9.30167e-24
6.57713e-25
4.40824e-26
2.82043e-27
1.74032e-28
1.03438e-29
5.93252e-31
3.25155e-32
1.70324e-33
8.43057e-35
3.92271e-36
1.71104e-37
6.90845e-39
2.57185e-40
8.79698e-42
2.72432e-43
7.58431e-45
1.87782e-46
4.09149e-48
7.68389e-50
1.21957e-51
1.58643e-53
1.6228e-55
1.21975e-57
5.92813e-60
1.3461e-62
2.25175e-14
9.54757e-14
1.74809e-13
1.22044e-13
4.20074e-14
1.08717e-14
2.59745e-15
5.31582e-16
9.14495e-17
1.3274e-17
1.65449e-18
1.80497e-19
1.75037e-20
1.53147e-21
1.22916e-22
9.17956e-24
6.45754e-25
4.32702e-26
2.7698e-27
1.7041e-28
1.00174e-29
5.61957e-31
2.99448e-32
1.50191e-33
7.09127e-35
3.11891e-36
1.26885e-37
4.7689e-39
1.63867e-40
5.09603e-42
1.42457e-43
3.54961e-45
7.74916e-47
1.45889e-48
2.31917e-50
3.02146e-52
3.09749e-54
2.33192e-56
1.13556e-58
2.58569e-61
1.85307e-13
6.36633e-13
1.05069e-12
7.16677e-13
2.60392e-13
7.13449e-14
1.73763e-14
3.67047e-15
6.60891e-16
1.01134e-16
1.33493e-17
1.54704e-18
1.5951e-19
1.48671e-20
1.2684e-21
1.00578e-22
7.47193e-24
5.26066e-25
3.51739e-26
2.24515e-27
1.35989e-28
7.83777e-30
4.255e-31
2.17381e-32
1.0397e-33
4.61891e-35
1.90273e-36
7.20207e-38
2.48689e-39
7.78071e-41
2.18974e-42
5.47149e-44
1.19664e-45
2.25759e-47
3.59627e-49
4.70427e-51
4.83672e-53
3.64803e-55
1.77681e-57
4.04102e-60
9.29921e-13
2.82753e-12
4.19357e-12
2.70742e-12
1.07575e-12
3.2889e-13
8.48961e-14
1.8923e-14
3.61015e-15
5.88021e-16
8.28851e-17
1.02706e-17
1.13374e-18
1.13206e-19
1.03272e-20
8.73084e-22
6.8949e-23
5.11661e-24
3.59269e-25
2.38279e-26
1.49628e-27
8.85036e-29
4.9204e-30
2.56495e-31
1.24324e-32
5.60576e-34
2.33434e-35
8.90033e-37
3.09665e-38
9.76786e-40
2.75727e-41
6.90837e-43
1.51502e-44
2.87358e-46
4.59337e-48
6.01893e-50
6.19542e-52
4.67919e-54
2.28333e-56
5.18977e-59
3.79984e-12
9.4572e-12
1.09061e-11
6.98916e-12
3.13149e-12
1.08594e-12
3.08527e-13
7.40248e-14
1.51059e-14
2.63576e-15
3.98801e-16
5.30944e-17
6.30748e-18
6.77035e-19
6.63291e-20
5.9977e-21
5.04199e-22
3.96285e-23
2.92226e-24
2.02558e-25
1.31824e-26
8.03829e-28
4.59313e-29
2.44106e-30
1.20746e-31
5.52414e-33
2.32332e-34
8.97021e-36
3.14938e-37
9.98464e-39
2.83075e-40
7.14285e-42
1.57579e-43
2.9939e-45
4.79293e-47
6.29099e-49
6.48374e-51
4.904e-53
2.39763e-55
5.46851e-58
1.00582e-11
2.4111e-11
2.74395e-11
1.10541e-11
6.76418e-12
2.70573e-12
8.61385e-13
2.24518e-13
4.91407e-14
9.19436e-15
1.49461e-15
2.14162e-16
2.74016e-17
3.16281e-18
3.3276e-19
3.22139e-20
2.88144e-21
2.39732e-22
1.85936e-23
1.34652e-24
9.09489e-26
5.73734e-27
3.35971e-28
1.8326e-29
9.2374e-31
4.28599e-32
1.8325e-33
7.14624e-35
2.52615e-36
8.07692e-38
2.30979e-39
5.84296e-41
1.29201e-42
2.45787e-44
3.94081e-46
5.17655e-48
5.33885e-50
4.04189e-52
1.97985e-54
4.52681e-57
0.921188
0.987775
0.782356
0.980718
0.319347
0.969218
0.00938599
0.912153
0.00268057
0.883173
0.00146859
0.862192
0.00072061
0.792249
0.000324529
0.506666
0.00013556
0.0553355
2.50114e-05
-0.000154462
-4.45689e-05
-2.12099e-05
-9.91723e-06
-1.37175e-06
-1.06552e-07
5.72522e-09
4.51459e-09
1.401e-09
4.7127e-10
1.56575e-10
4.02249e-11
1.50448e-11
1.05788e-11
5.99945e-12
2.67327e-12
1.24489e-12
2.83532e-13
6.77233e-14
1.67652e-14
4.19344e-15
1.03275e-15
2.45791e-16
5.61375e-17
0.0938061
1.12768e-11
1.13248e-11
1.20886e-11
0.113273
1.12765e-11
1.15437e-11
1.18979e-11
0.155731
1.23055e-11
1.13409e-11
1.0529e-11
0.200779
2.41998e-09
2.41531e-11
1.98771e-08
0.192748
-1.37235e-06
3.0701e-08
1.4456e-08
0.244686
0.000478005
5.92634e-08
5.69919e-06
0.515008
0.0106094
5.31346e-07
6.78607e-06
0.48807
0.0413325
1.52289e-05
1.22789e-05
0.31677
0.160267
0.000733561
2.41541e-05
0.0923776
0.137333
0.0200156
0.000312376
0.0081018
0.0270558
0.0403132
0.0151497
0.00285095
0.00404364
0.0137111
0.015865
0.000936383
0.00132349
0.00121844
0.0076028
0.000269961
0.00038296
0.00036086
0.000606456
6.7447e-05
9.84544e-05
9.62323e-05
0.000107299
1.52383e-05
2.3122e-05
2.31344e-05
2.43083e-05
3.107e-06
4.82049e-06
4.84144e-06
4.80066e-06
5.81099e-07
9.0424e-07
8.9714e-07
8.37454e-07
1.00475e-07
1.54689e-07
1.5016e-07
1.31785e-07
1.62088e-08
2.44488e-08
2.30972e-08
1.90829e-08
2.45563e-09
3.60726e-09
3.29654e-09
2.58612e-09
3.52018e-10
5.00264e-10
4.48017e-10
3.66804e-10
6.5005e-11
8.43119e-11
7.71244e-11
6.01352e-11
1.19232e-11
1.62795e-11
1.72713e-11
1.53929e-11
4.17777e-12
5.19294e-12
5.01969e-12
4.13117e-12
2.81497e-12
2.81828e-12
2.73578e-12
2.51061e-12
5.52769e-13
6.82583e-13
6.63107e-13
4.97778e-13
1.08767e-13
1.31906e-13
1.26752e-13
9.11327e-14
2.16405e-14
2.49042e-14
2.29361e-14
1.5542e-14
4.34701e-15
4.57523e-15
3.93334e-15
2.4855e-15
8.7395e-16
8.15602e-16
6.40998e-16
3.74896e-16
1.73799e-16
1.40925e-16
9.96609e-17
5.36354e-17
3.38086e-17
2.35977e-17
1.4852e-17
7.32046e-18
1.33655e-11
2.24096e-11
2.69132e-11
1.76688e-11
1.09632e-11
5.27209e-12
1.91535e-12
5.45401e-13
1.27225e-13
2.5321e-14
4.39158e-15
6.73294e-16
9.23116e-17
1.14176e-17
1.28469e-18
1.3216e-19
1.25318e-20
1.09806e-21
8.92032e-23
6.72651e-24
4.71199e-25
3.05675e-26
1.84287e-27
1.02478e-28
5.26461e-30
2.48741e-31
1.07369e-32
4.23067e-34
1.51242e-35
4.86094e-37
1.39432e-38
3.53371e-40
7.82294e-42
1.48893e-43
2.38797e-45
3.13575e-47
3.23327e-49
2.44835e-51
1.19949e-53
2.74638e-56
1.21239e-11
1.67944e-11
1.89344e-11
1.654e-11
1.37901e-11
8.25605e-12
3.52914e-12
1.10951e-12
2.72257e-13
5.65116e-14
1.02741e-14
1.66315e-15
2.41523e-16
3.16501e-17
3.75511e-18
4.06845e-19
4.04123e-20
3.6843e-21
3.10525e-22
2.41128e-23
1.73262e-24
1.15006e-25
7.03643e-27
3.97856e-28
2.06351e-29
9.82092e-31
4.27574e-32
1.69044e-33
6.03918e-35
1.93775e-36
5.54249e-38
1.40002e-39
3.08683e-41
5.84945e-43
9.33663e-45
1.22017e-46
1.25248e-48
9.44201e-51
4.60828e-53
1.05266e-55
2.86086e-10
2.10257e-11
2.02785e-11
1.68814e-11
1.25727e-11
1.08217e-11
5.53311e-12
1.96616e-12
4.98555e-13
1.04326e-13
1.9231e-14
3.1912e-15
4.78703e-16
6.49324e-17
7.97307e-18
8.94074e-19
9.11136e-20
8.5168e-21
7.27974e-22
5.73219e-23
4.1359e-24
2.75772e-25
1.68624e-26
9.48272e-28
4.89768e-29
2.31043e-30
9.9282e-32
3.87193e-33
1.364e-34
4.3153e-36
1.21711e-37
3.03246e-39
6.59691e-41
1.23415e-42
1.94567e-44
2.51324e-46
2.55162e-48
1.90411e-50
9.20991e-53
2.0884e-55
5.44462e-09
5.01289e-11
1.09027e-10
3.81745e-11
1.4768e-11
1.16268e-11
7.88947e-12
3.25461e-12
8.40515e-13
1.69216e-13
2.9878e-14
4.81065e-15
7.10634e-16
9.59126e-17
1.18019e-17
1.32725e-18
1.35617e-19
1.27178e-20
1.08686e-21
8.54964e-23
6.15294e-24
4.07368e-25
2.47537e-26
1.37782e-27
7.01563e-29
3.26217e-30
1.38148e-31
5.31e-33
1.8445e-34
5.75569e-36
1.60219e-37
3.94189e-39
8.47358e-41
1.56743e-42
2.44526e-44
3.12782e-46
3.14706e-48
2.32957e-50
1.11903e-52
2.52374e-55
7.11274e-09
3.60278e-09
2.2563e-09
-7.8166e-10
2.34234e-11
1.22541e-11
1.07054e-11
5.40407e-12
1.44122e-12
2.72067e-13
4.36672e-14
6.40251e-15
8.7842e-16
1.12433e-16
1.33401e-17
1.46443e-18
1.47372e-19
1.36731e-20
1.15913e-21
9.0556e-23
6.47828e-24
4.24352e-25
2.54752e-26
1.40007e-27
7.03826e-29
3.23127e-30
1.35175e-31
5.13166e-33
1.76149e-34
5.43491e-36
1.49623e-37
3.64304e-39
7.75353e-41
1.42103e-42
2.19772e-44
2.78876e-46
2.7857e-48
2.04893e-50
9.79022e-53
2.19933e-55
8.6778e-06
8.28332e-08
4.32439e-08
3.2827e-09
-1.34666e-11
1.03103e-11
1.05542e-11
9.00274e-12
2.6147e-12
4.76495e-13
6.91059e-14
8.92659e-15
1.08289e-15
1.25433e-16
1.38016e-17
1.43768e-18
1.39764e-19
1.26296e-20
1.05113e-21
8.04004e-23
5.64665e-24
3.63772e-25
2.14986e-26
1.1642e-27
5.77181e-29
2.61326e-30
1.07832e-31
4.04338e-33
1.37046e-34
4.17739e-36
1.13676e-37
2.73739e-39
5.76558e-41
1.04638e-42
1.60346e-44
2.01761e-46
1.99995e-48
1.46097e-50
6.94119e-53
1.55287e-55
6.74284e-05
1.06888e-06
4.3826e-07
2.04782e-08
-7.9582e-10
3.4483e-11
1.36341e-11
1.30272e-11
4.80527e-12
9.14677e-13
1.24901e-13
1.43335e-14
1.50019e-15
1.49954e-16
1.46643e-17
1.38899e-18
1.26082e-19
1.0813e-20
8.66854e-22
6.44442e-23
4.42099e-24
2.79176e-25
1.61947e-26
8.6163e-28
4.19901e-29
1.87167e-30
7.60206e-32
2.80705e-33
9.37816e-35
2.81868e-36
7.56995e-38
1.79978e-39
3.74584e-41
6.7212e-43
1.01924e-44
1.27002e-46
1.24768e-48
9.04128e-51
4.26633e-53
9.4962e-56
0.000195028
0.000147642
2.24216e-06
9.51948e-08
5.37253e-09
-1.71889e-10
1.28398e-11
1.03129e-11
8.03891e-12
1.84095e-12
2.6044e-13
2.82663e-14
2.6393e-15
2.24118e-16
1.81887e-17
1.45639e-18
1.15944e-19
9.07102e-21
6.82985e-22
4.85909e-23
3.22584e-24
1.98312e-25
1.12394e-26
5.85745e-28
2.79937e-29
1.22428e-30
4.8887e-32
1.77461e-33
5.8334e-35
1.72647e-36
4.56823e-38
1.07112e-39
2.19982e-41
3.89843e-43
5.843e-45
7.20163e-47
7.00404e-49
5.02944e-51
2.35464e-53
5.20975e-56
0.000193596
0.000541722
8.59506e-05
2.58752e-06
1.47847e-07
7.16141e-09
2.61621e-10
2.60611e-11
5.23463e-12
3.44611e-12
5.64713e-13
6.22019e-14
5.40992e-15
4.03312e-16
2.73704e-17
1.78456e-18
1.16765e-19
7.80917e-21
5.27254e-22
3.49309e-23
2.2113e-24
1.31359e-25
7.24458e-27
3.68685e-28
1.72507e-29
7.39647e-31
2.89739e-32
1.0333e-33
3.33874e-35
9.72335e-37
2.53283e-38
5.85235e-40
1.18517e-41
2.07296e-43
3.06863e-45
3.73845e-47
3.59695e-49
2.5577e-51
1.18723e-53
2.60937e-56
0.00023385
0.000874011
0.000315418
3.628e-05
3.03593e-06
1.11753e-07
1.58329e-09
4.10156e-11
1.06394e-11
5.70549e-12
1.24063e-12
1.3898e-13
1.16637e-14
8.04328e-16
4.82427e-17
2.6453e-18
1.39938e-19
7.52952e-21
4.24414e-22
2.48071e-23
1.45074e-24
8.18981e-26
4.35951e-27
2.15855e-28
9.86382e-30
4.14069e-31
1.59042e-32
5.56675e-34
1.76755e-35
5.06047e-37
1.29794e-38
2.95318e-40
5.89656e-42
1.01745e-43
1.48696e-45
1.78991e-47
1.70306e-49
1.19871e-51
5.51448e-54
1.20344e-56
0.00399452
0.00198934
0.000348979
4.53568e-05
4.18647e-06
1.8436e-07
3.68298e-09
1.75834e-10
1.22247e-11
4.18402e-12
2.72179e-12
2.84569e-13
2.26337e-14
1.47206e-15
8.1818e-17
4.02926e-18
1.83071e-19
8.08938e-21
3.6872e-22
1.79853e-23
9.281e-25
4.85162e-26
2.46085e-27
1.17815e-28
5.24551e-30
2.15251e-31
8.10065e-33
2.782e-34
8.67542e-36
2.44244e-37
6.16239e-39
1.38115e-40
2.71787e-42
4.62531e-44
6.67211e-46
7.93382e-48
7.46344e-50
5.19872e-52
2.36965e-54
5.13321e-57
0.01607
0.00864304
0.000383901
2.61396e-05
2.67692e-06
2.11236e-07
1.31668e-08
6.32818e-10
4.80499e-11
5.79226e-12
2.76987e-12
5.09163e-13
3.81198e-14
2.32022e-15
1.20465e-16
5.49663e-18
2.26657e-19
8.76624e-21
3.35378e-22
1.34995e-23
5.91785e-25
2.76806e-26
1.31171e-27
6.01699e-29
2.5979e-30
1.04089e-31
3.83385e-33
1.29139e-34
3.95467e-36
1.09439e-37
2.71693e-39
5.9966e-41
1.1628e-42
1.95143e-44
2.77813e-46
3.26286e-48
3.03425e-50
2.0913e-52
9.44342e-55
2.03007e-57
0.0127942
0.00812217
0.000414521
3.13393e-05
3.63685e-06
3.22055e-07
2.19023e-08
1.33802e-09
7.40907e-11
6.91904e-12
2.22659e-12
6.54064e-13
4.50515e-14
2.58468e-15
1.27422e-16
5.5229e-18
2.1505e-19
7.72912e-21
2.67114e-22
9.42035e-24
3.58926e-25
1.49754e-26
6.57245e-28
2.87069e-29
1.19901e-30
4.67972e-32
1.68731e-33
5.57207e-35
1.67564e-36
4.55804e-38
1.11355e-39
2.41984e-41
4.62334e-43
7.65079e-45
1.07485e-46
1.24676e-48
1.14603e-50
7.81487e-53
3.49548e-55
7.45537e-58
0.00152621
0.00141884
0.000517027
1.32068e-05
1.68061e-06
1.65222e-07
1.36486e-08
9.49367e-10
5.72842e-11
6.27628e-12
1.94913e-12
4.92131e-13
3.15121e-14
1.73066e-15
8.30381e-17
3.53355e-18
1.35455e-19
4.77575e-21
1.60097e-22
5.36411e-24
1.90326e-25
7.36896e-27
3.04176e-28
1.27136e-29
5.13922e-31
1.95636e-32
6.90038e-34
2.23532e-35
6.60098e-37
1.76592e-38
4.24461e-40
9.08146e-42
1.70959e-43
2.78959e-45
3.86736e-47
4.43023e-49
4.02507e-51
2.71542e-53
1.20297e-55
2.54509e-58
9.93691e-05
0.000109938
6.83273e-05
2.17197e-06
3.1471e-07
3.41014e-08
3.05379e-09
2.29057e-10
1.79424e-11
4.02485e-12
1.99776e-12
1.86476e-13
1.2037e-14
6.76124e-16
3.33977e-17
1.46701e-18
5.80653e-20
2.10933e-21
7.23797e-23
2.44895e-24
8.59689e-26
3.23156e-27
1.28625e-28
5.19501e-30
2.04255e-31
7.58977e-33
2.62221e-34
8.33341e-36
2.41892e-37
6.36293e-39
1.50485e-40
3.17029e-42
5.88091e-44
9.46287e-46
1.29464e-47
1.4647e-49
1.31533e-51
8.77855e-54
3.85162e-56
8.0815e-59
1.9535e-05
1.52217e-05
8.15945e-06
3.45295e-07
4.65176e-08
5.05771e-09
4.71239e-10
4.19569e-11
7.01419e-12
2.41558e-12
6.51661e-13
5.09394e-14
3.43621e-15
2.01984e-16
1.04463e-17
4.80386e-19
1.98946e-20
7.5526e-22
2.69952e-23
9.43765e-25
3.37021e-26
1.26401e-27
4.94548e-29
1.9527e-30
7.50129e-32
2.72913e-33
9.24698e-35
2.88758e-36
8.23808e-38
2.13128e-39
4.96095e-41
1.02935e-42
1.88194e-44
2.98664e-46
4.0329e-48
4.50654e-50
4.0003e-52
2.64129e-54
1.14771e-56
2.38781e-59
3.41526e-06
1.61241e-06
6.10891e-07
7.30371e-08
6.5433e-09
7.02664e-10
6.9797e-11
9.63478e-12
2.73284e-12
1.42999e-12
1.38882e-13
1.14685e-14
8.15271e-16
5.04308e-17
2.74252e-18
1.32545e-19
5.7684e-21
2.30145e-22
8.63674e-24
3.15529e-25
1.16351e-26
4.42633e-28
1.72691e-29
6.73049e-31
2.54087e-32
9.08249e-34
3.02521e-35
9.28542e-37
2.60508e-38
6.63188e-40
1.51998e-41
3.10736e-43
5.60094e-45
8.76894e-47
1.1689e-48
1.29033e-50
1.13231e-52
7.39705e-55
3.18327e-57
6.56595e-60
5.4166e-07
2.0228e-07
5.46163e-08
1.00985e-08
1.06722e-09
1.20985e-10
1.55898e-11
4.0767e-12
2.16783e-12
3.09084e-13
3.03621e-14
2.55776e-15
1.86444e-16
1.18689e-17
6.66251e-19
3.33387e-20
1.50729e-21
6.27085e-23
2.46109e-24
9.39693e-26
3.5941e-27
1.39759e-28
5.48611e-30
2.12535e-31
7.93527e-33
2.79568e-34
9.1635e-36
2.76736e-37
7.64163e-39
1.91561e-40
4.32554e-42
8.71681e-44
1.54965e-45
2.3943e-47
3.1516e-49
3.43757e-51
2.98271e-53
1.92808e-55
8.21808e-58
1.68035e-60
7.89161e-08
3.07497e-08
7.65309e-09
1.45746e-09
1.9579e-10
2.63759e-11
5.76176e-12
2.4091e-12
5.88793e-13
6.67699e-14
6.5211e-15
5.51546e-16
4.06575e-17
2.63267e-18
1.51078e-19
7.76581e-21
3.62475e-22
1.56514e-23
6.40333e-25
2.55008e-26
1.01125e-27
4.02581e-29
1.59663e-30
6.17966e-32
2.28562e-33
7.94657e-35
2.56677e-36
7.63619e-38
2.07745e-39
5.13235e-41
1.14256e-42
2.271e-44
3.98398e-46
6.07721e-48
7.90192e-50
8.51884e-52
7.31035e-54
4.67689e-56
1.97461e-58
4.00203e-61
1.07624e-08
4.08759e-09
1.07305e-09
2.28528e-10
5.03209e-11
9.14358e-12
3.10292e-12
9.88938e-13
1.27424e-13
1.41664e-14
1.36433e-15
1.14561e-16
8.44455e-18
5.50364e-19
3.19889e-20
1.67619e-21
8.03598e-23
3.59122e-24
1.52948e-25
6.35129e-27
2.61357e-28
1.06695e-29
4.27427e-31
1.65225e-32
6.06222e-34
2.08357e-35
6.64246e-37
1.94927e-38
5.23034e-40
1.27459e-41
2.79962e-43
5.49214e-45
9.51287e-47
1.43335e-48
1.84179e-50
1.96322e-52
1.66669e-54
1.05555e-56
4.41523e-59
8.86961e-62
1.4085e-09
5.71515e-10
1.65892e-10
5.68315e-11
1.34212e-11
3.35201e-12
1.41992e-12
2.12787e-13
2.69434e-14
2.92933e-15
2.76489e-16
2.28646e-17
1.6707e-18
1.08789e-19
6.37281e-21
3.39705e-22
1.67157e-23
7.72753e-25
3.42186e-26
1.47628e-27
6.26132e-29
2.6052e-30
1.05184e-31
4.06201e-33
1.48045e-34
5.03785e-36
1.58747e-37
4.6009e-39
1.2189e-40
2.93267e-42
6.36066e-44
1.2324e-45
2.10891e-47
3.14041e-49
3.98966e-51
4.2065e-53
3.53411e-55
2.21631e-57
9.18647e-60
1.82914e-62
2.23256e-10
9.25925e-11
4.51961e-11
1.31904e-11
3.50696e-12
1.69983e-12
2.9386e-13
4.25214e-14
5.24721e-15
5.59523e-16
5.2087e-17
4.27081e-18
3.11043e-19
2.02995e-20
1.19917e-21
6.49087e-23
3.26742e-24
1.55584e-25
7.12553e-27
3.17677e-28
1.38359e-29
5.85511e-31
2.38108e-32
9.19098e-34
3.33094e-35
1.12363e-36
3.50378e-38
1.00402e-39
2.62882e-41
6.2502e-43
1.33963e-44
2.56535e-46
4.33971e-48
6.3903e-50
8.03057e-52
8.37871e-54
6.96907e-56
4.32903e-58
1.77852e-60
3.51002e-63
3.8673e-11
2.57024e-11
1.00246e-11
3.36581e-12
1.71216e-12
3.39286e-13
5.59601e-14
7.82376e-15
9.40515e-16
9.83178e-17
9.02285e-18
7.33272e-19
5.32287e-20
3.48387e-21
2.07846e-22
1.14505e-23
5.91288e-25
2.90656e-26
1.37772e-27
6.33984e-29
2.8291e-30
1.21513e-31
4.97151e-33
1.91766e-34
6.91369e-36
2.31362e-37
7.14557e-39
2.02626e-40
5.24776e-42
1.23392e-43
2.61548e-45
4.95361e-47
8.28921e-49
1.20767e-50
1.50201e-52
1.55148e-54
1.27807e-56
7.86656e-59
3.20423e-61
6.26823e-64
9.95041e-12
5.68156e-12
3.09956e-12
1.45141e-12
3.2936e-13
6.19384e-14
9.81174e-15
1.32885e-15
1.5578e-16
1.59719e-17
1.4455e-18
1.16498e-19
8.43787e-21
5.54863e-22
3.3519e-23
1.88533e-24
1.00148e-25
5.0885e-27
2.49368e-28
1.18077e-29
5.37819e-31
2.33706e-32
9.60018e-34
3.69714e-35
1.32581e-36
4.40287e-38
1.34759e-39
3.78408e-41
9.70069e-43
2.25735e-44
4.73503e-46
8.87515e-48
1.46995e-49
2.12008e-51
2.61091e-53
2.67121e-55
2.18026e-57
1.33018e-59
5.37342e-62
1.04199e-64
3.27576e-12
2.59945e-12
1.01842e-12
2.68269e-13
5.78485e-14
1.04152e-14
1.59154e-15
2.09279e-16
2.39565e-17
2.41151e-18
2.15465e-19
1.72472e-20
1.24918e-21
8.27767e-23
5.08124e-24
2.92772e-25
1.60294e-26
8.41437e-28
4.24996e-29
2.06096e-30
9.53584e-32
4.17653e-33
1.71839e-34
6.59884e-36
2.35271e-37
7.75383e-39
2.35268e-40
6.54512e-42
1.66175e-43
3.8291e-45
7.95306e-47
1.47611e-48
2.42113e-50
3.45866e-52
4.21966e-54
4.27792e-56
3.46102e-58
2.09381e-60
8.39108e-63
1.61303e-65
1.36689e-12
5.75105e-13
1.81446e-13
4.54946e-14
9.37818e-15
1.62373e-15
2.40029e-16
3.07032e-17
3.43729e-18
3.40246e-19
3.00716e-20
2.39697e-21
1.74183e-22
1.16767e-23
7.31147e-25
4.3269e-26
2.44233e-27
1.32097e-28
6.84244e-30
3.37878e-31
1.57994e-32
6.94812e-34
2.85636e-35
1.09227e-36
3.86952e-38
1.26546e-39
3.80708e-41
1.04965e-42
2.64049e-44
6.02779e-46
1.2403e-47
2.28066e-49
3.70638e-51
5.24676e-53
6.34441e-55
6.37637e-57
5.11556e-59
3.06988e-61
1.22091e-63
2.32672e-66
2.57378e-13
1.00214e-13
2.98965e-14
7.14861e-15
1.41321e-15
2.35951e-16
3.38161e-17
4.21586e-18
4.62497e-19
4.51236e-20
3.95656e-21
3.15193e-22
2.3078e-23
1.57177e-24
1.00714e-25
6.12738e-27
3.55816e-28
1.9734e-29
1.04186e-30
5.20719e-32
2.44873e-33
1.07749e-34
4.41596e-36
1.67941e-37
5.90797e-39
1.91683e-40
5.71808e-42
1.56278e-43
3.89646e-45
8.81563e-47
1.79778e-48
3.27649e-50
5.27817e-52
7.40742e-54
8.88147e-56
8.85271e-58
7.04556e-60
4.19565e-62
1.65648e-64
3.12969e-67
4.44507e-14
1.6206e-14
4.58372e-15
1.04733e-15
1.99013e-16
3.21112e-17
4.47113e-18
5.44488e-19
5.86858e-20
5.66166e-21
4.9444e-22
3.95442e-23
2.93068e-24
2.0352e-25
1.33649e-26
8.34639e-28
4.96415e-29
2.80561e-30
1.49989e-31
7.54431e-33
3.5524e-34
1.55932e-35
6.35882e-37
2.40233e-38
8.38704e-40
2.69901e-41
7.98345e-43
2.1632e-44
5.34693e-46
1.19931e-47
2.42483e-49
4.38186e-51
6.99983e-53
9.74291e-55
1.15877e-56
1.14596e-58
9.05092e-61
5.35043e-63
2.0977e-65
3.92937e-68
7.12704e-15
2.44559e-15
6.57339e-16
1.43788e-16
2.63141e-17
4.11189e-18
5.57558e-19
6.65102e-20
7.06716e-21
6.76965e-22
5.9161e-23
4.77298e-24
3.59445e-25
2.54998e-26
1.71431e-27
1.09449e-28
6.62672e-30
3.79089e-31
2.03951e-32
1.0273e-33
4.82603e-35
2.108e-36
8.54e-38
3.20202e-39
1.10884e-40
3.53844e-42
1.03776e-43
2.78805e-45
6.83321e-47
1.51985e-48
3.04753e-50
5.46226e-52
8.65582e-54
1.19532e-55
1.41073e-57
1.3847e-59
1.08573e-61
6.37361e-64
2.48226e-66
4.60991e-69
1.06915e-15
3.46189e-16
8.85914e-17
1.85851e-17
3.2823e-18
4.97913e-19
6.59412e-20
7.73269e-21
8.1349e-22
7.77457e-23
6.83223e-24
5.58287e-25
4.28126e-26
3.10041e-27
2.12597e-28
1.37944e-29
8.44482e-31
4.85847e-32
2.61642e-33
1.3144e-34
6.14274e-36
2.66482e-37
1.07117e-38
3.9829e-40
1.36748e-41
4.32636e-43
1.25802e-44
3.35128e-46
8.1454e-48
1.79692e-49
3.5742e-51
6.35588e-53
9.99433e-55
1.36977e-56
1.60476e-58
1.56392e-60
1.2178e-62
7.10152e-65
2.74828e-67
5.06006e-70
1.50993e-16
4.62004e-17
1.12743e-17
2.27256e-18
3.88236e-19
5.7341e-20
7.44376e-21
8.61817e-22
9.01987e-23
8.64247e-24
7.66823e-25
6.36021e-26
4.96381e-27
3.65683e-28
2.54308e-29
1.66582e-30
1.02444e-31
5.89445e-33
3.16369e-34
1.58011e-35
7.33003e-37
3.15352e-38
1.25652e-39
4.63052e-41
1.57572e-42
4.94151e-44
1.42456e-45
3.76311e-47
9.07149e-49
1.98523e-50
3.91797e-52
6.9142e-54
1.07916e-55
1.46836e-57
1.70818e-59
1.65338e-61
1.27901e-63
7.41156e-66
2.85105e-68
5.20381e-71
2.01915e-17
5.84301e-18
1.36182e-18
2.6432e-19
4.38029e-20
6.32137e-21
8.07805e-22
9.27755e-23
9.70579e-24
9.35989e-25
8.40233e-26
7.07014e-27
5.59711e-28
4.17174e-29
2.92315e-30
1.92057e-31
1.1798e-32
6.75883e-34
3.60342e-35
1.78506e-36
8.20636e-38
3.49745e-39
1.38039e-40
5.03946e-42
1.69921e-43
5.28145e-45
1.50945e-46
3.95412e-48
9.45495e-50
2.05295e-51
4.02085e-53
7.04345e-55
1.09147e-56
1.4748e-58
1.70415e-60
1.63878e-62
1.2598e-64
7.25663e-67
2.77557e-69
5.02166e-72
2.5717e-18
7.04271e-19
1.57034e-19
2.94231e-20
4.74571e-21
6.71899e-22
8.49022e-23
9.71567e-24
1.01962e-24
9.91461e-26
8.99913e-27
7.65718e-28
6.11632e-29
4.58296e-30
3.21514e-31
2.10698e-32
1.28709e-33
7.31641e-35
3.8652e-36
1.89589e-37
8.62744e-39
3.63963e-40
1.42222e-41
5.14203e-43
1.71765e-44
5.29094e-46
1.49915e-47
3.89464e-49
9.23859e-51
1.99059e-52
3.86986e-54
6.73053e-56
1.03578e-57
1.39023e-59
1.59609e-61
1.52537e-63
1.16567e-65
6.67649e-68
2.53994e-70
4.55449e-73
)
;

boundaryField
{
    leftWall
    {
        type            zeroGradient;
    }
    rightWall
    {
        type            zeroGradient;
    }
    lowerWall
    {
        type            zeroGradient;
    }
    atmosphere
    {
        type            inletOutlet;
        inletValue      nonuniform 0();
        value           nonuniform 0();
    }
    defaultFaces
    {
        type            empty;
    }
    procBoundary1to0
    {
        type            processor;
        value           nonuniform List<scalar> 
44
(
0.987262
0.999997
0.999963
0.99992
0.999998
1
1
1
0.982
0.593045
0.075171
0.0171997
0.00625331
0.00170107
0.000552094
0.000286242
0.000218731
0.000222035
0.000103974
2.25708e-05
1.09688e-05
1.09688e-05
4.46658e-06
8.54721e-07
2.31109e-07
5.88918e-08
1.39517e-08
3.16191e-09
6.9913e-10
1.58847e-10
3.83307e-11
1.27425e-11
7.76187e-12
5.43901e-12
2.66795e-12
1.11546e-12
4.47223e-13
1.6876e-13
5.94898e-14
1.955e-14
5.99003e-15
1.71397e-15
4.61554e-16
1.1743e-16
)
;
    }
    procBoundary1to3
    {
        type            processor;
        value           nonuniform List<scalar> 
45
(
1.22875e-17
6.39617e-18
3.83047e-18
2.13145e-18
9.58772e-19
3.13878e-19
8.13997e-20
1.73975e-20
3.15591e-21
4.97237e-22
6.93477e-23
8.69951e-24
9.95027e-25
1.04905e-25
1.02768e-26
9.40062e-28
8.04669e-29
6.44545e-30
4.82546e-31
3.37088e-32
2.1936e-33
1.32801e-34
7.47226e-36
3.90485e-37
1.89423e-38
8.52573e-40
3.5584e-41
1.37619e-42
4.92663e-44
1.63022e-45
4.97656e-47
1.39799e-48
3.60212e-50
8.47779e-52
1.81295e-53
3.49914e-55
6.04365e-57
9.23886e-59
1.23211e-60
1.40587e-62
1.33566e-64
1.01495e-66
5.78219e-69
2.18854e-71
3.88858e-74
)
;
    }
}


// ************************************************************************* //
