/*--------------------------------*- C++ -*----------------------------------*\
| =========                 |                                                 |
| \\      /  F ield         | OpenFOAM: The Open Source CFD Toolbox           |
|  \\    /   O peration     | Version:  3.0.1                                 |
|   \\  /    A nd           | Web:      www.OpenFOAM.org                      |
|    \\/     M anipulation  |                                                 |
\*---------------------------------------------------------------------------*/
FoamFile
{
    version     2.0;
    format      ascii;
    class       volScalarField;
    location    "4";
    object      epsilon_0;
}
// * * * * * * * * * * * * * * * * * * * * * * * * * * * * * * * * * * * * * //

dimensions      [0 2 -3 0 0 0 0];

internalField   nonuniform List<scalar> 
7968
(
0.000399978788682
0.000476418326392
0.000538755736157
0.000578417590238
0.000600992586599
0.000611696961832
0.000614877995602
0.000613838278547
0.000611252233793
0.000608935484505
0.000608957116831
0.000611312288793
0.000613942320842
0.000615040602119
0.00061192872061
0.000601298219231
0.000578765924517
0.000539090047552
0.000476661433939
0.000400081339509
0.000476455644969
0.000826066912
0.00108812879342
0.00125124446065
0.00134109073754
0.00138033609675
0.00138950626631
0.00138417207186
0.00137591952571
0.00137063055354
0.00137051634235
0.00137562126955
0.00138383007505
0.00138928317527
0.00138034162815
0.00134138456672
0.00125174497915
0.00108872377591
0.000826528771378
0.000476621105624
0.00053891254208
0.00108832231551
0.00150442921428
0.00176598609231
0.00191170298671
0.00197676004233
0.00199316450691
0.00198700176727
0.00197632989809
0.00196961577052
0.00196928321666
0.00197545727011
0.00198592504419
0.00199224723291
0.00197620582844
0.00191154687576
0.00176616696574
0.0015048128682
0.00108867308729
0.000539051109233
0.000578625770511
0.00125160196657
0.00176613443135
0.00208745745717
0.0022614746859
0.00233304175058
0.0023454207957
0.00233251388556
0.00231700738259
0.00230850730399
0.00230790318004
0.00231539280315
0.00233050004147
0.00234368973696
0.00233185294321
0.00226075228198
0.00208708725917
0.00176605304867
0.00125162977647
0.000578647688466
0.000601237329669
0.00134138916822
0.00191182115088
0.00226137085056
0.00243861391084
0.00250066786322
0.00253183718497
0.00253922909367
0.00253386359969
0.00252832236466
0.00252775432345
0.00253241518388
0.00253749813785
0.00253035290106
0.00249926068437
0.00243768549393
0.00226065216012
0.00191130740771
0.00134106234726
0.00060111041892
0.000611947036401
0.00138055967552
0.00197663832115
0.00233248685059
0.00250006385309
0.00260447130324
0.00265216148405
0.00266085507927
0.00265400235689
0.00264702664762
0.00264629581775
0.00265217480819
0.00265873783717
0.00265050443067
0.0026034327405
0.00249950546478
0.00233191431014
0.00197601616569
0.00138009753209
0.00061171324062
0.00061509713648
0.00138952140049
0.00199259920605
0.00234411239693
0.00253107507895
0.00265171681064
0.00269890337756
0.00270164984969
0.00268892394555
0.00267846021787
0.00267752283393
0.00268660249192
0.00269900746292
0.00269697369017
0.002650723695
0.00253067870271
0.0023440653737
0.0019921858504
0.00138905888256
0.000614822546478
0.00061399592893
0.00138393402041
0.00198601377296
0.00233057900452
0.0025380973721
0.00266005921934
0.00270131562249
0.00269524696679
0.00267454647072
0.00265924140044
0.00265810901926
0.00267176269867
0.00269206674091
0.00269903390404
0.00265899921665
0.00253786771459
0.00233102219017
0.00198590898931
0.00138361485131
0.000613732500561
0.000611330571189
0.00137547975797
0.00197512067277
0.00231494906936
0.00253266036188
0.00265324581323
0.00268873193109
0.00267472458539
0.00264573438742
0.00262457777715
0.00262328630792
0.00264259541647
0.00267110847571
0.00268606738198
0.00265199821187
0.0025324427115
0.00231556696351
0.00197522626607
0.00137530776697
0.000611096347491
0.000608913548683
0.00137006713968
0.00196840106285
0.00230677567892
0.00252737673449
0.00264666984403
0.00267881577367
0.00266001551649
0.00262514477264
0.00259918846425
0.00259780165291
0.00262179466678
0.00265611571038
0.002675858023
0.00264521866497
0.00252705210126
0.00230727942079
0.00196855657493
0.00136995168022
0.000608682728674
0.000608813060784
0.00136989123244
0.0019681580043
0.00230648808651
0.00252710814593
0.00264638555514
0.00267849270792
0.00265962150236
0.00262464375869
0.00259857858964
0.00259717811725
0.00262126544633
0.00265569309463
0.00267550774681
0.00264490524682
0.00252674464964
0.00230691987963
0.00196823357356
0.00136970867255
0.000608546362864
0.000611120871874
0.00137498717499
0.00197441937187
0.00231409662668
0.00253189295823
0.00265244521675
0.00268784310544
0.00267368317662
0.00264448518548
0.00262314860622
0.00262182420593
0.00264128179324
0.00267000350097
0.00268511245552
0.0026511198279
0.00253156655882
0.00231451269817
0.00197431317758
0.0013746434248
0.000610810705727
0.000613740911859
0.00138318968876
0.00198491048674
0.00232917528861
0.00253688321197
0.0026587962409
0.00269993048229
0.0026936745826
0.00267277737068
0.00265731858007
0.00265615821235
0.00266993710096
0.00269042786282
0.00269756264005
0.00265762107335
0.00253648931843
0.00232932502119
0.00198450669146
0.00138263346816
0.000613384439343
0.000614844722466
0.00138865071622
0.00199124617976
0.00234231253337
0.00252948235828
0.00265008598439
0.00269713066042
0.0026996861063
0.00268677669873
0.00267619373276
0.00267523426767
0.00268440346805
0.00269696762774
0.00269508850155
0.00264893456189
0.00252886358848
0.0023419064769
0.00199047753289
0.00138791001659
0.000614472232112
0.000611741499717
0.00137972857333
0.00197526803639
0.0023305633682
0.00249768579392
0.00260250001909
0.00265015131036
0.00265866208803
0.00265164255934
0.00264457027024
0.00264381420502
0.00264974721357
0.00265643517062
0.00264833586496
0.00260123301379
0.00249676865547
0.0023295786741
0.00197424970384
0.00137895179253
0.000611413542184
0.000601111012926
0.00134071532378
0.00191066786222
0.00225964792669
0.00243625242842
0.00249786179993
0.00252962263208
0.00253684969203
0.00253131399387
0.00252570330594
0.0025251029246
0.00252977162542
0.00253495431328
0.00252790504794
0.00249607186208
0.0024348939633
0.00225848251274
0.00190974501046
0.00134010005863
0.0006009013309
0.000578591769826
0.00125121039191
0.0017653922423
0.00208621712259
0.00225961601185
0.00233058747886
0.00234245020511
0.00232915788454
0.00231347118039
0.00230496728628
0.00230431097399
0.00231170092938
0.00232684625953
0.00234033448264
0.00232896388224
0.00225843121825
0.00208539098392
0.0017649114184
0.0012509650489
0.00057853990508
0.000538942712759
0.0010882293824
0.00150414953279
0.00176534383679
0.00191057064186
0.00197513044471
0.00199109776771
0.00198459991726
0.00197368911354
0.00196683541585
0.00196643709874
0.001972626303
0.00198321817819
0.00198980032589
0.00197415553116
0.00190997366838
0.00176510820333
0.00150419357197
0.0010883472387
0.000539026509315
0.000476526643776
0.000826170845164
0.00108819108586
0.00125110890033
0.00134064343839
0.00137955880896
0.00138844151559
0.00138286956161
0.00137443268463
0.00136901953901
0.001368851679
0.00137398503625
0.00138229661295
0.00138793771452
0.00137925855609
0.00134060470258
0.00125132998463
0.00108855014505
0.000826470112051
0.000476656642936
0.000400011661169
0.000476492512294
0.000538842529807
0.000578473409054
0.000600975574017
0.000611586928881
0.000614679087637
0.000613556280384
0.000610897017358
0.000608516427302
0.00060850734319
0.000610888948197
0.000613569508273
0.000614740866811
0.000611718446254
0.000601187378026
0.00057874417445
0.000539116570728
0.00047669502549
0.000400097162983
0.000467050991461
0.000767094843105
0.00100553124217
0.00116324232242
0.00125836241467
0.00130858127799
0.00132935707099
0.00133354203549
0.00133113218313
0.0013283724176
0.00132829446305
0.00133092765474
0.00133328774002
0.00132913197942
0.00130843587955
0.00125831668894
0.0011632742929
0.00100559813605
0.000767165866124
0.000467208226827
0.000767143935747
0.000939704784992
0.00114590254674
0.00129344446941
0.00138667497264
0.00143864125716
0.00146284619547
0.00147085959775
0.00147165590065
0.00147076257211
0.00147069790564
0.00147148402253
0.00147063708674
0.00146263052963
0.00143846779078
0.00138655530812
0.00129336831114
0.00114584876354
0.000939633127643
0.000767010659118
0.00100573435692
0.00114599279446
0.00136957184178
0.0015363002449
0.00164387516501
0.00170451410753
0.00173294103244
0.00174251111082
0.0017436113425
0.00174267088837
0.00174254966617
0.00174328753761
0.00174207955308
0.00173249703665
0.00170410469302
0.00164350084891
0.00153595447829
0.00136926027834
0.00114570285564
0.00100536461592
0.00116357726658
0.00129360451297
0.00153636087031
0.00172120088843
0.00184196760919
0.00191094814162
0.00194440709999
0.00195658148103
0.00195884777404
0.00195849647239
0.00195834074481
0.00195842505325
0.00195598546054
0.00194379602381
0.00191038131183
0.0018414247055
0.00172066209527
0.00153584333971
0.00129310965506
0.00116294746084
0.00125877548091
0.001386852176
0.00164393457203
0.00184195208101
0.00197267575729
0.00205042485116
0.00209551515892
0.00211665822314
0.00212363993537
0.00212484713567
0.00212470304
0.00212326730271
0.00211616781973
0.00209500063235
0.00204988869088
0.00197213142955
0.00184137012272
0.0016433220307
0.00138621295895
0.0012579007264
0.00130897902614
0.00143876937778
0.00170449211232
0.00191081982442
0.0020503302215
0.00214471196854
0.00220063872871
0.00222762973858
0.00223722936403
0.00223924767153
0.00223910066028
0.00223686551337
0.00222714684873
0.00220012848034
0.00214425086492
0.00204991506125
0.00191035255069
0.00170392420551
0.00143809838091
0.00130796853393
0.00132964786102
0.00146286536747
0.00173277262744
0.00194410438652
0.0020953730628
0.00220060518538
0.00226307675855
0.00229299078282
0.00230331685752
0.00230526584832
0.00230510079509
0.00230292636051
0.00229245571031
0.00226245818761
0.00220012294142
0.00209503222045
0.00194382544197
0.00173234691894
0.00146226498228
0.00132864563751
0.00133367669831
0.00147074711101
0.00174219861225
0.00195613970693
0.00211646389893
0.00222762211367
0.00229306233373
0.00232329315598
0.00233274199316
0.0023338571408
0.00233364932645
0.00233226155668
0.00232265590661
0.00229231270685
0.00222704847653
0.00211615664975
0.00195601480586
0.00174192533094
0.00147026703583
0.00133277333966
0.00133110642934
0.00147142886145
0.00174321082096
0.00195839504982
0.00212343570269
0.00223726780244
0.0023034460686
0.0023328037619
0.00234054939089
0.0023401261238
0.00233986570011
0.00233994552132
0.00233204407418
0.00230256917515
0.00223658286634
0.00212312028028
0.00195832540704
0.00174303717177
0.00147105450923
0.00133031549199
0.00132821382902
0.00147045925249
0.00174224734646
0.00195808616259
0.00212467830213
0.002239335613
0.00230545721868
0.00233400288968
0.00234023347373
0.00233850313481
0.00233819952507
0.0023395427632
0.00233314290797
0.00230448803826
0.00223858504396
0.00212433666047
0.00195800883331
0.00174210308957
0.0014701289751
0.00132747395911
0.00132805606046
0.00147035916467
0.00174213687089
0.00195797188763
0.00212457202977
0.00223923299404
0.00230535681545
0.00233389930985
0.00234011460953
0.00233836673631
0.00233806034956
0.00233942021465
0.0023330350413
0.0023043821158
0.00223847648844
0.00212421882073
0.00195787497321
0.00174196496974
0.00146999471655
0.00132726854204
0.00133067411907
0.00147114480275
0.00174289261291
0.00195806201212
0.00212313418101
0.0022369866882
0.0023031745577
0.00233252787403
0.00234024361854
0.0023397894186
0.00233953127586
0.00233963830159
0.00233175794002
0.0023022788543
0.00223627848779
0.00212278336369
0.00195793535713
0.00174264396866
0.00147068175718
0.00132976440853
0.00133304720918
0.00147031578292
0.00174170048025
0.00195559626506
0.0021159952793
0.00222720207417
0.00229266862379
0.00232290013681
0.00233233422237
0.00233342279609
0.00233321510483
0.00233184685423
0.00232224170549
0.0022918837665
0.00222658298026
0.0021156282268
0.00195537988246
0.00174131729613
0.0014697116734
0.00133198524975
0.00132893109559
0.00146235037511
0.00173214977636
0.00194339965558
0.00209475989042
0.00220006907724
0.00226259541724
0.00229252603899
0.00230284356095
0.00230477407543
0.00230460700155
0.0023024410533
0.00229196325319
0.00226192873517
0.00219952250887
0.00209433449568
0.00194300054446
0.00173158762976
0.00146160339632
0.00132775055209
0.00130829238637
0.00143824887209
0.00170382153627
0.0019100231817
0.0020495364295
0.00214403637604
0.00220003629366
0.00222705326674
0.00223665225623
0.0022386612937
0.00223850976931
0.0022362719751
0.00222653351626
0.00219946480603
0.00214348774576
0.0020490026242
0.00190940915153
0.0017030952152
0.00143741605521
0.00130709580937
0.00125822262459
0.00138639531182
0.00164329581576
0.00184114639658
0.00197176485633
0.00204953928065
0.00209473492671
0.00211589052437
0.00212286614461
0.00212407087704
0.00212391728712
0.00212246486112
0.00211534417683
0.00209413520644
0.00204888088849
0.00197106832765
0.00184039447909
0.00164250923913
0.00138558744129
0.0012571629042
0.001163222264
0.00129326627181
0.0015358269156
0.00172048137881
0.00184109263967
0.00190996248942
0.00194334077196
0.0019554687225
0.00195776584123
0.00195742496134
0.00195725436403
0.00195730022404
0.00195478183082
0.00194260304651
0.00190924102619
0.00184037440009
0.00171975739503
0.00153512707488
0.0012926019698
0.00116241625571
0.001005576828
0.00114578354322
0.00136917926224
0.00153572790006
0.00164313537556
0.00170362958527
0.00173193667499
0.00174141565932
0.00174244944857
0.00174146755845
0.00174132257628
0.00174205698193
0.00174087059038
0.00173134527026
0.00170304929008
0.00164257595457
0.00153519499405
0.00136868997986
0.00114533433175
0.00100505611825
0.000767142782913
0.000939592528357
0.00114564075845
0.00129302667122
0.00138609335235
0.00143790261187
0.00146197095664
0.00146987171331
0.00147057672109
0.00146962064399
0.00146952728501
0.00147032386979
0.00146952240059
0.00146159819755
0.0014375549924
0.00138579255746
0.00129277536124
0.00114542572338
0.000939382065279
0.000766903236534
0.000467095453415
0.00076699905772
0.00100533264478
0.00116291869586
0.00125786793216
0.0013078915665
0.00132848159277
0.00133250089077
0.0013299493148
0.00132708676011
0.00132696817504
0.0013296351946
0.00133208247937
0.00132806320301
0.00130754266127
0.00125762207267
0.00116276758243
0.00100524227832
0.000766959249555
0.000467234976641
0.000520789948476
0.000979409368721
0.00135269530066
0.00160598772498
0.00176397016923
0.00185227275785
0.00189386927991
0.00190825547254
0.00191040602103
0.00190939872982
0.00190918734762
0.00190982545829
0.00190743425323
0.00189294083718
0.00185133812233
0.00176309795404
0.00160522018293
0.00135207818043
0.000979059307859
0.000520997186823
0.000979493042048
0.00112989365642
0.00136108534859
0.00153726578841
0.00165588062121
0.00172797877228
0.00176675902862
0.00178445928989
0.00179093225398
0.00179260825735
0.0017925289542
0.00179071245638
0.00178414058508
0.00176637618458
0.00172755668706
0.00165543412539
0.00153680783574
0.00136063056056
0.0011294263056
0.000978795856506
0.00135297077137
0.00136116903732
0.00155855993973
0.00172252234608
0.00183723318115
0.00190872599416
0.00194808690401
0.00196668015444
0.00197382240706
0.00197575187943
0.0019756499572
0.00197354422842
0.00196627913806
0.00194759420689
0.00190816092576
0.00183659063058
0.00172180950954
0.00155781446898
0.00136038873176
0.00135164635775
0.00160646120053
0.00153742061804
0.00172257714233
0.0018855694851
0.0020028773243
0.00207787642236
0.00212041135506
0.00214178272237
0.00215086884259
0.0021534768113
0.00215336266791
0.00215056692529
0.00214137374021
0.0021198617019
0.0020772443011
0.00200213668672
0.00188470785255
0.00172163139694
0.00153638648433
0.00160462895332
0.00176457015743
0.00165607064755
0.00183730180526
0.00200288088873
0.00212511021188
0.00220657488988
0.00225519737001
0.00228038434466
0.00229107199476
0.00229434301832
0.00229421787606
0.00229074008124
0.00227987643446
0.00225461862591
0.00220600847751
0.00212442973955
0.00200203030087
0.00183629393302
0.00165487936449
0.00176233489634
0.00185286418305
0.00172813937974
0.00190874941404
0.00207781800753
0.00220652397043
0.00229506484889
0.00234948923509
0.00237822699916
0.00239046542748
0.00239421503037
0.00239406499162
0.00239005314363
0.00237746365278
0.00234853359888
0.00229435086395
0.00220598052362
0.00207710570197
0.001907807498
0.00172691715948
0.00185042929224
0.00189430954281
0.00176682470914
0.00194801610803
0.00212026093656
0.00225511742195
0.00234962151337
0.00240860130151
0.00243968387785
0.00245262997818
0.0024564058909
0.00245621727642
0.002452090012
0.00243853059639
0.0024068943786
0.00234838583981
0.00225456018376
0.00211971918878
0.00194721730849
0.00176569027779
0.00189191580574
0.00190847457356
0.00178440038627
0.001966518536
0.00214161925563
0.00228040111778
0.00237877639409
0.00244029239032
0.002472020443
0.00248452387666
0.00248771898999
0.00248747055485
0.00248380510494
0.00247053432624
0.00243797851675
0.00237692763345
0.00227967192184
0.002141174733
0.0019658575879
0.00178341177882
0.00190627581731
0.00191041290145
0.00179075418341
0.00197358910337
0.00215066146999
0.00229120062324
0.00239133986266
0.00245368469907
0.00248502619918
0.00249635778741
0.00249861615838
0.00249832491346
0.00249549245252
0.00248331019659
0.0024510616425
0.00238916113328
0.00229033510845
0.00215025450608
0.00197301965537
0.00178989819082
0.00190843522176
0.00190926429893
0.00179234566365
0.00197548749495
0.0021532789066
0.00229454008453
0.00239523031896
0.00245767954257
0.00248851176911
0.00249895776256
0.00250049760756
0.00250016399529
0.00249800991161
0.00248667118441
0.00245492371224
0.00239295064246
0.00229362348238
0.00215287231725
0.00197495067681
0.0017915503142
0.00190740266765
0.00190902890724
0.00179223832184
0.00197539412125
0.0021531981634
0.00229447481745
0.00239518193276
0.0024576559153
0.00248850497625
0.0024989571314
0.00250049717501
0.00250016092774
0.0024980101507
0.00248666448724
0.00245489852028
0.00239290267126
0.00229355083806
0.00215277729405
0.00197483307671
0.00179140502683
0.00190710472818
0.00190973100032
0.00179044012051
0.00197331485973
0.0021504246165
0.00229101037638
0.00239120781141
0.00245361754023
0.00248500364757
0.0024963468062
0.00249860742975
0.00249833111286
0.00249549835066
0.00248329204667
0.00245098815551
0.00238901857791
0.002290119913
0.00214997713949
0.00197268082784
0.00178948748186
0.00190759941194
0.00190742438404
0.00178391315448
0.00196608164136
0.0021412396788
0.0022800947101
0.00237858470247
0.0024402221386
0.00247203806993
0.00248457119726
0.00248777231644
0.00248753257834
0.00248385858953
0.00247054154662
0.00243788408186
0.0023767003282
0.00227931816236
0.00214073184318
0.00196532658869
0.00178279083841
0.00190502054315
0.00189304063484
0.0017662261238
0.001947444818
0.002119710305
0.00225467171526
0.00234933383149
0.00240849866826
0.00243971136962
0.00245271401053
0.00245649986982
0.00245631441004
0.00245216929987
0.00243853910819
0.00240675068363
0.00234804277811
0.00225404429242
0.00211907731009
0.00194652747133
0.00176493352693
0.00189041086198
0.00185156259582
0.0017275072618
0.00190809363829
0.00207713734617
0.00220591122721
0.00229458305986
0.002349169463
0.00237804333871
0.00239034047888
0.00239410009387
0.00239394935626
0.0023899194777
0.00237725116526
0.00234816129654
0.00229379601532
0.00220527485025
0.00207630936759
0.00190701061038
0.00172610819212
0.00184886860209
0.00176341283087
0.00165547685195
0.00183661665025
0.00200211322037
0.00212432664304
0.00220586374175
0.00225457122112
0.00227983924557
0.00229055100483
0.0022938189713
0.0022936859727
0.00229019401076
0.00227928594812
0.00225392183136
0.00220520113679
0.00212352716264
0.00200112197519
0.00183544726222
0.0016540955602
0.00176090473836
0.00160557713103
0.00153691743419
0.00172191748428
0.0018847737406
0.00200200118542
0.00207696948245
0.00211951034714
0.00214097033432
0.00215000864188
0.002152586647
0.0021524577149
0.00214966214131
0.00214049342184
0.002118862214
0.00207621079989
0.00200111233236
0.00188374679476
0.00172079311889
0.00153568779257
0.00160347301642
0.00135241568856
0.00136077102468
0.0015579621392
0.00172174967314
0.00183632906434
0.00190772736482
0.00194702108848
0.00196557140185
0.00197265736673
0.00197453969105
0.00197441508143
0.00197231297488
0.00196506523835
0.00194639133553
0.00190700110034
0.00183550949101
0.00172085131685
0.00155702926401
0.00135980240577
0.00135084980924
0.000979272077527
0.00112957122884
0.00136054270267
0.00153652424016
0.00165495907056
0.00172689705634
0.0017655416666
0.00178313170443
0.00178950932576
0.00179111534594
0.00179100352968
0.00178919722071
0.00178266675004
0.00176497761564
0.00172627397535
0.00165430413355
0.00153586088402
0.00135989622898
0.00112893259129
0.000978404239831
0.000520839920273
0.000979027284885
0.00135200593701
0.00160503004351
0.00176272024973
0.00185071951091
0.00189203930384
0.00190619367232
0.00190815222335
0.00190701009615
0.00190674403572
0.00190742019654
0.00190513802191
0.00189083050442
0.00184948368256
0.00176154447706
0.00160397534121
0.00135113996942
0.000978502581372
0.000521032882967
0.000557598239573
0.00113273622936
0.00160610801339
0.00193238217366
0.00214112712665
0.00226299022736
0.00232567185618
0.0023527036036
0.00236200522948
0.00236427799307
0.00236393380591
0.00236103449572
0.00235127192872
0.00232393570154
0.00226108414828
0.00213920303662
0.00193060573376
0.00160465619086
0.00113188706198
0.000557883485353
0.00113288868638
0.00127750669905
0.00153765680094
0.00174204233096
0.00188424042507
0.00197453532157
0.00202637999417
0.00205270321454
0.0020642262679
0.0020682049885
0.00206812076187
0.00206398814871
0.00205234631463
0.00202591326497
0.00197395202316
0.00188354061046
0.00174124450285
0.00153680092988
0.00127658942252
0.00113149111924
0.00160650650887
0.00153776219957
0.00173389747427
0.00190672615465
0.00203278692327
0.00211529203395
0.00216396455548
0.00218948623612
0.00220089657899
0.00220484083571
0.00220474253814
0.0022006269595
0.00218909287236
0.00216346670887
0.00211465778
0.00203197723134
0.00190573095424
0.00173276022631
0.0015364535193
0.00160397768993
0.00193304487723
0.00174223277379
0.00190679135968
0.00206603217596
0.00218658530987
0.0022677472819
0.00231682201769
0.00234366315943
0.00235558601365
0.00235964844405
0.00235950803238
0.00235520403475
0.0023430326701
0.00231606158507
0.00226699283226
0.00218574485445
0.00206494439821
0.00190548339345
0.00174064342858
0.00192963749597
0.00214198058431
0.00188447938813
0.00203287890778
0.00218659871462
0.00230668818088
0.00239026785591
0.0024413359014
0.00246870265203
0.00248089865821
0.00248496560731
0.00248473936854
0.00248023727484
0.00246744205037
0.00243965174446
0.00238879396468
0.00230570471198
0.0021855977142
0.00203156283073
0.00188274564257
0.0021378954391
0.00226386245733
0.00197475117106
0.00211535144047
0.00226771168786
0.00239039623244
0.0024763027099
0.00252935526599
0.00255753304353
0.00256975303674
0.0025735942327
0.00257323564319
0.00256862961773
0.00255524239353
0.00252604713044
0.00247321550078
0.00238861401044
0.0022667887197
0.00211415388749
0.00197302018592
0.00225944458875
0.00232634418001
0.0020264860978
0.00216392957914
0.00231685269419
0.00244208495176
0.00253032180797
0.00258475642686
0.00261307669826
0.00262483860649
0.00262819078207
0.0026277174618
0.00262326609818
0.00260970934269
0.00257959741881
0.00252525951575
0.00243893843532
0.00231573597094
0.00216292107514
0.00202489610947
0.00232200887365
0.00235304908743
0.00205264914557
0.00218934094995
0.00234391197069
0.00247029065466
0.00255987460787
0.00261476222532
0.0026425350257
0.00265340081832
0.00265604120685
0.00265550292136
0.00265155063082
0.00263849111548
0.0026083544725
0.00255332959932
0.00246600910442
0.00234242764305
0.00218850094276
0.0020512745308
0.00234908578378
0.00236202649152
0.00206401017051
0.00220067099771
0.00235599580172
0.0024830381851
0.00257304259364
0.00262774381497
0.00265473422239
0.00266448058636
0.00266628289684
0.00266573252866
0.00266254264769
0.00265044182182
0.00262088007884
0.00256592469147
0.0024782888323
0.0023543496698
0.00219993682971
0.00206283448462
0.00235849839873
0.00236410003826
0.0020678728433
0.00220458316652
0.00236013475807
0.00248735862648
0.00257735276224
0.0026317596555
0.00265813723255
0.00266706769137
0.00266825200675
0.00266767964717
0.00266509237724
0.00265375087727
0.00262476292119
0.00257009976971
0.00248249809388
0.00235845064668
0.00220388307026
0.00206679337394
0.00236081653458
0.00236377384301
0.0020677562515
0.00220449780174
0.00236007501823
0.00248733239954
0.00257736551656
0.00263181242748
0.00265821121032
0.00266714811881
0.0026683340895
0.00266775740311
0.00266517134062
0.00265382254057
0.0026248123104
0.00257011236285
0.00248246521472
0.00235837688801
0.00220377141139
0.00206663127517
0.00236040472556
0.00236104744385
0.00206365701634
0.00220041211816
0.00235581434285
0.00248296015096
0.00257309182855
0.00262790970431
0.00265496576657
0.00266472576866
0.00266653114526
0.0026659918017
0.00266279773285
0.00265067153925
0.00262103694578
0.00256596388374
0.00247818976369
0.00235412942366
0.00219961025881
0.00206236926088
0.00235731715663
0.00235149701527
0.00205208955914
0.00218891752806
0.002343616033
0.00247017876253
0.00256000408905
0.00261511381682
0.0026430260688
0.00265393295652
0.00265657979011
0.00265604601893
0.00265208159367
0.00263896438533
0.00260867867208
0.00255342324454
0.00246585551381
0.00234206947353
0.00218798136017
0.0020505616026
0.00234727016608
0.0023244144207
0.00202578252691
0.00216336094141
0.00231643471551
0.00244189336387
0.00253047399401
0.00258524749136
0.00261378313647
0.00262561842092
0.00262897817711
0.00262850298385
0.0026240296303
0.0026103835102
0.00258003852113
0.00252535246218
0.00243867899686
0.00231523293396
0.00216223234846
0.00202401053142
0.00231977354539
0.00226182060673
0.00197398111675
0.00211466073954
0.00226708123736
0.00238998451686
0.00247624199283
0.00252965867546
0.00255808510292
0.00257039255999
0.00257424238557
0.00257387864874
0.00256924717344
0.00255574980916
0.00252628450058
0.00247307622577
0.00238811209567
0.00226604880918
0.00211331814358
0.00197204404436
0.00225705747107
0.00214009044059
0.00188371514047
0.00203210579098
0.00218580394763
0.00230596936444
0.00238977919518
0.00244112735292
0.00246868544682
0.00248094539263
0.00248501282447
0.00248477494241
0.00248024878025
0.0024673664667
0.0024393648068
0.00238820832539
0.00230487356693
0.00218466583558
0.00203061944893
0.00188175665701
0.0021356305997
0.0019315077819
0.00174152591694
0.00190597940658
0.00206512605736
0.00218564984564
0.00226684557877
0.00231606024948
0.00234294077038
0.00235486718344
0.00235890951818
0.00235875344404
0.0023544381723
0.00234223617638
0.00231521455579
0.00226596660964
0.0021846607113
0.00206386710201
0.00190447524928
0.00173970071994
0.00192771693818
0.00160543311612
0.0015371319608
0.00173308020947
0.0019057491752
0.00203170903735
0.00211415413956
0.00216278727467
0.00218826082675
0.00219961623575
0.00220351522998
0.00220339219016
0.00219927458011
0.00218775062423
0.00216214054553
0.00211334366157
0.00203070538733
0.00190454715972
0.00173172680453
0.00153559141133
0.00160256224462
0.00113234622693
0.0012769244119
0.0015368130312
0.00174097568485
0.00188298499335
0.00197311580684
0.00202482010173
0.00205102300589
0.00206243872216
0.00206634115194
0.00206621798437
0.00206209060554
0.00205048760114
0.00202413302115
0.00197228883991
0.00188203213537
0.00173992639959
0.00153572014784
0.00127579343005
0.00113072303138
0.000557665759777
0.00113197691731
0.00160480361106
0.00193061822229
0.00213888738739
0.00226027953777
0.00232254976564
0.00234925830285
0.00235830762177
0.00236041186457
0.00235999058965
0.00235712418547
0.00234749144312
0.00232041469983
0.0022579454989
0.00213653023929
0.00192842777422
0.00160299831478
0.00113089940215
0.000557938511158
0.000585379607198
0.00125982827098
0.00181608920445
0.00220377245595
0.00245776728143
0.00261213136741
0.00269732624413
0.00273914541533
0.00275750065139
0.00276412360376
0.00276374115186
0.0027564066688
0.00273752149478
0.00269524573377
0.00260964321902
0.0024551147702
0.00220130071779
0.00181405762751
0.00125861249109
0.000585770727047
0.0012601054234
0.00139569072869
0.00168102683426
0.00190959783348
0.00207162652422
0.00217706745495
0.00223976084605
0.00227319363836
0.00228889578878
0.00229478551881
0.00229474102341
0.00228878112415
0.00227305004689
0.00223956225086
0.00217673525875
0.00207108781744
0.00190882675865
0.00168003851691
0.00139446323147
0.00125801485644
0.00181670615537
0.00168118008661
0.00188126498315
0.00206456462569
0.00220110752828
0.00229257507559
0.00234830404044
0.00237854947018
0.00239283213733
0.00239812870159
0.00239804307554
0.00239260387033
0.00237815912112
0.00234779147585
0.00229208921688
0.00220050232619
0.00206365064183
0.00188004821299
0.00167957283176
0.00181301862583
0.00220474784257
0.00190985798516
0.00206465198614
0.00222521390892
0.00235002625219
0.00243594630563
0.00248941778985
0.00251832208119
0.00253171324392
0.00253649016979
0.00253626518833
0.00253104727498
0.00251704389737
0.00248768706264
0.0024343693791
0.00234892708157
0.00222428193057
0.00206335555134
0.00190804803141
0.0021997768911
0.00245902854685
0.00207194300432
0.00220123583741
0.00235007972206
0.00246985144301
0.00255406841109
0.00260566622499
0.00263320863809
0.00264559893591
0.00264971279409
0.00264927548143
0.00264415767805
0.00263029537086
0.0026013816037
0.00254981919963
0.00246716480308
0.00234875700865
0.00220002744794
0.00207008271574
0.00245299849093
0.00261344634377
0.00217734157043
0.00229268354329
0.00243634065086
0.0025548835355
0.00263775050996
0.00268798161972
0.00271394795767
0.00272505492604
0.00272839823656
0.00272775054813
0.00272279509974
0.00270916771043
0.0026805426263
0.00262963223239
0.00254913456531
0.00243386418752
0.00229152992162
0.0021755848606