/*--------------------------------*- C++ -*----------------------------------*\
| =========                 |                                                 |
| \\      /  F ield         | OpenFOAM: The Open Source CFD Toolbox           |
|  \\    /   O peration     | Version:  3.0.1                                 |
|   \\  /    A nd           | Web:      www.OpenFOAM.org                      |
|    \\/     M anipulation  |                                                 |
\*---------------------------------------------------------------------------*/
FoamFile
{
    version     2.0;
    format      ascii;
    class       volScalarField;
    location    "4";
    object      k;
}
// * * * * * * * * * * * * * * * * * * * * * * * * * * * * * * * * * * * * * //

dimensions      [0 2 -2 0 0 0 0];

internalField   nonuniform List<scalar> 
7968
(
0.000839080428717
0.000943688395279
0.00102494675
0.00107506103619
0.00110309862797
0.00111627168076
0.00112015868378
0.00111885048131
0.00111563626126
0.00111275312672
0.00111277387057
0.00111569799952
0.00111896333774
0.00112034229967
0.00111654108637
0.00110346275144
0.00107548625025
0.00102536803959
0.000944009120699
0.000839224865407
0.000943738920536
0.00136400905251
0.00163994022395
0.00180037975011
0.00188566666264
0.00192218678602
0.00193050371377
0.00192533041678
0.00191747314298
0.00191244019753
0.00191232517326
0.00191717261374
0.00192498030076
0.00193025990807
0.00192215474031
0.00188590775619
0.00180083076745
0.00164051683944
0.00136450542796
0.000943954519195
0.00102514903124
0.00164013592788
0.00203600749063
0.00226586198515
0.00238879610136
0.00244245715912
0.00245563865614
0.00245025545969
0.00244122281538
0.00243555270079
0.00243526628611
0.00244047165212
0.00244932461405
0.00245483457734
0.00244194991102
0.00238861842013
0.00226597414766
0.00203631988109
0.00164046743476
0.00102531739502
0.00107532328743
0.0018007251973
0.00226599085568
0.00253316512948
0.00267184151012
0.00272754070193
0.00273674835832
0.0027262959542
0.00271390629242
0.00270712503107
0.00270663725477
0.00271260657144
0.00272466908934
0.00273534079847
0.00272655506944
0.00267121584233
0.00253281212022
0.00226587580046
0.00180072118362
0.00107533721688
0.0011034030545
0.00188595003705
0.00238889760924
0.00267176112268
0.0028092130361
0.00285614750014
0.00287958353034
0.00288492115669
0.00288063317157
0.00287630393132
0.00287585692655
0.00287949457862
0.00288355684059
0.00287840364947
0.0028550152638
0.00280843998046
0.00267113416291
0.00238841442054
0.00188560335431
0.00110322858571
0.00111658142292
0.00192239809444
0.00244235937663
0.00272710605378
0.00285568183363
0.00293442905556
0.00296992323768
0.00297616949513
0.0029708333842
0.00296548090185
0.00296491500188
0.00296942003193
0.00297452974184
0.00296862861315
0.00293359747664
0.00285520214522
0.00272659839287
0.00244178665334
0.00192192271424
0.00111627307871
0.00112043035626
0.00193052140936
0.00245517508783
0.00273572270938
0.00287899746351
0.00296958712813
0.0030044983562
0.00300626353683
0.00299654499775
0.0029885841009
0.00298786156602
0.00299475877963
0.00300422962207
0.00300300063585
0.00296879294165
0.0028786521347
0.00273562812214
0.00245477435792
0.00193004400114
0.00112007050407
0.00111904728625
0.00192511380819
0.00244944394173
0.00272477832123
0.00288405466682
0.00297557112263
0.00300601570059
0.00300117420089
0.00298544167664
0.00297380535753
0.00297293018285
0.00298329522546
0.00299872419928
0.00300424560008
0.00297472211017
0.00288383535105
0.00272506830049
0.00244929695015
0.00192476815738
0.001118700059
0.00111573676058
0.00191707111166
0.00244023250693
0.00271230051359
0.00287971851138
0.00297027113673
0.00299641282702
0.0029855872928
0.00296354292755
0.00294740966882
0.00294640589391
0.00296111014539
0.00298279252968
0.00299434393427
0.00296927455989
0.00287950400537
0.00271272422479
0.00244025750679
0.00191686148566
0.00111542460641
0.00111273249948
0.00191192688072
0.00243456438502
0.00270578224011
0.00287559570077
0.00296523192779
0.00298887916974
0.00297442063734
0.00294786301706
0.00292801673146
0.00292693334434
0.00294525705831
0.00297139983131
0.00298658201291
0.00296407718505
0.00287529614041
0.00270611510521
0.00243462899251
0.0019117689676
0.00111242355339
0.00111260650573
0.00191175916519
0.00243435984169
0.00270555389658
0.00287538837666
0.00296501620724
0.00298863544724
0.00297412309577
0.00294748314082
0.00292755270081
0.00292645877003
0.00294485563555
0.00297108058437
0.00298631766236
0.00296383926895
0.00287505883384
0.00270582968338
0.00243435753202
0.00191153774076
0.00111225285867
0.00111547434469
0.00191660232801
0.00243964313384
0.00271162459496
0.0028791265441
0.00296966397744
0.00299574290566
0.00298480220067
0.0029625982778
0.00294632589482
0.00294529712249
0.00296011672861
0.00298195940336
0.00299362416651
0.0029686084324
0.00287882845655
0.00271188901551
0.0024394913232
0.00191623061052
0.00111506787862
0.001118728378
0.00192440668431
0.00244851780388
0.00272366542411
0.00288311760535
0.00297461302798
0.00300497187517
0.00299998992285
0.00298410690049
0.0029723517887
0.00297145534355
0.00298191743426
0.00299748940165
0.00300313690832
0.00297367703427
0.00288277237834
0.00272372424503
0.00244812201224
0.00192383809542
0.00111826586075
0.00112011437726
0.00192969447536
0.00245403933569
0.00273429663698
0.0028777659155
0.0029683472065
0.00300316033554
0.00300478341051
0.00299492492764
0.00298687206365
0.0029861325658
0.00299309892629
0.00300269145399
0.00300157778651
0.0029674334643
0.00287725017711
0.0027339201552
0.00245334361061
0.00192895602232
0.00111963335519
0.00111632291372
0.00192160490423
0.0024412037776
0.00272557704779
0.00285383857562
0.0029329194227
0.00296839517041
0.002974505902
0.00296904267381
0.00296361577127
0.00296303046149
0.00296757730532
0.00297278242016
0.00296698042547
0.0029319143968
0.00285308337294
0.00272474520001
0.00244030116471
0.00192083409946
0.00111589785309
0.00110324204054
0.00188529850216
0.00238791080127
0.00267037381305
0.00280736474831
0.00285397125183
0.00287787114923
0.00288308506662
0.00287866724872
0.00287428329697
0.0028738112104
0.00287745602476
0.00288159383933
0.00287651187013
0.00285254508244
0.00280625825554
0.00266939142607
0.00238708264263
0.00188467757199
0.00110296429753
0.00107527723614
0.00180033385779
0.00226533405062
0.00253213471754
0.00267034559533
0.00272559013097
0.00273439452316
0.00272363474838
0.00271110499636
0.00270431372114
0.00270378417886
0.00270968031959
0.00272177174747
0.00273268358119
0.00272426160862
0.0026693512902
0.00253140815361
0.00226487260751
0.00180006367063
0.00107519805569
0.00102518579713
0.00164003234264
0.00203573982222
0.00226529207395
0.00238782680815
0.00244108347089
0.00245390520488
0.00244824145037
0.00243900679968
0.00243321748276
0.0024328758488
0.00243809641151
0.00244705587224
0.00245278450525
0.00244022520826
0.00238727676632
0.00226504294973
0.00203574107874
0.00164012593061
0.00102528335608
0.000943833016341
0.00136411939294
0.00163999572768
0.00180023841476
0.00188523093506
0.0019214440565
0.00192949256759
0.00192409433309
0.00191606072085
0.00191090861313
0.00191074269204
0.0019156188866
0.0019235263902
0.00192898465704
0.00192112378968
0.00188515566524
0.00180041721933
0.0016403312936
0.00136443387244
0.000944001081197
0.000839127044569
0.000943786697067
0.00102505640268
0.00107512825268
0.00110307356126
0.00111613094692
0.00111990798976
0.00111849662852
0.00111519099513
0.00111222795126
0.00111221037694
0.00111516803504
0.00111849680046
0.00111996666643
0.00111627590987
0.00110332050338
0.00107545536922
0.00102539961277
0.000944052779084
0.000839247299862
0.000931095798534
0.00129733328074
0.00155471106621
0.00171386012621
0.0018064054564
0.00185432025529
0.00187393505188
0.00187781940912
0.00187548064536
0.00187283021622
0.00187274953509
0.00187526895279
0.00187755338443
0.00187369293293
0.00185415264238
0.00180633462864
0.00171386991979
0.00155476557496
0.00129740660996
0.000931305222126
0.00129739222398
0.00259776542534
0.00326296709269
0.00365460973664
0.00387452632336
0.00398267189612
0.00402293144636
0.00402738830071
0.00401926435363
0.00401204950101
0.00401163541338
0.00401813706819
0.00402581578437
0.00402119573844
0.00398095069472
0.00387289584797
0.00365309093144
0.00326156252602
0.00259652554674
0.00129722544053
0.00155492583022
0.00326332689807
0.00413807548902
0.00466509995534
0.00497172799427
0.00513157203512
0.00519922444687
0.00521667285914
0.00521395194451
0.00520860322851
0.00520798814675
0.00521228339028
0.00521435867095
0.00519671631212
0.00512912664528
0.00496938501617
0.00466285125069
0.00413595833344
0.0032614804795
0.00155451815136
0.00171419536264
0.00365522582666
0.00466538716221
0.00528044575843
0.00564249647918
0.0058343377354
0.00591783768473
0.00594199160429
0.00594251899779
0.00593966883042
0.00593891030403
0.00594044586086
0.0059389277747
0.00591464221776
0.00583138213685
0.00563965954418
0.00527762700948
0.00466264052424
0.00365281441582
0.00171354194369
0.00180680743042
0.00387521919944
0.00497208254554
0.00564253055687
0.00603702244959
0.00624662607947
0.00633707218748
0.00635985274805
0.0063574161859
0.00635155338549
0.00635035686549
0.00635425991733
0.00635581046277
0.00633328372397
0.0062436239143
0.00603408909651
0.00563949680953
0.00496898434392
0.00387243934349
0.00180592866811
0.00185470258465
0.00398321056281
0.00513171382436
0.00583405247034
0.00624634001618
0.00645505259027
0.006534643333
0.00654836947182
0.00653914197592
0.00652950376588
0.00652788516209
0.00653491637775
0.00654315159638
0.00653014105229
0.00645178118145
0.0062436737372
0.00583123911098
0.00512866368712
0.00398039324813
0.00185370182953
0.00187421439197
0.00402317273653
0.00519895333973
0.00591696425714
0.0063359313566
0.00653389363274
0.00660078316848
0.00660241744541
0.0065841396576
0.00656967665887
0.00656762380861
0.00657878321572
0.00659583154923
0.00659536151073
0.00653042014903
0.0063336088703
0.00591460716143
0.00519623939315
0.00402058185359
0.00187322458097
0.00187795175684
0.00402733330762
0.00521605743391
0.00594077529062
0.006358285539
0.00654726100246
0.00660217142359
0.00659129615352
0.00656393193989
0.00654475724957
0.006542323361
0.00655756660779
0.00658331192836
0.00659559784752
0.00654328103937
0.0063560161232
0.00593872130157
0.0052136917384
0.00402504748414
0.00187705565177
0.00187546347454
0.00401904038232
0.00521325036394
0.00594164449866
0.00635612887294
0.00653859625564
0.00658478975512
0.0065649829333
0.00653009290577
0.00650569180514
0.00650296635773
0.00652293871487
0.00655592493835
0.00657710725994
0.00653392487744
0.00635360349049
0.00593953446794
0.00521107152745
0.00401698560249
0.00187467287186
0.00187269071795
0.00401181217988
0.00520804395038
0.00593919426637
0.00635104562604
0.00653017681947
0.00657195469429
0.00654763457317
0.00650755680924
0.00647989883121
0.00647703694331
0.00649998909895
0.00653791666077
0.00656354647613
0.0065249693775
0.00634822297686
0.00593696341127
0.00520589200189
0.00400984090057
0.00187194745996
0.00187253848481
0.00401148267328
0.00520765809029
0.00593881317341
0.00635064019497
0.00652976319745
0.00657151753253
0.00654714749986
0.00650698563812
0.00647925735944
0.00647638092124
0.00649938637042
0.0065373965582
0.00656307651586
0.00652452064255
0.00634777505426
0.00593653627138
0.00520544085272
0.00400944578603
0.00187174951715
0.00187504677494
0.00401808659982
0.00521212561866
0.00594051791264
0.00635492975941
0.00653737591556
0.00658352157463
0.00656362035377
0.00652856518393
0.00650402720147
0.0065012667004
0.00652133430774
0.00655448790202
0.00657576119149
0.00653261012769
0.00635228203443
0.00593827168171
0.00520976886387
0.00401586181575
0.00187414248095
0.00187734524488
0.00402583063568
0.00521426141026
0.00593886036459
0.00635630688819
0.00654522510887
0.00660005892541
0.00658904881539
0.00656158132874
0.00654228489488
0.00653981920595
0.0065551500576
0.00658098973386
0.00659338847633
0.0065411057779
0.00635384498033
0.00593657071349
0.00521163319965
0.00402330589943
0.0018762976158
0.00187352255147
0.00402127728915
0.0051966545891
0.00591444573232
0.00633332632069
0.00653111869784
0.00659784404217
0.00659931752964
0.00658089822972
0.00656634152333
0.00656426306302
0.00657548181998
0.00659264582295
0.00659228928062
0.00652744917705
0.0063307443477
0.00591177578182
0.00519360825908
0.00401839581984
0.00187236237885
0.0018540353405
0.00398114299993
0.00512917589293
0.00583123797036
0.00624358833727
0.00645184035837
0.00653108273466
0.00654458543643
0.00653521052417
0.00652549178071
0.00652384177737
0.00653090043051
0.00653922741738
0.00652637918912
0.00644830913492
0.00624061914761
0.00582804090331
0.00512572585811
0.00397798581171
0.00185285593611
0.00180626155689
0.00387320612591
0.00496958372331
0.00563965537831
0.00603387852731
0.00624353148549
0.00633325945362
0.00635574588739
0.00635319345059
0.00634727377502
0.00634604016736
0.00634992953748
0.00635150179338
0.00632919190789
0.00624021368931
0.00603053951688
0.00563616215976
0.00496602390739
0.00387003637504
0.001805202899
0.00171383344137
0.00365350492967
0.00466320824296
0.00527783868201
0.005639473417
0.00583095805855
0.00591406292578
0.00593805528791
0.00593892614246
0.00593612334674
0.00593532898409
0.00593675022411
0.00593474263623
0.00591051999455
0.00582758477822
0.0056361556649
0.00527450484132
0.00465995772546
0.00365067021863
0.0017130042378
0.00155475485462
0.00326204500328
0.00413641889988
0.00466302515469
0.00496920550809
0.00512863100708
0.00519592044319
0.00521311625525
0.00521024462681
0.00520479853414
0.00520412459355
0.00520840577529
0.00521051098407
0.00519302918696
0.00512573464248
0.00496636206047
0.00466025694956
0.00413380149737
0.0032597764926
0.00155418916785
0.00129738725656
0.00259702212212
0.00326196838089
0.00365327405322
0.00387280208418
0.00398057526928
0.00402052280052
0.00402473494347
0.00401642179552
0.00400908138009
0.0040086092973
0.0040151292486
0.00402289740651
0.00401844975187
0.00397846556743
0.00387074627442
0.00365131659612
0.00326013871993
0.00259541093628
0.00129709912034
0.000931155270441
0.00129721942884
0.0015544965918
0.00171352917398
0.00180591577852
0.00185364892508
0.00187308967458
0.00187681677861
0.00187434189439
0.00187159221367
0.00187147249397
0.0018740251144
0.00187639363322
0.00187266254015
0.00185328564353
0.00180565008995
0.00171335609482
0.00155438634694
0.00129716588528
0.000931340682707
0.00100174432521
0.00152738824405
0.00189508359779
0.00212540551592
0.0022629693198
0.00233807107553
0.00237301759738
0.00238501305383
0.00238677002315
0.00238590211656
0.00238571661583
0.00238626057373
0.00238429092388
0.00237219733003
0.00233723783814
0.00226217877116
0.00212468971722
0.00189447814494
0.00152700793407
0.00100201016609
0.00152748119947
0.00319052548342
0.00404670371858
0.00456379367233
0.0048664867396
0.00502703565112
0.00509834537826
0.00512005037328
0.00512056347896
0.00511670381001
0.0051160169334
0.00511865628217
0.00511727283017
0.00509505098219
0.00502346539918
0.00486277527046
0.00456006836639
0.00404311894247
0.00318734974812
0.00152672378536
0.00189534910765
0.00404717244749
0.00514653544729
0.00582418336689
0.00623531840644
0.00646554088733
0.00657806471436
0.0066224653907
0.00663405078581
0.00663415573014
0.00663325688605
0.00663159545292
0.00661898534107
0.0065740201335
0.00646125218455
0.00623085440553
0.00581956673467
0.00514190925502
0.00404293578537
0.00189406275969
0.00212583264414
0.00456463661329
0.00582459758937
0.00660892793681
0.00709247611568
0.00736976234973
0.00750985610124
0.00757129835546
0.00759271297491
0.00759583133826
0.00759469110079
0.00758966516188
0.0075672670112
0.00750516198643
0.0073649941841
0.0070875822964
0.00660374664603
0.00581920624431
0.00455955608171
0.00212415551541
0.00226349268887
0.00486751123791
0.00623592750862
0.00709264554703
0.00762446554344
0.00793342880559
0.00808673277168
0.00814936938041
0.0081674581336
0.00816900018505
0.00816742848335
0.00816323866483
0.00814351741243
0.00808070908196
0.00792820752808
0.00761941231137
0.00708724966941
0.00623013059223
0.00486191671027
0.00226151202376
0.0023385792815
0.00502797417007
0.00646604545166
0.00736974805288
0.00793321072895
0.00824935679231
0.00840179915078
0.00845820427251
0.00846932898435
0.00846672401126
0.00846458456666
0.00846350398097
0.00844960385941
0.00839261715881
0.00824235725647
0.0079280624106
0.00736447451179
0.00646025933339
0.00502231375589
0.00233645627202
0.00237339562408
0.00509900860423
0.00657826236041
0.00750951089208
0.00808626826886
0.0084023238438
0.00854688247284
0.00859160346498
0.00859231968924
0.00858375701282
0.0085810379992
0.0085847718985
0.00857976570656
0.00853314530713
0.00839176584506
0.00808030453082
0.00750443342525
0.00657275814027
0.00509362318272
0.00237132055759
0.00238520608334
0.00512043834491
0.0066224507787
0.00757107609704
0.00814949963497
0.0084607664013
0.00859446894631
0.00862560815689
0.00861464908247
0.00859936945726
0.00859612998457
0.00860552231865
0.00861097575562
0.00857684970495
0.00844651010805
0.00814202623856
0.00756590972989
0.00661720586541
0.00511542279711
0.00238329955719
0.00238678768348
0.00512082041663
0.0066340137514
0.00759260061899
0.0081686822494
0.00847417895224
0.00859838310897
0.00861823906417
0.00859711766692
0.00857591208238
0.0085722997435
0.00858681009478
0.00860161935442
0.00857831744269
0.00845770351648
0.00815998886581
0.00758720763894
0.00662889818814
0.00511609063578
0.00238506801141
0.00238580517845
0.00511702303255
0.00663436470657
0.00759629592655
0.00817144330987
0.00847355751313
0.00859249680608
0.00860603630598
0.00857915980565
0.00855449145586
0.00855065608143
0.00856822164933
0.00858838129011
0.00857123756792
0.0084561076358
0.0081621480528
0.00759068055281
0.00662925645075
0.00511240626355
0.00238418292649
0.00238560438404
0.00511655272829
0.00663386420121
0.00759583723035
0.00817103071702
0.00847318600146
0.00859214774892
0.00860566279582
0.00857873710758
0.00855402592445
0.00855017617782
0.00856777829848
0.00858798531879
0.00857086609153
0.00845571615238
0.00816170039302
0.00759017297939
0.00662869028204
0.00511186139174
0.00238392893511
0.00238620616151
0.00511943311102
0.00663254274608
0.00759125463091
0.00816745837856
0.00847308839491
0.00859737426221
0.00861720618016
0.00859598895633
0.00857470000924
0.0085710839965
0.00858565055557
0.00860054412862
0.0085772597487
0.00845654903455
0.00815866193624
0.00758572535543
0.00662725267871
0.00511451734099
0.0023843558327
0.00238430998851
0.00511821466052
0.00662009068711
0.00756893601835
0.00814749683208
0.00845902953473
0.00859296913474
0.00862419801219
0.00861318751702
0.00859783803662
0.00859458383531
0.00860401244901
0.00860949623369
0.00857526332273
0.00844464786425
0.00813984908898
0.00756356946034
0.00661459228898
0.00511294578375
0.00238222955071
0.00237230966027
0.0050961353978
0.00657516090942
0.00750650463431
0.00808347633557
0.00839988375168
0.00854485551652
0.00858981004054
0.0085905559398
0.00858194421981
0.00857920300387
0.00858293809532
0.00857786998595
0.00853096979292
0.00838912569506
0.00807725601745
0.00750112900702
0.00656932572426
0.00509043983503
0.00237003418405
0.00233745607445
0.00502473743169
0.00646249110405
0.00736617495252
0.00792975181876
0.00824606609299
0.00839880670737
0.00845546694299
0.00846662392426
0.00846396253432
0.00846179092947
0.00846070447556
0.00844671000371
0.00838940730683
0.00823878992321
0.00792426640744
0.00736051285533
0.00645628693371
0.00501869785907
0.00233511159866
0.00226247606471
0.00486423149
0.00623225447299
0.00708881142668
0.00762054114716
0.00792948441222
0.0080827372126
0.00814543493003
0.00816343599951
0.00816487730721
0.00816326050208
0.0081590846382
0.008139374889
0.0080764277957
0.00792390336858
0.00761506309942
0.00708293074905
0.00622594832192
0.00485817806036
0.00226025846579
0.00212502960037
0.0045616442465
0.00582114132102
0.00660516013561
0.00708843631946
0.00736548962758
0.00750544263004
0.0075671191339
0.00758810265867
0.00759102790127
0.00758982606606
0.00758487456254
0.0075628354974
0.0075003973213
0.00736027664633
0.00708302314916
0.00659940552782
0.00581516266384
0.00455604085564
0.00212310900629
0.00189481345308
0.00404471106016
0.00514358173933
0.00582079723196
0.00623151315092
0.00646135813442
0.00657358048106
0.00661779007972
0.00662912572901
0.00662904353061
0.00662807083349
0.00662645614312
0.00661397918943
0.00656910715003
0.00645655776105
0.00622647340625
0.00581556502568
0.00513833916218
0.00403993225479
0.00189329827585
0.00152724187771
0.00318881055247
0.0040445417525
0.00456117107706
0.00486338973354
0.00502350894946
0.00509447118208
0.00511590954082
0.00511619119506
0.00511216026332
0.0051114008208
0.00511407643831
0.00511280320385
0.00509076202983
0.00501945894026
0.00485914738977
0.0045568857753
0.0040404029879
0.00318514775489
0.00152630480076
0.0010018085054
0.00152697772611
0.001894419542
0.00212453570958
0.00226187136727
0.00233673133362
0.0023714531583
0.00238325656821
0.00238485159606
0.00238386900571
0.00238363694522
0.00238421331584
0.00238233523267
0.00237039445838
0.00233564035199
0.00226081699197
0.00212356255512
0.00189357809477
0.00152641339114
0.00100205541063
0.00104888692115
0.00168372522477
0.00212586455486
0.00240538450469
0.00257602226714
0.00267310360073
0.00272237793408
0.00274350455245
0.00275077209837
0.00275255623592
0.00275227890566
0.00274998939766
0.0027423474813
0.00272096856724
0.00267154280888
0.0025744195016
0.00240385685289
0.00212454104538
0.00168285746272
0.00104924492091
0.00168388554516
0.00359774401511
0.00458782778541
0.00519675108049
0.00556406984069
0.00576927493855
0.00587058092135
0.00591174428924
0.00592382942698
0.00592535943914
0.00592439699017
0.00592110792768
0.00590768191492
0.00586558722787
0.00576362760241
0.0055579893201
0.00519052156548
0.00458179478814
0.00359234622671
0.00168244928135
0.00212622863462
0.00458842050252
0.00584371586181
0.00662802386238
0.00711630092959
0.00740171079836
0.00755247461026
0.00762165619945
0.00764702519523
0.0076532082233
0.00765198586749
0.00764364955872
0.00761680396465
0.00754680905588
0.00739554726026
0.00710970491323
0.00662100970084
0.00583646575612
0.004581462655
0.00212392292961
0.00240594883701
0.00519786444512
0.00662858829069
0.00752734877942
0.00809461079382
0.00843317822644
0.00861656501969
0.00870522624503
0.00873828051411
0.00874669814685
0.00874506617502
0.00873380398497
0.00869849239965
0.00860887290061
0.00842592487741
0.00808765245291
0.00751981099952
0.00662042240742
0.00518963310486
0.00240303214498
0.00257672323178
0.00556551477961
0.00711722419681
0.00809493633843
0.00871595237975
0.00908981132571
0.00928764057045
0.009376900349
0.00940804376202
0.00941450492708
0.00941214185645
0.00940134670829
0.00936604215433
0.00927425102693
0.00907771420899
0.0087072038832
0.0080870891569
0.00710849085635
0.00555645891233
0.00257334584835
0.00267380847252
0.00577076245524
0.0074026805352
0.00843357176121
0.00909093471571
0.00947667964892
0.00967421641759
0.00975574517356
0.00977834522282
0.00977938127248
0.00977610857537
0.00976866104527
0.00973909591668
0.00965207066051
0.00945514846055
0.00907640953659
0.00842485131817
0.00739378120247
0.0057614789011
0.00267022187841
0.00272292112922
0.00587183983451
0.00755324139865
0.00861787069189
0.00929267103488
0.00967960003201
0.00986736517703
0.00993422140782
0.00994388824579
0.00993744052132
0.00993344493897
0.00993160099953
0.00991208274652
0.00983624724403
0.00964728785894
0.00926932217499
0.00860649786077
0.00754446269954
0.00586282382984
0.00271942950052
0.00274379184943
0.00591271653618
0.00762225705261
0.00870841922435
0.00938696484159
0.00976822587437
0.00994234367193
0.00999272577933
0.0099884549036
0.00997415175039
0.00996972238563
0.00997450956133
0.00996685317734
0.00990480095844
0.00972782966295
0.00935633248157
0.00869365956785
0.00761358419564
0.005904162589
0.00274060656336
0.00275080807156
0.00592466004322
0.00764774922376
0.00874305387224
0.00942178265269
0.00979627972493
0.00995861558731
0.00999547973852
0.00997944483514
0.00995843907721
0.00995374633754
0.00996449512978
0.00996749009393
0.00991778178256
0.00975198459461
0.00938764915768
0.00872654852127
0.0076390839205
0.00591651587659
0.00274797116309
0.00275244003412
0.00592629004536
0.00765438249802
0.00875266447272
0.00943065200141
0.00980100155451
0.00995674522924
0.00998605048335
0.00996337074571
0.00993848316212
0.0099336199795
0.00994790102206
0.00995706776933
0.00991454152045
0.00975526365911
0.00939533787874
0.00873557438642
0.00764565040699
0.00591832826615
0.00274979791444
0.00275218187967
0.00592566538307
0.00765379028651
0.00875219405695
0.00943032772879
0.00980080883163
0.00995661111147
0.00998588240442
0.00996314337019
0.00993821547211
0.00993333940272
0.00994766061108
0.00995688600536
0.00991439302049
0.00975506175145
0.00939499562499
0.00873506273
0.00764498558429
0.00591760347682
0.00274947188601
0.00275003274624
0.0059227771319
0.00764598026758
0.00874165054693
0.00942082224544
0.00979575867992
0.00995834368243
0.00999521177836
0.00997907103484
0.00995798106586
0.00995328698019
0.00996410146782
0.0099671944155
0.0099174807562
0.00975143332589
0.00938663647649
0.0087250303416
0.00763712957551
0.00591439791877
0.00274703575611
0.00274256070985
0.00590965549303
0.00761937694238
0.00870616720685
0.00938548836629
0.00976760289939
0.00994233012353
0.00999293664124
0.0099886256433
0.00997424049802
0.00996979469298
0.00997463216481
0.00996699594054
0.00990471610122
0.00972712069887
0.009354746685
0.00869122059256
0.00761044521092
0.00590079927631
0.00273916672231
0.00272138392753
0.00586784325394
0.00754943203256
0.00861487685013
0.00929063657761
0.00967884905616
0.00986769960534
0.00993512587603
0.00994489428267
0.00993838700413
0.00993435816322
0.00993250693303
0.00991285013409
0.00983642282853
0.00964636021114
0.00926708199638
0.00860323703861
0.00754031914117
0.00585846453363
0.00271764969139
0.00267216615435
0.0057662031941
0.00739821102652
0.00842959747509
0.00908793511971
0.00947507423918
0.00967396953979
0.00975632163261
0.00977913445499
0.00978013225759
0.00977681168621
0.00976930876833
0.0097394599191
0.009651569336
0.00945326962315
0.00907309886428
0.00842050643488
0.007388872626
0.00575646643318
0.00266830328079
0.00257517328645
0.00556082839426
0.00711247287842
0.00809038228134
0.00871179159679
0.009086524512
0.00928547423054
0.00937545969995
0.00940678036508
0.00941318095122
0.00941075755039
0.00939990861217
0.00936433728922
0.00927176974787
0.00907406632365
0.00870263294581
0.00808204301656
0.00710317947322
0.00555121152647
0.00257149091075
0.0024046430411
0.00519347371548
0.00662392040277
0.00752258336701
0.00808976188525
0.00842834472937
0.00861221752957
0.00870092078901
0.00873389825738
0.00874217323157
0.00874047047905
0.00872921616133
0.00869388415922
0.00860419445501
0.00842063628827
0.00808225743983
0.00751441947137
0.00661507287276
0.00518458266306
0.00240140368141
0.00212525725784
0.00458465200314
0.00583945147096
0.00662334633555
0.00711122352932
0.0073962654399
0.00754672999209
0.00761560712591
0.00764070213362
0.00764667977099
0.0076453668567
0.00763706733287
0.00761035363821
0.00754056786969
0.00738950961565
0.00710396095912
0.00661560556236
0.00583144298299
0.00457698574743
0.00212264546438
0.00168333263157
0.00359488071969
0.00458433744407
0.00519262219251
0.00555930201563
0.005763934234
0.00586477585815
0.00590557112141
0.00591734857657
0.00591865817779
0.00591759439381
0.00591434315808
0.00590105793788
0.00585923122387
0.00575766136536
0.00555253791199
0.00518567024137
0.0045775759357
0.00358884223434
0.00168166946661
0.00104897203603
0.00168295191997
0.00212468410945
0.00240388595481
0.00257418627659
0.00267092531045
0.0027198948095
0.0027407773502
0.00274785070646
0.00274950354479
0.00274916512675
0.00274689955635
0.00273935482277
0.00271816884507
0.00266902226158
0.00257223114409
0.00240200993654
0.00212304416438
0.00168185454223
0.00104931331339
0.00108396742653
0.00180861356067
0.00230882296565
0.00262729512222
0.00282593330354
0.00294340844587
0.00300734157303
0.00303855684735
0.00305227535392
0.00305724991624
0.00305696039331
0.00305144552819
0.00303731999271
0.0030057472352
0.00294148257479
0.00282384128939
0.00262527851897
0.00230706045444
0.00180742172701
0.00108444948407
0.00180889281888
0.00392867525043
0.00502363590146
0.00570807804386
0.00613207723797
0.00637962842331
0.0065118551214
0.00657433543835
0.00659990552135
0.00660799281645
0.00660689238913
0.00659675631017
0.00656958758144
0.00650585667722
0.00637257170062
0.00612421116829
0.00569987474565
0.00501564770993
0.0039213245842
0.00180682605334
0.00230936456603
0.00502440025945
0.00639903101191
0.00726521076514
0.00781370984286
0.00814361286246
0.00832642212733
0.00841575127333
0.0084529711106
0.00846459387734
0.00846305679948
0.00844871556789
0.00840914133925
0.00831833536566
0.00813574448835
0.00780588565963
0.00725675100658
0.0063900058945
0.00501509818769
0.00230615027502
0.00262809246063
0.00570955952197
0.00726597852493
0.00824573776424
0.00887170171305
0.00925249241751
0.00946512579608
0.00956680974733
0.00960707969712
0.00961832007892
0.00961586213593
0.00960006769279
0.00955520026637
0.0094503282217
0.00923832943278
0.00886066797426
0.00823669770875
0.00725587577428
0.00569843731284
0.00262403374295
0.00282692611316
0.00613410139804
0.00781507043548
0.00887264050295
0.00954995111466
0.00995984149854
0.0101785895292
0.0102769850573
0.0103110902875
0.01031752682
0.0103136552013
0.0102993311247
0.0102562547393
0.010149880698
0.00993017662608
0.00952816806722
0.00885954186251
0.00780406589746
0.00612173330014
0.00282217893038
0.00294442529052
0.0063818739699
0.00814555109914
0.00925719823625
0.0099667642204
0.0103830299151
0.0105934980083
0.0106767657214
0.01069702947
0.0106953455567
0.0106901619906
0.0106805336347
0.0106459014352
0.0105473407722
0.010330411604
0.00992426326789
0.00923371528998
0.00813282106648
0.0063690696198
0.00293940009219
0.00300811556759
0.00651391459887
0.00832992523057
0.00947748993614
0.0101990272745