/*--------------------------------*- C++ -*----------------------------------*\
| =========                 |                                                 |
| \\      /  F ield         | OpenFOAM: The Open Source CFD Toolbox           |
|  \\    /   O peration     | Version:  3.0.1                                 |
|   \\  /    A nd           | Web:      www.OpenFOAM.org                      |
|    \\/     M anipulation  |                                                 |
\*---------------------------------------------------------------------------*/
FoamFile
{
    version     2.0;
    format      ascii;
    class       surfaceScalarField;
    location    "7.3";
    object      phi;
}
// * * * * * * * * * * * * * * * * * * * * * * * * * * * * * * * * * * * * * //

dimensions      [0 3 -1 0 0 0 0];

internalField   nonuniform List<scalar> 
22672
(
1.36656105366e-05
1.36739320484e-05
-2.73395496316e-05
2.86470772171e-05
1.20907767028e-05
-2.70722518496e-05
4.10511090418e-05
1.11790626416e-05
-2.35831041401e-05
4.85703044821e-05
1.10741372361e-05
-1.8593343475e-05
4.96252494024e-05
1.20153251025e-05
-1.30702816831e-05
4.56349009009e-05
1.32298768074e-05
-9.23954054532e-06
3.74876960582e-05
1.47726576965e-05
-6.62546547437e-06
2.63341229331e-05
1.64577312463e-05
-5.30417100067e-06
1.349467669e-05
1.79800910688e-05
-5.14065791023e-06
3.49732329782e-08
1.88856836573e-05
-5.42599345627e-06
-1.34272865689e-05
1.88856746963e-05
-5.42342830023e-06
-2.62737416931e-05
1.79799425833e-05
-5.13350102155e-06
-3.74379164838e-05
1.64569320214e-05
-5.29277102004e-06
-4.55977046545e-05
1.47708780378e-05
-6.61110404863e-06
-4.9599578069e-05
1.32276096223e-05
-9.22575103934e-06
-4.8556860032e-05
1.20154299621e-05
-1.30581637707e-05
-4.10451141866e-05
1.10741761822e-05
-1.8585938858e-05
-2.8644989789e-05
1.11803177875e-05
-2.35804602417e-05
-1.3665058257e-05
1.20930305134e-05
-2.70729819281e-05
1.36772078393e-05
-2.73422799642e-05
1.20861622519e-05
2.86531561384e-05
-2.70653948639e-05
2.88696531063e-05
2.88688671834e-05
-3.35615914949e-05
4.32269032961e-05
2.94164842335e-05
-3.25946832237e-05
5.19634572839e-05
3.08566509615e-05
-2.85190802528e-05
5.37681193215e-05
3.33752589246e-05
-2.31646092051e-05
4.96358367219e-05
3.59459702867e-05
-1.8583824774e-05
4.08557058147e-05
3.84354626187e-05
-1.48826883206e-05
2.8707024274e-05
4.08072630215e-05
-1.22008649016e-05
1.47003484726e-05
4.27392348479e-05
-1.07524830085e-05
4.21331148855e-08
4.38314357575e-05
-1.02875521564e-05
-1.46183847774e-05
4.38298715032e-05
-1.02836947265e-05
-2.86321232915e-05
4.2734849568e-05
-1.07411846892e-05
-4.07927350033e-05
4.08007498373e-05
-1.21832227652e-05
-4.95876369397e-05
3.84276990487e-05
-1.48619362785e-05
-5.37335483745e-05
3.5937743517e-05
-1.85642403641e-05
-5.19434861317e-05
3.33717353969e-05
-2.31463864089e-05
-4.32169754181e-05
3.08544565486e-05
-2.85068105673e-05
-2.88658955188e-05
2.94172077661e-05
-3.25879900507e-05
-1.2085246291e-05
2.8872483541e-05
-3.35601232477e-05
2.86605485106e-05
-2.7068600971e-05
1.11767513553e-05
4.10502199707e-05
-2.35738250806e-05
2.94211803921e-05
4.32158302928e-05
-3.25914037788e-05
4.52192183251e-05
4.52030366229e-05
-3.15846031188e-05
5.48469328881e-05
4.79787486134e-05
-2.67498259046e-05
5.7175719926e-05
5.1656869687e-05
-2.06104121028e-05
5.30266228553e-05
5.51212782942e-05
-1.50262256474e-05
4.39091523151e-05
5.80616787769e-05
-1.05087606736e-05
3.10809473612e-05
6.07080161544e-05
-7.07256361539e-06
1.60219086838e-05
6.2740888474e-05
-4.94263087332e-06
4.8561040706e-08
6.38500850621e-05
-4.04531821442e-06
-1.59277294685e-05
6.38475286384e-05
-4.0413839212e-06
-3.09954747809e-05
6.27336102445e-05
-4.93103343068e-06
-4.38373484838e-05
6.06970640164e-05
-7.0544592926e-06
-5.29709692337e-05
5.80486665222e-05
-1.04873662714e-05
-5.71358209932e-05
5.51077106478e-05
-1.50051356161e-05
-5.48225488164e-05
5.16489918913e-05
-2.05905494773e-05
-4.52061081514e-05
4.79733186358e-05
-2.67353237812e-05
-2.9415788576e-05
4.52022574478e-05
-3.15753902705e-05
-1.11755094373e-05
4.32200303194e-05
-3.25878470241e-05
4.10617953025e-05
-2.35767700451e-05
1.10735561133e-05
4.85585810355e-05
-1.85819284464e-05
3.08643999061e-05
5.19391351672e-05
-2.85141616859e-05
4.7998755957e-05
5.48176349704e-05
-2.67489683889e-05
5.84209797975e-05
5.83880753382e-05
-2.08315651941e-05
6.10380481376e-05
6.26884717752e-05
-1.36486854243e-05
5.66668406176e-05
6.66468086845e-05
-7.15433803626e-06
4.6949204949e-05
6.97720616189e-05
-1.99276244058e-06
3.32801596386e-05
7.24694928548e-05
1.90755316583e-06
1.71870253586e-05
7.44991319055e-05
4.33487501218e-06
5.27367766661e-08
7.55940020453e-05
5.39035499598e-06
-1.70845467425e-05
7.55905534994e-05
5.39424100699e-06
-3.31867374996e-05
7.44891540245e-05
4.34662816335e-06
-4.68700539592e-05
7.24541962184e-05
1.92616428998e-06
-5.66045170628e-05
6.97537996333e-05
-1.97069103807e-06
-6.09927821191e-05
6.66281346026e-05
-7.1321807836e-06
-5.83921827007e-05
6.26759332857e-05
-1.36275630866e-05
-4.79823810623e-05
5.83786386753e-05
-2.08151436888e-05
-3.0856981979e-05
5.48144616982e-05
-2.67376246547e-05
-1.10715488964e-05
5.19427094037e-05
-2.85081329899e-05
4.85733337399e-05
-1.85831008708e-05
1.20179373917e-05
4.96003162045e-05
-1.30596850226e-05
3.33869417275e-05
5.37311152457e-05
-2.31609986245e-05
5.16812145009e-05
5.71350781355e-05
-2.06117309472e-05
6.27256912786e-05
6.09948126453e-05
-1.3651229492e-05
6.54761307588e-05
6.54288055775e-05
-5.49078874479e-06
6.07970750656e-05
6.94312081354e-05
1.89464106538e-06
5.03480634438e-05
7.24527450251e-05
7.76831353269e-06
3.5673022457e-05
7.49391903282e-05
1.22053293318e-05
1.84175973929e-05
7.67767252831e-05
1.49778175233e-05
5.58691246992e-08
7.77734317249e-05
1.61822838041e-05
-1.83091704924e-05
7.77689348921e-05
1.61866422486e-05
-3.55746339864e-05
7.6763633424e-05
1.49909665793e-05
-5.02651631888e-05
7.49187791952e-05
1.22259269965e-05
-6.07317939963e-05
7.24280632708e-05
7.79234622955e-06
-6.54285872429e-05
6.9406232652e-05
1.91867293252e-06
-6.26948682657e-05
6.54098995261e-05
-5.4677080863e-06
-5.16629685122e-05
6.09793291678e-05
-1.36326126887e-05
-3.33781807236e-05
5.7127027969e-05
-2.05973754104e-05
-1.20157521361e-05
5.37311566055e-05
-2.31508963011e-05
4.9614231e-05
-1.30566628024e-05
1.32339018171e-05
4.56031848877e-05
-9.23678400782e-06
3.59596693902e-05
4.95929648667e-05
-1.85876325011e-05
5.51479940733e-05
5.29809887677e-05
-1.50342513066e-05
6.66861070522e-05
5.66201216195e-05
-7.1634381109e-06
6.94800064577e-05
6.07469718583e-05
1.88791855247e-06
6.44164156507e-05
6.4365098371e-05
1.01296858495e-05
5.3259003908e-05
6.70159203649e-05
1.65942232846e-05
3.76687687623e-05
6.91348728405e-05
2.1394541029e-05
1.9419590557e-05
7.06862022572e-05
2.43396904969e-05
5.6506848856e-08
7.15082448448e-05
2.56282596807e-05
-1.9309721021e-05
7.15026110886e-05
2.56325396242e-05
-3.75686922978e-05
7.06701363619e-05
2.43524543909e-05
-5.31739009171e-05
6.91096346771e-05
2.14143367328e-05
-6.43484959391e-05
6.69849757073e-05
1.66176635848e-05
-6.94293668948e-05
6.43332982943e-05
1.01537840511e-05
-6.66519029853e-05
6.07205511066e-05
1.91186200712e-06
-5.51262392416e-05
5.65975128649e-05
-7.14386983216e-06
-3.59477484475e-05
5.29668035081e-05
-1.50182876597e-05
-1.32299274522e-05
4.95883294598e-05
-1.85750143569e-05
4.56146116383e-05
-9.23032170398e-06
1.47816671815e-05
3.74525913445e-05
-6.6310882407e-06
3.84556509957e-05
4.08134760419e-05
-1.4894511546e-05
5.80943445406e-05
4.38663014081e-05
-1.05240233867e-05
6.98162529887e-05
4.69074517306e-05
-2.00925568057e-06
7.25053667688e-05
5.03045616535e-05
7.7532802916e-06
6.70700456353e-05
5.32147950776e-05
1.65856104269e-05
5.53372791386e-05
5.52915421956e-05
2.3457133562e-05
3.90289318941e-05
5.68680157634e-05
2.85751961383e-05
2.00226905004e-05
5.78423898896e-05
3.18500475362e-05
5.45148976201e-08
5.84629344076e-05
3.30134803455e-05
-1.99165977221e-05
5.8456841395e-05
3.30168756914e-05
-3.89316258539e-05
5.78240941156e-05
3.18610615351e-05
-5.52548088164e-05
5.68384513946e-05
2.85943541948e-05
-6.70041260981e-05
5.52550539573e-05
2.34792232312e-05
-7.24559747291e-05
5.31762562769e-05
1.66088714197e-05
-6.97826895028e-05
5.02700431635e-05
7.77720122505e-06
-5.8072545047e-05
4.68769472282e-05
-1.98960091052e-06
-3.84429544326e-05
4.38442639486e-05
-1.05070725097e-05
-1.47772164159e-05
4.0801849255e-05
-1.48792787808e-05
3.74582428029e-05
-6.62086175736e-06
1.64717532531e-05
2.62976881618e-05
-5.31686602126e-06
4.08343419729e-05
2.86715176103e-05
-1.22206484557e-05
6.07471849142e-05
3.10484704649e-05
-7.09503083518e-06
7.25191102994e-05
3.32517507618e-05
1.88375707789e-06
7.49965918971e-05
3.56460859009e-05
1.21809773432e-05
6.91936425127e-05
3.76422916971e-05
2.13754391925e-05
5.69179565064e-05
3.90031903761e-05
2.85640286239e-05
3.99517162348e-05
3.99237568773e-05
3.39104942883e-05
2.04617301302e-05
4.05416794849e-05
3.67906948214e-05
4.91121938014e-08
4.0946870055e-05
3.79286819593e-05
-2.03663334757e-05
4.09408518557e-05
3.79314342737e-05
-3.98648614725e-05
4.05231184788e-05
3.67995002674e-05
-5.68437310017e-05
3.98933096072e-05
3.39240039794e-05
-6.91350115522e-05
3.89630662048e-05
2.85832561309e-05
-7.49526792663e-05
3.75988814354e-05
2.13950257034e-05
-7.24890421664e-05
3.56047873588e-05
1.22015984444e-05
-6.07274472218e-05
3.32146011668e-05
1.900729347e-06
-4.08226119268e-05
3.10191078343e-05
-7.07970097343e-06
-1.64679347989e-05
2.86528649785e-05
-1.22057146487e-05
2.62956139845e-05
-5.30532091996e-06
1.79959507475e-05
1.34548757825e-05
-5.15315605427e-06
4.27699527872e-05
1.46723047558e-05
-1.0774809402e-05
6.27833979376e-05
1.60030098158e-05
-4.96800544504e-06
7.45510164722e-05
1.71758893374e-05
4.30822252271e-06
7.68358592127e-05
1.84124533866e-05
1.49487717365e-05
7.07472620451e-05
1.94175372799e-05
2.43133378519e-05
5.78955319671e-05
2.00219756542e-05
3.18329366806e-05
4.05758769366e-05
2.04596397263e-05
3.67837696943e-05
2.07537182746e-05
2.07452379605e-05
3.96186019956e-05
4.14736120473e-08
2.09296343842e-05
4.07294842951e-05
-2.06734742919e-05
2.09242611797e-05
4.07315423094e-05
-4.05037086784e-05
2.0728370705e-05
3.96249833466e-05
-5.78350615442e-05
2.04311086185e-05
3.67935505187e-05
-7.06999563958e-05
1.9983645509e-05
3.18443064817e-05
-7.68009269248e-05
1.93744593508e-05
2.43253778385e-05
-7.45275042802e-05
1.83697538034e-05
1.49615917258e-05
-6.27686326908e-05
1.71369175107e-05
4.31879050673e-06
-4.27617860893e-05
1.59704150778e-05
-4.95817610987e-06
-1.7993792913e-05
1.4649554321e-05
-1.07647052807e-05
1.34459606914e-05
-5.14415530568e-06
1.88999713969e-05
-1.3322623728e-08
-5.43179274768e-06
4.38598037029e-05
1.77030991421e-08
-1.03052532417e-05
6.38895425784e-05
4.085304962e-08
-4.06760549649e-06
7.56416886412e-05
5.65690803971e-08
5.36715156747e-06
7.78273646342e-05
7.00994288432e-08
1.6156658169e-05
7.1565930366e-05
7.64703324376e-08
2.56024864743e-05
5.85113293961e-05
7.64376273316e-08
3.30001307914e-05
4.09794451206e-05
6.91184197697e-08
3.79224039325e-05
2.09409443331e-05
5.63193097025e-08
4.07274228994e-05
3.4169551126e-08
4.44417724434e-08
4.17919736239e-05
-2.08752221851e-05
4.03757554285e-08
4.17932835014e-05
-4.09213391201e-05
4.32695577437e-08
4.07312219075e-05
-5.84640018394e-05
4.63376858953e-08
3.79274326827e-05
-7.15301027643e-05
4.55422191182e-08
3.30041970193e-05
-7.78016907689e-05
4.14886557929e-08
2.56045452001e-05
-7.56256186476e-05
3.43515796597e-08
1.61593115628e-05
-6.38812967817e-05
2.35102499946e-08
5.36906388683e-06
-4.38568874496e-05
1.23176160366e-08
-4.06633460191e-06
-1.88998610057e-05
-3.39335071312e-09
-1.03041023526e-05
-2.43275114711e-08
-5.42958901169e-06
1.88969550192e-05
-1.34836970004e-05
-5.42660260616e-06
4.38507672845e-05
-1.46402920179e-05
-1.02958421949e-05
6.38772216127e-05
-1.59274491817e-05
-4.05817801443e-06
7.56267854336e-05
-1.7070068936e-05
5.37704911899e-06
7.78097683988e-05
-1.8281087451e-05
1.6168181898e-05
7.1546163759e-05
-1.92731411767e-05
2.56131995432e-05
5.84931600727e-05
-1.98769062504e-05
3.30063378902e-05
4.09649850482e-05
-2.03277098996e-05
3.79250006227e-05
2.09316362769e-05
-2.06370786093e-05
4.07267494713e-05
2.93818833695e-08
-2.0842413889e-05
4.17891159411e-05
-2.08754566612e-05
-2.08445914541e-05
4.17898120154e-05
-4.09162338442e-05
-2.06444312783e-05
4.07284819391e-05
-5.84548162309e-05
-2.03412412542e-05
3.79261605323e-05
-7.15186877918e-05
-1.98951175173e-05
3.30045243071e-05
-7.77908660433e-05
-1.92932823675e-05
2.56069359397e-05
-7.56164996671e-05
-1.83021411565e-05
1.61621078822e-05
-6.38744075301e-05
-1.70895837131e-05
5.37098019387e-06
-4.38523156657e-05
-1.59443744001e-05
-4.06542292325e-06
-1.88986320223e-05
-1.46530160132e-05
-1.0304085034e-05
-1.34908156971e-05
-5.43216023491e-06
1.79873354888e-05
-2.63314244443e-05
-5.13963209315e-06
4.27456973975e-05
-2.86485254092e-05
-1.07501558212e-05
6.27500208633e-05
-3.09888597636e-05
-4.94294115085e-06
7.45097962282e-05
-3.31649236302e-05
4.33505183201e-06
7.67862035317e-05
-3.55378607153e-05
1.49803414371e-05
7.06917511152e-05
-3.75206589995e-05
2.43419509747e-05
5.78413254141e-05
-3.88782121447e-05
3.18517190593e-05
4.05307025602e-05
-3.9809026556e-05
3.67919337478e-05
2.07234451585e-05
-4.04463196494e-05
3.96164980586e-05
2.609380105e-08
-4.08663175191e-05
4.07212577481e-05
-2.0673761374e-05
-4.08663519286e-05
4.0721618969e-05
-4.04880439674e-05
-4.04470938377e-05
3.96169464577e-05
-5.78080367609e-05
-3.98115632523e-05
3.67903118596e-05
-7.06677395216e-05
-3.88813439799e-05
3.18459206467e-05
-7.67702312716e-05
-3.75230959859e-05
2.43322910232e-05
-7.45018624953e-05
-3.55406539101e-05
1.49701249281e-05
-6.27492061026e-05
-3.31670265989e-05
4.32476455963e-06
-4.27488538844e-05
-3.09898645398e-05
-4.95488533388e-06
-1.79897911928e-05
-2.86480326874e-05
-1.07640701391e-05
-2.63296958363e-05
-5.15092730874e-06
1.64589359909e-05
-3.7489204369e-05
-5.30118187317e-06
4.08016347142e-05
-4.08018454679e-05
-1.21894078359e-05
6.07008608779e-05
-4.38262973617e-05
-7.06181881908e-06
7.24600627458e-05
-4.6844514734e-05
1.92035952414e-06
7.49236302393e-05
-5.02252430315e-05
1.22237876538e-05
6.91108427698e-05
-5.31215020847e-05
2.14136080022e-05
5.68341431093e-05
-5.51942252107e-05
2.85926961498e-05
3.98809307122e-05
-5.67768280654e-05
3.39210033178e-05
2.04123468848e-05
-5.77644972286e-05
3.67867556779e-05
2.37530687353e-08
-5.83951647132e-05
3.79174381856e-05
-2.03666048221e-05
-5.83935129431e-05
3.79175167761e-05
-3.98403932373e-05
-5.77601169452e-05
3.67868078925e-05
-5.68013382497e-05
-5.67700897951e-05
3.39194645112e-05
-6.90861614742e-05
-5.51848799104e-05
2.85883475429e-05
-7.49065945502e-05
-5.31093431635e-05
2.14066639208e-05
-7.24509833748e-05
-5.02124176079e-05
1.22161324161e-05
-6.06986105961e-05
-4.68310870103e-05
1.91166528626e-06
-4.08033554591e-05
-4.38123990945e-05
-7.0727438369e-06
-1.64608720905e-05
-4.07877762867e-05
-1.22027635859e-05
-3.74773411721e-05
-5.3132425873e-06
1.47675827231e-05
-4.56388008731e-05
-6.61801339253e-06
3.84210917796e-05
-4.95909753664e-05
-1.48644097805e-05
5.80430663903e-05
-5.2958190753e-05
-1.0490113069e-05
6.97489672293e-05
-5.65792396519e-05
-1.97120757523e-06
7.24206137062e-05
-6.06941928213e-05
7.79727352954e-06
6.69729485213e-05
-6.42990410735e-05
1.66251780204e-05
5.52378176672e-05
-6.69452799633e-05
2.34861641895e-05
3.89410612957e-05
-6.90677225691e-05
2.85876343788e-05
1.99597004317e-05
-7.06274395549e-05
3.18442907003e-05
2.27966083944e-08
-7.14587535502e-05
3.30004827248e-05
-1.9915001006e-05
-7.14561019425e-05
3.30003775477e-05
-3.88992473547e-05
-7.06202471881e-05
3.18443667112e-05
-5.52016092364e-05
-6.90562435901e-05
2.85885035358e-05
-6.69439279837e-05
-6.69292932305e-05
2.34867166983e-05
-7.23994902671e-05
-6.42787943993e-05
1.66249948695e-05
-6.97363649351e-05
-6.06724926199e-05
7.79692841175e-06
-5.80374606095e-05
-5.6556251133e-05
-1.97376285008e-06
-3.84197214935e-05
-5.29346538893e-05
-1.04955073068e-05
-1.47678162169e-05
-4.95676186491e-05
-1.48720860543e-05
-4.56194510084e-05
-6.62572153342e-06
1.32198997149e-05
-4.96298173255e-05
-9.22891154222e-06
3.59254176913e-05
-5.37333648657e-05
-1.85631602952e-05
5.50946831332e-05
-5.71231601915e-05
-1.50043291777e-05
6.66153093987e-05
-6.09706039033e-05
-7.12929533641e-06
6.93914724459e-05
-6.5396950939e-05
1.92656291263e-06
6.43153183378e-05
-6.9388164044e-05
1.0165247426e-05
5.31550864233e-05
-7.24055441202e-05
1.6620469925e-05
3.75758415584e-05
-7.48933703501e-05
2.1404870168e-05
1.9352068395e-05
-7.67360268553e-05
2.43323411792e-05
2.3246795308e-08
-7.77373493394e-05
2.56074003529e-05
-1.93056771356e-05
-7.77347678561e-05
2.56075739646e-05
-3.75307752636e-05
-7.67284723816e-05
2.43333074783e-05
-5.31138281423e-05
-7.48809637542e-05
2.14077561616e-05
-6.4280568886e-05
-7.2388129164e-05
1.66255581062e-05
-6.9365056133e-05
-6.93660421435e-05
1.01717145255e-05
-6.65982794215e-05
-6.53729910463e-05
1.93369979457e-06
-5.50851401958e-05
-6.09444522639e-05
-7.12496056726e-06
-3.59206213614e-05
-5.70962668994e-05
-1.50029280794e-05
-1.32180403197e-05
-5.37067819157e-05
-1.85634397968e-05
-4.96075711537e-05
-9.22993437651e-06
1.20025603872e-05
-4.85757858556e-05
-1.30566212524e-05
3.3352228247e-05
-5.19404341562e-05
-2.31426315521e-05
5.1628572051e-05
-5.4812024967e-05
-2.05875133678e-05
6.26567505331e-05
-5.83758181028e-05
-1.36229989258e-05
6.53913710775e-05
-6.26718528264e-05
-5.45975263809e-06
6.07016017537e-05
-6.66220973975e-05
1.92367041162e-06
5.02502113757e-05
-6.97447484306e-05
7.79056486732e-06
3.55850667154e-05
-7.24426814778e-05
1.22144287252e-05
1.83528432343e-05
-7.44757705364e-05
1.49719426886e-05
2.39299233085e-08
-7.55740605862e-05
1.61656022378e-05
-1.83044605939e-05
-7.55720672709e-05
1.61656691977e-05
-3.55364519761e-05
-7.44696706947e-05
1.49731698501e-05
-5.0204050003e-05
-7.2432241642e-05
1.22188562461e-05
-6.06613674531e-05
-6.97296367325e-05
7.79880488309e-06
-6.53597525798e-05
-6.66025026886e-05
1.93482477725e-06
-6.26350326218e-05
-6.26505647068e-05
-5.4471677887e-06
-5.16148525766e-05
-5.83518218764e-05
-1.36128318812e-05
-3.3344163125e-05
-5.47871175373e-05
-2.05798596882e-05
-1.19988432639e-05
-5.19159507618e-05
-2.31361714175e-05
-4.85553187355e-05
-1.30511086549e-05
1.10541501823e-05
-4.10523200243e-05
-1.85776466069e-05
3.08258647913e-05
-4.32126331698e-05
-2.84995497306e-05
4.79434945092e-05
-4.51990101735e-05
-2.67306797962e-05
5.8350957354e-05
-4.7972604939e-05
-2.08107114211e-05
6.09545606062e-05
-5.16484853566e-05
-1.36270054829e-05
5.6575380077e-05
-5.51070928047e-05
-7.13585742925e-06
4.68571972392e-05
-5.8046096047e-05
-1.98050092246e-06
3.31985293292e-05
-6.06936360614e-05
1.90959342393e-06
1.71277014108e-05
-6.27301626847e-05
4.32519338023e-06
2.47978798124e-08
-6.38429825091e-05
5.37180105111e-06
-1.70771984077e-05
-6.38417885505e-05
5.37169520163e-06
-3.31469052451e-05
-6.27261833428e-05
4.32619871975e-06
-4.6807135252e-05
-6.0686154969e-05
1.91412353754e-06
-5.65306296719e-05
-5.80346404967e-05
-1.97152129328e-06
-6.09180715776e-05
-5.50916898076e-05
-7.12339058311e-06
-5.83244923067e-05
-5.1631981851e-05
-1.36121818864e-05
-4.79257704861e-05
-4.79538471963e-05
-2.07967159762e-05
-3.08148336665e-05
-4.51797696347e-05
-2.67183035308e-05
-1.10488681647e-05
-4.31941593059e-05
-2.84877752397e-05
-4.10370487627e-05
-1.85671496299e-05
1.11543162906e-05
-2.86449621254e-05
-2.35617065378e-05
2.9380011396e-05
-2.88617096111e-05
-3.25766542031e-05
4.51640041936e-05
-2.94127201875e-05
-3.15703190184e-05
5.4780198947e-05
-3.08539017221e-05
-2.6734933802e-05
5.70990433794e-05
-3.33721492624e-05
-2.05952152394e-05
5.29447462695e-05
-3.59391664005e-05
-1.50136623303e-05
4.38274767283e-05
-3.84275678371e-05
-1.0501289628e-05
3.10088379648e-05
-4.08006058555e-05
-7.07442004672e-06
1.59700815734e-05
-4.27354141854e-05
-4.95601821226e-06
2.5710905766e-08
-4.38301606395e-05
-4.06847477916e-06
-1.59173869374e-05
-4.38295638246e-05
-4.06914808158e-06
-3.09541968015e-05
-4.27332222739e-05
-4.95617042992e-06
-4.37735799692e-05
-4.07960116812e-05
-7.07077803021e-06
-5.28956332214e-05
-3.84200788613e-05
-1.04925257103e-05
-5.70578512339e-05
-3.59286443322e-05
-1.50008447504e-05
-5.47493215421e-05
-3.33614744366e-05
-2.05790544788e-05
-4.51426956496e-05
-3.08417689632e-05
-2.67187212518e-05
-2.9366578569e-05
-2.9400723534e-05
-3.15551797381e-05
-1.11478671691e-05
-2.88506732895e-05
-3.25622135069e-05
-2.8636083163e-05
-2.35488430109e-05
1.20603249893e-05
-1.36637979904e-05
-2.70415247584e-05
2.8826051382e-05
-1.20838728022e-05
-3.35436007419e-05
4.31727192767e-05
-1.11763951515e-05
-3.25830304199e-05
5.19013174292e-05
-1.10736105408e-05
-2.85089256981e-05
5.36997188106e-05
-1.20161340714e-05
-2.3154451131e-05
4.95651403995e-05
-1.3229507783e-05
-1.85751125739e-05
4.07871132304e-05
-1.47722126202e-05
-1.4877358008e-05
2.86486977974e-05
-1.64581623301e-05
-1.2204055468e-05
1.46606637947e-05
-1.79808359232e-05
-1.07665689477e-05
2.73642036793e-08
-1.88859365316e-05
-1.03109465145e-05
-1.46045246997e-05
-1.88856749643e-05
-1.0312019453e-05
-2.85902223141e-05
-1.79799339268e-05
-1.07676082018e-05
-4.07290611837e-05
-1.64562517607e-05
-1.22009372137e-05
-4.95116880015e-05
-1.47691179586e-05
-1.48683497114e-05
-5.36535257262e-05
-1.32251862099e-05
-1.85616360257e-05
-5.18661320774e-05
-1.20120543903e-05
-2.31368294527e-05
-4.31480841706e-05
-1.10691206292e-05
-2.84907118171e-05
-2.88104025877e-05
-1.11722962023e-05
-3.25661239811e-05
-1.20526554938e-05
-1.20803743006e-05
-3.35280609696e-05
-1.36610851072e-05
-2.70276627521e-05
1.36412237806e-05
-2.73050467891e-05
2.86068762072e-05
-2.70495505532e-05
4.10045138727e-05
-2.3574057622e-05
4.85212110837e-05
-1.85903314648e-05
4.95747450242e-05
-1.30696902876e-05
4.55854591328e-05
-9.24024259275e-06
3.74416425369e-05
-6.6284150977e-06
2.62962126902e-05
-5.3127498757e-06
1.34702692563e-05
-5.15490817436e-06
2.94408770284e-08
-5.44512216554e-06
-1.34099641121e-05
-5.44628248483e-06
-2.62330116546e-05
-5.15689773518e-06
-3.73781721594e-05
-5.31110190807e-06
-4.55261434007e-05
-6.62115710009e-06
-4.95226483783e-05
-9.22869158485e-06
-4.84800248953e-05
-1.30546881717e-05
-4.0975197271e-05
-1.85739582405e-05
-2.85881454171e-05
-2.35593577086e-05
-1.3631869575e-05
-2.70366592466e-05
-2.72929585479e-05
1.94279128428e-05
1.94332649024e-05
-6.62007339664e-05
3.6256327456e-05
2.2144680485e-05
-6.60453542277e-05
4.74885628747e-05
2.48548782763e-05
-5.96702262701e-05
5.2692753345e-05
2.77392692776e-05
-5.15368129379e-05
5.24519799019e-05
3.04319221587e-05
-4.3261441277e-05
4.70132465439e-05
3.26164667582e-05
-3.64172858687e-05
3.77706933671e-05
3.44323175721e-05
-3.18152428086e-05
2.6064431137e-05
3.60657880035e-05
-2.96637107324e-05
1.32081462856e-05
3.74033447087e-05
-2.96877326907e-05
3.99752418353e-08
3.81495185701e-05
-3.04073567268e-05
-1.31305148129e-05
3.81471279881e-05
-3.04000825903e-05
-2.59936980742e-05
3.7396354745e-05
-2.96666892588e-05
-3.77112303453e-05
3.60547407227e-05
-2.9629996448e-05
-4.69674629614e-05
3.44185582205e-05
-3.17734467711e-05
-5.24198432407e-05
3.26022596675e-05
-3.63756477135e-05
-5.2670703869e-05
3.04192005742e-05
-4.32265212328e-05
-4.74744121854e-05
2.77292583388e-05
-5.15115066219e-05
-3.62484200568e-05
2.48475503631e-05
-5.96540207932e-05
-1.94246098799e-05
2.21390865288e-05
-6.60358971654e-05
1.94295330271e-05
-6.61964346681e-05
2.21493637748e-05
3.62527203214e-05
-6.60342214234e-05
3.89613667186e-05
3.89462240425e-05
-6.71751463221e-05
4.9271663369e-05
4.26859453383e-05
-6.07360565086e-05
5.3777619179e-05
4.70513219531e-05
-5.23370996369e-05
5.3260763773e-05
5.1345540509e-05
-4.35613843149e-05
4.79372365936e-05
5.50272189594e-05
-3.56710632104e-05
3.87774177633e-05
5.80760481892e-05
-2.9366614822e-05
2.69975106245e-05
6.06083393318e-05
-2.49635251333e-05
1.37918697726e-05
6.25202443632e-05
-2.26637591175e-05
4.72836423831e-08
6.35581066764e-05
-2.1951572531e-05
-1.36996857446e-05
6.35543066737e-05
-2.19439232781e-05
-2.69122068047e-05
6.2509134108e-05
-2.26414628167e-05
-3.87032193315e-05
6.0591122035e-05
-2.49286116763e-05
-4.78770242104e-05
5.80550785286e-05
-2.93246719359e-05
-5.32155920408e-05
5.50057619542e-05
-3.56291950191e-05
-5.3744527204e-05
5.13267706251e-05
-4.35250413569e-05
-4.92494229464e-05
4.70366866957e-05
-5.23093629433e-05
-3.89481354631e-05
4.26754008772e-05
-6.07171474241e-05
-2.21432415801e-05
3.89390249109e-05
-6.71649744572e-05
3.62502426978e-05
-6.60325639007e-05
2.48638961684e-05
4.74721013348e-05
-5.96571109751e-05
4.27059689221e-05
4.92451976593e-05
-6.07324599221e-05
5.31430123519e-05
5.31130262188e-05
-5.24487383746e-05
5.7443105534e-05
5.79258477068e-05
-4.1924457032e-05
5.66189045799e-05
6.26720276623e-05
-3.11127117594e-05
5.10594150382e-05
6.67920750489e-05
-2.12316069763e-05
4.15626693237e-05
7.00657895538e-05
-1.30017724982e-05
2.92365318445e-05
7.25720429733e-05
-6.71014738158e-06
1.5102512531e-05
7.43352001182e-05
-2.62358629851e-06
5.24131190227e-08
7.52426926589e-05
-6.79825081733e-07
-1.50005694465e-05
7.5237761227e-05
-6.7187734235e-07
-2.91421795042e-05
7.43212289481e-05
-2.60154052004e-06
-4.14798858873e-05
7.25509022226e-05
-6.6765559712e-06
-5.09908721141e-05
7.00404302174e-05
-1.29617548459e-05
-5.65659449198e-05
6.67665643952e-05
-2.11908882648e-05
-5.74033811867e-05
6.26495216392e-05
-3.10758867244e-05
-5.31154620225e-05
5.79081475847e-05
-4.18947253867e-05
-4.26889531686e-05
5.31004007772e-05
-5.24269193752e-05
-2.4855549223e-05
4.92377288188e-05
-6.07199740603e-05
4.74721211194e-05
-5.96542093548e-05
2.7750943715e-05
5.26610862692e-05
-5.1521867344e-05
4.70745425814e-05
5.37404335029e-05
-5.23330077441e-05
5.79578754704e-05
5.74054995816e-05
-4.19247870793e-05
6.20959618236e-05
6.20586161494e-05
-2.91024336109e-05
6.07837364445e-05
6.65933582727e-05
-1.62578055174e-05
5.46083752442e-05
7.044525324e-05
-4.63217110536e-06
4.43767240166e-05
7.34490298612e-05
4.85563121489e-06
3.12375383806e-05
7.56546635343e-05
1.19640998735e-05
1.61501835689e-05
7.71190372478e-05
1.66383731164e-05
5.54432019336e-08
7.78577755331e-05
1.88699916136e-05
-1.60420823683e-05
7.78523277472e-05
1.88771778579e-05
-3.11371759368e-05
7.71034205603e-05
1.66595067056e-05
-4.42880278317e-05
7.56310902682e-05
1.19968037323e-05
-5.45336684286e-05
7.34209460257e-05
4.89440867953e-06
-6.07252176768e-05
7.04163847076e-05
-4.59047699958e-06
-6.20514452535e-05
6.65676708688e-05
-1.62195092476e-05
-5.79262670118e-05
6.20376981897e-05
-2.90698955748e-05
-4.70541809171e-05
5.73905747708e-05
-4.18999058825e-05
-2.77403511379e-05
5.3732236448e-05
-5.23164897959e-05
5.26632655957e-05
-5.15146082796e-05
3.04467166683e-05
5.24056801245e-05
-4.32510072395e-05
5.13725055361e-05
5.32151632216e-05
-4.356153008e-05
6.27067878735e-05
5.65765336946e-05
-3.11170613409e-05
6.66316653179e-05
6.0744392553e-05
-1.62618984303e-05
6.4711448158e-05
6.46731404697e-05
-1.65036990468e-06
5.78956130293e-05
6.81038009339e-05
1.10519116113e-05
4.69410920099e-05
7.07245588746e-05
2.14472882967e-05
3.29858291041e-05
7.25742714324e-05
2.92409667757e-05
1.70379330307e-05
7.37791860692e-05
3.42655466887e-05
5.67245632032e-08
7.43845396499e-05
3.66367091161e-05
-1.69274121857e-05
7.43789021139e-05
3.66441842745e-05
-3.28833227323e-05
7.37628588786e-05
3.42874168964e-05
-4.68502953739e-05
7.25493097428e-05
2.92746565952e-05
-5.78189943217e-05
7.06943320336e-05
2.14876342021e-05
-6.46500088256e-05
6.80723137539e-05
1.10937326322e-05
-6.65846092618e-05
6.46436344238e-05
-1.60909664582e-06
-6.26725214766e-05
6.07198102994e-05
-1.62268365377e-05
-5.134958245e-05
5.65587087095e-05
-3.10884701052e-05
-3.04341502159e-05
5.32053466848e-05
-4.35394585181e-05
5.240844822e-05
-4.32360078e-05
3.26359802686e-05
4.69568625706e-05
-3.64239598023e-05
5.50598076474e-05
4.78866980244e-05
-3.56830091039e-05
6.68312971997e-05
5.10158017963e-05
-2.12450244986e-05
7.04863023838e-05
5.45706913028e-05
-4.64475859678e-06
6.81429659935e-05
5.78605059975e-05
1.10438722894e-05
6.07487660541e-05
6.07144883137e-05
2.49131815645e-05
4.91208751644e-05
6.28399425785e-05
3.61067145311e-05
3.44471685898e-05
6.43211666114e-05
4.43213375887e-05
1.77759198083e-05
6.53077409873e-05
4.94823701041e-05
5.63855125068e-08
6.58695368222e-05
5.18627823089e-05
-1.76662052567e-05
6.58638697168e-05
5.18701471848e-05
-3.43457171123e-05
6.52908577206e-05
4.95039498894e-05
-4.90311467355e-05
6.42945113758e-05
4.43545447675e-05
-6.06730193269e-05
6.28070471594e-05
3.61467985002e-05
-6.8082206104e-05
6.0679426888e-05
2.49558332206e-05
-7.04386590013e-05
5.78269099665e-05
1.10850142714e-05
-6.67963003058e-05
5.45406948312e-05
-4.60713720805e-06
-5.50355865599e-05
5.09928724805e-05
-2.1213187338e-05
-3.26220448777e-05
4.78722430456e-05
-3.56554727393e-05
4.69557667883e-05
-3.63996979274e-05
3.44585571436e-05
3.7714920148e-05
-3.18477175769e-05
5.81165874071e-05
3.87299546346e-05
-2.93958146257e-05
7.01118377853e-05
4.15240478433e-05
-1.30275371779e-05
7.34950650541e-05
4.43456113545e-05
4.83257887353e-06
7.07671331399e-05
4.69141975941e-05
2.14275027551e-05
6.28759290958e-05
4.9096294982e-05
3.60949915384e-05
5.07324236224e-05
5.07074284089e-05
4.77331396319e-05
3.55550026354e-05
5.19287611402e-05
5.6145011799e-05
1.84067414259e-05
5.28729513438e-05
6.14330895898e-05
5.45389222014e-08
5.33128899644e-05
6.39223216135e-05
-1.83009732305e-05
5.33067594015e-05
6.39294892932e-05
-3.54587117261e-05
5.28550738114e-05
6.14545728805e-05
-5.06475952343e-05
5.19017389183e-05
5.61759957119e-05
-6.28046302684e-05
5.06726198614e-05
4.77706672424e-05
-7.07101222827e-05
4.90582066933e-05
3.61355618913e-05
-7.34503573838e-05
4.68765809455e-05
2.14677416496e-05
-7.00784908498e-05
4.43110054598e-05
4.86819814452e-06
-5.80931840981e-05
4.14954308737e-05
-1.29949601569e-05
-3.44443910693e-05
3.87090280719e-05
-2.93648780047e-05
3.7705671384e-05
-3.18151709789e-05
3.60980976151e-05
2.60194613033e-05
-2.97195212698e-05
6.06560491904e-05
2.69604908247e-05
-2.50091545702e-05
7.26245777562e-05
2.92081972783e-05
-6.74772835389e-06
7.57065455619e-05
3.12173609387e-05
1.19300198406e-05
7.26216919604e-05