/*--------------------------------*- C++ -*----------------------------------*\
| =========                 |                                                 |
| \\      /  F ield         | OpenFOAM: The Open Source CFD Toolbox           |
|  \\    /   O peration     | Version:  3.0.1                                 |
|   \\  /    A nd           | Web:      www.OpenFOAM.org                      |
|    \\/     M anipulation  |                                                 |
\*---------------------------------------------------------------------------*/
FoamFile
{
    version     2.0;
    format      ascii;
    class       surfaceVectorField;
    location    "3.9";
    object      ddt0(Uf);
}
// * * * * * * * * * * * * * * * * * * * * * * * * * * * * * * * * * * * * * //

dimensions      [0 1 -2 0 0 0 0];

internalField   nonuniform List<vector> 
22672
(
(0.000184631431086 8.34809705125e-06 -0.000108110247273)
(7.22622936993e-05 5.9849331503e-05 -0.000108829367849)
(0.000111387957735 4.67326081396e-05 -0.000238944436481)
(0.000414438283823 -1.91952554615e-05 -0.0001084076293)
(0.000280716273002 3.2364686335e-05 -0.000174532264888)
(0.000336287061033 4.43615494677e-05 -0.000256048310413)
(0.000653633616208 -3.63599072683e-05 -9.53622757195e-05)
(0.00053996240391 1.25398134635e-05 -0.000189126131085)
(0.000580161106523 4.0136071594e-05 -0.000245899906916)
(0.000872492540612 -4.21124407392e-05 -7.58378620606e-05)
(0.000782493734611 4.12428463239e-06 -0.000176093851932)
(0.000804216501406 4.0250858918e-05 -0.00021788543335)
(0.00105605415556 -3.81501646603e-05 -5.50279166197e-05)
(0.000988977630221 4.975396276e-06 -0.000152992033656)
(0.000995987944356 4.38505277013e-05 -0.000184433778455)
(0.00119810752291 -2.94771783842e-05 -3.67182817594e-05)
(0.0011501465967 1.37219999741e-05 -0.000127404994353)
(0.00114772515274 5.00852523137e-05 -0.00015280969309)
(0.001303889046 -1.94294497457e-05 -2.11909805029e-05)
(0.00127166807233 2.33929187575e-05 -0.000105757289719)
(0.0012652390632 5.564445125e-05 -0.000127377355023)
(0.00136809001535 -9.28095150426e-06 -6.68301215934e-06)
(0.0013514276645 3.32044759092e-05 -8.50030967341e-05)
(0.00134663584997 6.18882574555e-05 -9.66987233581e-05)
(0.00140011130485 -1.50393408123e-06 6.48692411846e-06)
(0.00139301501701 4.70885474215e-05 -6.64717162419e-05)
(0.00139373554845 6.71662779763e-05 -7.93260347586e-05)
(0.00139225898088 2.92718498445e-06 1.99463623683e-05)
(0.00139908800254 5.57454874593e-05 -5.09355681485e-05)
(0.00140687403201 7.19090039235e-05 -4.88064456443e-05)
(0.00134872975339 4.05443075759e-06 3.49094455947e-05)
(0.00136870684992 6.20726677395e-05 -3.67109300599e-05)
(0.00138407779142 7.57748612289e-05 -1.99010382257e-05)
(0.00127218996034 2.74446302274e-06 5.04537571256e-05)
(0.0013040416498 6.60168863555e-05 -2.41562920423e-05)
(0.00132550569309 7.85723901146e-05 8.97510771474e-06)
(0.00117045218804 -8.60588717681e-07 6.3399240284e-05)
(0.00121063961473 6.75740220814e-05 -1.32995984253e-05)
(0.00123433172692 7.96245617816e-05 3.26598646654e-05)
(0.00104449823562 -5.71479104899e-06 7.21785142265e-05)
(0.0010942628865 6.52361047203e-05 -6.56625998188e-06)
(0.00111534406614 7.8134753459e-05 5.94506503574e-05)
(0.000901712474364 -1.01198985558e-05 7.62675288123e-05)
(0.000958107531072 6.16169024588e-05 -2.245949615e-06)
(0.000973178625987 7.50800345027e-05 8.02676935298e-05)
(0.000752046942332 -1.10920649426e-05 7.58178528417e-05)
(0.000812897635062 5.71037760098e-05 -2.377359583e-06)
(0.000817167431431 6.99788520512e-05 9.20742724858e-05)
(0.00059624725388 -4.59686418681e-06 7.35812714759e-05)
(0.000663253992228 5.73755412509e-05 -2.78978834842e-06)
(0.000653288696238 6.62947292922e-05 9.83091931699e-05)
(0.000429160594639 9.80069541435e-06 7.33448570314e-05)
(0.000510226185699 6.47673973492e-05 1.10676500705e-06)
(0.000483953266885 6.49829986992e-05 0.000102470998759)
(0.000237808413713 3.36695590407e-05 7.90690774897e-05)
(0.000357284724242 7.85477601119e-05 2.33690816696e-05)
(0.00031322331098 6.56124809325e-05 0.000113093249713)
(0.000143940743554 0.000105207459981 7.88924804892e-05)
(0.000109584301031 6.78555215932e-05 0.000132789299406)
(0.000154927435124 9.27845578789e-05 -0.000175251385463)
(4.59607173649e-05 0.000169942997072 -0.000112159301158)
(0.000109339373119 0.000144763280759 -0.000258611994373)
(0.000408713171548 7.17886154896e-05 -0.000255250766672)
(0.000261133882801 0.000164708968057 -0.000258160026611)
(0.000337988167244 0.000147046547388 -0.000379264301298)
(0.000674079549419 5.94310412103e-05 -0.000269857707297)
(0.000542762594584 0.000153088621085 -0.000298272892965)
(0.00058604480187 0.000138295614106 -0.000399481616353)
(0.000907597301685 5.95203844356e-05 -0.000253248023527)
(0.000799442396706 0.000149112251143 -0.000286078813453)
(0.000812587341673 0.000134614201476 -0.000372974817153)
(0.00109422599568 6.94611002329e-05 -0.000225369111389)
(0.00100912629054 0.000153529262336 -0.000255555248333)
(0.00099864083998 0.000134810904643 -0.00033082861498)
(0.00123365809968 8.37762744534e-05 -0.000196444002313)
(0.00117068035402 0.00016590902938 -0.000221383895438)
(0.00114627801354 0.000139662508916 -0.000288588162304)
(0.00133129257174 9.87360390755e-05 -0.00016956940595)
(0.00128931775519 0.00017992301085 -0.000191659873962)
(0.00126064217943 0.000146322041443 -0.000252474158111)
(0.0013879193505 0.000113510205821 -0.000144791800817)
(0.00136637480502 0.000197374479165 -0.000164753885577)
(0.0013426997985 0.000156461536614 -0.000220340602459)
(0.00140912364814 0.000125945541871 -0.000123894208509)
(0.001404511304 0.000213464506006 -0.000141008680001)
(0.00139283121133 0.000167551237878 -0.000188151974801)
(0.00139397244188 0.000136091888037 -0.000107592860577)
(0.00140738108746 0.000228044773187 -0.000122097243441)
(0.00141079361322 0.000179632991558 -0.000158476822691)
(0.00134370484147 0.000144424270925 -9.57766676968e-05)
(0.00137428433653 0.000240661516651 -0.00010782168149)
(0.0013933456155 0.000191989233262 -0.000130107161194)
(0.00126117753871 0.000149603271635 -8.79096475931e-05)
(0.00130672296863 0.000250103194707 -9.78937693855e-05)
(0.00133908936246 0.000203182907715 -0.000103503056214)
(0.00115158373786 0.000149776626068 -8.32650986911e-05)
(0.00120946200361 0.000254608576923 -9.16473048332e-05)
(0.0012499680317 0.000211134290158 -7.92710512416e-05)
(0.00102095152941 0.000145299936177 -8.09907238234e-05)
(0.00108854907082 0.00025352257587 -8.93309426517e-05)
(0.00113014757706 0.000214179471515 -5.91531004636e-05)
(0.000877510715878 0.00013801327259 -8.08908380103e-05)
(0.000949224820112 0.000248534841738 -8.98630317012e-05)
(0.000984980208667 0.000213667998249 -4.45083194414e-05)
(0.000730211096547 0.000132048611284 -8.09850007732e-05)
(0.000802447497172 0.000240595342907 -9.36116442085e-05)
(0.000823857238811 0.000210064162992 -3.67215125212e-05)
(0.000583788392675 0.000132439632584 -7.52642948172e-05)
(0.00065387373559 0.000236180201192 -9.60860299132e-05)
(0.000653858068305 0.000207205780622 -3.24803000645e-05)
(0.000434359198941 0.000140418134949 -4.88690103547e-05)
(0.00050873622888 0.000237414788694 -8.85868060473e-05)
(0.000482953556237 0.000206285245049 -2.30286849428e-05)
(0.000256205813611 0.000157421488537 2.31924846691e-05)
(0.000374683296885 0.000242345605084 -4.3500011272e-05)
(0.00031664976937 0.000207167256473 1.46765243024e-05)
(0.000168440207214 0.000249002016812 7.63330860206e-05)
(0.000114574103228 0.000204849005608 0.000112615323575)
(0.000135767056562 0.000239932638408 -0.000195067942307)
(3.00244368728e-05 0.000298458184165 -0.000105150473238)
(0.00010684337908 0.000274408211743 -0.000257359367221)
(0.000398614260951 0.000242081245645 -0.000301182152904)
(0.000250540536024 0.000318161044268 -0.00027992535391)
(0.000330235437943 0.00028218712379 -0.000408945579429)
(0.000672781233701 0.000238931655455 -0.00031449399912)
(0.0005401945699 0.000315627720113 -0.000318643377317)
(0.000574120143094 0.000270956656201 -0.000429869293358)
(0.000909410660836 0.000241038662774 -0.000288386038258)
(0.000800613012962 0.000314625063318 -0.00029614153818)
(0.00079549436108 0.000259075617769 -0.000396332467763)
(0.00109649764349 0.000250169996831 -0.000251570032381)
(0.00101016511832 0.000319518477311 -0.00025569973315)
(0.000976594953775 0.00025045887561 -0.000348598895404)
(0.00123693298383 0.000264373817478 -0.000216599767087)
(0.00117296683123 0.000332854991719 -0.000215009449384)
(0.00112477330199 0.000249190992679 -0.000304401080329)
(0.0013363017288 0.000282653884858 -0.000186844353589)
(0.00129491510943 0.000350671429612 -0.000181667557541)
(0.00124406662419 0.000254467609705 -0.000268652694845)
(0.00139539591527 0.000302153069794 -0.000160970764762)
(0.0013747151906 0.000377152534651 -0.000156060102763)
(0.00133505274148 0.000267735079939 -0.000238798119966)
(0.00141923411673 0.00031982897116 -0.000139211714933)
(0.00141516620165 0.000397601359992 -0.000130166535263)
(0.00139571964176 0.000285500561399 -0.000209047205371)
(0.00140647541023 0.00033597480186 -0.000122326064354)
(0.00142174106096 0.000418200812036 -0.000109991411254)
(0.00142387425947 0.000305469028353 -0.000179293748477)
(0.0013573404537 0.000348855191376 -0.000109938783178)
(0.00139079740437 0.000435494057622 -9.47268801948e-05)
(0.00141517440986 0.000325083197252 -0.000148061095746)
(0.00127439675879 0.000356732263801 -0.000101631426626)
(0.00132324895714 0.000447688733731 -8.3678132908e-05)
(0.00136741642932 0.000342324034912 -0.000117117785493)
(0.00116289036016 0.000358820589005 -9.77131487937e-05)
(0.00122406751697 0.000452480044616 -7.56006489665e-05)
(0.00128159459733 0.000355466116794 -8.86353642776e-05)
(0.00102895325754 0.000355631406996 -9.82032505295e-05)
(0.00109958368572 0.000451816224293 -7.55507513322e-05)
(0.00116145677915 0.000363055022615 -6.61739777252e-05)
(0.000881878640522 0.000348160935452 -0.000102583837899)
(0.000955834729587 0.000445731578785 -7.99714270981e-05)
(0.00101301117097 0.000366831064394 -5.13428748887e-05)
(0.000731457101379 0.000340176462574 -0.000108712673349)
(0.000804479600774 0.000435742922838 -8.93810356269e-05)
(0.000845766602582 0.000367702152411 -4.53310325699e-05)
(0.000584980177731 0.000335492413742 -0.000109408541143)
(0.000652719188548 0.000428003711204 -9.97221543204e-05)
(0.000667875647824 0.000369012385892 -4.54380726482e-05)
(0.000440780474823 0.000333771349907 -8.32178069646e-05)
(0.000508488897079 0.000423437336535 -0.000100508697761)
(0.000490364073484 0.00037107453362 -4.15800027384e-05)
(0.000267052327038 0.000329427186523 9.64059007942e-06)
(0.000382384130823 0.00041968707425 -5.64283882948e-05)
(0.000322609115126 0.000372422839928 -3.22463193634e-06)
(0.000182707610953 0.00040046061291 8.58591130125e-05)
(0.000117759185637 0.000363441660811 0.000115839208989)
(0.000127871226055 0.000378222822589 -0.00019000788484)
(2.40807762146e-05 0.000421508766269 -9.43743197333e-05)
(0.000107851622931 0.00039331368754 -0.000243551702978)
(0.000394865728277 0.000393987957332 -0.000297386578322)
(0.000250336379636 0.000455360268534 -0.000272969845017)
(0.000326378908117 0.000403103765597 -0.000396401787417)
(0.000671723955222 0.000394353340952 -0.000300290916377)
(0.000541336541107 0.000455668597369 -0.000302020797556)
(0.000560872967872 0.000385965098448 -0.000409706684012)
(0.000909197849879 0.000396979570639 -0.000263455233072)
(0.000802784400067 0.000454319764219 -0.000268790785778)
(0.000776169565712 0.000366675181493 -0.000371139230958)
(0.00109735993057 0.000406609107968 -0.000219139150153)
(0.00101265440262 0.000458692651738 -0.000219853895662)
(0.000955389471278 0.000353082571913 -0.000322819501622)
(0.00124116460054 0.000423860833619 -0.000180077239838)
(0.00117920174059 0.000472619008095 -0.000173074655966)
(0.00110791740339 0.000350947873096 -0.000280758277116)
(0.00134829147781 0.000446710009605 -0.000150883306715)
(0.00130570719697 0.000495536463318 -0.000137954939679)
(0.00123631925149 0.000359746477243 -0.00025091250591)
(0.00140523754946 0.00047223747493 -0.000125255873265)
(0.00138917124575 0.000519094591791 -0.000110778312993)
(0.00133792773794 0.000379319256658 -0.000199391823301)
(0.00143490929562 0.000496971583322 -0.000100946231585)
(0.00143327276711 0.000550236559541 -8.37524952764e-05)
(0.00140881302506 0.000404967179261 -0.000184100167052)
(0.00142549210767 0.000518147263459 -8.23922270952e-05)
(0.00144231501584 0.000576702471911 -6.2163499e-05)
(0.00144610975994 0.000432090656179 -0.000151776796506)
(0.00137744024602 0.000533846456449 -6.84662299244e-05)
(0.00141206299014 0.000597262306577 -4.51926321919e-05)
(0.00144401200194 0.000456840671605 -0.000116874772591)
(0.0012918127112 0.000542648848809 -5.7647355249e-05)
(0.00134285706816 0.000610738320382 -3.25573386586e-05)
(0.00139990880922 0.000476921997109 -8.06205715165e-05)
(0.00117743238454 0.000544253348461 -5.3438251505e-05)
(0.00123952540124 0.000616996788886 -2.39691051628e-05)
(0.00131384100574 0.000490888085884 -5.30012828482e-05)
(0.0010380773406 0.000539534112956 -5.73189279008e-05)
(0.00110916718559 0.000615095240419 -2.54553369379e-05)
(0.00119072036337 0.000499408333222 -2.61764791066e-05)
(0.00088547007252 0.000529947125191 -6.67686248256e-05)
(0.000959546900527 0.000607170968685 -3.35034053267e-05)
(0.00103774944295 0.000503867258435 -1.0325205926e-05)
(0.000730604551562 0.000519466092689 -8.03905165987e-05)
(0.00080269883978 0.000595589923339 -4.94680540009e-05)
(0.000864062862482 0.000505799381769 -5.7181609038e-06)
(0.000582279939498 0.000511366766166 -9.08223109386e-05)
(0.000647047618222 0.000586103978991 -6.83815868227e-05)
(0.000678719950069 0.000509111960883 -9.89647185192e-06)
(0.000440101016483 0.000504539261432 -7.37192790916e-05)
(0.000502546417529 0.00057896404482 -7.93096536854e-05)
(0.000494473789149 0.000513846634145 -1.30740937261e-05)
(0.000270996220375 0.000485773187679 1.97901346383e-05)
(0.000378627205763 0.000571779868272 -4.38198926593e-05)
(0.000321666295654 0.000518025865039 1.74555801041e-05)
(0.000186132320078 0.000535590821157 0.000102146579828)
(0.000116055510334 0.000503826892387 0.000136141567877)
(0.000128427780311 0.000498157167623 -0.00017733627991)
(2.65806696106e-05 0.000529643770821 -8.43839783633e-05)
(0.000110966185367 0.000497634239815 -0.000228770853759)
(0.00039768834586 0.000516525684766 -0.00027760406425)
(0.0002576983631 0.000566374790341 -0.000256556495539)
(0.000324341954952 0.000500813232112 -0.000372084895516)
(0.00067480562175 0.000515411538765 -0.000270520666957)
(0.000547465698883 0.000565600322561 -0.000276637581364)
(0.000549081102096 0.00047623656255 -0.000379553878544)
(0.000913253765067 0.000516424384128 -0.000225189448368)
(0.000810116170443 0.000562717668344 -0.000235968068164)
(0.000760788302184 0.00045159962367 -0.00034066976532)
(0.00110404815055 0.000527261435599 -0.000173789401475)
(0.00102340700644 0.000566939013649 -0.000179858581334)
(0.000942187572272 0.000436548256867 -0.000294585634004)
(0.00125554481114 0.000547624448967 -0.000130952355807)
(0.00119447354411 0.000586543708389 -0.000129698332173)
(0.00110277898973 0.000436577545549 -0.000262916707716)
(0.00136137221179 0.000572930846602 -9.7849945957e-05)
(0.00132417908233 0.000608872084749 -9.1226070206e-05)
(0.00124134835109 0.000450644618189 -0.000218639535038)
(0.00142856990252 0.000602695408652 -6.92749350045e-05)
(0.0014117886764 0.000639054844288 -5.84080292237e-05)
(0.00135338609051 0.000476215472513 -0.000188437238358)
(0.00145862115813 0.00063255954244 -4.49697626916e-05)
(0.00145907923069 0.000671401079294 -3.03928269401e-05)
(0.00143299042334 0.000508232364727 -0.000153940518369)
(0.00144893744846 0.000656697896155 -2.49639040968e-05)
(0.00146703327871 0.000699212081876 -6.57920168991e-06)
(0.00147529808642 0.000539849755628 -0.000116520199801)
(0.00139861866814 0.000673406384139 -9.28374092611e-06)
(0.00143415998029 0.000719715935238 1.16414377101e-05)
(0.001475121247 0.000566694210583 -7.6274388256e-05)
(0.00130977775237 0.000682032420233 1.12091142759e-06)
(0.0013606420003 0.000731671574084 2.52657902951e-05)
(0.00142999235478 0.000586549331505 -3.61699516575e-05)
(0.00118813106457 0.000682618068136 4.01380940426e-06)
(0.00125093534148 0.000735132395206 3.27429821386e-05)
(0.00134120259065 0.000598856057306 -7.27197092599e-08)
(0.0010420323268 0.000676250748579 -1.63981436381e-06)
(0.00111293872191 0.000731273676423 3.07668127788e-05)
(0.00121373001045 0.000605742482838 2.71359367999e-05)
(0.000883353237654 0.000665246423555 -1.62028345019e-05)
(0.000956326781773 0.000722357153575 1.93429510921e-05)
(0.00105485140963 0.000608667627775 4.16498788926e-05)
(0.000723735110022 0.000653848032681 -3.74591242249e-05)
(0.000793907437707 0.000709852250026 -2.57125144107e-06)
(0.000874916590698 0.000610257143223 4.44217823271e-05)
(0.00057314657103 0.000644976930818 -5.68689295695e-05)
(0.000634782733668 0.000699856618098 -2.92780836337e-05)
(0.000683423203286 0.000614286464523 3.66276294897e-05)
(0.000432045716111 0.000637240344755 -4.9410267253e-05)
(0.000490388773885 0.000692302996981 -4.8602507879e-05)
(0.000494240753284 0.00062134637986 2.80136934954e-05)
(0.000269433169654 0.000613219428139 3.85365525302e-05)
(0.00036629566404 0.00068441046497 -2.18678022391e-05)
(0.000315973062035 0.000629687599317 5.04292288711e-05)
(0.000180710621258 0.000643005308227 0.000120165459276)
(0.000110637716076 0.000617748570894 0.000162286738901)
(0.000135173296666 0.00059669359399 -0.000163604193992)
(3.27670870803e-05 0.000620671051064 -7.83294128363e-05)
(0.000115620605042 0.000585461899328 -0.000218062420528)
(0.000406312343334 0.000614196526735 -0.000255590012652)
(0.000267171307027 0.000654550327167 -0.00023988949943)
(0.000324771782582 0.000583089376096 -0.000350821414414)
(0.000683962941944 0.000611439826352 -0.000242084982571)
(0.000555951113414 0.00065246257114 -0.000253924759528)
(0.000541999150887 0.000555363624431 -0.000356818554665)
(0.000925024531365 0.000612847382699 -0.000190637201129)
(0.000822537165567 0.000648786994012 -0.000208974511159)
(0.000754028962914 0.000530320958881 -0.000320919585851)
(0.00112439444679 0.00062493340656 -0.000135767512031)
(0.00104142827555 0.000657841592551 -0.000149704657021)
(0.000941091958658 0.000518111176147 -0.000286002613083)
(0.0012755346607 0.000645699691762 -8.99720465719e-05)
(0.00121614252808 0.000673386769167 -9.6901776757e-05)
(0.00111071352024 0.000522182314993 -0.000235920957437)
(0.00138644134111 0.000673389535491 -5.17841534727e-05)
(0.00135028886955 0.000698827501851 -5.3307576983e-05)
(0.00125989097395 0.000541357124853 -0.000201039462273)
(0.00145682364025 0.000705122826942 -1.95259211593e-05)
(0.00144056558983 0.000730697097721 -1.47505386286e-05)
(0.00138010518947 0.000571591738694 -0.000164223662399)
(0.0014858852031 0.00073450752371 7.99773406158e-06)
(0.00148755763976 0.000762209255748 1.56644022271e-05)
(0.0014641373394 0.000606024746914 -0.000123658339541)
(0.00147276263468 0.00075755491568 3.0026140117e-05)
(0.0014918647111 0.000787555429205 3.95819343416e-05)
(0.00150689094123 0.000637585397124 -8.00277046436e-05)
(0.00141732313077 0.000772554087865 4.61909689312e-05)
(0.00145358805531 0.000804753634998 5.99734498415e-05)
(0.00150424980701 0.000662417448553 -3.4803199328e-05)
(0.00132200927979 0.000778624687081 5.68878610061e-05)
(0.00137381818943 0.000812770639659 7.62229936702e-05)
(0.00145449327601 0.000678721338528 9.19758082598e-06)
(0.00119250710236 0.000776720484071 5.94959855132e-05)
(0.00125638505369 0.000812299795132 8.23418708078e-05)
(0.00136002289211 0.000686864624098 4.79861088732e-05)
(0.00103885886576 0.000769124972431 5.17495782347e-05)
(0.0011109080543 0.000805454308227 7.95372658482e-05)
(0.00122646463514 0.000689361750564 7.61077295698e-05)
(0.000873366715552 0.000757642281572 3.29745341529e-05)
(0.000947594439345 0.000794796825398 6.55153375561e-05)
(0.00106176220946 0.000688918000216 9.08093056753e-05)
(0.00070954727116 0.000746097403736 5.60978915007e-06)
(0.000780073870429 0.000781744047237 3.92962732631e-05)
(0.000876406233158 0.000688144843078 9.07356303342e-05)
(0.000557468612412 0.000737543947723 -2.10116619432e-05)
(0.000618896033336 0.000771953550713 6.91463738283e-06)
(0.000680387021058 0.000691193359686 7.9617905011e-05)
(0.000417869717024 0.000730109500534 -2.1060042865e-05)
(0.000475539636454 0.000764868934529 -1.83749782658e-05)
(0.000488792241494 0.000698480086775 6.71902903681e-05)
(0.000261438162289 0.000705451280633 5.9761104507e-05)
(0.000351669046367 0.000757366970803 1.34887879736e-06)
(0.000306885595182 0.00070856035641 8.38493797361e-05)
(0.000172048479144 0.000718234312813 0.000134756107441)
(0.000103346590786 0.000699709101185 0.000186416614679)
(0.00014095011421 0.000679513452653 -0.000154614718274)
(3.96766314344e-05 0.000701296988056 -7.52047769912e-05)
(0.000118511837494 0.000664474637172 -0.000213220928949)
(0.000413857320901 0.000693043797428 -0.000238224246306)
(0.000275421908601 0.000727417115633 -0.000224923161581)
(0.000324752193447 0.000657678056354 -0.000337124668865)
(0.000693848571139 0.000688974487335 -0.000220814288116)
(0.00056404861352 0.00072450307734 -0.000235924514465)
(0.000538457320223 0.000631491898688 -0.000344283545357)
(0.000943370213855 0.000691265756115 -0.000168041967051)
(0.000837438046295 0.000719130296628 -0.000188001868561)
(0.000754309713017 0.000610720467492 -0.000313755150229)
(0.00114430676626 0.000704498292158 -0.000110838921747)
(0.00106289705543 0.000728896807345 -0.00012954588881)
(0.000949528554723 0.000603584585612 -0.000268030920942)
(0.00130199525805 0.000725982463052 -6.02373071681e-05)
(0.00124150809896 0.000746236448349 -7.2756564577e-05)
(0.00112900252653 0.000612943187097 -0.000229022820852)
(0.00141654237782 0.000754450518439 -1.62739621389e-05)
(0.00137996682962 0.000771256871332 -2.34573962104e-05)
(0.00128715526565 0.000636022865664 -0.000187932085864)
(0.00148660919582 0.00078533253644 2.04397847578e-05)
(0.00147117108639 0.000800055344211 1.79954033319e-05)
(0.00141228947441 0.000667162125849 -0.000142586585961)
(0.00151231118247 0.000812813857355 4.72486025071e-05)
(0.00151486068199 0.000827738348168 4.8982632012e-05)
(0.00149718899737 0.000700814857635 -9.6087240866e-05)
(0.00149382772464 0.000831718706094 6.95292440662e-05)
(0.00151265296723 0.000848142545177 7.29662152097e-05)
(0.00153612007492 0.000728417704579 -4.79904158882e-05)
(0.00143186900888 0.000840602832018 9.00054745805e-05)
(0.00146689405083 0.000858573242681 9.48863983502e-05)
(0.00152730962678 0.00074695597217 1.92739089891e-06)
(0.00132848438327 0.000841312042516 0.000101677003472)
(0.00137974980069 0.000860126710711 0.000113325078406)
(0.00147102114682 0.000755760898354 5.01389613463e-05)
(0.00119174042492 0.000835486964646 0.000102383151143)
(0.00125569335374 0.000855380654334 0.000121213573909)
(0.00136970654521 0.000757403448202 8.86048273558e-05)
(0.0010315501852 0.000824988361261 9.33030251697e-05)
(0.00110361380339 0.000845349913889 0.000116453273084)
(0.00123018678121 0.000753891397713 0.000116386817791)
(0.000860780734892 0.00081229678762 7.18370766663e-05)
(0.000935593059222 0.000833144745158 0.000101036624547)
(0.00106063222003 0.000748507143796 0.000129770465329)
(0.000694343883407 0.00080041445969 4.06011214958e-05)
(0.000764456735058 0.000820264239522 7.19161901537e-05)
(0.00087157532986 0.000743791415816 0.00012642830599)
(0.000541916496958 0.000791818912286 9.55132106027e-06)
(0.000602735373386 0.000810103645709 3.67805324817e-05)
(0.000673543254059 0.000744285820577 0.000113697368156)
(0.000404620823089 0.000785010741214 4.03394339657e-06)
(0.000461666475684 0.000803495213048 7.52830363543e-06)
(0.000481477020318 0.000749146390102 9.86588029362e-05)
(0.00025387586695 0.000765236837726 7.63438817315e-05)
(0.000341178592938 0.000797241365756 2.19808983589e-05)
(0.000298665806625 0.000758086890219 0.000111091319496)
(0.000165490458577 0.000772243236102 0.000140410853909)
(9.79193354226e-05 0.000752022346877 0.000199961580387)
(0.000147635264409 0.000747366422771 -0.000145513220298)
(4.87101764227e-05 0.000761348014166 -6.80006157831e-05)
(0.000121585888518 0.000736194438749 -0.000199280414545)
(0.00042231687257 0.000759577446972 -0.00022262342974)
(0.000285112266204 0.000787116814037 -0.000210301874559)
(0.000326517377084 0.000728967347143 -0.000325754101019)
(0.000703179861699 0.000758313738675 -0.000203112094909)
(0.000574288627959 0.000787378363369 -0.000221523611204)
(0.000540154924281 0.000708902789842 -0.000336101568825)
(0.000964988695702 0.000760619899073 -0.000149505790319)
(0.000852334266688 0.000792014285607 -0.000175271141696)
(0.000761768267881 0.000695218535642 -0.000328822675296)
(0.00116919819741 0.0007712012378 -9.14635316397e-05)
(0.00108287130584 0.000793073798242 -0.00011461734082)
(0.000965342715442 0.000693268907938 -0.000264832384621)
(0.00133121178719 0.000790623090904 -3.59766536194e-05)
(0.00126678030807 0.00080686876458 -5.46064474927e-05)
(0.00115347439133 0.000705756404982 -0.000221721429584)
(0.00144650419063 0.000815791120502 1.08119692603e-05)
(0.00140802362257 0.000826779138416 -2.90369357229e-07)
(0.00131733427055 0.000728431486563 -0.000172528206882)
(0.00151496951945 0.000841853036356 4.65382505859e-05)
(0.00149851282502 0.000849793011708 3.99365506969e-05)
(0.00144481941521 0.000756558186269 -0.000122238550744)
(0.00153400771251 0.000862349216904 7.47002447144e-05)
(0.00153640317774 0.000869880300005 7.31801466526e-05)
(0.00152611567164 0.00078389141948 -6.69534704441e-05)
(0.00150724562076 0.00087383244692 9.83233694937e-05)
(0.00152593436191 0.000881844289563 9.89798478267e-05)
(0.00155787386352 0.000803263465481 -1.37118738978e-05)
(0.00143706328297 0.00087632347407 0.000118206002176)
(0.00147204995677 0.000884781285762 0.000119778606079)
(0.00154108911911 0.000813495790856 3.69672382651e-05)
(0.00132752298872 0.000871244935477 0.000132861648843)
(0.00137755313296 0.000880132878712 0.000136505978205)
(0.00147688063854 0.000814691538666 8.29706524024e-05)
(0.00118441901569 0.000861401341706 0.00013528369585)
(0.00124845932241 0.00087012428835 0.000147173748644)
(0.00136991548626 0.000808856756315 0.000122753045977)
(0.00101955507047 0.000849213295404 0.000124186872462)
(0.00109212102381 0.000857953512204 0.000141971889094)
(0.00122523903933 0.000799891930078 0.000147911351235)
(0.000845821172971 0.000836124755398 0.000101115738035)
(0.000921295337866 0.00084433744451 0.000125750652502)
(0.00105241752115 0.000789974346198 0.000159534950991)
(0.000677944303802 0.000824271777826 6.80956011395e-05)
(0.000748186738588 0.000831260914564 9.54042521472e-05)
(0.000861759000089 0.000781516655055 0.000155102171574)
(0.00052690923074 0.00081589923876 3.47575150569e-05)
(0.000587416934649 0.000820006371327 5.94257841369e-05)
(0.000663246645179 0.000777747325668 0.000140310967024)
(0.000393045497665 0.000809359405398 2.54752585977e-05)
(0.00044963882217 0.000814059090122 2.84903275888e-05)
(0.000472526795156 0.000779531322808 0.000123075839131)
(0.000252022420724 0.000792175039815 8.60478705365e-05)
(0.000332253308095 0.000805927314795 4.01942856036e-05)
(0.000291621489675 0.000784739674619 0.000132348128445)
(0.000158916387617 0.000777344540602 0.00014421236416)
(9.36535078373e-05 0.000778447896571 0.000246870594388)
(0.000159492328141 0.000804537396774 -0.000132789270044)
(5.62316784545e-05 0.000827223741714 -5.94848545145e-05)
(0.000124197401165 0.00080030107554 -0.000217094618457)
(0.000431955006167 0.000813096255498 -0.000209202056023)
(0.000292792231568 0.000835790318047 -0.000197121343772)
(0.00032951669948 0.000794873124151 -0.000312718212074)
(0.00072020409098 0.000814557570787 -0.000193682657991)
(0.000584126260582 0.000836034938435 -0.00020978633441)
(0.000545218729278 0.000783616616254 -0.000329543111848)
(0.000976569951341 0.000817326858175 -0.000140382692196)
(0.000864320400238 0.000838031563358 -0.000167232662225)
(0.000772323165479 0.000778131224945 -0.00029686978441)
(0.00119038534707 0.000824791078962 -7.77602566726e-05)
(0.0010974071186 0.000842192201159 -0.000104425168716)
(0.000982799431371 0.000779559900597 -0.000259837062248)
(0.0013558793477 0.00083950425465 -1.89201632306e-05)
(0.00128547286162 0.000852618891434 -3.92724187184e-05)
(0.00117729450897 0.000793220141741 -0.000210876003308)
(0.00147103578106 0.000857266380117 2.88342120793e-05)
(0.00142876892958 0.000865381183313 1.39892332475e-05)
(0.00134443945737 0.000811993608696 -0.000156099764585)
(0.00153609281104 0.000873768892472 6.65784467636e-05)
(0.00151621745222 0.000878042773658 5.60164491955e-05)
(0.00147058783774 0.000831581969961 -9.79934764455e-05)
(0.00154721776992 0.000884548348381 9.74597497649e-05)
(0.00154805859664 0.000886901722798 9.25074799597e-05)
(0.00154634656469 0.000848654860479 -3.45409147624e-05)
(0.00151208307808 0.000887585607944 0.000120435084412)
(0.00153008828631 0.000889048269589 0.000117729939992)
(0.00156978847218 0.000857731692191 2.06095611238e-05)
(0.00143439002029 0.000883504914226 0.000138078582107)
(0.00146947801269 0.000884684196107 0.000136842955552)
(0.0015449517776 0.000858853051204 7.03270545397e-05)
(0.00131947355075 0.000874115839083 0.000150818078005)
(0.00136973790627 0.000875273536935 0.000151151033301)
(0.00147370920281 0.000852721102268 0.000112845626963)
(0.00117291534053 0.000861610991006 0.000153861941887)
(0.00123681998501 0.000862525067769 0.000160122864842)
(0.00136150899452 0.000841345999509 0.000148251409848)
(0.00100547120736 0.000847993975577 0.000143535669134)
(0.00107919626093 0.000848648943841 0.000157502178547)
(0.00121411541689 0.000828027297458 0.000172143464745)
(0.00083044916781 0.000834872228963 0.000120039166614)
(0.000907384281431 0.000834588360988 0.000140725454315)
(0.00103962085886 0.000814496412338 0.000181531241921)
(0.000661795748889 0.000823687119703 8.67344351446e-05)
(0.000734296683148 0.000822378151824 0.000110322796124)
(0.000848291161776 0.000802809963429 0.000175538817658)
(0.000515651626756 0.000815015929312 5.31585966687e-05)