/*--------------------------------*- C++ -*----------------------------------*\
| =========                 |                                                 |
| \\      /  F ield         | OpenFOAM: The Open Source CFD Toolbox           |
|  \\    /   O peration     | Version:  3.0.1                                 |
|   \\  /    A nd           | Web:      www.OpenFOAM.org                      |
|    \\/     M anipulation  |                                                 |
\*---------------------------------------------------------------------------*/
FoamFile
{
    version     2.0;
    format      ascii;
    class       volScalarField;
    location    "3.9";
    object      epsilon;
}
// * * * * * * * * * * * * * * * * * * * * * * * * * * * * * * * * * * * * * //

dimensions      [0 2 -3 0 0 0 0];

internalField   nonuniform List<scalar> 
7968
(
0.000418025527836
0.000486404398673
0.000541816271316
0.000576243273514
0.000595310834769
0.000604237641079
0.000607014469145
0.000606571926234
0.000605578403405
0.000604760540398
0.00060535878451
0.000606641427474
0.000608114030342
0.000608283774801
0.000604915965214
0.000595337860528
0.000575767191643
0.000541106325597
0.000485803406813
0.000417771201583
0.000486342210209
0.000812824969084
0.00106370996627
0.00122761115648
0.0013277570244
0.00138305303704
0.00140888067874
0.00141745098109
0.00141843017788
0.00141845602467
0.00142084650896
0.00142461165257
0.001425505617
0.00141672337256
0.00138910016391
0.00133118357757
0.00122851831597
0.0010628982212
0.000811547606179
0.000485738562987
0.000541756766476
0.00106381416112
0.00147377018876
0.00174887020642
0.00192303065533
0.00202430024988
0.00207616202618
0.00209811617352
0.0021054832009
0.00210856054516
0.00211221913569
0.00211539016126
0.00211165493379
0.00209016719093
0.00203586588184
0.00193050627658
0.00175211283689
0.00147383434444
0.00106254514058
0.000540912056373
0.000576351746503
0.00122824843534
0.00174949275598
0.00210458662799
0.00233313790436
0.00246918665977
0.00254235555422
0.00257853118261
0.00259917687683
0.00260817989738
0.00261142109099
0.00260826938793
0.00259571673348
0.00256305951441
0.00248772112463
0.00234637393395
0.00211174485016
0.00175166255782
0.00122776413195
0.000575407618814
0.000595683819979
0.00132904739668
0.00192430975999
0.00233370191049
0.00259953580342
0.00276130176025
0.00286432011063
0.00292001080329
0.00294610155325
0.00295717750622
0.00296088694978
0.00295640766496
0.00293500154109
0.0028818974035
0.00278677811299
0.00261993018166
0.00234624162345
0.0019297576561
0.00133009031083
0.000594798172131
0.000604861998219
0.0013847221157
0.00202573582817
0.00246961636163
0.00276094020351
0.00295814663567
0.00307639915522
0.0031378686517
0.0031656898888
0.00317732316296
0.00318160093886
0.00317759460886
0.00315505941062
0.00309613389756
0.0029788419937
0.00278792172244
0.00248833915428
0.00203531699213
0.0013879090334
0.000604214313345
0.000607787029485
0.0014103875704
0.00207690584419
0.00254151805938
0.0028618930707
0.00307482638868
0.00319859447449
0.00326111747703
0.0032882823544
0.0032994384822
0.00330436914655
0.00330195777664
0.00328086384099
0.00322130032189
0.00309796397475
0.00288437278059
0.00256588477871
0.00209084090982
0.00141600643461
0.000607517830916
0.00060731687885
0.00141813099588
0.00209715293654
0.00257440420067
0.00291539965885
0.0031341289548
0.00325886556747
0.00331991195278
0.00334511665314
0.00335532860654
0.00336102837963
0.00336078013877
0.00334234084331
0.00328452717953
0.00316029589632
0.00294060092572
0.00260247519158
0.0021149710882
0.00142614162655
0.000607519949936
0.000606019627713
0.00141752199971
0.0021018669622
0.00259212946296
0.00293890268561
0.00315920135643
0.00328305849202
0.0033419519171
0.00336513285888
0.00337454593961
0.00338112507605
0.00338290742995
0.00336700342224
0.003311387462
0.0031879715848
0.0029664454781
0.00261746485749
0.00212282151727
0.00142764495233
0.000606822083404
0.000604718307042
0.00141531192245
0.00210162061853
0.0025985021726
0.00294721103939
0.00316782450768
0.00329092128091
0.00334855395663
0.00337066174897
0.00337979560545
0.00338711813669
0.00339009835031
0.00337555286226
0.00332114848531
0.00319835017335
0.00297642115862
0.00262528975693
0.00212470814598
0.00142687465929
0.000605991082228
0.000604579756677
0.00141536227589
0.0021020333027
0.00259947042985
0.00294854720326
0.00316955158446
0.00329312445125
0.00335134542287
0.00337412654247
0.0033837611034
0.00339114065207
0.00339389537528
0.00337892774913
0.00332397396163
0.00320059935186
0.00297815374494
0.00262664076468
0.00212572391816
0.00142730444962
0.000605774639054
0.000605633959811
0.00141756565525
0.00210290923925
0.00259479474493
0.002942658922
0.00316408253337
0.00328927859819
0.00334976573527
0.00337465236348
0.00338534712931
0.00339227375758
0.00339354865865
0.00337648002889
0.00331928616761
0.00319418602389
0.00297116887088
0.00262159289007
0.00212518718277
0.0014286083953
0.000606547450613
0.000606804580913
0.00141792723171
0.00209828827806
0.00257794688478
0.0029208785665
0.00314140573526
0.0032681973581
0.00333159123914
0.00335918072875
0.0033711953055
0.00337753321201
0.00337663176321
0.00335643457659
0.0032961404779
0.0031692197981
0.00294714893443
0.00260757300176
0.00211698995371
0.00142657233208
0.000607022572983
0.000607135725468
0.0014096526778
0.00207747478526
0.00254517998367
0.00286813244016
0.00308339471647
0.00320975200459
0.00327513606853
0.00330510464271
0.00331837026484
0.00332410454116
0.00332093582482
0.00329764867291
0.00323489523054
0.00310806749596
0.00289149334644
0.00256922211623
0.00209056884143
0.00141469052526
0.000606447441877
0.000604080694989
0.00138333793313
0.00202528316453
0.00247218204825
0.00276775427295
0.00296685118682
0.0030879656245
0.003152594838
0.00318345031915
0.00319735579602
0.00320252641995
0.00319769590228
0.00317269939933
0.0031101801402
0.00298887972589
0.00279409761408
0.00248813684936
0.00203161145313
0.00138421056765
0.000602497059716
0.000594873565213
0.00132717292397
0.00192278544492
0.00233459535582
0.00260443126199
0.00277083403599
0.00287514623475
0.00293401259647
0.00296312758305
0.00297652799877
0.00298116954188
0.00297593721238
0.0029522396595
0.00289643303584
0.00279708614821
0.00262202721661
0.00234199642871
0.00192272128524
0.00132423199826
0.000592568388555
0.000575633633244
0.00122625524761
0.00174728512065
0.00210389244161
0.00233544802686
0.00247560637273
0.00255336298801
0.00259254524197
0.00261421643348
0.00262544255695
0.00262968397248
0.00262772278722
0.00261535907666
0.00257659414702
0.00249346710121
0.00234451011803
0.00210456182471
0.00174265881629
0.00122080457071
0.000572995527419
0.000541194202163
0.00106203627614
0.00147141550546
0.0017471696996
0.00192314679704
0.00202723698402
0.00208261065745
0.00210830083796
0.0021191743392
0.00212486205689
0.00212962030675
0.00213185714385
0.00212497003305
0.00209818316244
0.00203755990564
0.00192633069097
0.00174407435637
0.00146489265676
0.00105591574811
0.000538715308982
0.000485971154612
0.000811542971169
0.00106181826524
0.001225836638
0.00132682674012
0.00138364610855
0.00141150324468
0.001422388477
0.00142559658155
0.00142726396813
0.0014302851509
0.00143343619688
0.00143225917668
0.00142014815283
0.00138860888571
0.00132710212935
0.00122219584872
0.0010562910838
0.000806760510158
0.000484171763287
0.000417871170128
0.000485949700681
0.000541103918362
0.000575424119799
0.000594545689525
0.000603699906921
0.000606849223596
0.000606882074113
0.000606303156428
0.000605787595805
0.000606340380269
0.000607475929652
0.000608499551956
0.000607883187332
0.000603634830817
0.000593306259876
0.000573355031683
0.000538815089067
0.00048417171651
0.000417143169028
0.000483276865567
0.00079273476823
0.00103540206403
0.00119793927249
0.00130100591164
0.0013617973252
0.0013938964706
0.00140812751292
0.00141234387395
0.001413718766
0.00141597272361
0.00141795372493
0.00141486352734
0.00140071581268
0.00136765784502
0.00130532267577
0.00120062861321
0.00103672625406
0.000793076846889
0.000482908621812
0.000792560458765
0.000973271062097
0.00119061240498
0.00134907203679
0.00145419000357
0.00151867774337
0.00155465215338
0.00157241310981
0.0015800269968
0.00158315970759
0.00158459707036
0.00158393633282
0.00157783764291
0.00156056513992
0.00152416881513
0.00145868365441
0.0013523451923
0.00119268993764
0.000974340163048
0.000793045466704
0.00103506597399
0.00119044828663
0.00143590873726
0.00162399355178
0.00175332339683
0.00183543564919
0.00188320835625
0.00190833775839
0.00192017622328
0.0019252501667
0.00192679611965
0.00192450436927
0.00191462535081
0.00189046416898
0.00184257448419
0.00175958075193
0.00162896079336
0.00143943640423
0.00119258674826
0.00103646985055
0.00119753379461
0.00134875647318
0.00162378093968
0.00184003086143
0.00199205067127
0.00209093419209
0.00215042822635
0.00218358159876
0.00220054889289
0.0022077973497
0.00220907753375
0.00220424510609
0.00218962532338
0.0021584195684
0.00209944191629
0.00200000912837
0.00184674192727
0.00162887297919
0.00135212409082
0.0012000993293
0.001300497352
0.00145361729944
0.00175274289593
0.00199164366092
0.00216222057377
0.0022757886487
0.00234730198731
0.00238764731176
0.00240770439839
0.00241599038986
0.00241709378059
0.00241087591321
0.0023925762995
0.0023538201833
0.00228457353163
0.00217155221901
0.00200010388824
0.001759540773
0.00145842481262
0.0013045921136
0.00136099326824
0.00151764845283
0.00183426004579
0.00208987951269
0.0022751291194
0.00240211581345
0.00248131377794
0.00252521274668
0.00254637817588
0.00255478354724
0.00255577375061
0.00254919421901
0.00252949934652
0.00248693398996
0.00240944018365
0.00228499740941
0.0020999688649
0.00184287399657
0.00152408898851
0.00136695416309
0.00139251894193
0.00155292812988
0.00188118827603
0.00214848304065
0.00234580109619
0.00248060661597
0.00256344063029
0.00260820800977
0.00262892835058
0.00263679459368
0.00263779426263
0.00263171145155
0.00261231583084
0.00256872206508
0.00248744922914
0.00235482693791
0.00215983729691
0.00189157357152
0.00156106128446
0.00140049375515
0.00140586651348
0.00156976035338
0.00190524733482
0.00218050416963
0.00238536337278
0.00252389471627
0.00260763802826
0.00265158961369
0.00267098188412
0.00267800731196
0.00267915329822
0.00267409132296
0.00265600070228
0.00261308972437
0.00253085154736
0.00239460836392
0.00219245061087
0.0019171453173
0.00157946248361
0.00141577552724
0.00140885267301
0.00157625299888
0.00191589585402
0.0021964911441
0.00240475156456
0.00254455687748
0.002627878514
0.00267046469855
0.00268842892169
0.0026946863983
0.00269605163218
0.00269206086343
0.00267545043862
0.00263379543744
0.00255188630042
0.00241438532301
0.00220860080959
0.00192901583729
0.00158724792539
0.00142040880842
0.00140846744282
0.00157816322838
0.00191979342149
0.00220296300874
0.00241254878342
0.00255263464437
0.00263543274082
0.00267710073414
0.00269422020536
0.00270007616979
0.00270162776415
0.00269830328157
0.00268260810049
0.00264180215762
0.00256033120952
0.00242255532621
0.00221553569886
0.0019337053878
0.00158999209236
0.00142104302289
0.00140886709085
0.00157851613811
0.00192036797245
0.00220374241909
0.00241345738597
0.00255362677919
0.00263650801249
0.00267829191593
0.00269555820477
0.00270154387388
0.00270315165
0.0026998066932
0.00268402828099
0.00264310041565
0.00256149701028
0.00242359705993
0.00221645819232
0.00193447809546
0.00159054372183
0.00142146396544
0.00140989916371
0.00157722006406
0.00191750336406
0.00219868664892
0.00240733292477
0.00254738946293
0.00263095369957
0.00267386637819
0.00269223533451
0.00269885796269
0.00270040752541
0.0026963770837
0.0026795314434
0.0026375149271
0.00255520479551
0.00241732403046
0.00221119638843
0.00193105393038
0.001588649107
0.00142154088364
0.00140714718709
0.00157108258297
0.00190754482244
0.0021837148354
0.00238922556558
0.00252819323406
0.00261234464543
0.00265681494216
0.0026768286065
0.00268441960415
0.00268587827668
0.00268077868848
0.00266232055934
0.0026188178411
0.00253589879653
0.00239898274631
0.00219616381571
0.00191976194767
0.00158106806187
0.00141691919129
0.00139370624316
0.00155427974238
0.0018837241505
0.00215225734287
0.00235043353467
0.00248588047723
0.0025693213243
0.0026148096546
0.00263634988246
0.00264495256523
0.00264637414326
0.0026402535046
0.00262036775232
0.00257595392471
0.0024936992156
0.0023600382639
0.00216372600378
0.00189392846089
0.00156215323554
0.00140095296094
0.00136185682935
0.0015187662777
0.00183660949383
0.00209361431709
0.00228005584496
0.00240786569047
0.00248789976526
0.00253275052543
0.00255493577345
0.00256423069097
0.00256572730351
0.00255909887422
0.00253879731676
0.00249518987813
0.00241638884589
0.00229040542098
0.00210325873951
0.00184435078267
0.00152422091425
0.00136626309024
0.00130097655661
0.00145438287098
0.00175461324995
0.00199484797169
0.00216684714977
0.00228164033419
0.00235412780646
0.00239564316979
0.00241690047174
0.00242621439773
0.00242789562465
0.00242163885155
0.00240268810673
0.00236272789074
0.00229180467674
0.00217619986492
0.00200231775713
0.00175994520901
0.00145761050179
0.00130289417181
0.00119772258078
0.00134918756596
0.00162505025477
0.00184238440529
0.00199572196353
0.00209609687008
0.00215714514573
0.00219155419262
0.00220973289498
0.00221812154714
0.00222005385898
0.00221535222867
0.00220035096766
0.00216724645547
0.00210563342271
0.00200339777516
0.00184781540021
0.00162841444241
0.00135077014529
0.00119799900872
0.00103507232752
0.00119060960119
0.00143657454016
0.00162538614408
0.00175571742988
0.00183913210625
0.00188846116229
0.00191525379511
0.00192872118937
0.00193509336598
0.00193731613819
0.0019348208335
0.00192379793116
0.00189755665576
0.00184707654296
0.0017615718822
0.0016290622299
0.00143848943895
0.00119121908934
0.00103468893405
0.000792440450886
0.00097321825881
0.00119074022369
0.00134956759732
0.00145532543601
0.00152078142588
0.00155803337442
0.00157727247341
0.00158636251855
0.0015906674405
0.00159268986771
0.00159179403664
0.00158456441339
0.00156542086968
0.00152680304606
0.00145929343615
0.0013516144931
0.00119148231352
0.000973268150214
0.000791950573992
0.000483022902684
0.000792536546689
0.0010351530608
0.00119786267333
0.00130147357456
0.00136323884584
0.0013967059676
0.00141256209905
0.00141854461263
0.00142116386175
0.00142382035179
0.00142528843381
0.00142072685371
0.00140446113411
0.00136900874022
0.00130463434711
0.00119881892455
0.0010349170592
0.000791964062308
0.00048190660824
0.000536343856223
0.00102780334854
0.00142654680613
0.0017038045073
0.00188696852077
0.00200026313197
0.00206403441383
0.00209559582005
0.00210900610676
0.00211453304256
0.00211747521503
0.00211671124603
0.00210596456643
0.0020750616098
0.00201046110889
0.00189555060835
0.00171055091578
0.00143138537316
0.00103035365573
0.000536043478435
0.00102761937158
0.0011881990671
0.00143923445503
0.0016335923899
0.00176874257642
0.00185538693912
0.00190605371169
0.00193253025252
0.00194469567373
0.00194961125223
0.0019508000441
0.00194796304805
0.00193712353378
0.0019111557414
0.00186044763366
0.0017735368146
0.00163806604669
0.00144321399383
0.0011913411767
0.00103034160052
0.0014257897345
0.00143892210774
0.00166696612707
0.00185969803945
0.00199999716435
0.00209314826213
0.00214953927028
0.0021801570186
0.00219474223772
0.00220043623833
0.00220087982189
0.00219604285382
0.0021820702442
0.00215181013868
0.00209579760881
0.00200315965164
0.00186351286578
0.00167125208759
0.00144314745757
0.00143110564689
0.0017023483641
0.00163283345899
0.00185934952764
0.00206128277985
0.00221261818865
0.00231556651715
0.00237946567074
0.00241493651188
0.00243174450077
0.00243772854643
0.00243713334507
0.00243006584307
0.0024125081071
0.00237704300215
0.00231417655012
0.00221284272656
0.00206349404259
0.00186336816519
0.00163785943793
0.00170998752397
0.00188463841181
0.00176739341029
0.0019993360793
0.00221255428519
0.00237532700415
0.00248810012945
0.00255838704889
0.00259667364942
0.002613961988
0.00261929655213
0.00261764820987
0.00260918441469
0.00258933820689
0.00254997369571
0.00248084509116
0.00237148667327
0.00221254281871
0.00200279755532
0.00177316252975
0.00189483696426
0.00199676719973
0.00185330865821
0.00209225808545
0.00231586196611
0.0024888768115
0.00260893779078
0.00268273019316
0.00272121753221
0.00273709238414
0.00274094210508
0.00273843867954
0.00272967222458
0.00270933687327
0.0026683454523
0.00259570677407
0.00248012034108
0.00231339579199
0.00209521369394
0.00185999159966
0.00200992586227
0.00205906090866
0.00190313947295
0.00214852904607
0.00238055287129
0.00256083557127
0.0026849445298
0.00275903585272
0.00279520657785
0.0028082236066
0.00281018542096
0.00280729565488
0.00279937697089
0.00278028369686
0.00273992549
0.00266649032848
0.00254797713256
0.00237566492983
0.0021511573028
0.00191091350429
0.00207535471081
0.0020888806451
0.00192873749833
0.00217917660201
0.00241731230231
0.00260154045254
0.00272672385979
0.00279880309264
0.00283135689918
0.00284112315561
0.00284137940773
0.00283862525177
0.0028323104968
0.00281550227157
0.00277720194872
0.00270480786724
0.00258567796261
0.00241050126588
0.00218167995069
0.0019376129026
0.00210807913787
0.00210032564169
0.00194006342034
0.00219398304955
0.00243569304676
0.00262164435249
0.00274627123146
0.00281576154328
0.00284497770267
0.00285213876259
0.00285123489747
0.00284886022378
0.00284414287089
0.00282956632327
0.00279349395844
0.00272269970224
0.00260400233292
0.00242771622106
0.00219637818997
0.00194978477837
0.00212173910463
0.0021037449755
0.00194429953405
0.00220015329506
0.00244346901922
0.00262996827566
0.0027539064508
0.00282169750539
0.00284895342067
0.00285468591187
0.0028532039589
0.0028511069993
0.00284733809495
0.00283407214087
0.00279934962632
0.00272961822779
0.00261138803439
0.0024347593999
0.00220228073019
0.00195438289881
0.00212625507481
0.00210494815007
0.00194512397607
0.00220120390398
0.00244470507166
0.00263129424804
0.00275522342814
0.00282293066641
0.00285011879613
0.00285586390422
0.00285443707738
0.00285238172034
0.00284861198922
0.00283528620543
0.00280047073597
0.0027306544987
0.00261234251974
0.00243560084063
0.00220300217417
0.00195497112623
0.0021271841971
0.0021035781877
0.00194234931196
0.00219697324178
0.00243917163507
0.00262536367843
0.00274993997351
0.00281914904712
0.00284814070771
0.00285534026764
0.00285462216236
0.00285240639259
0.00284772105937
0.00283299379668
0.00279666645658
0.00272562789825
0.0026066748333
0.00243002196568
0.00219827318873
0.00195124276807
0.00212414593796
0.00209343176078
0.0019319965747
0.00218357936591
0.0024224157241
0.00260695820505
0.00273198460315
0.00280354163902
0.00283569209253
0.00284551469185
0.0028461090237
0.00284368884684
0.0028375186182
0.00282056523775
0.00278194249019
0.00270919115757
0.00258960223309
0.00241370554328
0.0021840756756
0.00193919299205
0.00211089799546
0.00206398353057
0.00190672907606
0.00215357664815
0.00238650747425
0.00256722157062
0.00269112101647
0.00276456266252
0.00280022532318
0.00281330393925
0.00281572370761
0.00281334083773
0.00280571804169
0.00278656430776
0.00274587372684
0.0026719311158
0.00255262680713
0.00237915373046
0.00215327027143
0.00191178843796
0.0020773609913
0.00200125645999
0.00185666807939
0.00209726760842
0.00232217147083
0.00249572958375
0.00261580013049
0.00268921328991
0.00272739864791
0.0027434608914
0.00274786558232
0.00274594708878
0.00273750218486
0.00271704812707
0.00267552268006
0.00260194834057
0.00248497472615
0.00231640644401
0.00209640995202
0.00185965373374
0.00201038844355
0.00188824598384
0.0017701893682
0.00200375247349
0.00221842346963
0.0023821845247
0.00249534757447
0.0025658695
0.00260445562028
0.00262225989341
0.00262827214022
0.00262718858548
0.00261888552806
0.00259860478844
0.00255822245136
0.00248748159222
0.0023758777767
0.00221461492306
0.00200286600757
0.0017716767152
0.00189388398711
0.001704967525
0.00163496477077
0.00186286371417
0.00206615630649
0.00221868376894
0.00232259348471
0.00238713563811
0.00242354330384
0.00244128075938
0.00244812125949
0.00244807763395
0.00244096402432
0.00242249936629
0.0023855826855
0.00232031255324
0.00221627454579
0.00206448094095
0.00186251787767
0.00163579665367
0.00170843842405
0.00142744012621
0.00144040150548
0.00166945089298
0.00186324396668
0.00200463513661
0.00209893928703
0.00215654869773
0.00218851021942
0.00220436310714
0.00221108024687
0.00221210041992
0.00220702740254
0.00219179980271
0.00215942413427
0.00210068509555
0.00200530785036
0.00186348185651
0.00166991029183
0.00144126687801
0.00142994624786
0.00102828502485
0.00118908640256
0.00144071108855
0.00163572710618
0.00177168863776
0.00185939200811
0.0019113893926
0.00193939788717
0.00195306667819
0.00195916676952
0.00196092678653
0.00195773961124
0.00194547991439
0.00191719444695
0.00186372183044
0.00177428095791
0.0016371342181
0.00144172984417
0.00119017370186
0.00102985189199
0.00053606634781
0.00102846077538
0.00142779610201
0.00170579798451
0.00189014810173
0.00200516341041
0.00207114623828
0.00210523057726
0.00212107275697
0.00212839501222
0.00213203138444
0.00213061748533
0.00211771679391
0.00208345345735
0.00201498105357
0.00189670875808
0.00170975227416
0.00143035693644
0.0010299604199
0.000534673560967
0.000572299900811
0.00119912626878
0.00172420217136
0.00209960113443
0.00235311391658
0.00251219086514
0.00260223558954
0.00264653684854
0.0026649144924
0.00267169042021
0.0026740600241
0.00267098538621
0.00265423554335
0.00260961597654
0.00251842068686
0.0023585861167
0.00210528988461
0.00173032721496
0.00120388246282
0.000572265277928
0.00119921884483
0.00136358779054
0.00165871575756
0.00189605915535
0.00206589500417
0.00217674096921
0.0022417870117
0.00227509808708
0.00228934579506
0.00229378260131
0.00229319444379
0.00228749662797
0.00227183884166
0.00223723026123
0.00217185054161
0.00206231407472
0.00189534897184
0.00166121201632
0.0013679105778
0.00120390336144
0.00172335983823
0.00165860415338
0.00190178916561
0.0021208049936
0.00228577887771
0.00239701984185
0.00246383300126
0.00249826561141
0.00251240088998
0.0025151283217
0.00251115017528
0.002501290936
0.00248146159132
0.00244317974705
0.00237576570462
0.00226763824555
0.00210912999056
0.00189797865133
0.00166108237848
0.00173008072043
0.00209783261842
0.00189601752648
0.0021216536321
0.00234173916408
0.00251313280519
0.00263134436689
0.00270367362259
0.00273959309048
0.00275173688673
0.00275072160002
0.00274260233899
0.00272827643557
0.00270339450922
0.00265961993294
0.00258738573284
0.00247512616387
0.002314830661
0.00210849985765
0.00189479624238
0.00210472505403
0.00235050982738
0.00206630822902
0.00228882229681
0.002516524847
0.00269797811599
0.00282517718106
0.00289974150137
0.00293280228615
0.00293960899995
0.00293325885945
0.00292096778763
0.00290364162517
0.00287617049049
0.00282953920096
0.00275327885442
0.00263694091059
0.00247298529808
0.00226547227047
0.00206088136911
0.00235760790017
0.00250861541603
0.00217791184303
0.0024034802851
0.00264075158862
0.00283303263018
0.00296403772273
0.00303515808629
0.00306016540244
0.00305838523646
0.00304586752602
0.00303069249976
0.00301319133068
0.00298691965755
0.00294140391607
0.00286522048967
0.00274744950662
0.00258098805277
0.00237095570464
0.00216906934803
0.00251699744875
0.00259750894483
0.00224391259085
0.00247465320051
0.00272152777349
0.0029196178593
0.00304880498944
0.00311097262784
0.0031238180601
0.00311170627939
0.00309360072464
0.00307777808821
0.0030632992122
0.00304192883127
0.00300139629552
0.00292905732948
0.00281329401554
0.00264656043598
0.00243479738919
0.00223291028048
0.00260813508165
0.00264060342492
0.00227840016998
0.00251419762134
0.00276756413889
0.00296710377096
0.00309057378974
0.00314108329685
0.00314080254824
0.003119402595
0.0030976516001
0.00308321819472
0.00307358330339
0.00305875295576
0.00302490814839
0.00295832299998
0.00284655057426
0.00268167991024
0.0024690288405
0.00226621778275
0.00265365615838
0.00265785108423
0.00229413472667
0.00253405918423
0.00279046358967
0.00298897660526
0.00310616960839
0.00314642769528
0.00313600975073
0.00310864641433
0.00308541849472
0.00307297783239
0.00306758510045
0.00305801062867
0.00302970259473
0.00296821396765
0.00286034983423
0.00269756864888
0.00248483439112
0.0022811010932
0.00267255514231
0.00266379992023
0.0023004305504
0.00254287106701
0.00280022467777
0.00299756660357
0.00311077762537
0.0031451816458
0.00312942983841
0.00309926474407
0.00307558320641
0.00306436321503
0.00306124505108
0.00305439983793
0.00302901930203
0.0029703711049
0.00286483175801
0.00270341151685
0.0024908309471
0.00228650689366
0.00267882136004
0.0026662158497
0.00230206638887
0.00254462631548
0.00280201254155
0.00299915796982
0.00311190037355
0.00314578384357
0.00312974204515
0.00309961250342
0.0030760838155
0.00306498900877
0.00306190293308
0.00305493950977
0.00302940464715
0.00297072365164
0.00286527957501
0.00270397386638
0.00249141678314
0.00228704118793
0.0026800534883
0.00266444105194
0.00229860439052
0.00253889288141
0.00279520485939
0.00299293410855
0.00310846956646
0.00314688446027
0.00313540241027
0.00310813014266
0.00308546984183
0.00307358686238
0.00306849515207
0.00305877177546
0.00303022398937
0.00296883273977
0.00286137256497
0.00269897054148
0.00248629294508
0.00228229380281
0.00267556743951
0.00264996022226
0.00228468452196
0.00252115206839
0.00277368330536
0.00297134580332
0.00309155478959
0.00313845472777
0.0031358741415
0.00311428053896
0.00309347660121
0.00308032324713
0.00307178027715
0.00305747849025
0.00302404936904
0.00295824853682
0.00284745681847
0.00268325034626
0.0024705078197
0.00226706533217
0.00265684710121
0.00260776438301
0.00225068241084
0.00248219373243
0.0027276063106
0.00292265253254
0.00304708068782
0.00310396047598
0.00311298625632
0.00309977378546
0.00308259322059
0.0030688055623
0.00305665934975
0.00303728413798
0.00299855679509
0.00292803450481
0.00281378416933
0.00264774062454
0.00243531775744
0.00223229245282
0.00260973303659
0.00251808385688
0.00218408658794
0.0024104574692
0.00264674062768
0.00283545930673
0.00296128165299
0.00302661838212
0.00304718277391
0.00304365493976
0.00303185303483
0.0030190473803
0.00300464449291
0.00298137082476
0.00293849698319
0.00286443504639
0.00274784245651
0.00258123743796
0.00236979641992
0.00216632312407
0.00251597580665
0.00235824141434
0.00207144165947
0.00229481442021
0.00252220748625
0.00270150752561
0.00282465246494
0.00289460496306
0.00292406906698
0.00292941950902
0.00292371681015
0.00291356158587
0.00289902301038
0.00287415538595
0.00282953703084
0.0027542311389
0.00263762319872
0.00247207057565
0.00226252441135
0.0020561930221
0.00235424382675
0.00210358473356
0.00190014822996
0.00212675971287
0.00234711645093
0.00251800802824
0.00263484635497
0.00270495535855
0.00273925110269
0.00275089492602
0.00275059895865
0.00274401072648
0.00273132909228
0.00270746469328
0.00266388404467
0.0025903348839
0.00247573790012
0.00231279206276
0.00210424537367
0.00188914168095
0.00210036883445
0.0017271145646
0.00166182515411
0.00190612652688
0.00212586641695
0.00229129782167
0.00240285226888
0.00246995703491
0.00250483020396
0.00251945635002
0.00252296917214
0.00252005647491
0.00251071140434
0.00249007117899
0.00244972289118
0.00237920403219
0.00226764960625
0.00210620220893
0.00189323036484
0.00165580741346
0.00172640008441
0.00120087174453
0.00136586714665
0.00166207401313
0.00190031788238
0.00207105197013
0.00218296734193
0.00224932653109
0.0022841367616
0.0022998429815
0.00230547117635
0.00230546957694
0.00229930871363
0.00228175972231
0.00224394904921
0.00217462115332
0.00206133355189
0.00189177038493
0.00165676079154
0.00136418566596
0.00120176698219
0.000572094631357
0.0012010446677
0.00172765054266
0.00210473074911
0.0023604187623
0.00252217892585
0.00261530709485
0.00266284657367
0.00268411689287
0.00269293380649
0.0026960298138
0.00269192591618
0.00267194103404
0.00262214331165
0.00252483603129
0.00235952269458
0.00210283776669
0.00172729632771
0.00120215227799
0.000570113441858
0.000599809692432
0.00134987895099
0.00199881177173
0.00247414500892
0.0027989162874
0.00300098916852
0.00311071976574
0.00315921244537
0.00317414091531
0.00317535791154
0.00317304616394
0.00316631386555
0.00314465169974
0.00308912297954
0.00297491011
0.00277411358985
0.00245734003099
0.00199367220481
0.00135312264846
0.0006001882228
0.00135086681698
0.00152942731954
0.00188452072251
0.00218169000402
0.00239921903516
0.00254082162851
0.00262038859778
0.00265616853327
0.00266575796879
0.00266228027468
0.00265313759301
0.00263890473256
0.00261391627249
0.00256686086837
0.00248313572984
0.00234706631939
0.00214437828119
0.00186646132089
0.00152698111071
0.00135328801945
0.00199957215517
0.00188630528354
0.00218250317978
0.00246392717569
0.00268060411161
0.00282526241535
0.0029067113805
0.00294063737099
0.00294476641648
0.00293122439303
0.0029088908201
0.00288018632609
0.00284214990547
0.00278445936752
0.0026948399883
0.00256013208045
0.00237074728804
0.00212731650651
0.00186601477665
0.00199358877543
0.00247638447836
0.00218816266695
0.00247167758732
0.00276375853474
0.00299616800996
0.00315462721481
0.00324295136422
0.00327208889331
0.00326291114704
0.00323381228098
0.0031958690292
0.00315255715134
0.00310000755619
0.00302914909407
0.00292996312999
0.00278995037858
0.00260083498425
0.0023678278618
0.0021422117579
0.00245637261558
0.00280426648182
0.00241352557969
0.00270247693708
0.0030142820501
0.00326945341416
0.00344009924483
0.0035218279686
0.00353262967706
0.00350154809484
0.00345353631989
0.00340192925184
0.00334978764807
0.00329144555139
0.0032161081079
0.00311222882529
0.00296895123265
0.00277934072847
0.00254965088921
0.00234085961544
0.00277075858389
0.00300999798342
0.00256482722082
0.00286599425448
0.00320075535356
0.00347371768738
0.00364040907713
0.00369824564873
0.00367550053242
0.00361463242822
0.00354792282898
0.0034894338988
0.00343933331308
0.00338806585501
0.00332072987734
0.00322331831906
0.00308435928729
0.00289749091681
0.00267080869869
0.00247001803314
0.00296726543513
0.00312345224712