/*--------------------------------*- C++ -*----------------------------------*\
| =========                 |                                                 |
| \\      /  F ield         | OpenFOAM: The Open Source CFD Toolbox           |
|  \\    /   O peration     | Version:  3.0.1                                 |
|   \\  /    A nd           | Web:      www.OpenFOAM.org                      |
|    \\/     M anipulation  |                                                 |
\*---------------------------------------------------------------------------*/
FoamFile
{
    version     2.0;
    format      ascii;
    class       surfaceScalarField;
    location    "2.4";
    object      alphaPhi;
}
// * * * * * * * * * * * * * * * * * * * * * * * * * * * * * * * * * * * * * //

dimensions      [0 3 -1 0 0 0 0];

internalField   nonuniform List<scalar> 
22672
(
4.82928943301e-06
4.84805191831e-06
-9.67763657483e-06
1.09531863752e-05
3.76321948731e-06
-9.88681101122e-06
1.67223208944e-05
3.50177636863e-06
-9.27190106374e-06
2.08027266122e-05
4.08461979687e-06
-8.16396765816e-06
2.24217534837e-05
5.40367987301e-06
-7.02338454385e-06
2.14133172833e-05
7.10942889586e-06
-6.09994773593e-06
1.81374700868e-05
8.75952446972e-06
-5.48443643009e-06
1.30365478239e-05
1.02193029769e-05
-5.11749374415e-06
6.7785161362e-06
1.12395058518e-05
-4.98313049317e-06
-1.67805497394e-08
1.17549604818e-05
-4.95937277215e-06
-6.81267522448e-06
1.17560351632e-05
-4.9597879417e-06
-1.30709641683e-05
1.12424384224e-05
-4.98419025784e-06
-1.81727012779e-05
1.02232612461e-05
-5.12060388159e-06
-2.1448414332e-05
8.7643712615e-06
-5.48953387196e-06
-2.24548206885e-05
7.11408762267e-06
-6.10707319822e-06
-2.08302900826e-05
5.40777572371e-06
-7.03245122389e-06
-1.67434873545e-05
4.08797404005e-06
-8.1749163246e-06
-1.09665582163e-05
3.50565001054e-06
-9.28344361665e-06
-4.83474464378e-06
3.76898512046e-06
-9.90053553495e-06
4.85733985909e-06
-9.69210551869e-06
3.74846395038e-06
1.0983958358e-05
-9.88379355993e-06
1.07837623819e-05
1.08033316612e-05
-1.40760294306e-05
1.779523505e-05
1.16134624026e-05
-1.51223956567e-05
2.27269002808e-05
1.373648843e-05
-1.45844964218e-05
2.47254691223e-05
1.69608771357e-05
-1.35546196328e-05
2.36804971297e-05
2.06843305494e-05
-1.25315668148e-05
1.99794925728e-05
2.42200159135e-05
-1.17574695506e-05
1.42995615574e-05
2.72030705292e-05
-1.13056437341e-05
7.41245867722e-06
2.92778529025e-05
-1.1149889214e-05
-1.59710316068e-08
3.03212026681e-05
-1.11381728062e-05
-7.44453093847e-06
3.03235863207e-05
-1.11380705646e-05
-1.43332542938e-05
2.92815873325e-05
-1.11502436605e-05
-2.00131988461e-05
2.7209056301e-05
-1.13063479734e-05
-2.37150727122e-05
2.42265797458e-05
-1.17596066171e-05
-2.47572976406e-05
2.06916881211e-05
-1.25355989682e-05
-2.27539257813e-05
1.69668753068e-05
-1.35622585715e-05
-1.78147337314e-05
1.37427047385e-05
-1.45954704043e-05
-1.07943471098e-05
1.16212562924e-05
-1.51353318302e-05
-3.75078012264e-06
1.08154734789e-05
-1.40898667831e-05
1.10036921952e-05
-9.89674838952e-06
3.49116183549e-06
1.67563264034e-05
-9.26379473183e-06
1.16049499918e-05
1.78096460326e-05
-1.51194662063e-05
1.9909205171e-05
1.99069416064e-05
-1.65983573883e-05
2.57744817366e-05
2.36372779895e-05
-1.5764945417e-05
2.81798181595e-05
2.86604923654e-05
-1.41064522477e-05
2.69991747198e-05
3.42130341042e-05
-1.23462837553e-05
2.27132494568e-05
3.94100752159e-05
-1.0905946124e-05
1.61932342736e-05
4.37079371495e-05
-9.983291772e-06
8.36712377738e-06
4.66772337307e-05
-9.57422410143e-06
-1.3468363366e-08
4.81691435383e-05
-9.46637155281e-06
-8.39499822254e-06
4.81698297834e-05
-9.46568244772e-06
-1.62216630907e-05
4.66811073938e-05
-9.57224873124e-06
-2.27434719886e-05
4.37121310452e-05
-9.98087485266e-06
-2.7029692448e-05
3.94160295597e-05
-1.09034840426e-05
-2.82106001019e-05
3.42187719001e-05
-1.23460987428e-05
-2.58004340946e-05
2.86670610474e-05
-1.41104738023e-05
-1.99291123855e-05
2.36443235322e-05
-1.57740428955e-05
-1.16156170705e-05
1.99176916217e-05
-1.66103906612e-05
-3.49407396218e-06
1.78265776511e-05
-1.5132244475e-05
1.67843118153e-05
-9.27448601149e-06
4.07688920767e-06
2.08297461424e-05
-8.14987244291e-06
1.37348542801e-05
2.27298261061e-05
-1.45786636422e-05
2.36513912854e-05
2.57555228756e-05
-1.57643440352e-05
3.06598062771e-05
3.06246524684e-05
-1.39971571477e-05
3.35022222219e-05
3.68927004659e-05
-1.10731328963e-05
3.20058122551e-05
4.36752803204e-05
-7.96765447086e-06
2.68099132475e-05
4.99503417176e-05
-5.3423484413e-06
1.9012200704e-05
5.50774693537e-05
-3.57280400189e-06
9.78424860136e-06
5.86097442595e-05
-2.70384737725e-06
-1.18601833625e-08
6.03835227067e-05
-2.41972968039e-06
-9.80795452524e-06
6.03848348146e-05
-2.41784721397e-06
-1.9037121941e-05
5.86101569006e-05
-2.69971433499e-06
-2.68356433143e-05
5.50778902707e-05
-3.56627604824e-06
-3.20346965934e-05
4.99500801011e-05
-5.33475853447e-06
-3.35313882217e-05
4.36767444622e-05
-7.96161767947e-06
-3.06870073492e-05
3.68950584365e-05
-1.10723660625e-05
-2.36721180205e-05
3.06302555338e-05
-1.40020813663e-05
-1.37474615901e-05
2.57660723985e-05
-1.5773617546e-05
-4.08095657792e-06
2.27492290128e-05
-1.45891805452e-05
2.08624393123e-05
-8.15883697651e-06
5.39681707853e-06
2.24361422237e-05
-7.00355569648e-06
1.69610042622e-05
2.47146922636e-05
-1.35482866019e-05
2.86789413506e-05
2.81457611621e-05
-1.41089454234e-05
3.69370771699e-05
3.34467509269e-05
-1.10789340258e-05
4.02020738666e-05
4.0132372077e-05
-6.50659018068e-06
3.82570242986e-05
4.72661904334e-05
-1.64403893845e-06
3.1909428178e-05
5.37754679342e-05
2.52138872711e-06
2.25272938699e-05
5.90834910149e-05
5.37703584971e-06
1.15559649368e-05
6.27254526112e-05
6.85425861894e-06
-1.04416010094e-08
6.45536549105e-05
7.39748080587e-06
-1.15779176553e-05
6.45518336564e-05
7.39907838855e-06
-2.25500967734e-05
6.27217278794e-05
6.86020374846e-06
-3.19344291498e-05
5.90772206628e-05
5.38671772917e-06
-3.82842631431e-05
5.37680174651e-05
2.53264923631e-06
-4.02309175897e-05
4.72586522648e-05
-1.63415726311e-06
-3.6963631789e-05
4.01279410462e-05
-6.50091148735e-06
-2.87008717359e-05
3.34465657769e-05
-1.10791502002e-05
-1.697457563e-05
2.81530285146e-05
-1.41139397035e-05
-5.4025257436e-06
2.47323737526e-05
-1.35553194284e-05
2.24693456419e-05
-7.00944862208e-06
7.09963821864e-06
2.14151951658e-05
-6.07792037986e-06
2.06799276688e-05
2.36610957843e-05
-1.25275024145e-05
3.42266357369e-05
2.69576159766e-05
-1.2357329581e-05
4.37171578463e-05
3.19438086856e-05
-7.98923920935e-06
4.73380184158e-05
3.81790744543e-05
-1.66604246244e-06
4.48351979415e-05
4.47557771981e-05
5.01219083993e-06
3.72448874612e-05
5.07073130282e-05
1.06595577114e-05
2.62000954281e-05
5.56015584277e-05
1.4525717021e-05
1.3409695825e-05
5.89490104168e-05
1.6567166888e-05
-1.15203312022e-08
6.06142030094e-05
1.73598341791e-05
-1.34324169676e-05
6.06120157784e-05
1.73606047084e-05
-2.62228404033e-05
5.89413347316e-05
1.65707820781e-05
-3.72691996727e-05
5.55890025384e-05
1.45344851577e-05
-4.48622026591e-05
5.06913882903e-05
1.06712012032e-05
-4.73650326301e-05
4.47391089935e-05
5.02367727087e-06
-4.37432455407e-05
3.81642920453e-05
-1.65725972426e-06
-3.42476248665e-05
3.19354261712e-05
-7.98500394508e-06
-2.06940870027e-05
2.69580437974e-05
-1.23583521465e-05
-7.10555868622e-06
2.36740718493e-05
-1.25305248615e-05
2.14441292049e-05
-6.08028585336e-06
8.7474803455e-06
1.81279354074e-05
-5.46097972661e-06
2.42091865852e-05
1.99581426058e-05
-1.17577332252e-05
3.94153106238e-05
2.26793919927e-05
-1.09292704138e-05
4.99864887307e-05
2.67610894254e-05
-5.38688925009e-06
5.38464371457e-05
3.18495739235e-05
2.4683206675e-06
5.07847546733e-05
3.71880868815e-05
1.0630362744e-05
4.20336024986e-05
4.19874830958e-05
1.74702791634e-05
2.94525323272e-05
4.59627728893e-05
2.22201911427e-05
1.50276229188e-05
4.86157570881e-05
2.47576509798e-05
-1.40290986364e-08
4.99024685851e-05
2.57536436871e-05
-1.50556053217e-05
4.99000374968e-05
2.57533351242e-05
-2.94794416176e-05
4.86074170015e-05
2.47576946097e-05
-4.20601764763e-05
4.59463699435e-05
2.22237532229e-05
-5.08123016744e-05
4.19646644473e-05
1.74786887633e-05
-5.3873212221e-05
3.71623151961e-05
1.06390064229e-05
-5.00100777055e-05
3.18252178972e-05
2.47607329906e-06
-3.94355008047e-05
2.67430439002e-05
-5.38196417343e-06
-2.42220713414e-05
2.26723714826e-05
-1.09281058866e-05
-8.75369956676e-06
1.99640966526e-05
-1.17582624356e-05
1.81504289049e-05
-5.46017373964e-06
1.02050596834e-05
1.301560406e-05
-5.09232759517e-06
2.71874185731e-05
1.42833946396e-05
-1.13086275845e-05
4.37072480877e-05
1.61765034686e-05
-1.00154140061e-05
5.51112809886e-05
1.89911040381e-05
-3.63551472498e-06
5.91635838047e-05
2.24992251705e-05
5.29915046047e-06
5.56931698833e-05
2.61749704013e-05
1.44827301725e-05
4.60148874344e-05
2.94388163245e-05
2.22274934419e-05
3.21686873006e-05
3.21535555846e-05
2.76543583446e-05
1.63818759216e-05
3.38991875651e-05
3.05035019177e-05
-1.81494080237e-08
3.47321051535e-05
3.15700619107e-05
-1.641722633e-05
3.47290690337e-05
3.15706505733e-05
-3.22024152008e-05
3.38884523698e-05
3.05039054445e-05
-4.60480954605e-05
3.21323102863e-05
2.76595019481e-05
-5.57251718041e-05
2.94105839878e-05
2.2231773935e-05
-5.91915526146e-05
2.61431571132e-05
1.4484888442e-05
-5.51343519015e-05
2.24679973597e-05
5.30017659332e-06
-4.37245270593e-05
1.896688925e-05
-3.63425924086e-06
-2.71996003071e-05
1.61629109275e-05
-1.00154102317e-05
-1.02106115298e-05
1.42831215698e-05
-1.13080144257e-05
1.3030317338e-05
-5.09018482138e-06
1.12244106628e-05
6.74547057096e-06
-4.95474831285e-06
2.9259727822e-05
7.40030826957e-06
-1.11509779492e-05
4.66715986856e-05
8.36923665269e-06
-9.60585143263e-06
5.86404128807e-05
9.79235639586e-06
-2.76882800838e-06
6.28100510313e-05
1.15609735415e-05
6.76696406437e-06
5.9053758606e-05
1.34109938068e-05
1.65211158914e-05
4.86726968265e-05
1.50265374579e-05
2.47920130758e-05
3.39151549011e-05
1.63765053039e-05
3.05351821798e-05
1.72123146623e-05
1.72078135421e-05
3.33939594102e-05
-2.0409642209e-08
1.76057249927e-05
3.43594537922e-05
-1.725575767e-05
1.76000822008e-05
3.43641239834e-05
-3.39598148448e-05
1.71921766e-05
3.34006626087e-05
-4.87145167846e-05
1.63526075361e-05
3.05346520819e-05
-5.90900251234e-05
1.49971105476e-05
2.47885810805e-05
-6.28391356768e-05
1.33780799787e-05
1.65143147424e-05
-5.86599309441e-05
1.15290377782e-05
6.75880223365e-06
-4.66850088658e-05
9.76644456672e-06
-2.77455138565e-06
-2.92671375347e-05
8.35348441631e-06
-9.60878364651e-06
-1.12280861688e-05
7.39576096979e-06
-1.11512094808e-05
6.7536205302e-06
-4.95139762334e-06
1.17402515138e-05
-6.62656023419e-08
-4.92776411506e-06
3.03021577971e-05
-2.77631652255e-08
-1.11344726579e-05
4.8160084568e-05
1.90425504906e-09
-9.48956780816e-06
6.04054467768e-05
1.90525466551e-08
-2.47422847376e-06
6.46280187004e-05
2.32189123867e-08
7.31623756879e-06
6.07111726192e-05
1.6356963236e-08
1.73096622723e-05
4.99569627602e-05
3.18029306813e-09
2.57782235586e-05
3.47520325183e-05
-1.26839361234e-08
3.1593613618e-05
1.76142497323e-05
-2.14018399565e-08
3.4367892621e-05
-2.72581291256e-08
-3.08813400989e-08
3.52778943596e-05
-1.76683337826e-05
-3.55895841954e-08
3.52768061207e-05
-3.48039457224e-05
-3.66993062834e-08
3.43644496917e-05
-5.00033210739e-05
-3.32562461969e-08
3.15856014844e-05
-6.0751697964e-05
-2.21352790254e-08
2.57677381227e-05
-6.4656507207e-05
-1.13056171069e-08
1.72940869446e-05
-6.0421895634e-05
-3.1771191988e-09
7.29780355193e-06
-4.81666520952e-05
-1.77711785181e-09
-2.48784600714e-06
-3.03050172764e-05
-1.12459753218e-08
-9.49706903744e-06
-1.17410332061e-05
-3.22016197862e-08
-1.11360999583e-05
-6.20255877546e-08
-4.92513951416e-06
1.17402690176e-05
-6.87907504555e-06
-4.92793655631e-06
3.03018049471e-05
-7.45780922928e-06
-1.11305015214e-05
4.815491524e-05
-8.37031515785e-06
-9.48202169064e-06
6.03982329578e-05
-9.75993557095e-06
-2.46328293734e-06
6.4614765244e-05
-1.15220457709e-05
7.32741388138e-06
6.06988490008e-05
-1.33853783179e-05
1.73182411538e-05
4.99471803465e-05
-1.50279990818e-05
2.57819100746e-05
3.47465200773e-05
-1.64088306866e-05
3.15976543893e-05
1.760757811e-05
-1.72633884045e-05
3.43806130881e-05
-3.30722055463e-08
-1.76785118792e-05
3.52890454894e-05
-1.76727400944e-05
-1.76808375522e-05
3.52851413537e-05
-3.48048221035e-05
-1.72700806274e-05
3.43655878253e-05
-4.99976920566e-05
-1.64190019059e-05
3.15787887367e-05
-6.07406335174e-05
-1.50425940868e-05
2.57640094886e-05
-6.46438299078e-05
-1.34020238422e-05
1.72932761598e-05
-6.04105296168e-05
-1.15360615091e-05
7.29957568448e-06
-4.81585051543e-05
-9.77062075338e-06
-2.48404058812e-06
-3.03003950012e-05
-8.37581523321e-06
-9.49364119122e-06
-1.17393178433e-05
-7.45865623188e-06
-1.11345003334e-05
-6.87514985683e-06
-4.92607689709e-06
1.12260699214e-05
-1.31499468612e-05
-4.95458970867e-06
2.92570936057e-05
-1.43478474425e-05
-1.11416236958e-05
4.66621033546e-05
-1.61898559535e-05
-9.58456314102e-06
5.8614995634e-05
-1.89759160788e-05
-2.73805606781e-06
6.27727220713e-05
-2.24769724533e-05
6.79791698751e-06
5.90091464434e-05
-2.61644044519e-05
1.65404789434e-05
4.86361926815e-05
-2.94502327238e-05
2.47958984312e-05
3.38882387082e-05
-3.21895803491e-05
3.05285127789e-05
1.71908788045e-05
-3.39586649581e-05
3.33934081634e-05
-3.4505529157e-08
-3.48059326201e-05
3.43523660991e-05
-1.72593029478e-05
-3.48059613763e-05
3.43504355073e-05
-3.39510796802e-05
-3.39579145566e-05
3.33797995035e-05
-4.86909125333e-05
-3.21868295144e-05
3.05082854635e-05
-5.90541415678e-05
-2.94506062881e-05
2.47709024562e-05
-6.27993911479e-05
-2.61637380355e-05
1.65082819665e-05
-5.8624331129e-05
-2.24746163795e-05
6.76243867221e-06
-4.66592546914e-05
-1.89709752399e-05
-2.76452261161e-06
-2.92520978532e-05
-1.61840791768e-05
-9.59942461331e-06
-1.12222930674e-05
-1.43414289972e-05
-1.11466259017e-05
-1.31439552943e-05
-4.95362074836e-06
1.02047959498e-05
-1.82610660463e-05
-5.09397662233e-06
2.71824367956e-05
-2.00291377361e-05
-1.12956029659e-05
4.36874175179e-05
-2.27084597112e-05
-9.98693718212e-06
5.50709899971e-05
-2.67650882242e-05
-3.59331941298e-06
5.91018709125e-05
-3.18469977545e-05
5.33857554449e-06
5.56252600889e-05
-3.71901417099e-05
1.45038213993e-05
4.59538436423e-05
-4.20047606984e-05
2.22253226156e-05
3.21187654226e-05
-4.59964991602e-05
2.7642392141e-05
1.63451205512e-05
-4.86635437952e-05
3.04775439144e-05
-3.42653585656e-08
-4.99559328665e-05
3.15293731869e-05
-1.64126253914e-05
-4.99539760576e-05
3.152600828e-05
-3.21806167181e-05
-4.86558648912e-05
3.04665316584e-05
-4.60091159517e-05
-4.59835571416e-05
2.7625106247e-05
-5.56681474778e-05
-4.19884817469e-05
2.21983666193e-05
-5.91283202532e-05
-3.71722039634e-05
1.44679142024e-05
-5.50767363373e-05
-3.18252341868e-05
5.3008876795e-06
-4.36826834037e-05
-2.67445200982e-05
-3.62140591779e-06
-2.71743941755e-05
-2.2690110017e-05
-1.00018723068e-05
-1.02002022282e-05
-2.00150459616e-05
-1.13005997458e-05
-1.82512819017e-05
-5.0927203394e-06
8.74525162576e-06
-2.15407868413e-05
-5.4652700916e-06
2.41978302932e-05
-2.3735876775e-05
-1.17460409791e-05
3.9388473134e-05
-2.69976503338e-05
-1.09007996466e-05
4.99321637742e-05
-3.19646325841e-05
-5.34493985959e-06
5.37697952466e-05
-3.81900394785e-05
2.50689071402e-06
5.06995379196e-05
-4.47653437134e-05
1.0646121184e-05
4.19592762915e-05
-5.07223860497e-05
1.74598733804e-05
2.93940566593e-05
-5.56283474455e-05
2.21965283025e-05
1.4985969928e-05
-5.89830467814e-05
2.47271857038e-05
-3.14585371524e-08
-6.06506644849e-05
2.57103053734e-05
-1.50478589479e-05
-6.06451663924e-05
2.57069873238e-05
-2.94522414284e-05
-5.89695657576e-05
2.47182307548e-05
-4.20103715532e-05
-5.56063884653e-05
2.21819652604e-05
-5.07403118971e-05
-5.06959346187e-05
1.7436852217e-05
-5.37918849727e-05
-4.4732443389e-05
1.06136685511e-05
-4.99368429025e-05
-3.81543779028e-05
2.47315499113e-06
-3.93814674702e-05
-3.19307158233e-05
-5.36851107471e-06
-2.41898318128e-05
-2.69704884664e-05
-1.09122722525e-05
-8.74016449839e-06
-2.37157279537e-05
-1.17484169658e-05
-2.15285006563e-05
-5.46289029605e-06
7.09459807277e-06
-2.25490086191e-05
-6.08662233273e-06
2.06637705467e-05
-2.47848472964e-05
-1.25202432212e-05
3.41914741408e-05
-2.81896182792e-05
-1.23362981983e-05
4.36576373709e-05
-3.34741184986e-05
-7.95634308376e-06
4.72528560147e-05
-4.01501418044e-05
-1.63567564542e-06
4.47413181826e-05
-4.72746505249e-05
5.02148429978e-06
3.71596342894e-05
-5.37813664368e-05
1.06413301164e-05
2.61342056162e-05
-5.90907868465e-05
1.44894810052e-05
1.3366061932e-05
-6.27346229381e-05
1.65186465216e-05
-2.79505837035e-08
-6.45580577745e-05
1.73014168624e-05
-1.34206845486e-05
-6.45516369744e-05
1.72987099623e-05
-2.61846882381e-05
-6.27169881027e-05
1.65121187271e-05
-3.72048332581e-05
-5.90660421438e-05
1.44792443392e-05
-4.47750439212e-05
-5.37482068215e-05
1.06242798376e-05
-4.72712235974e-05
-4.72349972651e-05
4.99815057039e-06
-4.36598611485e-05
-4.01071260878e-05
-1.657980818e-06
-3.41864623596e-05
-3.34358671347e-05
-7.96987847723e-06
-2.06568586745e-05
-2.81590187831e-05
-1.23406116096e-05
-7.09060485772e-06
-2.47635959429e-05
-1.25188103358e-05
-2.25363552976e-05
-6.08251476886e-06
5.3877959459e-06
-2.09198868528e-05
-7.01679525736e-06
1.69386913339e-05
-2.27892613114e-05
-1.35470360531e-05
2.86399501188e-05
-2.57951905229e-05
-1.40969795851e-05
3.68753710344e-05
-3.06519772905e-05
-1.10578520218e-05
4.01201905934e-05
-3.69089547156e-05
-6.48576279971e-06
3.81643356495e-05
-4.36802473196e-05
-1.63885260938e-06
3.18245531642e-05
-4.99437136166e-05
2.50214863782e-06
2.24611290447e-05
-5.50637831508e-05
5.33699001198e-06
1.15152041734e-05
-5.858961714e-05
6.80096268172e-06
-2.33981047069e-08
-6.03568631122e-05
7.3375237162e-06
-1.15606957078e-05
-6.0351316881e-05
7.33663388047e-06
-2.25035624586e-05
-5.85734009861e-05
6.79828864422e-06
-3.18611184236e-05
-5.50395017389e-05
5.33232952375e-06
-3.8191180529e-05
-4.99119005143e-05
2.49347918681e-06
-4.01335770775e-05
-4.36426380478e-05
-1.64970734284e-06
-3.68777537297e-05
-3.68703507712e-05
-6.49322017919e-06
-2.86364672802e-05
-3.06176526845e-05
-1.10591431459e-05
-1.69344138076e-05
-2.57688279489e-05
-1.40937083865e-05
-5.38489808076e-06
-2.27713035077e-05
-1.3541297714e-05
-2.09101271852e-05
-7.01115023351e-06
4.06447983717e-06
-1.68213606052e-05
-8.16306278845e-06
1.37087880412e-05
-1.78528011224e-05
-1.45803976715e-05
2.36105423656e-05
-1.99376887635e-05
-1.5759712415e-05
3.06041606732e-05
-2.36592207922e-05
-1.39862714786e-05
3.34310398936e-05
-2.86756757368e-05
-1.10602581344e-05
3.19284728848e-05
-3.42159149991e-05
-7.96145905894e-06
2.67378329467e-05
-3.94023553609e-05
-5.35111060235e-06
1.89582802702e-05
-4.36886304799e-05
-3.59530449745e-06
9.75235640835e-06
-4.66505933908e-05
-2.73328455552e-06
-1.97427535339e-08
-4.81340825135e-05
-2.45056886386e-06
-9.79027622451e-06
-4.81304483585e-05
-2.45061467885e-06
-1.89923117259e-05
-4.66384281314e-05
-2.73328235528e-06
-2.67664789306e-05
-4.36705844497e-05
-3.59559189619e-06
-3.19482647374e-05
-3.93776139916e-05
-5.35208014811e-06
-3.3441144062e-05
-3.41888520191e-05
-7.96167608621e-06
-3.0606119279e-05
-2.86477284763e-05
-1.10568898914e-05
-2.36093996086e-05
-2.36364048992e-05
-1.39800256718e-05
-1.37061521181e-05
-1.9920293056e-05
-1.57515814676e-05
-4.06274720294e-06
-1.78423007688e-05
-1.45724666746e-05
-1.68156288038e-05
-8.1569997799e-06
3.4774096917e-06
-1.10237351563e-05
-9.27485871721e-06
1.15772984795e-05
-1.08304130271e-05
-1.51222184867e-05
1.98715483834e-05
-1.16337528702e-05
-1.65979098357e-05
2.57267171458e-05
-1.37530354775e-05
-1.57617218536e-05
2.81251365561e-05
-1.69728256551e-05
-1.41005363391e-05
2.69400256327e-05
-2.06900698488e-05
-1.23410595868e-05
2.26606116544e-05
-2.42169370748e-05
-1.09053861457e-05
1.61529844615e-05
-2.71930642581e-05
-9.98801786749e-06
8.34481874473e-06
-2.92611942689e-05
-9.58067774836e-06
-1.73868914948e-08
-3.02998228379e-05
-9.4723945893e-06
-8.37760573124e-06
-3.02968378848e-05
-9.4724926131e-06
-1.61816180787e-05
-2.92539640813e-05
-9.58042716617e-06
-2.26825607845e-05
-2.71825411189e-05
-9.98685592369e-06
-2.6954617032e-05
-2.42036597732e-05
-1.09029949681e-05
-2.81308251149e-05
-2.06752050342e-05
-1.2336690695e-05
-2.57271099871e-05
-1.69589245286e-05
-1.4093412767e-05
-1.98686617887e-05
-1.37418129807e-05
-1.57527023994e-05
-1.15744146483e-05
-1.16267795997e-05
-1.6588609519e-05
-3.47509899275e-06
-1.08272422266e-05
-1.51138289986e-05
-1.10220222791e-05
-9.26889122382e-06
3.73555736604e-06
-4.86534119466e-06
-9.89366215614e-06
1.07608301252e-05
-3.77592365552e-06
-1.40800907225e-05
1.77652382452e-05
-3.51286487114e-06
-1.51253514695e-05
2.26933168758e-05
-4.09475800883e-06
-1.45862227097e-05
2.46879370661e-05
-5.41321812102e-06
-1.35545364447e-05
2.36427317222e-05
-7.1160979697e-06
-1.25293912343e-05
1.99444391732e-05
-8.76300591825e-06
-1.17556356132e-05
1.42744509434e-05
-1.02185120846e-05
-1.13042360676e-05
7.39878112765e-06
-1.12363121738e-05
-1.11486266507e-05
-1.58798445122e-08
-1.17483401032e-05
-1.1135957335e-05
-7.42857183442e-06
-1.17473974459e-05
-1.11363748753e-05
-1.42987719629e-05
-1.1232914264e-05
-1.11494662172e-05
-1.9961255091e-05
-1.02149839335e-05
-1.1304995889e-05
-2.36507763089e-05
-8.75861204004e-06
-1.17547821479e-05
-2.46883737022e-05
-7.11174398574e-06
-1.25265374302e-05
-2.26878234969e-05
-5.40967837756e-06
-1.35491097979e-05
-1.7758612116e-05
-4.09308988284e-06
-1.45793117672e-05
-1.07547086566e-05
-3.51283209311e-06
-1.51175678297e-05
-3.7317308506e-06
-3.77720284367e-06
-1.40730364129e-05
-4.86524240609e-06
-9.88791574462e-06
4.82177490951e-06
-9.68711612469e-06
1.09424225632e-05
-9.89609239826e-06
1.67123453676e-05
-9.28284020215e-06
2.07929676975e-05
-8.1753321067e-06
2.24119455787e-05
-7.03303921004e-06
2.14024729281e-05
-6.10650057335e-06
1.81271327736e-05
-5.48811649843e-06
1.30280792685e-05
-5.11976305576e-06
6.77570770433e-06
-4.98310730882e-06
-1.30966529179e-08
-4.95928176226e-06
-6.79924863686e-06
-4.96080604797e-06
-1.30449158104e-05
-4.98764208486e-06
-1.81337567533e-05
-5.12537173991e-06
-2.13992056274e-05
-5.49372440083e-06
-2.24005864126e-05
-6.11022686264e-06
-2.07763523744e-05
-7.03496739992e-06
-1.66950983299e-05
-8.1741905959e-06
-1.09291865988e-05
-9.27923020469e-06
-4.81436054813e-06
-9.89150315142e-06
-9.67974582725e-06
6.96155499875e-06
6.9794766945e-06
-2.36176793261e-05
1.38894361902e-05
7.88280834856e-06
-2.46978519427e-05
1.98171458469e-05
8.96936365009e-06
-2.41684696368e-05
2.37505327049e-05
1.06474689106e-05
-2.27455281736e-05
2.50677117246e-05
1.27202167804e-05
-2.105968138e-05
2.36616314401e-05
1.49096023592e-05
-1.96043931223e-05
1.98528846367e-05
1.6926336692e-05
-1.86008738717e-05
1.41819432828e-05
1.86270428635e-05
-1.80745334703e-05
7.34738962444e-06
1.98151908149e-05
-1.79625654749e-05
-1.8936989997e-08
2.04179731484e-05
-1.80117199657e-05
-7.38503301609e-06
2.04180454566e-05
-1.80108949941e-05
-1.42203596538e-05
1.98138797332e-05
-1.7962312027e-05
-1.989152519e-05
1.86248897472e-05
-1.80752144957e-05
-2.36992338339e-05
1.69229892901e-05
-1.86038784453e-05
-2.51017073544e-05
1.49047635386e-05
-1.96100268003e-05
-2.37780919488e-05
1.27134227264e-05
-2.10697331752e-05
-1.98353355627e-05
1.06403682073e-05
-2.27590734851e-05
-1.38981215586e-05
8.96396105224e-06
-2.41831406025e-05
-6.96308661822e-06
7.88196513086e-06
-2.47170376849e-05
6.98486061701e-06
-2.36389920827e-05
7.87233220512e-06
1.39140375161e-05
-2.46908069866e-05
1.51961958285e-05
1.52047096339e-05
-2.87214480302e-05
2.11532793632e-05
1.7134649163e-05
-2.92452749368e-05
2.50429061778e-05
2.01128659502e-05
-2.79387677457e-05
2.62968504717e-05
2.38054560384e-05
-2.58942872976e-05
2.4772909911e-05
2.7724110137e-05
-2.38215126646e-05
2.07408382251e-05
3.13714935498e-05
-2.21711030187e-05
1.48097154488e-05
3.43960742447e-05
-2.11426145231e-05
7.68015748051e-06
3.65038818106e-05
-2.07094566125e-05
-2.95578608493e-09
3.75741417762e-05
-2.06105319402e-05
-7.68686622645e-06
3.75732476566e-05
-2.06096320392e-05
-1.48176969552e-05
3.65017904578e-05
-2.07068061379e-05
-2.07507907398e-05
3.43915952753e-05
-2.11394938898e-05
-2.47848898638e-05
3.13649624954e-05
-2.21684237657e-05
-2.63092240405e-05
2.77154144774e-05
-2.38218327399e-05
-2.50530108688e-05
2.37946135798e-05
-2.58998214617e-05
-2.11586967579e-05
2.0101409955e-05
-2.79497791512e-05
-1.51966630352e-05
1.71262012474e-05
-2.92597302835e-05
-7.86980011871e-06
1.52037732402e-05
-2.87383413712e-05
1.3926188013e-05
-2.47079355564e-05
8.96656119191e-06
1.98368086972e-05
-2.41528599378e-05
1.71383854688e-05
2.1153062649e-05
-2.92399053828e-05
2.36415078041e-05
2.36262353603e-05
-2.95926302653e-05
2.78080137313e-05
2.75015378748e-05
-2.73206681728e-05
2.90736587442e-05
3.23186075108e-05
-2.38846452647e-05
2.72912439499e-05
3.74397807885e-05
-2.02799040258e-05
2.2779612737e-05
4.22060235428e-05
-1.72281841366e-05
1.62206414512e-05
4.61187647436e-05
-1.51476097451e-05
8.4008726216e-06
4.88344595907e-05
-1.40842369842e-05
7.0836679924e-09
5.02129488372e-05
-1.3712108211e-05
-8.3875706866e-06
5.02122978459e-05
-1.37096113793e-05
-1.62097362439e-05
4.88300369521e-05
-1.40782089922e-05
-2.27720678695e-05
4.61114240321e-05
-1.51383666807e-05
-2.72878609242e-05
4.21953674127e-05
-1.72173637687e-05
-2.90740455852e-05
3.74260284332e-05
-2.02715666485e-05
-2.78094271384e-05
3.23029146311e-05
-2.38836295612e-05
-2.36413164664e-05
2.74864901764e-05
-2.73274374187e-05
-1.71355147366e-05
2.36153892575e-05
-2.96047442445e-05
-8.96233267995e-06
2.11521119394e-05
-2.9253531638e-05
1.98540346598e-05
-2.41645358818e-05
1.06503499622e-05
2.37575084575e-05
-2.2721045346e-05
2.01253097263e-05
2.50301209008e-05
-2.79303826195e-05
2.75279983613e-05
2.77789670933e-05
-2.73200510716e-05
3.21759791855e-05
3.21330078707e-05
-2.32760184861e-05
3.34689861534e-05
3.75539740874e-05
-1.76022241544e-05
3.12663557767e-05
4.33137970815e-05
-1.16382718184e-05
2.59783229999e-05
4.86411651845e-05
-6.49019060217e-06
1.84209585628e-05
5.29786811954e-05
-2.87453943609e-06
9.51611208023e-06
5.59641859042e-05
-9.29693251603e-07
1.23074599592e-08
5.74735213598e-05
-1.75505765747e-07
-9.49271358307e-06
5.74699054696e-05
-1.71964907664e-07
-1.83999913384e-05
5.59563357209e-05
-9.19370328032e-07
-2.59618162041e-05
5.29659771986e-05
-2.85719548939e-06
-3.12555113375e-05
4.86234037468e-05
-6.46937292074e-06
-3.34637985393e-05
4.32927144138e-05
-1.16195262796e-05
-3.21737597928e-05
3.75318341729e-05
-1.75917358779e-05
-2.75264008457e-05
3.21125506637e-05
-2.32757168626e-05
-2.01223600339e-05
2.77646394567e-05
-2.73269682265e-05
-1.06468216534e-05
2.50277324388e-05
-2.79399081128e-05
2.37776613405e-05
-2.27290848562e-05
1.27255237398e-05
2.50602687939e-05
-2.10314882495e-05
2.38217962192e-05
2.62727859886e-05
-2.58875474226e-05
3.23503315941e-05
2.90330564841e-05
-2.38910130212e-05
3.76051164887e-05
3.34117053548e-05
-1.76130686337e-05
3.89309478308e-05
3.88611747718e-05
-9.13883164087e-06
3.61784308404e-05
4.46178552383e-05
-1.9629885824e-07
2.99112022663e-05
4.99557778449e-05
7.47495798264e-06
2.11074390435e-05
5.42793328197e-05
1.28787755545e-05
1.08673774466e-05
5.72585306948e-05
1.58007427148e-05
1.29602526242e-08
5.87709199142e-05
1.69528201149e-05
-1.08422390855e-05
5.87669915222e-05
1.69570219201e-05
-2.10851163043e-05
5.72463970168e-05
1.58130989658e-05
-2.9892845869e-05
5.42606897529e-05
1.29000737991e-05
-3.61657390558e-05
4.99300422898e-05
7.5008261664e-06
-3.89244580201e-05
4.45869637456e-05
-1.69911629808e-07
-3.76027377321e-05
3.88302379804e-05
-9.12074884146e-06
-3.23492903434e-05
3.33842575041e-05
-1.76043732659e-05
-2.38205520643e-05
2.90130887354e-05
-2.38912478374e-05
-1.27236548199e-05
2.62672125552e-05
-2.58915662652e-05
2.50795795171e-05
-2.10348892924e-05
1.49135188659e-05
2.36447939347e-05
-1.95764886297e-05
2.77379614362e-05
2.47437747463e-05
-2.38222719155e-05
3.74685408506e-05
2.724803494e-05
-2.03037326858e-05
4.33639110289e-05
3.120694482e-05
-1.16788355316e-05
4.46903041221e-05
3.61065225347e-05
-2.38439709582e-07
4.13776951404e-05
4.13018662658e-05
1.16415308282e-05
3.40638123391e-05
4.61202065608e-05
2.18075666861e-05
2.39606731241e-05
5.00506054882e-05
2.8858525007e-05
1.23145055317e-05
5.27533362019e-05
3.27173896149e-05
9.81928797402e-09
5.41164933417e-05
3.43194818786e-05
-1.22957582446e-05
5.4110842129e-05
3.43217281697e-05
-2.39431849718e-05
5.27379040791e-05
3.27264635885e-05
-3.40498214831e-05
5.00255123898e-05
2.88776872071e-05
-4.13680503796e-05
4.60867240676e-05
2.18330677189e-05
-4.46847749214e-05
4.12617298316e-05
1.16667739958e-05
-4.33623632262e-05
3.60651548489e-05
-2.14527796437e-07
-3.74693491933e-05
3.11701989895e-05
-1.16637739587e-05
-2.77382105101e-05
2.72211862273e-05
-2.0297590962e-05
-1.49132185267e-05
2.47326398727e-05
-2.38209372125e-05
2.36598139203e-05
-1.95738528406e-05
1.69277042218e-05
1.98332769177e-05
-1.85763941232e-05
3.13792573168e-05
2.0717404258e-05
-2.21837521574e-05
4.2227780229e-05
2.27484290416e-05
-1.7276792364e-05
4.86860579768e-05
2.59362261303e-05
-6.57542373666e-06
5.0026250507e-05
2.98600176283e-05
7.37583851069e-06
4.61922711551e-05
3.40117736602e-05
2.17529183577e-05
3.79418575483e-05
3.78967679085e-05
3.39449512743e-05
2.66417664005e-05
4.11073800705e-05
4.24645074134e-05
1.36775517609e-05
4.3284408279e-05
4.71911305987e-05
3.64734318221e-09
4.43501195894e-05
4.91939433084e-05
-1.3669946965e-05
4.43449810992e-05
4.91941385582e-05
-2.66337112438e-05
4.32671594101e-05
4.71917390978e-05
-3.79352121674e-05
4.10778644059e-05
4.24712772084e-05
-4.61884570731e-05
3.78571139583e-05
3.39621132885e-05
-5.0023717596e-05
3.396457201e-05
2.17712907416e-05
-4.86859252073e-05
2.98101516637e-05
7.39350616354e-06
-4.22287120505e-05
2.58916674282e-05
-6.56065605221e-06
-3.13809797529e-05
2.27146031603e-05
-1.72694246545e-05
-1.69281749758e-05
2.07005309117e-05
-2.21788617401e-05
1.98415421735e-05
-1.85700282487e-05
1.86263685651e-05
1.41656822544e-05
-1.80519281998e-05
3.43991515177e-05
1.48000720046e-05
-2.11630450628e-05
4.61335844259e-05