/*--------------------------------*- C++ -*----------------------------------*\
| =========                 |                                                 |
| \\      /  F ield         | OpenFOAM: The Open Source CFD Toolbox           |
|  \\    /   O peration     | Version:  3.0.1                                 |
|   \\  /    A nd           | Web:      www.OpenFOAM.org                      |
|    \\/     M anipulation  |                                                 |
\*---------------------------------------------------------------------------*/
FoamFile
{
    version     2.0;
    format      ascii;
    class       surfaceVectorField;
    location    "2.4";
    object      ddt0(Uf);
}
// * * * * * * * * * * * * * * * * * * * * * * * * * * * * * * * * * * * * * //

dimensions      [0 1 -2 0 0 0 0];

internalField   nonuniform List<vector> 
22672
(
(0.00242130591015 0.00109580011772 -0.00222368108446)
(0.00109410487722 0.0024255878685 -0.0022237570973)
(0.00138969703061 0.00139141658799 -0.00485921445437)
(0.004925300471 0.000908704670071 -0.00202153476772)
(0.00352921135901 0.00217766281353 -0.00246144179534)
(0.00407117492697 0.00135252480603 -0.0046947556435)
(0.00707800929969 0.00076868071508 -0.00164545203857)
(0.00600002386357 0.00198833457131 -0.0023134350013)
(0.00658535805739 0.00130903735493 -0.00415288620438)
(0.00851830440002 0.000688224120902 -0.00116626059424)
(0.00786763715817 0.00188415296864 -0.00192245603358)
(0.00844843726594 0.00129098217809 -0.00333373050261)
(0.00903127421734 0.00067121372675 -0.000665874970908)
(0.0089072536412 0.00187234127626 -0.00143558779138)
(0.00945778186629 0.00130967977599 -0.00239108769144)
(0.00857697743416 0.000680040410401 -0.000209866296744)
(0.00892223175363 0.00191369034049 -0.000943888717106)
(0.00941775067947 0.00135076007663 -0.00146105101736)
(0.00727551862732 0.000706696268119 0.000170446301544)
(0.00804959159206 0.00194274603043 -0.000515567338748)
(0.00847875983085 0.00137494466683 -0.000638581059104)
(0.00525342217214 0.000751062909064 0.000456349533101)
(0.0063512641623 0.00199738473033 -0.000167640547918)
(0.00668322599308 0.00142568031007 3.16674973544e-05)
(0.00273782717631 0.000782976927001 0.000628283591494)
(0.00404332516726 0.00203987993079 6.50825897666e-05)
(0.00425378946928 0.00146727697302 0.000486483219403)
(-2.43281555007e-05 0.000794239411308 0.000685761206675)
(0.00137338396378 0.00206176437486 0.000179819285546)
(0.00144556275337 0.00148961711083 0.000714278987604)
(-0.00278576764426 0.000782939403266 0.000629460152912)
(-0.00141749945748 0.00206183399451 0.00018035735794)
(-0.00148956681536 0.00148946917494 0.000715744883686)
(-0.00529913690173 0.000750926748122 0.000458663751337)
(-0.00408623605576 0.00204001299912 6.66389678305e-05)
(-0.00429644715847 0.00146680156726 0.000490784716628)
(-0.00731763893859 0.00070636074816 0.000173792601448)
(-0.00639174576703 0.00199750934009 -0.000165120546416)
(-0.00672321709745 0.00142482494055 3.86996826002e-05)
(-0.00861418615235 0.000679439268098 -0.000205503984046)
(-0.00808640429912 0.00194273145082 -0.000512155562905)
(-0.00851489246841 0.00137362541285 -0.000629193296292)
(-0.00906280818599 0.000670228606984 -0.000660755432589)
(-0.00895439819699 0.00191336558295 -0.000939772837413)
(-0.00944922951592 0.0013490553231 -0.00144932607691)
(-0.00854295497773 0.000686831593837 -0.00116065789276)
(-0.008933801249 0.00187160504163 -0.00143098994062)
(-0.00948376563587 0.00130745896819 -0.00237820243952)
(-0.00709538902007 0.000767116665554 -0.00163944185239)
(-0.0078874598667 0.00188311696561 -0.00191739442163)
(-0.00846785168613 0.00128855328262 -0.00331975735273)
(-0.00493518648106 0.000907398694753 -0.00201514215779)
(-0.00601274274849 0.00198728416464 -0.00230801412277)
(-0.00659793241224 0.00130678281039 -0.00413842967042)
(-0.0024239705061 0.00109519989819 -0.00221680284414)
(-0.00353408041297 0.00217707754795 -0.00245538739996)
(-0.00407627713362 0.00135098888309 -0.00467992545229)
(-0.00109515039115 0.00242574584891 -0.00221695087504)
(-0.0013910245101 0.00139102194561 -0.00484410690304)
(0.00217336300434 0.00353542612728 -0.00246151780818)
(0.000907006370119 0.00493336283055 -0.00202201633401)
(0.00135096390827 0.00407716513554 -0.00469474430077)
(0.00477414902557 0.00335017687562 -0.00275334202891)
(0.0033436923988 0.00478244401926 -0.00275361672925)
(0.00404419754333 0.00405029926683 -0.00521954593542)
(0.00705834489706 0.00322122061362 -0.00259043899631)
(0.00592504250158 0.00464420281883 -0.00279897936885)
(0.00656912889284 0.00399470599373 -0.0049525020326)
(0.00857474826348 0.00318279885988 -0.00219178323072)
(0.00788114728792 0.00459581325044 -0.00246546314455)
(0.00843604473043 0.0039907747793 -0.00423774749687)
(0.00912379816688 0.00321942333868 -0.00171360153758)
(0.00895661689411 0.00464777489988 -0.00198501069338)
(0.00942147383153 0.00404419209689 -0.00333055668011)
(0.00868355869375 0.0032718744659 -0.00124958975911)
(0.00900299899474 0.00474646562684 -0.00148319339428)
(0.0093976585579 0.00411589668362 -0.00239447275082)
(0.00735174957931 0.00332433383031 -0.00085365418821)
(0.00810860154456 0.0048216801903 -0.00103842789435)
(0.00843919044658 0.00416551644381 -0.00154476640793)
(0.00530282595011 0.00337779528972 -0.000558907491252)
(0.00639366106327 0.00490712924491 -0.000685521882365)
(0.00664945961435 0.0042246872034 -0.000854371979687)
(0.00276353386843 0.00341160375977 -0.000383381716181)
(0.00406822682665 0.00497164946951 -0.000452736106474)
(0.00423450011666 0.00426906225609 -0.00038246851727)
(-2.0073925532e-05 0.00342286924717 -0.000325584563189)
(0.00138359668606 0.0050045175553 -0.00033995760375)
(0.0014432232349 0.00429235740104 -0.000146347535988)
(-0.00280320005042 0.00341182975523 -0.000382463827142)
(-0.00141991414893 0.00500481374085 -0.000339607007722)
(-0.00147437816645 0.00429220066196 -0.00014517840074)
(-0.0053409438289 0.00337814138756 -0.000557145329923)
(-0.00410374893114 0.00497249245207 -0.000451783297775)
(-0.00426507200706 0.00426852783686 -0.000379135614248)
(-0.00738734168855 0.00332463162997 -0.000851068710769)
(-0.00642755145978 0.00490838422167 -0.000683865549005)
(-0.00667888239902 0.00422375904096 -0.000848896894663)
(-0.00871570180055 0.00327192807037 -0.00124642441627)
(-0.00814003842436 0.00482301583791 -0.00103622327481)
(-0.0084668519928 0.0041640486712 -0.00153723997057)
(-0.00915118883237 0.00321901757431 -0.00171000734544)
(-0.0090309643674 0.00474779275334 -0.00148061012281)
(-0.00942272515215 0.00411389805479 -0.00238584019973)
(-0.00859643544523 0.00318188403227 -0.00218772646949)
(-0.00897996965728 0.00464863109441 -0.00198220322666)
(-0.00944286766695 0.00404171311314 -0.00332062634675)
(-0.00707368242328 0.00322015436421 -0.00258596669201)
(-0.0078987103991 0.00459641231281 -0.00246223199714)
(-0.00845261131361 0.00398815499861 -0.00422677087568)
(-0.00478270025806 0.00334950809804 -0.00274825936493)
(-0.00593618236391 0.00464505899078 -0.0027951725792)
(-0.00657994506326 0.00399251324445 -0.00494076908787)
(-0.00217522836895 0.00353558727146 -0.00245553543086)
(-0.00334756407836 0.0047840484087 -0.00274882130057)
(-0.0040480548878 0.00404901295945 -0.00520678184056)
(-0.000907441824083 0.00493585776536 -0.00201608482191)
(-0.00135141437273 0.00407702405894 -0.00468036264571)
(0.00198387609272 0.00600969126564 -0.00231411525508)
(0.000766818980088 0.00708927902432 -0.00164678015854)
(0.00130717886224 0.006594587715 -0.00415366913592)
(0.00463518804422 0.0059353559453 -0.00279925406919)
(0.00321422682857 0.00706998183165 -0.00259153018087)
(0.00398791321443 0.00657881624165 -0.0049530967831)
(0.00700341456613 0.005892883275 -0.00267400351709)
(0.00588178281906 0.00701604655763 -0.00267456609047)
(0.00652566201183 0.00653634339258 -0.00475295848675)
(0.00857210292198 0.00593492890849 -0.00225869060721)
(0.0079079956088 0.0070443568122 -0.0023099319603)
(0.00839589350179 0.00655307990686 -0.00402773573532)
(0.00914487552412 0.0060387351207 -0.00175460255008)
(0.00901467905438 0.00715755973447 -0.00178364614096)
(0.00936823382246 0.00662600289154 -0.00308996366362)
(0.00870719672013 0.00614579368207 -0.00127203152952)
(0.00907156475587 0.00730314200294 -0.00124356286373)
(0.00934271505078 0.00671482494093 -0.0021228718174)
(0.00736729012997 0.00623791321797 -0.000870295588508)
(0.00816000416792 0.00741403638452 -0.000774342410787)
(0.00837616552138 0.00677911893611 -0.00125269507204)
(0.00531254974488 0.00631910906761 -0.000579350497587)
(0.00642983409544 0.00751878985097 -0.000409725198991)
(0.00659626689903 0.00684205502941 -0.000553783459514)
(0.00277009870306 0.00637274937665 -0.000409311994043)
(0.0040888251016 0.0075978961555 -0.000175496068769)
(0.00420201217012 0.00689147101497 -7.78287326895e-05)
(-1.64664609357e-05 0.00639132325833 -0.000353980048283)
(0.00139165313542 0.00763831977322 -6.02746049932e-05)
(0.00143537874477 0.0069208228398 0.000160806722522)
(-0.00280277250788 0.00637357906744 -0.000408926478356)
(-0.00142201769044 0.00763893622406 -6.01228698784e-05)
(-0.00145733591874 0.00692095421965 0.000161482552674)
(-0.00534421188443 0.00632063578025 -0.000578503516857)
(-0.00411868674022 0.00759957430595 -0.00017520223428)
(-0.00422391990241 0.00689174247614 -7.58638598843e-05)
(-0.00739743181703 0.00623988060442 -0.000869020113045)
(-0.00645864744077 0.00752123517397 -0.000408989544935)
(-0.00661807363487 0.00684238771268 -0.00055007022923)
(-0.00873484992297 0.00614792166606 -0.00127040898135)
(-0.00818725697094 0.00741698398796 -0.000773305529866)
(-0.00839767860798 0.00677922784675 -0.00124778767345)
(-0.00916901540064 0.00604072488023 -0.00175280600404)
(-0.00909641645006 0.00730628151775 -0.00124241719539)
(-0.009363077333 0.00671466157576 -0.00211672807513)
(-0.00859135998855 0.00593668884996 -0.00225670875431)
(-0.00903581037942 0.00716062939557 -0.00178262475518)
(-0.00938621634366 0.00662556647722 -0.00308328083672)
(-0.00701699818137 0.0058947918926 -0.00267143788433)
(-0.00792394761093 0.00704740392292 -0.00230862979554)
(-0.00841000581012 0.00655276839797 -0.00401989990793)
(-0.00464249542926 0.00593796413227 -0.00279573451484)
(-0.00589169842157 0.00701971921735 -0.00267242663126)
(-0.00653469014551 0.00653684616099 -0.00474401353572)
(-0.00198514916393 0.00601323480191 -0.00230937069161)
(-0.00321742437377 0.00707474662249 -0.00258806497352)
(-0.00399051491684 0.00658044484102 -0.00494258949461)
(-0.000766910404016 0.00709507978153 -0.00164201817173)
(-0.00130682396838 0.00659714260065 -0.00414096887249)
(0.00187946442018 0.00788015900632 -0.00192419508433)
(0.00068613678516 0.00853207523408 -0.00116877909809)
(0.00128874565509 0.00846023393837 -0.00333604190302)
(0.00458621051277 0.00789434450121 -0.00246684220216)
(0.00317518623701 0.00858877975876 -0.0021941994231)
(0.00398319755996 0.0084482861141 -0.00423989092577)
(0.00703123489909 0.00792182945555 -0.00231049453368)
(0.00592313302261 0.00858694752759 -0.00226070568408)
(0.00654157669198 0.00840900875832 -0.0040293306133)
(0.00865028615187 0.00802812277637 -0.00183488749406)
(0.00801393340118 0.0086650508476 -0.00183584873528)
(0.00841600144951 0.00842963162504 -0.00325138745275)
(0.00923712871309 0.00818566534863 -0.00127260645461)
(0.00915141744887 0.00881782532096 -0.00123773803005)
(0.0093763436935 0.0085016298835 -0.00225640430207)
(0.00878472992448 0.00833302863166 -0.000745873744996)
(0.00920356711234 0.00899227668531 -0.000623541216294)
(0.00933330839428 0.00858527073181 -0.00124332278306)
(0.00742450698641 0.00844968954987 -0.000313772021271)
(0.00826754614613 0.00911223399152 -9.79321004037e-05)
(0.00835066233555 0.00863553696317 -0.000341778507857)
(0.00534913348476 0.00854272746686 -5.87077017279e-06)
(0.00650544395304 0.0092118785406 0.000313031992531)
(0.00656814351145 0.00867751355899 0.000381013789153)
(0.00278847021773 0.0085997088049 0.000173541320281)
(0.00412986018696 0.00927943409629 0.00057557918522)
(0.00418434203889 0.0087044087738 0.000879861755306)
(-1.40277186144e-05 0.00861826374982 0.000233582573412)
(0.00140523145491 0.00930948446463 0.000703001063629)
(0.00143220733519 0.00871543562163 0.00113334707738)
(-0.00281640589552 0.00860100655522 0.000173601374198)
(-0.00143129815082 0.00931024162593 0.000703011554926)
(-0.00144813619251 0.00871563174018 0.00113366929639)
(-0.00537648792972 0.00854506709593 -5.68826235797e-06)
(-0.00415574525246 0.00928146319892 0.000575462831698)
(-0.00420056160205 0.00870491728951 0.000880819985214)
(-0.0074508193836 0.00845271954501 -0.000313274961756)
(-0.00653084004498 0.00921470213995 0.000313016596669)
(-0.00658497804752 0.00867816650577 0.000383115019207)
(-0.00880956623758 0.0083365635142 -0.000745313743909)
(-0.00829206044366 0.0091155937371 -9.77824947621e-05)
(-0.00836811938893 0.00863620404106 -0.000338237701971)
(-0.00925926730476 0.00818951370633 -0.00127223594653)
(-0.00922640806105 0.00899637883246 -0.000623192178321)
(-0.00935066305571 0.00858621864463 -0.00123943220978)
(-0.00866824143488 0.00803215122549 -0.00183454579641)
(-0.00917119861478 0.00882234651706 -0.00123793770944)
(-0.00939210722144 0.00850256670969 -0.00225215876268)
(-0.00704376960255 0.00792639423754 -0.00230961854248)
(-0.00802895524934 0.00867016048471 -0.00183601342985)
(-0.00842834474508 0.0084310194465 -0.00324653199708)
(-0.00459275706875 0.00789996301214 -0.00246475708995)
(-0.00593233176086 0.00859313558741 -0.00225996079784)
(-0.00654915963806 0.00841163614293 -0.00402305148059)
(-0.00188057188309 0.00788699084555 -0.00192071245363)
(-0.00317820271776 0.00859647230687 -0.00219198363991)
(-0.00398496380779 0.00845248425956 -0.00423169155637)
(-0.000686324772585 0.00854109845228 -0.00116529260224)
(-0.00128805472079 0.00846568795481 -0.00332548619928)
(0.00186735221559 0.00892179693985 -0.00143878343686)
(0.000668600219868 0.00904700384714 -0.000669969113877)
(0.00130717566943 0.00947120482488 -0.00239587311274)
(0.0046374228737 0.0089715294808 -0.00198806290502)
(0.00321079438065 0.00913946905282 -0.00171789083756)
(0.00403577247315 0.00943508878039 -0.00333520886652)
(0.0071438063456 0.00902962640003 -0.00178605988567)
(0.00602577665498 0.00916083376296 -0.00175870896087)
(0.00661359225233 0.00938222119344 -0.00309425287811)
(0.0088031312197 0.00916574545505 -0.00123869927127)
(0.00817049270385 0.00925206199577 -0.00127591923687)
(0.00848743328088 0.00939007716098 -0.00225917462562)
(0.00939554706594 0.00934938165356 -0.000588672791736)
(0.00933505154358 0.00940909340691 -0.000590386131682)
(0.00943321458507 0.00944640079007 -0.00119486289771)
(0.00891577855324 0.00951724176478 2.44004282983e-05)
(0.0093688373898 0.0095693272655 0.000115890951646)
(0.0093621354204 0.00951075933169 -0.000106424207714)
(0.00752445250647 0.00964400963933 0.000528871913398)
(0.0083984465077 0.00966221492349 0.00071714495714)
(0.00835416309445 0.00954107806559 0.000834369867862)
(0.00540955555128 0.00973817539975 0.000894481947923)
(0.0065940114602 0.00972990430291 0.00118503831884)
(0.00655533439103 0.00955230713833 0.00159190677076)
(0.00281591754364 0.0097947195864 0.00110503892857)
(0.00417530873703 0.00977346779521 0.00148329814307)
(0.00416246034345 0.00955080777382 0.00209606769742)
(-1.20840894583e-05 0.009813304853 0.00117243004514)
(0.00141933630802 0.00979059567392 0.00162358779538)
(0.00142171734398 0.00954284681314 0.00234405514567)
(-0.00284013558948 0.00979614660856 0.00110487301243)
(-0.00144198839525 0.00979125693987 0.00162366059389)
(-0.00143437299804 0.00954297917036 0.00234425229378)
(-0.00543386545379 0.00974057054027 0.000894167690725)
(-0.00419828148557 0.00977528172936 0.00148311025206)
(-0.00417559448052 0.00955105294064 0.00209674839572)
(-0.00754843807364 0.00964703371484 0.000528509063662)
(-0.00661704791233 0.00973241886449 0.00118440141945)
(-0.00656936628246 0.0095522936251 0.00159307996293)
(-0.00893868929608 0.0095209752349 2.43390708259e-05)
(-0.008421033715 0.00966516554225 0.000716429637985)
(-0.0083690609676 0.00954103901044 0.000836234510272)
(-0.00941638000513 0.00935394812854 -0.00058889394123)
(-0.00939012126266 0.00957313646663 0.000115536681418)
(-0.00937754606043 0.0095111978543 -0.000103914640933)
(-0.00882023656004 0.00917121142995 -0.00123940534289)
(-0.00935373865773 0.00941408124345 -0.000591204856158)
(-0.00944781636194 0.00944767204032 -0.00119262830817)
(-0.00715573435263 0.0090362606947 -0.00178635568522)
(-0.00818474777715 0.00925839416645 -0.00127704167697)
(-0.0084987386441 0.00939230606108 -0.00225670693683)
(-0.00464359424223 0.00897971570146 -0.00198718734781)
(-0.00603443083036 0.0091688704813 -0.00175905226334)
(-0.00662030127525 0.00938625105471 -0.00309055400597)
(-0.00186871323201 0.00893160763205 -0.00143656378852)
(-0.00321387806283 0.00914948771446 -0.00171683180416)
(-0.00403727595435 0.00944130375436 -0.00332952471385)
(-0.00066908950545 0.00905872718422 -0.000667840036009)
(-0.0013066707273 0.00947941969344 -0.00238798856293)
(0.00190775357132 0.00893841325227 -0.000949076514573)
(0.000676848935199 0.00859469599438 -0.000215757980103)
(0.00134747067898 0.00943272283734 -0.00146896435733)
(0.00473462901576 0.00901897805947 -0.00148853689342)
(0.00326196559906 0.00870056018237 -0.00125613019693)
(0.00410621308088 0.00941185119904 -0.00240266018213)
(0.00728781849875 0.00908678353647 -0.00124856831207)
(0.00613120507537 0.00872389639384 -0.00127862436433)
(0.00670094289389 0.00935650655737 -0.00213088675171)
(0.00897632992112 0.00921704404244 -0.000627606097279)
(0.00831605766675 0.00879959303748 -0.00075208859907)
(0.0085695444144 0.00934582096763 -0.00124997826492)
(0.00955570208238 0.00938099178452 0.0001141776117)
(0.00950180865194 0.00892816521097 1.93582742836e-05)
(0.00949668783306 0.00937301284536 -0.00011110391923)
(0.00904133857706 0.00950233247013 0.000808635480488)
(0.00949028894961 0.00905191124789 0.000806564246527)
(0.00938919598193 0.00939926385767 0.00102092889761)
(0.00760519992141 0.00956624652512 0.00137331136258)
(0.00847563397168 0.00908274438579 0.00144978300837)
(0.0083501629298 0.00937524459823 0.00200692940758)
(0.00545390426023 0.00960698302788 0.00177385451399)
(0.0066333022822 0.00910953327965 0.00194490361197)
(0.00653067373655 0.00932936777513 0.00276499660271)
(0.00283348382934 0.00962704969739 0.00200184700989)
(0.00418324254934 0.00912884531347 0.0022680974539)
(0.00413442655235 0.00928402157042 0.0032597560226)
(-1.05339272145e-05 0.00963213137153 0.00207481834414)
(0.0014181165135 0.00912759365163 0.0024316566921)
(0.00140997333787 0.0092508135608 0.00350222408168)
(-0.00285489391472 0.00962805068436 0.00200189783353)
(-0.00143871057717 0.00912780497823 0.00243142014681)
(-0.00142110375751 0.00925065564635 0.00350274920996)
(-0.00547598333078 0.00960892299329 0.00177334398079)
(-0.00420425551585 0.00913009840912 0.00226749573232)
(-0.00414647798261 0.0092837913302 0.00326043757189)
(-0.00762736872539 0.00956877351582 0.00137232199377)
(-0.00665480406234 0.00911174127092 0.00194418473037)
(-0.00654380513385 0.00932857567902 0.00276515726183)
(-0.00906268507745 0.00950554245883 0.000807627248578)
(-0.008496932329 0.00908539057182 0.00144850736712)
(-0.00836406841118 0.00937400249292 0.00200712946496)
(-0.00957521843913 0.00938540753821 0.00011322576649)
(-0.00951030852691 0.00905538922576 0.00080522629805)
(-0.00940330290608 0.00939821258287 0.00102157674974)
(-0.00899250396769 0.00922299902474 -0.000628841190246)
(-0.00951941797461 0.00893322880449 1.78495047723e-05)
(-0.00951003097715 0.00937323769014 -0.000110586559375)
(-0.00729900082671 0.00909455180354 -0.0012497382551)
(-0.00832937369793 0.00880652669918 -0.000754002915718)
(-0.00858001478882 0.00934784948293 -0.00124954033438)
(-0.00474036855655 0.00902883912189 -0.0014886967197)
(-0.00613920668765 0.00873317298037 -0.00127989147081)
(-0.00670698794026 0.00936101313497 -0.00212950330558)
(-0.00190940146481 0.0089503623954 -0.00094810805165)
(-0.00326510224049 0.00871233490818 -0.00125611263259)
(-0.00410771913521 0.00941929502118 -0.00239952136177)
(-0.000677706177498 0.00860872197659 -0.000214946599055)
(-0.00134723627387 0.00944314212174 -0.00146395264245)
(0.00193607094898 0.00806735285884 -0.000522811662458)
(0.0007030828069 0.00729488333351 0.000162806299248)
(0.0013712437269 0.00849513526018 -0.000649973503686)
(0.00480838075395 0.00812560571074 -0.00104621766784)
(0.00331330937487 0.00737006105451 -0.00086240725303)
(0.00415460741753 0.00845366570035 -0.0015569758606)
(0.00739678812093 0.00817555755753 -0.000782144651333)
(0.00622159697344 0.00738481924695 -0.000879151271728)
(0.00676361391176 0.00838930151266 -0.0012647098493)
(0.00909450859196 0.0082802843484 -0.000105124227508)
(0.00843015609117 0.00743971152254 -0.000322777303686)
(0.00861787143146 0.00836149163332 -0.000352708108068)
(0.00964745845376 0.00840769608157 0.00071174490911)
(0.00962550513893 0.00753635210756 0.000519986278061)
(0.00952520359787 0.00836192290227 0.000825293299829)
(0.00907370371449 0.00848067803586 0.00144771177441)
(0.00955046103454 0.00761320901676 0.00136493257626)
(0.00936425128152 0.00835365675687 0.00200106133946)
(0.00759280019942 0.00850915638609 0.00202137525777)
(0.00850459057261 0.00759590441517 0.00201307772596)
(0.00828640520409 0.0082846535176 0.0029590707509)
(0.00542245833658 0.00853533824996 0.00243914655189)
(0.00664804635624 0.00760176299858 0.00251819325797)
(0.00645120312995 0.00821552674304 0.00367205441622)
(0.00280736794797 0.00854279833316 0.00269790713612)
(0.00418591991921 0.00759632638162 0.00277328941808)
(0.00406211407793 0.00816668173599 0.00414332588628)
(-9.99494553969e-06 0.00854027419033 0.00278825849478)
(0.0014138538145 0.00757173210418 0.00290995195691)
(0.00137813473164 0.00813330375096 0.0043695786897)
(-0.00282731022283 0.0085433105445 0.0026970180456)
(-0.0014346241948 0.00757184905718 0.00290917763132)
(-0.00138964269549 0.00813262947801 0.00436923775168)
(-0.00544319093666 0.00853679802412 0.0024383364819)
(-0.00420620876126 0.00759715839818 0.00277261266072)
(-0.00407433040298 0.00816540035454 0.00414361750187)
(-0.00761411141886 0.00851142614053 0.00202037010372)
(-0.00666838013714 0.00760336607668 0.00251928464636)
(-0.00646477582583 0.00821386253375 0.00367240885366)
(-0.00909418323706 0.0084836776172 0.00144610641659)
(-0.00852535914036 0.00759860347147 0.00201143981043)
(-0.00830050435207 0.00828250286026 0.00295807989759)
(-0.00966589362743 0.00841200260083 0.000709850036332)
(-0.00956975193011 0.0076168102337 0.00136267701277)
(-0.00937802153176 0.00835178548101 0.00199992792178)
(-0.0091096668305 0.00828647837782 -0.0001073122207)
(-0.00964210818286 0.0075416655446 0.000517376218899)
(-0.00953773710007 0.00836120684367 0.000824205328865)
(-0.00740703543803 0.00818408963204 -0.000784156131427)
(-0.00844244120009 0.00744726137577 -0.000325571413665)
(-0.00862740555718 0.00836302589676 -0.000354249332651)
(-0.00481360848557 0.00813681471619 -0.0010473073837)
(-0.0062288625553 0.00739523372254 -0.000881320186101)
(-0.00676909362318 0.00839396440332 -0.00126550628139)
(-0.00193816740536 0.00808116793396 -0.000522951179998)
(-0.00331648662014 0.00738337963219 -0.000863357437757)
(-0.00415632200897 0.00846204548088 -0.00155613935706)
(-0.000704334132455 0.00731096081839 0.000162467459139)
(-0.0013715171997 0.00850758964999 -0.000647733053087)
(0.00199001190683 0.00637050984379 -0.000176789291323)
(0.000747078646045 0.00527390938314 0.000447204894557)
(0.0014214938819 0.00670102682423 1.67998192833e-05)
(0.00489244943097 0.00641191713979 -0.000695340856917)
(0.00336615496875 0.00532211043832 -0.000569364441362)
(0.00421278673046 0.00666412862721 -0.000870279198279)
(0.00749905963775 0.00644666292605 -0.00041978392408)
(0.0063016246979 0.00533121006524 -0.000589583156152)
(0.00682471689897 0.00660891308307 -0.000569141757156)
(0.00919033649478 0.00652003429747 0.000302333201883)
(0.00852125918003 0.00536675739294 -1.64784596661e-05)
(0.00865676404193 0.00657840521764 0.000366084164428)
(0.0097091679689 0.00660598493387 0.00117317394521)
(0.00971703235855 0.00542614895876 0.000882833868117)
(0.0095312015197 0.00656306473877 0.00157744276792)
(0.00909409474165 0.00664243449276 0.00193029852781)
(0.0095885782092 0.00546969546021 0.00176178837105)
(0.00930975345 0.00653438877127 0.00274754274407)
(0.00759808279193 0.00665515589331 0.00250989572617)
(0.00852944980683 0.00543848063158 0.00242674293086)
(0.00821226588395 0.00644913809095 0.0036460371756)
(0.00542332457928 0.00669279906526 0.00285233612416)
(0.00668599482178 0.00543738632299 0.00285426694949)
(0.00639565405913 0.00639423015436 0.00433521323227)
(0.00281883533645 0.00671662511684 0.00298533423887)
(0.00419622084738 0.00543940337202 0.00303930760658)
(0.00403650176516 0.00637383682114 0.00475992435542)
(-1.0694464838e-05 0.00671843624519 0.00303087109345)
(0.0014094991971 0.00542799720706 0.0031262167277)
(0.00136830609573 0.00635746821376 0.00497277136695)
(-0.00283950032227 0.00671702485284 0.00298477224645)
(-0.00143098819194 0.00542852623766 0.00312504870715)
(-0.00138233950287 0.00635674070109 0.00497126623433)
(-0.00544335455236 0.00669397904185 0.00285356082518)
(-0.00421635046424 0.0054408009757 0.00303819983668)
(-0.00405004956898 0.00637223225963 0.00475783778171)
(-0.00761868137315 0.00665761984401 0.00251035435307)
(-0.00670557078706 0.00544007339561 0.00285580114088)
(-0.00640968410036 0.0063928899372 0.00433383881122)
(-0.00911416379718 0.00664610824034 0.00192801040661)
(-0.00854989538694 0.00544269994002 0.00242476386915)
(-0.00822678430016 0.00644782469192 0.00364370283539)
(-0.00972700228784 0.0066108454867 0.00117020319534)
(-0.00960752948657 0.00547479279108 0.00175870016769)
(-0.00932344824625 0.00653297874483 0.00274443445823)
(-0.00920449018733 0.00652691480725 0.000299117025934)
(-0.00973271750908 0.00543275541911 0.00087900437701)
(-0.00954324807339 0.00656254851275 0.00157411291532)
(-0.00750833531818 0.0064562425755 -0.000422735468339)
(-0.00853244147619 0.00537591155404 -2.02738367201e-05)
(-0.00866562283488 0.00658011739757 0.000362241750447)
(-0.00489719827295 0.00642453857213 -0.000697370240154)
(-0.00630810675212 0.00534327839183 -0.00059262074022)
(-0.00682969401609 0.00661412798655 -0.000572038824299)
(-0.00199254383597 0.00638618378575 -0.000177938798619)
(-0.00336936955411 0.00533733002373 -0.000571174840803)
(-0.00421476912983 0.00667365787083 -0.00087171383655)
(-0.000748610881341 0.00529222568791 0.000445956714318)
(-0.00142218142926 0.00671567477875 1.65223258843e-05)
(0.00203235637865 0.00406327871148 5.46297445186e-05)
(0.000779003326235 0.0027580894696 0.000617959133697)
(0.00146298323137 0.00427246646556 0.000468845678641)
(0.00495661436132 0.0040873611284 -0.000463606740597)
(0.00340003833317 0.00278255222571 -0.000394803357263)
(0.00425696825779 0.00424883573195 -0.000401009166036)
(0.00757738295127 0.00410778677495 -0.000186277691738)
(0.00635528118574 0.00278867268803 -0.000419977880468)
(0.00687352389922 0.00421391549051 -9.49339074094e-05)
(0.00925782908795 0.00414891096731 0.000564022206568)
(0.00857835556163 0.00280771864028 0.000162359210813)
(0.0086828434926 0.00419456753014 0.000862565637517)
(0.00975307527668 0.00419512800047 0.00147144829396)
(0.00977403976463 0.00283609323247 0.00109406553767)
(0.0095285806364 0.00417352718044 0.00208088311199)
(0.00911420762191 0.00420550682038 0.0022582327741)
(0.00961046511359 0.00285510613992 0.00199380807668)
(0.00926302878568 0.00414640982993 0.00324313697333)
(0.00759298902651 0.00420849229012 0.00277111415419)
(0.00853695746735 0.00283173880894 0.00269451713013)
(0.00816368592991 0.00407653662559 0.004122152942)
(0.00542552619501 0.00421697343829 0.00304123843192)
(0.00670769023904 0.00284000097934 0.0029916177263)
(0.00637566485753 0.00404942998467 0.00476333481885)
(0.00281099932549 0.00420201343267 0.00318019009542)
(0.0041811621688 0.00283076275508 0.00318095207544)
(0.00400585215216 0.00401802369223 0.00522472766962)
(-1.06875352751e-05 0.00419242439718 0.0032203943414)
(0.00139688476099 0.00281857201898 0.00325297392796)
(0.00135035513558 0.00399148239863 0.00543407786549)
(-0.00283153724029 0.00420410371603 0.00317847629739)
(-0.00141688733812 0.00282037007559 0.0032524440585)
(-0.00136577210975 0.00399215332925 0.0054317122111)
(-0.00544488916862 0.00422027673753 0.00304044015239)
(-0.00420045809264 0.00283464850563 0.00317968610485)
(-0.00401986769615 0.00401871688231 0.00522044916225)
(-0.00761334353297 0.0042128946785 0.00277021065697)
(-0.0067265921198 0.00284506790358 0.00299196785985)
(-0.00638969000375 0.00405030231435 0.0047613496425)
(-0.00913389324254 0.00421101655736 0.00225545363024)
(-0.0085567533759 0.00283791464673 0.00269213285465)
(-0.00817870958621 0.00407725759465 0.0041193738331)
(-0.00977041840853 0.00420190315305 0.00146750134936)
(-0.00962890064953 0.00286257536365 0.00199038341861)
(-0.0092773184086 0.0041469488578 0.00323895573628)
(-0.00927103061421 0.00415773037189 0.000559613514357)
(-0.00978887512577 0.00284523554979 0.0010890578416)
(-0.00954056104808 0.00417458253395 0.00207542736052)
(-0.0075856522182 0.00411937740069 -0.000190159108601)
(-0.00858831203441 0.00281935152289 0.000157364539428)
(-0.00869109536396 0.00419756119698 0.000856889582981)
(-0.00496085561862 0.00410200190796 -0.000466425340868)
(-0.0063608999687 0.00280320971495 -0.000423762556003)
(-0.00687799883485 0.00422070754043 -9.96801056178e-05)
(-0.00203527372308 0.00408114054085 5.2720672134e-05)
(-0.00340325395592 0.00280018783532 -0.000397265002274)
(-0.00425924727369 0.00426027622874 -0.000404181401844)
(-0.000780690989735 0.00277901277329 0.000616135693959)
(-0.00146400169729 0.00428968255728 0.0004665941745)
(0.00205461975917 0.00139238524838 0.000168526031916)
(0.000790681850489 -5.77508097855e-06 0.000674464759973)
(0.00148562052358 0.00146366461915 0.000694530524093)
(0.00498991791279 0.00140196197157 -0.000351174497134)
(0.00341199248298 -2.73725305413e-06 -0.000337429177415)
(0.00428064417138 0.00145593764939 -0.000166360788537)