/*--------------------------------*- C++ -*----------------------------------*\
| =========                 |                                                 |
| \\      /  F ield         | OpenFOAM: The Open Source CFD Toolbox           |
|  \\    /   O peration     | Version:  3.0.1                                 |
|   \\  /    A nd           | Web:      www.OpenFOAM.org                      |
|    \\/     M anipulation  |                                                 |
\*---------------------------------------------------------------------------*/
FoamFile
{
    version     2.0;
    format      ascii;
    class       surfaceVectorField;
    location    "2.4";
    object      Uf;
}
// * * * * * * * * * * * * * * * * * * * * * * * * * * * * * * * * * * * * * //

dimensions      [0 1 -1 0 0 0 0];

internalField   nonuniform List<vector> 
22672
(
(0.00193188501962 0.000762579482941 -0.00185172063338)
(0.000757417779702 0.00193929758198 -0.00185147145133)
(0.00126309984595 0.00126867133748 -0.00387118383655)
(0.00438154177255 0.000431235707192 -0.00173966580873)
(0.00282672938584 0.00150537463322 -0.00260467001632)
(0.00357325286875 0.00120578674386 -0.00395503711637)
(0.00668971693803 0.000334552507025 -0.00146668870992)
(0.00572588999546 0.00140087444643 -0.00272577011759)
(0.00623261710978 0.00124918951201 -0.00370906246422)
(0.00832178185824 0.000457622766274 -0.00114425911227)
(0.00797379109207 0.00163396499603 -0.0025181988275)
(0.00826773629082 0.00147728937738 -0.00326605264856)
(0.00896964755611 0.000748399179242 -0.000861507469744)
(0.00928954139989 0.00216173028355 -0.00224228356835)
(0.0094165030872 0.00185837194703 -0.00280963020337)
(0.00856601578137 0.00109792446672 -0.000657995951835)
(0.00941581970993 0.00284392824111 -0.00200141370524)
(0.00943563415982 0.00231557670344 -0.00244034230294)
(0.00725575812258 0.00143774510493 -0.000529138774597)
(0.00850217954329 0.00350415910273 -0.00184056468901)
(0.00848414206492 0.00274146545135 -0.00219395773193)
(0.00521504362617 0.00172403382613 -0.000457416433583)
(0.0066702435963 0.00408794266644 -0.00174635975465)
(0.00664357422045 0.00312918271621 -0.00204729283406)
(0.0027120376966 0.00190414195095 -0.000429494630635)
(0.00422001684225 0.00449619928649 -0.00171533925771)
(0.00420129822584 0.00340285297434 -0.00199326378303)
(-6.44362891913e-06 0.00196519267803 -0.00042320984201)
(0.00143709782998 0.00470230449495 -0.00171304195837)
(0.0014304126872 0.00354219709048 -0.00198389657557)
(-0.00272511259758 0.00190470456501 -0.000429853280933)
(-0.0014496911405 0.00470266696523 -0.00171316114039)
(-0.00144410144354 0.00354234049458 -0.00198407156286)
(-0.00522853654168 0.00172510127721 -0.000458208481546)
(-0.00423294546518 0.00449722888935 -0.00171575999121)
(-0.00421530499124 0.00340323534972 -0.00199387587892)
(-0.00726961817289 0.00143920461714 -0.000530467664026)
(-0.00668365029788 0.00408952739805 -0.00174716940186)
(-0.00665797015012 0.00312974247479 -0.00204851148294)
(-0.0085797714296 0.00109955642448 -0.000659888418075)
(-0.00851579045669 0.00350608844282 -0.0018418742667)
(-0.00849853142891 0.00274207125663 -0.00219599358258)
(-0.00898253604784 0.000749989367307 -0.000863893150678)
(-0.0094291023348 0.00284584793816 -0.00200326184225)
(-0.0094494039575 0.00231601457153 -0.00244313306712)
(-0.00833269392219 0.000459040369754 -0.00114696413395)
(-0.00930155951968 0.00216337973367 -0.00224484111235)
(-0.00942867339416 0.00185853825766 -0.00281326249982)
(-0.00669783843003 0.000335853043102 -0.00146954091625)
(-0.00798312080847 0.00163530366515 -0.00252124689061)
(-0.00827688276655 0.00147724433842 -0.00327019120998)
(-0.0043867559217 0.000432626662587 -0.00174302631518)
(-0.00573193407451 0.00140236846738 -0.00272908853078)
(-0.00623832220522 0.00124937597897 -0.00371347620836)
(-0.00193397961728 0.000764253484546 -0.00185584030688)
(-0.0028300266472 0.0015076337027 -0.00260867401204)
(-0.00357632560123 0.00120663413094 -0.00396043181193)
(-0.000757456440512 0.00194297279432 -0.00185568888887)
(-0.00126306385753 0.00127022851962 -0.00387696664353)
(0.00149949658327 0.00283535121745 -0.00260442083426)
(0.000426736551549 0.0043936734331 -0.00173849249383)
(0.00120131193764 0.00358272953881 -0.00395387783998)
(0.00431400903842 0.00266141258082 -0.00359077432517)
(0.0026555237701 0.00432157010233 -0.00359036164609)
(0.00363531333731 0.00364111405174 -0.0056307194274)
(0.00711859086011 0.0029186661238 -0.00377728023517)
(0.00614033725834 0.00464562803319 -0.00416658116361)
(0.00660867009538 0.00396548192806 -0.00604935477148)
(0.00909162524526 0.00360448562734 -0.00361622328358)
(0.0088376029688 0.00549496992973 -0.00406223722108)
(0.0088738778583 0.00469120647586 -0.00583406858244)
(0.00989088947732 0.00458165122498 -0.00338218980385)
(0.010403543835 0.00678459081616 -0.00375361128457)
(0.010126155216 0.00572950524201 -0.00542216489831)
(0.00947327924959 0.00563037293354 -0.00318398244241)
(0.0106010893045 0.00827428368611 -0.00343434787112)
(0.0101774000863 0.00689572501827 -0.0050127957951)
(0.0079922902156 0.0065830309013 -0.00305778566907)
(0.00954283438479 0.00968828239014 -0.00319365029881)
(0.00911640700962 0.00799417109701 -0.00470319371991)
(0.00572057428494 0.0073273115815 -0.00300428257878)
(0.00745831362028 0.0108818793126 -0.00305714724392)
(0.00712145409118 0.00892088366383 -0.00452228684466)
(0.00296526689905 0.00778533815885 -0.00299888658545)
(0.00469781642369 0.0117115011756 -0.0030177467753)
(0.00449339270549 0.00956572973417 -0.00446006482462)
(-6.2296467393e-06 0.0079387416599 -0.00300299325674)
(0.00159580395251 0.0121290374984 -0.00302140798338)
(0.00152972655446 0.00989144586209 -0.00445530850512)
(-0.00297788319736 0.00778626773854 -0.00299906785066)
(-0.00160726821524 0.0121295475475 -0.00302137231774)
(-0.0015370420842 0.00989157202748 -0.0044552984025)
(-0.00573353459254 0.00732905612359 -0.00300472091152)
(-0.00470958664565 0.0117129639578 -0.00301774754283)
(-0.00450109317108 0.00956604126357 -0.00446015203347)
(-0.00800559917006 0.006585369341 -0.00305857600453)
(-0.00747054685217 0.0108841611283 -0.00305727361971)
(-0.00712972861416 0.00892129248709 -0.00452263238762)
(-0.00948662862123 0.00563294252878 -0.00318524769087)
(-0.00955550192933 0.00969105505812 -0.00319401359076)
(-0.00912521968328 0.0079944812489 -0.00470399360645)
(-0.0099035462794 0.00458403085354 -0.00338420980392)
(-0.0106137996275 0.00827712468379 -0.00343530187149)
(-0.0101863773295 0.00689563470338 -0.00501440771955)
(-0.0091022464262 0.00360647916404 -0.00361912386901)
(-0.010415245264 0.00678715672336 -0.00375564740475)
(-0.0101343521339 0.00572882183765 -0.00542511744704)
(-0.00712604967439 0.00292063318599 -0.00378079450514)
(-0.00884672262772 0.00549734365091 -0.00406530816646)
(-0.00887996997677 0.00469019272513 -0.00583826994864)
(-0.00431798530071 0.00266422814013 -0.00359473622764)
(-0.0061459577672 0.00464859013596 -0.00417024532073)
(-0.00661199704015 0.00396510496535 -0.0060543135313)
(-0.00150045633907 0.00284007121646 -0.00260852259402)
(-0.00265797310557 0.00432628701683 -0.00359438022442)
(-0.00363633466418 0.00364268791667 -0.00563620702507)
(-0.000426609011036 0.00440154256665 -0.00174218281292)
(-0.00120064817945 0.00358751526646 -0.00395904274316)
(0.00139675987767 0.00573641714571 -0.00272443330566)
(0.00033079065264 0.0067027670316 -0.00146386808393)
(0.00124634968444 0.00624422979591 -0.00370586522759)
(0.00464238631032 0.00614487956648 -0.00416616848453)
(0.00291510698652 0.00712408874481 -0.00377594513991)
(0.003963123238 0.00661334406403 -0.00604816365335)
(0.00796445758898 0.00704602413643 -0.00445153814952)
(0.00704624086971 0.00796318379606 -0.00445136705998)
(0.0073712913541 0.00737030428303 -0.00663965240424)
(0.0103104873684 0.00847792367034 -0.00419962522208)
(0.0102630858124 0.00945522426514 -0.0042021173455)
(0.00995334452772 0.00866773348347 -0.00630631711094)
(0.0112729839706 0.0102492267793 -0.00380576935185)
(0.0121241693829 0.0114648135623 -0.00364265398543)
(0.0113660749049 0.0103705639267 -0.00564276013787)
(0.0108003047493 0.0120672658549 -0.00344401572752)
(0.0123636593923 0.0136855853046 -0.00304753337449)
(0.0114235402986 0.0122282009533 -0.00493867011115)
(0.00908616682189 0.0136833272729 -0.00319301187367)
(0.0110927370058 0.0157647443413 -0.00256645557333)
(0.0102010144897 0.0139679686287 -0.00436237709577)
(0.00647774087283 0.0149269453892 -0.00307061144044)
(0.00862873343585 0.0174835516306 -0.00226569939084)
(0.00794039355717 0.0154095567252 -0.00399330298835)
(0.00334724162237 0.015692455189 -0.00304026817323)
(0.00540816553547 0.0186715259195 -0.00214497185523)
(0.0049934864254 0.0164108373594 -0.00382958397132)
(-5.30578559743e-06 0.01594892437 -0.00303978704438)
(0.00183201289818 0.0192679864584 -0.00212149409502)
(0.00169804043907 0.0169168811201 -0.00378646045319)
(-0.00335801625295 0.0156934264387 -0.00304005200991)
(-0.00184183546044 0.0192683563757 -0.00212121754516)
(-0.00170044407697 0.0169169135522 -0.00378615637936)
(-0.00648888157514 0.0149288232652 -0.00307030025102)
(-0.00541823439577 0.0186726541721 -0.00214431674051)
(-0.00499636705377 0.0164108954556 -0.00382888074099)
(-0.00909787100377 0.013685899862 -0.00319271120594)
(-0.00863928604691 0.0174854144971 -0.00226475490655)
(-0.00794409980371 0.0154096288839 -0.00399231641774)
(-0.0108125165067 0.0120701738748 -0.00344406777137)
(-0.0111040853046 0.0157670452832 -0.00256543184075)
(-0.0102058625202 0.0139678230467 -0.00436139285003)
(-0.0112849995885 0.0102521272662 -0.00380673947231)
(-0.0123756094398 0.0136880664958 -0.00304707002085)
(-0.0114294124395 0.0122275915603 -0.00493850190966)
(-0.010320924777 0.00848074768067 -0.00420183170219)
(-0.0121356445724 0.0114673585136 -0.00364353819443)
(-0.0113720461451 0.0103694275199 -0.00564431472342)
(-0.0079719713098 0.00704927841616 -0.00445475898205)
(-0.0102724065708 0.00945806746773 -0.0042044424305)
(-0.00995802397432 0.00866655256662 -0.00630971079486)
(-0.00464640061409 0.00614964298088 -0.00416988931751)
(-0.00705223930658 0.00796721051852 -0.00445461412755)
(-0.00737379213495 0.00737026032413 -0.0066442212484)
(-0.00139780276503 0.00574418812006 -0.00272804044331)
(-0.00291777765486 0.00713072595432 -0.00377949753832)
(-0.00396354504671 0.00661611806494 -0.00605306606832)
(-0.000331076368172 0.0067138342443 -0.00146697617029)
(-0.00124578090667 0.00625208858493 -0.00371011499015)
(0.0016310160778 0.00798184575369 -0.00251537991817)
(0.000454419422677 0.00833208183303 -0.00113942841957)
(0.00147568631847 0.00827669264367 -0.00326035171937)
(0.0054945825538 0.00883732451238 -0.00406114371536)
(0.00360200832131 0.00909229043588 -0.00361403324771)
(0.00469124029228 0.00887435510979 -0.00583179598441)
(0.00946120765238 0.0102560788609 -0.00420194625595)
(0.00848062606783 0.0103025834727 -0.0041995660734)
(0.00867262234483 0.00994676251103 -0.00630605719547)
(0.0122650128426 0.0122957268161 -0.00364514610885)
(0.0123067378197 0.012250428359 -0.00364581572063)
(0.0116870117441 0.011675156721 -0.00559904564877)
(0.01340171427 0.0147106471908 -0.00288441800808)
(0.0145069401496 0.0147574864358 -0.00266768139319)
(0.0133149472313 0.0138792286829 -0.0044294138448)
(0.012803394784 0.0171421148586 -0.00216997322031)
(0.0147558556193 0.0174709038087 -0.00161934131645)
(0.0133443009938 0.0162536519185 -0.00318704054891)
(0.0107244711786 0.0192748627645 -0.00163914309051)
(0.0131866925745 0.0199804801798 -0.000747378543694)
(0.0118649070832 0.0184596587787 -0.00213685442092)
(0.00760543232685 0.0208970469907 -0.00134005980564)
(0.0102055604909 0.0220314891377 -0.00016810323002)
(0.00918831009681 0.0202656011088 -0.00142894046519)
(0.00391397095176 0.0218896710634 -0.00122619777702)
(0.0063641003892 0.0234442762021 0.000101375469506)
(0.00575058365838 0.0215097817609 -0.00108132983155)
(-4.59350713815e-06 0.0222212317699 -0.0012029245958)
(0.00214995612141 0.0241541164133 0.000181652943759)
(0.00195075611687 0.0221360396881 -0.000967605571882)
(-0.00392325813588 0.0218901864366 -0.00122548227575)
(-0.00215863837624 0.0241540337302 0.000182127650085)
(-0.00195039232985 0.022135737969 -0.000967052112855)
(-0.0076149588709 0.0208980871875 -0.00133877139603)
(-0.00637294988247 0.0234441595173 0.000102678422785)
(-0.0057506297936 0.0215088981514 -0.00107984336634)
(-0.0107347446906 0.0192763199288 -0.00163747554135)
(-0.0102149506118 0.0220315488538 -0.000166041464056)
(-0.00918926504456 0.0202642331688 -0.00142638658855)
(-0.0128146400001 0.0171438202603 -0.00216843409022)
(-0.0131971693733 0.0199806661182 -0.000744991730141)
(-0.0118674872792 0.0184577170607 -0.00213376274299)
(-0.0134133835013 0.014712600661 -0.00288386874297)
(-0.0147672791663 0.0174713560619 -0.00161736520335)
(-0.0133485920053 0.0162512032572 -0.00318458232421)
(-0.012275640383 0.0122981437175 -0.00364614892274)
(-0.0145182728495 0.0147585512628 -0.00266716906638)
(-0.013320068717 0.0138766233094 -0.00442897107471)
(-0.00946926003909 0.0102595741683 -0.00420429757601)
(-0.0123164333336 0.0122525508756 -0.00364694421093)
(-0.0116914746311 0.011673048371 -0.00560089806705)
(-0.00549921501731 0.00884311906881 -0.00406422234836)
(-0.00848729235673 0.0103066580702 -0.00420190157072)
(-0.00867534264203 0.00994642466028 -0.00630952669914)
(-0.00163256325092 0.00799166175119 -0.0025184332653)
(-0.00360532177635 0.00909984553862 -0.00361680033424)
(-0.00469201231221 0.00887773709562 -0.00583580708151)
(-0.00045523795993 0.00834508959335 -0.00114185494289)
(-0.00147556380168 0.00828665984535 -0.00326384454493)
(0.00215913327801 0.00929261104187 -0.0022380817491)
(0.000745083129821 0.00897473751585 -0.000855071227607)
(0.0018575509688 0.0094201922513 -0.00280182110582)
(0.0067849500906 0.0103968871584 -0.00375245560575)
(0.00457853061545 0.00988610624498 -0.00337968135935)
(0.00573031779136 0.0101211091904 -0.00541967153234)
(0.0114725423065 0.0121090220646 -0.00364343553808)
(0.0102515141088 0.0112587603585 -0.00380694607528)
(0.0103768773064 0.0113530670344 -0.00564380984191)
(0.0147756175402 0.0144855960904 -0.00266835100497)
(0.0147219190731 0.0133790610078 -0.00288779915544)
(0.0138934905842 0.0132950229216 -0.00443174816316)
(0.0160820533074 0.0172490919029 -0.00140260470156)
(0.0172727715471 0.0160536274812 -0.00140574237163)
(0.0157664801931 0.0157421295051 -0.0026026149816)
(0.0153035536174 0.0200024634561 -0.000196746639836)
(0.0174950799345 0.0189068789931 0.000179107356193)
(0.0157397812345 0.0183583110307 -0.000657510094801)
(0.0127645160004 0.0223988161045 0.000723661316792)
(0.0155698447706 0.0215106995254 0.00150932521225)
(0.0139315969092 0.0207746845089 0.00100878817266)
(0.00901130788813 0.0242151646205 0.00127333204512)
(0.0119989580679 0.0236336364748 0.00241104369463)
(0.0107345659534 0.0227384870355 0.00215103536428)
(0.00462273231113 0.0253283373425 0.00150922619029)
(0.00745286803279 0.0250907652949 0.0028561141476)
(0.00668742828987 0.0240899004192 0.00274206476076)
(-4.1642283878e-06 0.0257007178369 0.00156670518965)
(0.00251263710576 0.0258217505459 0.00300705239677)
(0.00226286998016 0.0247719005732 0.00295924275129)
(-0.00463118071611 0.0253276633886 0.00151028834862)
(-0.00252127194425 0.0258210694291 0.00300732901759)
(-0.00226183107244 0.0247709726222 0.0029599614486)
(-0.00902005050795 0.0242141258469 0.00127540835476)
(-0.00746132877727 0.0250888169893 0.00285722420057)
(-0.00668671334414 0.0240872690568 0.00274419179772)
(-0.0127741322282 0.0223976281607 0.000726442347156)
(-0.0120078072533 0.0236309037894 0.00241346535781)
(-0.0107347773947 0.0227345576203 0.00215470391349)
(-0.0153143203983 0.0200013288695 -0.000193922843274)
(-0.0155798590676 0.0215075845833 0.00151236695687)
(-0.0139335319696 0.0207696474593 0.00101324366479)
(-0.0160933784349 0.0172484967055 -0.00140066552677)
(-0.0175059917843 0.0189038992114 0.000181954534045)
(-0.0157435412834 0.018352679585 -0.000653514583916)
(-0.0147863032485 0.0144861684525 -0.00266796435457)
(-0.0172837438249 0.0160517178591 -0.00140388849358)
(-0.0157713191999 0.015736850795 -0.00260027471384)
(-0.0114811098728 0.0121115238061 -0.00364454820564)
(-0.01473169809 0.0133790207802 -0.00288756845198)
(-0.0138982210058 0.013291007685 -0.0044316994159)
(-0.00679031573808 0.0104025308834 -0.0037544795566)
(-0.0102586378735 0.0112615254978 -0.00380812374514)
(-0.0103802653482 0.0113515750859 -0.00564570106772)
(-0.00216131225415 0.00930316060983 -0.00224022201183)
(-0.00458236934965 0.00989313198412 -0.00338139446489)
(-0.00573184064662 0.0101241903186 -0.00542233385727)
(-0.000746296922505 0.00898785785878 -0.000856619373692)
(-0.00185804121195 0.00943098854312 -0.00280411305473)
(0.00284018642508 0.00941352247791 -0.00199667083785)
(0.0010942941901 0.00856614754814 -0.000650420386984)
(0.00231417485301 0.00943397174717 -0.00243164127923)
(0.00827277763176 0.0105891525428 -0.00343417182887)
(0.0056255046631 0.00946474328083 -0.00318175552336)
(0.00689531229591 0.0101678073372 -0.00501127941604)
(0.0136913702464 0.0123425271533 -0.00305130969264)
(0.0120670058465 0.0107832805479 -0.00344757126889)
(0.0122328641658 0.011405994155 -0.00494316286322)
(0.0174880947998 0.0147269537676 -0.0016251905221)
(0.0171507146539 0.0127780007393 -0.00217848061935)
(0.0162663843576 0.0133187692376 -0.00319570939914)
(0.0189360728399 0.017462139536 0.000175969686122)
(0.0200254827287 0.0152719455263 -0.000207528852002)
(0.0183828200173 0.0157082168298 -0.000666333746775)
(0.0179350256034 0.0201446610539 0.00188517920828)
(0.0201787689849 0.0179027657405 0.00188097704886)
(0.0182740637707 0.0182407820653 0.00200513191257)
(0.0148984983962 0.0224575760042 0.0031967075901)
(0.0178925644676 0.0202831428806 0.00362302418085)
(0.0161071071504 0.0205556237841 0.004264065032)
(0.0104805473428 0.0242062320996 0.00399382579711)
(0.0137373903643 0.0222409425791 0.0048199265464)
(0.0123625048641 0.0224383810873 0.00581063489372)
(0.0053641499811 0.0252714511852 0.00435394035409)
(0.00849969035439 0.0235799201128 0.00542083293448)
(0.00767819075616 0.0237312089393 0.00662723890348)
(-4.51029274807e-06 0.0256260877246 0.00444767622472)
(0.0028595147725 0.0242460588458 0.00562830427506)
(0.00259374215319 0.0243829173803 0.00694435149915)
(-0.00537303450412 0.0252694871752 0.00435426486954)
(-0.00286958131345 0.0242450185553 0.00562826944749)
(-0.00259438401443 0.0243813683017 0.00694457450533)
(-0.0104891860731 0.0242025890771 0.00399528120362)
(-0.00850923724091 0.0235765847422 0.00542104972923)
(-0.00767864098675 0.0237266345943 0.00662838021963)
(-0.014907728548 0.0224529313421 0.00319938996753)
(-0.0137467177823 0.022235612255 0.00482140116348)
(-0.0123634028486 0.022431393662 0.00581382495426)
(-0.0179452723874 0.020139710061 0.00188824433419)
(-0.0179026757388 0.0202765860653 0.00362573069016)
(-0.0161095037512 0.0205469834339 0.0042685262379)
(-0.0189468202727 0.0174577875556 0.000178731567231)
(-0.0201894109463 0.0178958208622 0.00188374344983)
(-0.0182778384796 0.0182311717232 0.00200960216675)
(-0.0174984237859 0.0147242760489 -0.00162349259099)
(-0.0200359327694 0.0152660425653 -0.000205117538783)
(-0.0183875499497 0.0156991650189 -0.000662753163266)
(-0.0136999614398 0.0123425297744 -0.00305114399147)
(-0.0171600680652 0.0127744960333 -0.00217731627564)
(-0.0162712959824 0.0133116247761 -0.00319397692743)
(-0.0082784193525 0.0105930620948 -0.00343503865343)
(-0.0120740281246 0.0107834242488 -0.00344777339963)
(-0.0122367507935 0.0114021795722 -0.00494348713359)
(-0.00284265738098 0.00942290356712 -0.00199779182675)
(-0.00562940820178 0.0094697955781 -0.00318246740923)
(-0.00689735231252 0.0101692859616 -0.00501247915528)
(-0.00109571711731 0.00857771369468 -0.000651109394725)
(-0.00231498992173 0.00944373598575 -0.00243255320577)
(0.00349948685097 0.00849647051419 -0.00183550507249)
(0.00143399164107 0.00725134979368 -0.00052046405916)
(0.00273999651932 0.00847879400032 -0.00218474710968)
(0.00968424820328 0.00952978557905 -0.00319515496338)
(0.00657653130061 0.00798336051225 -0.00305591414026)
(0.00799194501112 0.00910572383262 -0.00470344242877)
(0.015767231289 0.0110721190347 -0.00257474219561)
(0.0136803141869 0.009072041037 -0.00319901056613)
(0.0139695820684 0.0101842081587 -0.00437180354889)
(0.019995379483 0.0131594069247 -0.000760818949255)
(0.0192804604791 0.0107045649954 -0.00165330085228)
(0.0184690737192 0.0118412930822 -0.00215476333861)
(0.02153963545 0.0155399404539 0.00149747851074)
(0.0224215702783 0.0127401265601 0.000704788012279)
(0.020797770965 0.0139028633186 0.000987524428427)
(0.0203145993358 0.0178640492514 0.00361882202143)
(0.0224952982415 0.0148754080553 0.00318688839733)
(0.0205894445736 0.0160781642222 0.00425236950044)
(0.0168140661982 0.0198799003436 0.00524624313715)
(0.0199099360499 0.016795190971 0.00524827450263)
(0.0180986406384 0.0180720074421 0.00698847512015)
(0.0117814057441 0.0214141016673 0.00624693368377)
(0.0152507698035 0.0183852061863 0.00663648489675)
(0.0138508703895 0.0197190954438 0.00888839943506)
(0.00601133155695 0.0223447435067 0.00669519685546)
(0.00940144564433 0.0194465264987 0.00728247297308)
(0.00857592796851 0.02084809636 0.00990347917366)
(-5.54785430362e-06 0.0226528118852 0.00680889749784)
(0.00315258803694 0.0199611036058 0.00749913793)
(0.00289138200976 0.0214093669954 0.0103018501825)
(-0.00602229793562 0.0223422979104 0.00669505430718)
(-0.00316525306465 0.0199601108848 0.00749930815967)
(-0.00289549678538 0.0214075476993 0.0103016728125)
(-0.0117918180253 0.0214092034463 0.00624716968909)
(-0.00941358176638 0.0194429951796 0.00728277962914)
(-0.00857959867163 0.0208426160148 0.00990312002269)
(-0.0168242309495 0.0198728770116 0.00524774188611)
(-0.0152621979031 0.0183785386737 0.006638075411)
(-0.0138541818404 0.0197103778667 0.0088894887001)
(-0.0203252153098 0.0178556505215 0.0036212298058)
(-0.0199216604635 0.0167859518161 0.00525011157355)
(-0.0181027271479 0.0180604730823 0.00699161004148)
(-0.0215501508334 0.015531522839 0.00149989434382)
(-0.0225066574535 0.0148649858581 0.00318865976607)
(-0.0205942067572 0.0160648288609 0.00425574993105)
(-0.0200050568476 0.0131526855137 -0.000758941223435)
(-0.022431649049 0.012730247998 0.000706326992183)
(-0.0208026064206 0.0138896138579 0.000990667889554)
(-0.0157752454095 0.0110686995161 -0.00257394568379)
(-0.0192888916764 0.0106973539979 -0.00165219939202)
(-0.0184737874959 0.0118303682172 -0.00215271331261)
(-0.00968959368585 0.00953097030055 -0.00319520215542)
(-0.0136865775413 0.00906906728564 -0.00319879644019)
(-0.0139734099739 0.0101773634839 -0.00437134902935)
(-0.00350197298158 0.0085035477591 -0.0018357849772)
(-0.00658001409545 0.00798568358706 -0.003055913999)
(-0.00799404764329 0.0091047567058 -0.00470357293555)
(-0.00143544071461 0.00726017617283 -0.000520457195508)
(-0.00274106060345 0.00848629302089 -0.0021844833198)
(0.00408242079601 0.00666281027791 -0.00174087312694)
(0.00172002584382 0.00520629872781 -0.000447732580714)
(0.00312735717041 0.00663625277502 -0.00203744054109)
(0.0108758882741 0.00744845421267 -0.00305976974302)
(0.00731983189543 0.00571348408911 -0.00300212457514)
(0.00891728577481 0.00711344059945 -0.00452366713549)
(0.0174835743989 0.00861534392288 -0.0022775692228)
(0.0149219772653 0.00647059718196 -0.00307740453588)
(0.0154086611989 0.00793016941956 -0.00400631213147)
(0.0220456449781 0.010188336986 -0.000187693890742)
(0.020900144244 0.00759658585607 -0.00135717562685)
(0.0202724134411 0.00917457036381 -0.00145414877131)
(0.0236662024062 0.0119811189884 0.00239419789887)
(0.0242377813781 0.00899971019849 0.00124930179571)
(0.0227617217548 0.01071771647 0.00211981807477)
(0.0222780537233 0.0137241338372 0.00481634087853)
(0.0242491174769 0.0104700897784 0.00398193304743)
(0.0224773093966 0.0123472446923 0.00579344461292)
(0.0184064041678 0.0152409015217 0.00663851626224)
(0.021449304566 0.0117755539747 0.00625429619872)
(0.0197500762902 0.0138421543028 0.00889128251929)
(0.0128678988626 0.0163934000439 0.00767202418607)
(0.0164039806386 0.01286153255 0.00767610922794)
(0.0150970824608 0.0150884596636 0.0110621905138)
(0.00655296003824 0.017071633015 0.00808641404762)
(0.0100660775634 0.0135597309148 0.00830415709217)
(0.00931512083624 0.0159075826039 0.0122017568224)
(-7.15516288014e-06 0.0172895463655 0.00818954859184)
(0.00336385164705 0.0138928636548 0.00849749296286)
(0.00312755253063 0.0162969094728 0.0126283826503)
(-0.00656697350083 0.017069561165 0.00808703348163)
(-0.00337900130491 0.0138915563688 0.00849863295298)
(-0.00313587197361 0.0162955016031 0.0126283996746)
(-0.0128810931688 0.0163878710481 0.00767368535105)
(-0.0100820735087 0.0135553714677 0.00830588857667)
(-0.00932280534999 0.0159024991388 0.0122017642402)
(-0.0184194710883 0.0152317879506 0.00664044509844)
(-0.0164192353022 0.0128529369738 0.00767781203703)
(-0.0151042588581 0.0150785184595 0.011063989969)
(-0.0222907049207 0.0137128367765 0.00481754153382)
(-0.0214635822716 0.0117642450389 0.00625463641253)
(-0.0197576416454 0.0138284289052 0.00889293707331)
(-0.0236773434693 0.0119692796102 0.00239509241443)
(-0.0242617822228 0.0104572847075 0.00398187713517)
(-0.0224842384524 0.0123311837864 0.00579432053902)
(-0.0220546148346 0.0101780532825 -0.000186931176397)
(-0.0242476321347 0.00898718908321 0.00124885397687)
(-0.0227670346285 0.0107013115621 0.00212029537079)
(-0.0174904307235 0.00860865919416 -0.00227705014841)
(-0.0209072157506 0.00758673911347 -0.00135715562457)
(-0.0202764907869 0.00916053840849 -0.00145361873554)
(-0.010880340391 0.0074466788571 -0.00305950828376)
(-0.0149268523947 0.00646511680595 -0.00307742436419)
(-0.0154117172918 0.00792061443397 -0.00400620265102)
(-0.00408454374335 0.00666692091367 -0.00174058621731)
(-0.00732244061883 0.00571318137312 -0.00300182408337)
(-0.00891892080022 0.0071099011704 -0.00452336943748)
(-0.00172120506812 0.00521201995639 -0.000447232105532)
(-0.0031283315587 0.00664080592078 -0.00203644301766)
(0.00449030871728 0.00421143502862 -0.00170898402892)
(0.00190005041393 0.0026982143974 -0.000418983238358)
(0.0034008661736 0.0041925981035 -0.00198230659384)
(0.0117043808955 0.00469319235754 -0.00301975936801)
(0.00777747933119 0.0029600729762 -0.00299560311607)
(0.00956159719123 0.00448990076752 -0.00446074798269)
(0.0186695508102 0.00540514555502 -0.00215701093993)
(0.0156862822753 0.00334774140159 -0.00304557096083)
(0.0164084690652 0.00499274514641 -0.0038423930613)
(0.0234566805123 0.0063601151222 7.98200595968e-05)
(0.0218902404776 0.00391685992549 -0.00124202631369)
(0.0215143453141 0.00575029474267 -0.00110746758327)
(0.0251249111627 0.00744736604115 0.00283703694427)
(0.0253482615954 0.00462440808535 0.00148436781431)
(0.0241122176018 0.0066853979173 0.00270702721287)
(0.0236219842962 0.0084946493527 0.00541988836762)
(0.0253140642038 0.00536432704339 0.00434025114446)
(0.0237739604845 0.00767544022131 0.00660866714574)
(0.0194697087922 0.00939720888139 0.00729188916443)
(0.0223813399613 0.00601058447948 0.00670349776875)
(0.0208835782276 0.00857527503393 0.00991724392989)
(0.0135663486044 0.0100624344012 0.00830824213404)
(0.0170836318821 0.00655053687428 0.00809326287424)
(0.015916989808 0.00931416587952 0.0122143728972)
(0.00688511558901 0.0104357726039 0.00871523600741)
(0.0104399325625 0.00688309393413 0.00871657578412)
(0.00976317139472 0.00976329530958 0.0133578996241)
(-8.13932402194e-06 0.0105552853622 0.008806577324)
(0.00348243762635 0.00704220493884 0.00889054037793)
(0.00326772324127 0.00997587227968 0.0137439492523)
(-0.00690235270832 0.010432315929 0.00871748804801)
(-0.00350133920859 0.00703995786176 0.00889140032136)
(-0.00327917199886 0.00997372029649 0.0137458468731)
(-0.0135841445948 0.010055159917 0.00831001526264)
(-0.0104598633068 0.00687681662578 0.00871778996406)
(-0.00977620097514 0.00975690713558 0.0133603748656)
(-0.0194863147043 0.00938641688464 0.00729200335112)
(-0.0171024030179 0.0065409492081 0.00809301651641)
(-0.0159294410366 0.0093028908073 0.0122141736682)
(-0.0236366623376 0.00848175296121 0.00541897201388)
(-0.0223977555032 0.00599873167811 0.00670195006595)
(-0.0208944060341 0.00856058341118 0.00991586036055)
(-0.0251365911083 0.00743389438336 0.00283563869761)
(-0.0253278445309 0.00535110798051 0.00433782541434)
(-0.0237828848014 0.00765853400025 0.00660608622996)
(-0.0234647238568 0.00634812534897 7.86295286985e-05)
(-0.0253576750325 0.00461147835754 0.00148134719287)
(-0.0241179456556 0.00666804710151 0.00270380543852)
(-0.0186747417096 0.00539663193291 -0.00215752984036)
(-0.021895610633 0.0039064388082 -0.00124378787228)
(-0.021517410977 0.00573513033659 -0.00110973722915)
(-0.0117074023699 0.00468931166656 -0.0030197401638)
(-0.0156893193402 0.00334126120849 -0.00304636790405)
(-0.0164101448956 0.0049819016606 -0.00384355471538)
(-0.00449172059654 0.0042128605897 -0.00170846997159)
(-0.00777889119113 0.00295812473382 -0.0029954614498)
(-0.00956229866597 0.0044846597862 -0.00446070997086)
(-0.00190074482359 0.00270123353985 -0.000418292452973)
(-0.00340149019843 0.0041944799831 -0.00198099626983)
(0.0046963551376 0.00142624432262 -0.00170560232551)
(0.00196115160696 -2.65721260538e-05 -0.00041243822652)
(0.00354020962604 0.00141921417628 -0.00197165986196)
(0.0121213714009 0.00159530484994 -0.0030214147089)
(0.00793061956762 -1.11187171127e-05 -0.00299859432729)
(0.00988729297558 0.0015298167926 -0.00445391996403)
(0.019264244181 0.00183802422112 -0.00213058633458)
(0.0159417719319 6.72696529296e-07 -0.00304297412582)
(0.0169138196647 0.00170561337434 -0.00379589036023)
(0.0241630433369 0.00215810827121 0.000162521441027)
(0.0222193338253 7.60078198476e-06 -0.00121577907326)
(0.0221383983787 0.00196238890057 -0.000989609598897)
(0.0258516002465 0.00251930066851 0.0029875820145)
(0.0257166105533 9.15653672473e-06 0.00154389205843)
(0.0247904938161 0.00227451126386 0.00292664660713)
(0.024285242672 0.00286280516653 0.00562386054558)
(0.0256643220701 6.41328315284e-06 0.00443403001948)
(0.0244217986834 0.00260299667428 0.0069242473848)