/*--------------------------------*- C++ -*----------------------------------*\
| =========                 |                                                 |
| \\      /  F ield         | OpenFOAM: The Open Source CFD Toolbox           |
|  \\    /   O peration     | Version:  3.0.1                                 |
|   \\  /    A nd           | Web:      www.OpenFOAM.org                      |
|    \\/     M anipulation  |                                                 |
\*---------------------------------------------------------------------------*/
FoamFile
{
    version     2.0;
    format      ascii;
    class       volScalarField;
    location    "4.4";
    object      nut;
}
// * * * * * * * * * * * * * * * * * * * * * * * * * * * * * * * * * * * * * //

dimensions      [0 2 -1 0 0 0 0];

internalField   nonuniform List<scalar> 
7968
(
0.000147901825013
0.000157637624229
0.000164843722471
0.000169169530715
0.000171558532226
0.000172664836769
0.000172972814312
0.000172823881557
0.000172507783566
0.000172225344602
0.000172221477342
0.000172501665974
0.000172819557216
0.000172973530378
0.000172673232739
0.000171576562334
0.000169195662335
0.000164873669369
0.000157663098102
0.000147915151674
0.0001576431264
0.000191009059175
0.000210014809669
0.000220269073142
0.000225451290624
0.000227527410282
0.000227866953669
0.000227387069682
0.000226775938948
0.000226392460329
0.000226379455569
0.000226741906397
0.000227343624009
0.000227826810115
0.000227499289525
0.000225440363643
0.000220273719914
0.000210033292725
0.000191031812713
0.000157657077046
0.000164863198364
0.000210028047103
0.000234411280878
0.000247377963667
0.000253922934189
0.00025658332385
0.000257058583615
0.000256563588173
0.000255924636566
0.000255536181167
0.000255513685359
0.000255865717354
0.000256487526988
0.000256986085519
0.000256525621373
0.000253883046023
0.000247355040799
0.000234404054999
0.000210031416781
0.000164868235439
0.000169194142053
0.000220291775617
0.000247386269171
0.000261550264967
0.000268451956071
0.000270991757894
0.000271179369542
0.000270413559835
0.000269624537562
0.000269197855743
0.000269164637417
0.000269537411232
0.000270300650372
0.000271075654399
0.000270909207644
0.000268387030815
0.000261498538514
0.000247349049069
0.000220267704828
0.000169181415873
0.000171586792891
0.000225470862251
0.000253930605568
0.00026844903447
0.000275023615981
0.000277004668439
0.000277993891642
0.000278088984041
0.000277747773112
0.000277460952893
0.000277429953487
0.00027766934785
0.000277992396357
0.000277905157852
0.00027691598262
0.000274951534523
0.000268381020249
0.000253869130509
0.000225420431943
0.000171554073985
0.000172693944119
0.000227542938028
0.00025658055689
0.000270969821597
0.00027697949775
0.000280648028985
0.000282206257102
0.000282357456751
0.000281970603687
0.000281630749358
0.000281592321577
0.000281875348821
0.000282244992399
0.000282111564639
0.000280577874895
0.000276924929021
0.000270908163954
0.000256512139413
0.000227481315355
0.000172646719352
0.000172999079421
0.000227871397763
0.000257036235305
0.000271125743701
0.000277961797229
0.000282188440011
0.000283711945277
0.000283634237602
0.000283017485572
0.000282535270318
0.000282486601632
0.000282898319996
0.000283496901067
0.000283603913888
0.000282119471555
0.000277917540081
0.00027108626998
0.000256976181048
0.000227807881999
0.000172945712182
0.000172844268164
0.00022737848465
0.000256523611072
0.000270334962671
0.000278043275546
0.000282327093519
0.000283622833838
0.000283198147374
0.000282255163442
0.000281568402711
0.00028150911078
0.000282111315468
0.000283032576884
0.000283495661028
0.000282252389722
0.000278004568433
0.000270315370109
0.000256476534612
0.000227321879097
0.000172791128202
0.000172520863662
0.000226758510604
0.000255878725151
0.000269547636636
0.000277704028311
0.00028194650621
0.000283017636824
0.000282269615024
0.000280978085941
0.000280031944397
0.000279962719881
0.000280812139737
0.000282079146936
0.000282869511232
0.00028186069536
0.000277662993583
0.000269532444582
0.000255839354656
0.00022670932351
0.000172470302573
0.000172230110557
0.000226371664641
0.000255495232581
0.000269140255529
0.00027743405715
0.000281630516898
0.000282567459898
0.000281619858021
0.000280070478865
0.000278905362754
0.000278829134004
0.000279890307886
0.000281412521638
0.000282403733209
0.000281533900994
0.000277386640035
0.000269118647556
0.000255456550677
0.000226324746365
0.000172179174174
0.000172217112355
0.000226359002821
0.00025548213047
0.000269127101153
0.000277422189208
0.000281618602418
0.000282554338919
0.000281604048987
0.00028005026838
0.000278880515348
0.000278803666998
0.000279868920017
0.00028139554605
0.000282389466387
0.000281520709861
0.000277373051483
0.000269102183306
0.000255439335068
0.000226307578975
0.00017216181856
0.000172493999505
0.000226723396808
0.000255841128509
0.000269508754814
0.000277670158549
0.000281912920815
0.0002829815028
0.00028222791028
0.000280928027665
0.00027997424421
0.000279903708048
0.000280759569023
0.000282034931645
0.000282830718818
0.000281823867632
0.000277624500579
0.000269484686812
0.000255791120161
0.000226662969845
0.000172434453106
0.000172811412441
0.000227325503091
0.000256464241091
0.000270269995853
0.000277988987555
0.000282273421519
0.000283565677419
0.000283134153494
0.000282183508935
0.000281490203282
0.000281429752904
0.000282037294479
0.000282965799373
0.000283435066782
0.000282194086614
0.000277943457528
0.000270237661898
0.000256402524959
0.000227253765416
0.000172747418007
0.000172966031828
0.00022780889465
0.000256962713029
0.000271041512598
0.000277889645459
0.000282117937686
0.000283637524767
0.000283552872964
0.000282928858945
0.000282441616823
0.00028239192167
0.000282807294213
0.000283412176119
0.000283524931308
0.000282042682495
0.000277836331618
0.000270986916652
0.000256885619655
0.000227727914841
0.000172901340822
0.000172666082011
0.000227481323697
0.000256504043957
0.000270877807444
0.000276873398464
0.000280560543015
0.000282119480346
0.000282264102666
0.000281870757665
0.000281526876921
0.000281487282754
0.000281772422114
0.000282146851417
0.00028201828396
0.000280481283583
0.000276804555086
0.000270798783119
0.000256416505132
0.00022740021127
0.000172607959262
0.000171568080469
0.000225417930999
0.00025386225782
0.000268362463607
0.000274914791865
0.000276878579844
0.000277893511754
0.00027798267967
0.00027763568037
0.000277345596954
0.000277313117295
0.000277552989369
0.000277878884946
0.000277795000907
0.000276774683639
0.000274825035614
0.00026827490422
0.00025378022175
0.000225348663303
0.000171525562707
0.00016918652677
0.000220256129361
0.000247336206316
0.000261481154129
0.000268359020533
0.00027087446836
0.000271039812752
0.000270256984469
0.000269463195694
0.00026903429141
0.000268998556098
0.00026936827577
0.000270130504339
0.000270919251297
0.000270773050888
0.000268273394418
0.000261407640589
0.000247277318318
0.000220212988266
0.000169164937679
0.000164864357626
0.000210013009262
0.00023438489615
0.000247333530161
0.000253855613625
0.0002564927815
0.000256947141503
0.000256435541294
0.000255784891235
0.000255388909682
0.000255362992037
0.000255716233046
0.000256344065178
0.00025685579286
0.000256414219144
0.000253793047392
0.000247287922697
0.000234356720059
0.000209998275499
0.000164862445428
0.000157651006259
0.000191012676139
0.000210012237962
0.000220251786551
0.000225413549897
0.000227469004719
0.000227790548484
0.000227295264393
0.000226671791586
0.000226279825978
0.0002262631743
0.00022662782471
0.000227236634547
0.000227732202725
0.000227421015011
0.000225380706579
0.000220236925348
0.000210012362305
0.000191020340246
0.000157660307502
0.000147906493667
0.000157645842371
0.000164851679507
0.000169172530991
0.000171552220537
0.00017264726816
0.00017294481083
0.000172786076055
0.000172461203242
0.000172171086133
0.000172163426457
0.0001724468751
0.000172770902622
0.000172933603886
0.000172643760032
0.000171558955047
0.000169189086897
0.00016487376568
0.000157665672177
0.0001479173246
0.000156412193507
0.000185497804878
0.000203630600007
0.000214155763757
0.000220065256412
0.000223052115057
0.000224234949527
0.000224421053604
0.000224220386411
0.000224018185044
0.000224008025619
0.000224193783537
0.000224385707591
0.00022419852558
0.000223019953127
0.000220040487664
0.000214139128279
0.000203621571582
0.000185496223139
0.000156429464156
0.000185505250902
0.000605489270717
0.000784766685795
0.000871873939699
0.000912802192199
0.000927946480065
0.00092947483184
0.00092502461864
0.000919764252999
0.000916471572981
0.000916281789558
0.000919245555818
0.000924281761758
0.000928618889053
0.000927045226599
0.000911883470509
0.000870967629168
0.000783922615572
0.000604840950257
0.000185477977374
0.000203648937589
0.0007848570619
0.00105909371639
0.00120047097695
0.00127317396154
0.00130626625991
0.00131691636548
0.00131671424945
0.00131325559693
0.00131059081798
0.00131031229233
0.00131249764333
0.00131563598861
0.00131571005627
0.00130504521178
0.00127196500603
0.00119929193399
0.00105800658843
0.000784044042894
0.000203600139444
0.000214181380622
0.000872034285173
0.00120056659466
0.00137403844233
0.00146529727807
0.00150832630504
0.00152289758275
0.00152391353308
0.00152152463493
0.00151972874572
0.00151938823073
0.00152059632873
0.00152251022953
0.00152140578585
0.0015069218054
0.00146393528835
0.00137269404287
0.001199304614
0.000871097815673
0.000214113459851
0.000220094672311
0.000912988251025
0.00127330784011
0.00146532959681
0.00156572799552
0.00161123079742
0.00161919800874
0.00161173356418
0.00160326625615
0.00159837717198
0.00159776048967
0.00160163769395
0.00160963794901
0.00161724078356
0.001609744285
0.00156430782336
0.00146390602548
0.00127194318241
0.000911987586406
0.000220009963012
0.000223080068767
0.000928091973518
0.0013063552186
0.00150828092457
0.00161115661437
0.00164133304784
0.00163514668655
0.00161849430416
0.00160443264042
0.00159689220623
0.00159602948073
0.00160217139951
0.00161571477909
0.00163276551456
0.00163958725619
0.0016097542131
0.00150688495149
0.00130499199955
0.000927113744853
0.000222985972803
0.000224256447149
0.0009295528998
0.00131690986358
0.0015226865803
0.00161871211333
0.00163478642785
0.00161732372785
0.00159257771857
0.00157350842159
0.0015635806527
0.00156248496775
0.00157062768001
0.00158907764741
0.0016145198353
0.00163290064565
0.0016173765752
0.00152137246989
0.0013156186109
0.000928650228462
0.000224162218865
0.00022443390012
0.000925057670794
0.00131665843746
0.00152365812858
0.00161109292643
0.00161794329846
0.00159240648118
0.00156136423901
0.00153848212158
0.00152685917697
0.00152558801604
0.00153511237952
0.00155715660104
0.00158906352861
0.0016158255192
0.00160972051479
0.00152236531739
0.00131542926741
0.000924227475106
0.000224345224414
0.000224225338911
0.000919812560101
0.00131326182074
0.00152151558766
0.00160286427827
0.00160423321355
0.00157386276872
0.00153909728431
0.00151383441993
0.00150061847074
0.0014992222066
0.00151009901745
0.00153437558012
0.00156998418973
0.00160178992642
0.00160131876207
0.00152013919312
0.001312042371
0.000919020712765
0.000224143078153
0.000224017818794
0.000916588815395
0.00131072829248
0.00151994641946
0.00159846167798
0.00159743730801
0.00156491058785
0.00152855676951
0.00150172051974
0.00148770793019
0.00148625950851
0.00149780227494
0.00152352169857
0.00156067958738
0.00159472069497
0.00159674703922
0.00151850346759
0.00130949312341
0.000915804352034
0.000223938145588
0.000224005983487
0.000916487954254
0.00131060158556
0.0015198274594
0.00159833372201
0.00159731246496
0.00156478161863
0.00152841390687
0.00150155320261
0.00148752240959
0.00148606737027
0.00149762059747
0.00152336554649
0.00156053797617
0.001594581216
0.00159660576732
0.00151837708068
0.00130935462103
0.000915695133325
0.000223922949331
0.000224193094392
0.00091951584104
0.00131288848221
0.0015211592089
0.00160247044665
0.00160383949459
0.0015734650797
0.00153868065904
0.00151337382921
0.00150011969303
0.00149870265116
0.0015096005814
0.00153392961026
0.00156956055908
0.0016013640878
0.00160088960595
0.00151976069817
0.00131163761172
0.000918703371372
0.000224102646079
0.000224386882821
0.000924574319105
0.00131604855781
0.00152303122841
0.0016104012101
0.00161721652253
0.00159165459589
0.0015605747584
0.00153768053882
0.00152602456708
0.00152473578245
0.0015342819725
0.00155634727964
0.00158829225417
0.00161506410957
0.00160897842798
0.0015216919262
0.00131477318541
0.000923716166989
0.000224287498383
0.000224202336729
0.000928914448054
0.00131610795848
0.00152184321679
0.00161777370492
0.0016337249394
0.0016161631787
0.00159134891474
0.00157223721895
0.0015622850534
0.00156117540156
0.00156933143696
0.00158782551253
0.00161333085888
0.00163179209983
0.00161637510552
0.00152046721136
0.0013147571044
0.00092797622477
0.000224096225836
0.000223026788498
0.000927353391287
0.0013054418238
0.00150733010651
0.00161025765907
0.00164011222785
0.00163369993646
0.00161692774242
0.00160280979386
0.00159524208035
0.0015943646345
0.00160051366751
0.00161410282228
0.00163126425547
0.00163830483897
0.0016087963292
0.00150585639218
0.00130400126472
0.000926326908817
0.000222920220072
0.00022004918198
0.000912213875964
0.00127237389023
0.00146433758473
0.00156469552846
0.00161022421443
0.00161771771139
0.00161009685126
0.00160159276279
0.00159667451361
0.00159604432976
0.00159992551765
0.0016079382651
0.0016156842046
0.00160867324996
0.00156318886526
0.00146281308124
0.00127090996067
0.000911144322992
0.00021995170698
0.000214148641553
0.00087131399475
0.00119971628266
0.00137311723051
0.0014642948432
0.00150723678849
0.00152167247834
0.00152265334391
0.00152045970514
0.00151867297088
0.00151832325143
0.00151950303189
0.00152118925912
0.00152010107658
0.00150573970544
0.00146282328326
0.00137165190744
0.00119833628784
0.000870290833246
0.000214067932339
0.000203630565652
0.000784273666138
0.0010584269173
0.00119973377137
0.00127234607122
0.00130534441173
0.00131590852105
0.00131565509316
0.00131218277581
0.00130949659095
0.00130920544999
0.00131138754118
0.00131451404382
0.00131462003871
0.00130402491064
0.00127102343251
0.00119843121492
0.00105721778826
0.000783365360891
0.000203569700937
0.000185501286065
0.000605148289309
0.000784396160394
0.000871454094606
0.000912314171817
0.000927393049549
0.000928869938231
0.000924382582447
0.00091909621516
0.000915784965499
0.000915586479362
0.000918552353594
0.000923598127526
0.000927959412525
0.000926425128358
0.000911315514214
0.000870456302879
0.000783456453099
0.000604415394042
0.000185464118873
0.000156417355622
0.000185484323696
0.000203608541858
0.000214125084272
0.000220023420444
0.000222997733148
0.000224168603861
0.000224343686318
0.000224133218523
0.000223923704265
0.000223910640943
0.000224098896488
0.000224296921569
0.000224118895305
0.000222951545444
0.000219984537244
0.000214094896493
0.000203586754476
0.000185472089345
0.000156432105295
0.000162719420164
0.000201648058259
0.000225105101821
0.000238719738314
0.000246517144726
0.000250665215604
0.000252553129906
0.000253171411633
0.000253234967725
0.000253167854414
0.000253152208494
0.000253192033959
0.000253109805976
0.000252481820661
0.000250591201827
0.000246445284007
0.000238653447254
0.000225048006602
0.00020160946913
0.00016274007292
0.000201659198221
0.000758144123227
0.00101436981272
0.00114193688918
0.0012037376005
0.00122865596229
0.00123383577692
0.00123018378036
0.00122468162953
0.00122100045866
0.00122065980852
0.00122373703907
0.00122880481207
0.00123219332225
0.00122686030235
0.00120184509627
0.00114002315021
0.00101256390068
0.0007567408701
0.00020158254674
0.000225126896414
0.00101450496499
0.00143790970227
0.00166752934659
0.00179074616058
0.00185085195452
0.00187434220521
0.001879326057
0.00187721540747
0.00187441292787
0.00187388725886
0.00187577988586
0.00187729867739
0.00187201407691
0.00184842365494
0.00178828794003
0.00166508543953
0.00143561481209
0.00101276140372
0.000225014761337
0.000238750168549
0.00114219550397
0.00166769866863
0.00196449318314
0.00212963750342
0.00221427478309
0.00225032462272
0.00226220137278
0.00226309334721
0.00226097706662
0.00226025675735
0.00226115893516
0.00225963591651
0.00224745278974
0.00221144958317
0.00212689595787
0.00196178796803
0.00166513067277
0.00114024440148
0.000238615022392
0.000246552550898
0.00120406220009
0.00179101742145
0.00212973736758
0.00231989923446
0.00241706295586
0.00245386562185
0.00246117539565
0.00245792006429
0.00245382990531
0.00245279591418
0.00245513386882
0.00245735102469
0.00244995086682
0.00241370640831
0.00231689786811
0.0021268483954
0.00178827529668
0.00120200498239
0.000246399749481
0.00025069966545
0.00122896322707
0.00185111544433
0.00221433884881
0.00241699933278
0.00250994564946
0.00253894049279
0.00253765050029
0.00252786708593
0.00252041225099
0.00251900158768
0.00252402509936
0.00253215386175
0.0025331656456
0.0025053821085
0.00241364997421
0.00221133211133
0.00184831803405
0.00122693116494
0.000250538501228
0.000252580558218
0.00123408412943
0.00187453946539
0.00225032128369
0.002453744642
0.00253924423792
0.00255750859869
0.00254575154219
0.00252836836691
0.00251701774247
0.00251525586645
0.00252349368782
0.00253847594722
0.00254942167389
0.00253269460841
0.00244971357105
0.00224718696858
0.00187176009875
0.0012321478371
0.000252422091838
0.000253189392304
0.00123040514242
0.00187952698381
0.00226235494757
0.00246145667949
0.00253899499073
0.00254712772724
0.00252586313292
0.00250153881462
0.00248656611104
0.00248452844695
0.00249580593676
0.00251706315077
0.00253706539334
0.00253052043586
0.00245647572078
0.00225897822111
0.00187674418499
0.00122855515481
0.000253040797651
0.000253244818855
0.001224958606
0.00187754046686
0.00226347679304
0.00245896125438
0.00253056689628
0.00253158112497
0.00250358195535
0.00247414472547
0.00245644849071
0.00245421016639
0.00246776965376
0.00249366809381
0.00252016544759
0.00252087231768
0.00245320957089
0.00225982267312
0.00187471024583
0.00122314895986
0.000253107333921
0.000253173760907
0.00122141520762
0.00187500263087
0.00226185378416
0.00245577504138
0.00252448518231
0.00252198964136
0.00249056034185
0.00245846033802
0.00243933979191
0.00243699421913
0.0024517360243
0.00248005967987
0.00250987614577
0.00251418367088
0.00244961429983
0.00225800322402
0.00187211824174
0.0012196091636
0.000253041977835
0.000253160301841
0.00122124505501
0.00187478329249
0.00226164581926
0.00245558817861
0.00252431750457
0.00252181956147
0.00249036616536
0.00245823758047
0.00243909568034
0.00243674227158
0.00245149745289
0.00247985159942
0.00250969464943
0.00251400325079
0.00244941443368
0.00225778162384
0.00187188560347
0.001219430153
0.000253025054485
0.000253205862007
0.00122445277546
0.0018768938797
0.00226286399703
0.00245839909351
0.00253005812328
0.00253108535813
0.00250305148826
0.00247356645984
0.00245582864356
0.00245356860542
0.00246715090282
0.00249310701918
0.00251964793575
0.00252033701176
0.00245261420579
0.00225917395277
0.00187403026657
0.00122262450155
0.00025306007486
0.000253129198173
0.00122957463324
0.00187847927914
0.00226137326897
0.00246051647478
0.002538143679
0.00254633998077
0.00252507780368
0.0025007247971
0.00248571857256
0.00248365987267
0.00249495431839
0.00251625154336
0.0025362583304
0.00252963753751
0.00245548832673
0.00225795247079
0.00187565242023
0.00122770459688
0.000252969802388
0.000252507057996
0.00123297286164
0.00187314758758
0.0022489559505
0.00245242968759
0.00253802867352
0.0025564064027
0.00254469960691
0.00252730960462
0.00251593426735
0.00251415316708
0.00252239536837
0.00253738561215
0.00254828151029
0.00253142672171
0.00244833098958
0.0022457540147
0.00187030893221
0.00123101104751
0.000252336351165
0.000250622359948
0.00122765640151
0.00184950161255
0.00221272612408
0.00241541012335
0.00250836116227
0.00253741847064
0.00253618334735
0.00252638677506
0.00251890116462
0.00251747021083
0.0025224953508
0.00253062468107
0.00253157493646
0.00250371923636
0.00241197044365
0.00220962487403
0.00184661823573
0.00122558032764
0.00025044767961
0.000246480306945
0.00120267079369
0.00178933889851
0.00212803830224
0.00231818693465
0.00241528867044
0.0024519989824
0.00245928291631
0.00245596037988
0.00245182117308
0.0024507683251
0.00245312262603
0.00245538434838
0.00244799369032
0.0024118287255
0.00231506990617
0.00212502126066
0.0017864754901
0.00120053794061
0.000246312800275
0.000238689905384
0.00114086622941
0.00166612558285
0.00196287423732
0.00212796530799
0.00221252301835
0.00224851401165
0.00226045569155
0.00226112253299
0.00225892914783
0.00225818896718
0.00225913242907
0.00225781528788
0.00224553979594
0.00220957502768
0.00212508007313
0.00196001006042
0.00166340310578
0.00113880777161
0.000238539145576
0.000225082823848
0.00101338436006
0.00143661507941
0.0016661669469
0.00178929695232
0.0018493037169
0.0018727101807
0.0018776372967
0.00187543764622
0.00187257829782
0.00187203288403
0.00187394626339
0.00187552582678
0.00187027576481
0.00184674787362
0.00178668943585
0.00166355704273
0.00143415330078
0.00101151394961
0.000224955128303
0.000201635539841
0.000757427452139
0.00101357684307
0.00114108191245
0.00120280138579
0.00122764469236
0.00123276852204
0.00122907517665
0.00122353113203
0.00121981872097
0.001219465918
0.00122255219641
0.00122764271841
0.00123105910546
0.00122576690025
0.00120080671459
0.00113904735162
0.00101163972755
0.000755910277946
0.000201545481885
0.00016272448899
0.000201610333715
0.000225051393949
0.000238654616191
0.000246439260576
0.000250573576505
0.000252448498195
0.000253055297378
0.000253108725504
0.000253034324201
0.000253015637121
0.000253057468482
0.000252980964384
0.00025236217684
0.000250483405248
0.000246350687692
0.000238571559689
0.000224978067684
0.000201557873797
0.000162742922204
0.000166945585002
0.000212308044996
0.000239021886855
0.000254553985484
0.000263620342607
0.000268652734994
0.000271175767902
0.000272253862376
0.000272631736518
0.000272730071837
0.00027271090181
0.000272577442293
0.000272172786592
0.000271076057979
0.000268541451714
0.000263504816247
0.000254441742445
0.000238920800558
0.000212234563373
0.000166972997855
0.000212325643869
0.000854945165743
0.00115679847326
0.0013095327601
0.00138607608684
0.00141976198965
0.00143026768515
0.00143003951309
0.00142672214934
0.00142413712993
0.00142365228216
0.00142535258564
0.00142799380532
0.00142776706671
0.00141695703814
0.00138307437333
0.00130648394994
0.00115392922324
0.00085270147526
0.000212196478685
0.000239051091736
0.00115696351128
0.00166984144905
0.00195466178627
0.00211213539518
0.0021931634684
0.00222914869193
0.0022411339257
0.00224254037528
0.00224115161068
0.00224037992056
0.00224040646632
0.00223807069564
0.00222562071317
0.00218945089011
0.00210836216878
0.00195090155258
0.00166628048112
0.00115418055424
0.000238872758478
0.000254593273985
0.00130988539733
0.00195490968993
0.00232983783256
0.00254526614754
0.00266147969776
0.00271689976239
0.00273828957364
0.00274288797483
0.00274216246996
0.00274106738381
0.00273987166816
0.00273382785168
0.00271184270356
0.00265677453362
0.00254100051466
0.00232567371966
0.00195091739625
0.00130671577695
0.000254384529544
0.00026366674549
0.00138657275601
0.00211258583736
0.00254546836479
0.00279785998431
0.00293468524959
0.00299644142143
0.0030169680628
0.00301935500892
0.00301696003251
0.00301540628728
0.00301496853998
0.00301012025287
0.00298814681452
0.00292705421321
0.00279225158646
0.00254086623224
0.00210822222521
0.00138313829892
0.000263434601217
0.000268699800283
0.00142032114557
0.00219371057436
0.00266183088831
0.00293541256819
0.00307697304929
0.0031352311636
0.00314875448355
0.00314483708977
0.00313881302782
0.00313678215637
0.00313889870059
0.00313902460975
0.00312254461079
0.00306427517072
0.00292633226005
0.00265637295219
0.00218907406924
0.00141679904196
0.000268457223676
0.000271215146033
0.00143082565761
0.00222973249428
0.00271794114421
0.00299940811242
0.00313811329286
0.00318710002434
0.00318979535907
0.00317734378566
0.0031667915932
0.00316442189004
0.00317023499731
0.0031776471213
0.00317036464997
0.00311994442588
0.00298536589218
0.00271062258764
0.00222490237794
0.00142734076148
0.000270978634456
0.000272280917269
0.0014306145566
0.0022418166706
0.00274057384538
0.0030227434346
0.00315523902984
0.00319365712045
0.00318542978155
0.00316454104678
0.00314960265343
0.00314705024582
0.00315673173336
0.00317162667162
0.00317401728878
0.00313301440825
0.00300464045837
0.00273110657595
0.00223679706778
0.00142719405254
0.000272062675427
0.000272646942945
0.00142740063505
0.00224350008461
0.00274627462495
0.0030273130289
0.00315426817431
0.0031845539513
0.00316801287069
0.00314059152019
0.00312223781288
0.00311953903345
0.00313224092612
0.00315306338103
0.00316314227805
0.00312983619908
0.00300710833622
0.00273562534042
0.00223830023926
0.00142402198181
0.000272449904039
0.000272739147149
0.00142501006282
0.00224255334624
0.00274646798473
0.00302653974469
0.00315050654695
0.00317656825388
0.00315564825106
0.00312478392666
0.00310461073043
0.00310182459137
0.00311612636635
0.00314011102334
0.00315430794594
0.00312512077456
0.0030055326363
0.00273537782273
0.00223723051845
0.00142163857023
0.000272554189294
0.000272723800998
0.00142477027469
0.00224226892091
0.00274622674224
0.00302636096298
0.00315037426134
0.00317642873486
0.00315545980467
0.00312455060585
0.00310435070195
0.00310155880086
0.00311588295618
0.00313991607028
0.00315416342266
0.00312498369229
0.00300535315114
0.00273513012737
0.0022369324644
0.00142138248932
0.000272534725309
0.000272600611905
0.00142667472514
0.00224265156324
0.00274555709632
0.00302678390929
0.0031539016032
0.00318422805789
0.00316761724324
0.0031401205976
0.00312171331516
0.00311899562618
0.00313173975673
0.00315265204197
0.00316280866457
0.00312946568813
0.00300658030481
0.0027348910944
0.0022374207319
0.0014232658645
0.000272394122311
0.000272206946527
0.00142941218669
0.0022404273865
0.00273942331514
0.00302192097556
0.00315473663398
0.00319332077942
0.00318509124955
0.00316414900998
0.00314915974521
0.00314658809967
0.00315630918407
0.00317127462094
0.00317367888278
0.0031325113143
0.0030038156816
0.00272993028706
0.00223537282395
0.00142596670385
0.000271976641624
0.000271122065461
0.0014292156268
0.0022278874888
0.00271642555698
0.00299831046788
0.0031375282923
0.00318688483039
0.00318973386483
0.00317729213166
0.0031667060942
0.00316431541192
0.00317013826492
0.00317754491951
0.00317012241069
0.00311933607986
0.00298424415456
0.00270906647607
0.00222301233139
0.00142570539247
0.000270871771059
0.000268598881057
0.00141843052389
0.00219154872156
0.00265988554274
0.00293391144316
0.00307607910788
0.00313490049864
0.00314873929101
0.00314490163307
0.00313886238028
0.00313680667883
0.00313890098156
0.00313893430898
0.00312214573487
0.00306332266984
0.00292477066209
0.00265435522624
0.00218683362434
0.0014148589855
0.000268340649457
0.000263568903165
0.00138456969806
0.00211031394095
0.0025433206589
0.00279592688923
0.0029331444812
0.00299542250817
0.00301627984131
0.00301874968026
0.00301633489951
0.00301475794437
0.00301429932901
0.00300934326331
0.00298703633838
0.00292542360376
0.00279022043413
0.00253859816665
0.00210582183526
0.00138104223838
0.000263319265539
0.000254506940943
0.00130796240366
0.0019527351053
0.00232770240921
0.00254315099459
0.00265939179488
0.00271505362724
0.00273646929302
0.00274103799114
0.00274026020512
0.00273914090792
0.00273795381606
0.00273191135407
0.0027098949933
0.00265456767466
0.00253874043756
0.00232336746802
0.00194856167972
0.00130465094754
0.000254279103341
0.000238981546971
0.0011553112868
0.00166797268303
0.00195273240651
0.00211011530182
0.00219103040123
0.00222692345357
0.00223879811022
0.00224011063088
0.00223865551349
0.00223785653428
0.00223790131272
0.00223562519055
0.00222326784155
0.0021871697377
0.00210616893778
0.00194877374018
0.00166419986923
0.0011523529683
0.000238783915306
0.000212279864748
0.000853820722413
0.00115554054452
0.00130815968427
0.00138456266304
0.00141811953047
0.00142852750785
0.00142822466342
0.0014248439823
0.00142221054231
0.0014217038082
0.0014234153228
0.00142609020064
0.00142592601082
0.00141519887353
0.00138142302714
0.00130494853514
0.00115249046662
0.000851419242344
0.000212134401587
0.000166952602659
0.000212244263329
0.000238937111337
0.000254454724265
0.000263504793225
0.000268520125956
0.000271027793168
0.000272093384309
0.000272460991167
0.000272552206328
0.000272529385526
0.000272396740746
0.000271996765062
0.000270909805395
0.000268389196472
0.000263368867672
0.000254321727665
0.000238815914653
0.000212154266592
0.00016697758943
0.000170201690624
0.000220887997095
0.000250037475353
0.000267028567792
0.000277161479946
0.000283032351025
0.000286222227773
0.000287809198329
0.00028854207402
0.000288826253806
0.000288809568601
0.000288493640323
0.000287735730842
0.000286126025601
0.000282915111234
0.000277032565582
0.0002669016826
0.000249922292297
0.000220800301735
0.000170237325388
0.000220915979181
0.000938374446323
0.00127537825943
0.00144878729386
0.00153960217416
0.00158378145275
0.00160218953779
0.00160777867182
0.00160847049891
0.00160797265208
0.00160739756724
0.00160681727918
0.00160526441557
0.00159902715432
0.0015801278319
0.00153562266999
0.00144474189333
0.00127160741834
0.000935398726684
0.000220745841077
0.000250079454681
0.00127557957214
0.00185394072825
0.00217817576334
0.00236143412198
0.0024600057495
0.00250791658967
0.00252711919827
0.00253276216913
0.00253332722787
0.00253230836988
0.00252992682903
0.00252275705192
0.00250262474615
0.00245486783051
0.0023565524429
0.00217336352819
0.00184938553743
0.00127188088979
0.000249853241621
0.000267083065202
0.00144926321864
0.00217853185876
0.00260509231862
0.00285424109964
0.00299226425424
0.00306088381826
0.00308809373227
0.00309549489315
0.00309568100846
0.00309404838848
0.00309086294648
0.00308068645718
0.00305158099358
0.00298324340397
0.00284706901585
0.00259952930543
0.00217326479283
0.00144487740605
0.000266817432437
0.000277226066602
0.00154034595481