/*--------------------------------*- C++ -*----------------------------------*\
| =========                 |                                                 |
| \\      /  F ield         | OpenFOAM: The Open Source CFD Toolbox           |
|  \\    /   O peration     | Version:  3.0.1                                 |
|   \\  /    A nd           | Web:      www.OpenFOAM.org                      |
|    \\/     M anipulation  |                                                 |
\*---------------------------------------------------------------------------*/
FoamFile
{
    version     2.0;
    format      ascii;
    class       surfaceScalarField;
    location    "4.4";
    object      phi;
}
// * * * * * * * * * * * * * * * * * * * * * * * * * * * * * * * * * * * * * //

dimensions      [0 3 -1 0 0 0 0];

internalField   nonuniform List<scalar> 
22672
(
3.49292781612e-06
3.45194305244e-06
-6.94488823432e-06
8.62400712597e-06
2.40806176538e-06
-7.53914081252e-06
1.37851418958e-05
2.34441775094e-06
-7.5055607472e-06
1.76498314804e-05
3.16044703841e-06
-7.02515019673e-06
1.94244552694e-05
4.71606093468e-06
-6.49070496959e-06
1.8819069163e-05
6.64246414325e-06
-6.03710591518e-06
1.61503692057e-05
8.39372718778e-06
-5.72506241749e-06
1.17508643788e-05
9.93037232115e-06
-5.53090929505e-06
6.22981813128e-06
1.10031872878e-05
-5.48218832785e-06
1.80004304709e-07
1.15449119645e-05
-5.49514958066e-06
-5.88033585445e-06
1.15523738313e-05
-5.492087986e-06
-1.14311092763e-05
1.10229349814e-05
-5.47221720124e-06
-1.58719331788e-05
9.95562229391e-06
-5.51485327189e-06
-1.85848096394e-05
8.41818190853e-06
-5.70535782168e-06
-1.92317970042e-05
6.66581088475e-06
-6.01887242673e-06
-1.74935303072e-05
4.74192792681e-06
-6.48024031178e-06
-1.36603987151e-05
3.19368934749e-06
-7.02686806536e-06
-8.53031318444e-06
2.38981449768e-06
-7.51995881396e-06
-3.43696921045e-06
2.46711207478e-06
-7.56054231143e-06
3.52877171559e-06
-6.96580329518e-06
2.43896884892e-06
8.56436937714e-06
-7.55138930463e-06
8.35247629773e-06
8.3091685393e-06
-1.18145963012e-05
1.45259292847e-05
9.36113791273e-06
-1.31901581002e-05
1.90091782472e-05
1.18399459466e-05
-1.31627329807e-05
2.10106630866e-05
1.54007643009e-05
-1.26861750991e-05
2.03791228326e-05
1.93743714092e-05
-1.21003572919e-05
1.73633040764e-05
2.30223725823e-05
-1.1612821057e-05
1.25649687675e-05
2.60355470846e-05
-1.13068381616e-05
6.6361113249e-06
2.81298630216e-05
-1.11978210892e-05
1.81816821251e-07
2.91912706718e-05
-1.11920706099e-05
-6.28576640443e-06
2.92091195284e-05
-1.11891716975e-05
-1.22517582329e-05
2.81777299036e-05
-1.11888136915e-05
-1.71003665621e-05
2.60988947718e-05
-1.12946741045e-05
-2.01668706237e-05
2.3087183093e-05
-1.16025044194e-05
-2.08428679138e-05
1.94400596418e-05
-1.20982555682e-05
-1.88750497611e-05
1.54739170578e-05
-1.26998109464e-05
-1.44176143525e-05
1.19283054637e-05
-1.3192061929e-05
-8.26292841083e-06
9.47032696644e-06
-1.32352274469e-05
-2.37561790525e-06
8.43697207802e-06
-1.18572313417e-05
8.70418272744e-06
-7.55107552254e-06
2.37517853546e-06
1.3733307077e-05
-7.54411045172e-06
9.39830707177e-06
1.44885129048e-05
-1.32024535824e-05
1.67244358359e-05
1.66966578014e-05
-1.46616307918e-05
2.19247218022e-05
2.06848885743e-05
-1.40452116659e-05
2.41295418314e-05
2.59135848197e-05
-1.27176269356e-05
2.32403934579e-05
3.1535628052e-05
-1.12720998052e-05
1.96563731497e-05
3.66740658945e-05
-1.0067670317e-05
1.41204944156e-05
4.08496931131e-05
-9.27827032574e-06
7.41805839067e-06
4.37365849287e-05
-8.90429427072e-06
1.98254650291e-07
4.51995251618e-05
-8.78846391846e-06
-7.04022475636e-06
4.52268553651e-05
-8.77927332278e-06
-1.37933889493e-05
4.3809854909e-05
-8.87897936087e-06
-1.93929662761e-05
4.09447619709e-05
-9.24630703035e-06
-2.30337597539e-05
3.67681530606e-05
-1.00401895461e-05
-2.39656410486e-05
3.16279227886e-05
-1.12559906191e-05
-2.17905182121e-05
2.60159439214e-05
-1.27171586775e-05
-1.66121188555e-05
2.08103239788e-05
-1.40604366866e-05
-9.30268219132e-06
1.68495693525e-05
-1.4688721655e-05
-2.30501108613e-06
1.46629216253e-05
-1.32236999851e-05
1.39135098359e-05
-7.51439995465e-06
3.18873762913e-06
1.76096599197e-05
-7.06507902536e-06
1.1873510927e-05
1.89879423022e-05
-1.31841770238e-05
2.07070692056e-05
2.19149116965e-05
-1.40517873657e-05
2.68197473479e-05
2.68208929652e-05
-1.22486587222e-05
2.92071854241e-05
3.30350392327e-05
-9.50887233197e-06
2.78398229749e-05
3.95990362544e-05
-6.69603084296e-06
2.33284553912e-05
4.55456651635e-05
-4.36022249579e-06
1.66173554426e-05
5.03525984403e-05
-2.79180181372e-06
8.67377472345e-06
5.36700376677e-05
-1.9898740378e-06
2.25072119829e-07
5.53520247246e-05
-1.70380434289e-06
-8.25049507055e-06
5.53862568757e-05
-1.68384593745e-06
-1.62661944015e-05
5.37610787993e-05
-1.93553772902e-06
-2.30620012226e-05
5.0464923908e-05
-2.7243660464e-06
-2.76355976733e-05
4.56462891379e-05
-4.30454531938e-06
-2.90389571811e-05
3.96894265799e-05
-6.65814530521e-06
-2.66721714755e-05
3.31326612109e-05
-9.48350571256e-06
-2.05774962617e-05
2.6946955947e-05
-1.22313234113e-05
-1.17613970797e-05
2.20748680262e-05
-1.4041443075e-05
-3.10659105201e-06
1.91722603411e-05
-1.31642310285e-05
1.77980543499e-05
-6.9912022573e-06
4.74758907268e-06
1.93981013125e-05
-6.5360143954e-06
1.54369340067e-05
2.1002378905e-05
-1.27037515427e-05
2.59377896229e-05
2.41384111124e-05
-1.27243259708e-05
3.30298133524e-05
2.92345264607e-05
-9.50562969103e-06
3.55634063743e-05
3.56051458654e-05
-5.10367598564e-06
3.35909588127e-05
4.22420631746e-05
-6.70560672484e-07
2.79412327811e-05
4.8207440999e-05
2.98796401677e-06
1.97899250031e-05
5.30293221064e-05
5.47459331451e-06
1.02925931736e-05
5.63579229674e-05
6.80945074704e-06
2.59800062033e-07
5.80458430656e-05
7.33897369883e-06
-9.81261627834e-06
5.8083491665e-05
7.37517615707e-06
-1.94144040574e-05
5.64582855624e-05
6.90457429382e-06
-2.76803259721e-05
5.31480310743e-05
5.58281095202e-06
-3.33974595435e-05
4.82978303776e-05
3.06559440477e-06
-3.53923302008e-05
4.23119790438e-05
-6.27675384377e-07
-3.28620241426e-05
3.5675322121e-05
-5.07296424065e-06
-2.57818504527e-05
2.93334162559e-05
-9.46664846743e-06
-1.53030773964e-05
2.4274178181e-05
-1.26781311552e-05
-4.65334951267e-06
2.11634982942e-05
-1.26410577786e-05
1.9565785356e-05
-6.42115020007e-06
6.68130484997e-06
1.88020919283e-05
-6.08527655816e-06
1.94238059921e-05
2.03820066767e-05
-1.21220967901e-05
3.15757593479e-05
2.32597638589e-05
-1.12732755691e-05
3.96061645451e-05
2.78789246183e-05
-6.67477518001e-06
4.22028685307e-05
3.3648426211e-05
-6.39960223398e-07
3.95312890066e-05
3.95943630126e-05
5.31929959534e-06
3.26655492807e-05
4.49026742603e-05
1.01705232354e-05
2.30154920832e-05
4.92296866423e-05
1.34497067831e-05
1.19247304253e-05
5.22380162162e-05
1.52106790097e-05
2.93777505462e-07
5.37680214774e-05
1.59087805985e-05
-1.13914981767e-05
5.38051720075e-05
1.59635973511e-05
-2.26257718688e-05
5.23376413269e-05
1.53549186682e-05
-3.24255305641e-05
4.93465650243e-05
1.36012285226e-05
-3.93572897705e-05
4.49802744848e-05
1.02493243691e-05
-4.20308529866e-05
3.96454803344e-05
5.34007406266e-06
-3.94139113932e-05
3.36939738498e-05
-6.35587451612e-07
-3.13864912921e-05
2.79474963911e-05
-6.64151499349e-06
-1.92633744187e-05
2.33613798718e-05
-1.12103701837e-05
-6.57225099084e-06
2.05083327769e-05
-1.20360551444e-05
1.89368944788e-05
-5.94343207336e-06
8.43818793705e-06
1.61373898911e-05
-5.77346439244e-06
2.30861724532e-05
1.73661320407e-05
-1.16320765084e-05
3.67340434934e-05
1.96691740107e-05
-1.00572503413e-05
4.55709004778e-05
2.33523537918e-05
-4.31025850054e-06
4.81783131755e-05
2.79764183379e-05
3.06461875114e-06
4.48407902089e-05
3.27061895195e-05
1.02257172085e-05
3.685335503e-05
3.68941488788e-05
1.59959803656e-05
2.58451367859e-05
4.03325057511e-05
1.9905418756e-05
1.33420782267e-05
4.27392041372e-05
2.20018887184e-05
3.24487922229e-07
4.39504789792e-05
2.28351479348e-05
-1.27615712334e-05
4.39807188763e-05
2.2910523711e-05
-2.54497226867e-05
4.28241648267e-05
2.220163766e-05
-3.66467094683e-05
4.04381123713e-05
2.01054514421e-05
-4.4692575455e-05
3.69679176738e-05
1.60582388485e-05
-4.80099608504e-05
3.27497889623e-05
1.02130932234e-05
-4.53588592359e-05
2.80121512762e-05
3.03072794392e-06
-3.65141136575e-05
2.34031995841e-05
-4.30046559205e-06
-2.29007353548e-05
1.97426577844e-05
-9.99471240015e-06
-8.31841237622e-06
1.74584934228e-05
-1.15325860167e-05
1.62397354893e-05
-5.62132718492e-06
9.97864281846e-06
1.17358792067e-05
-5.57710803866e-06
2.61072414868e-05
1.25596558681e-05
-1.13220874716e-05
4.09219374354e-05
1.41139232942e-05
-9.25941348484e-06
5.0392123003e-05
1.66045924383e-05
-2.72239633763e-06
5.3014002771e-05
1.97703516009e-05
5.58421097764e-06
4.91750857461e-05
2.29833725851e-05
1.35617565841e-05
4.02954785799e-05
2.57976016796e-05
1.99761783711e-05
2.81593225307e-05
2.81015203344e-05
2.43671677271e-05
1.44979492455e-05
2.97459907206e-05
2.66546143844e-05
3.47027716085e-07
3.06092740494e-05
2.74921526176e-05
-1.3882281439e-05
3.06323866307e-05
2.75776640429e-05
-2.77487150913e-05
2.98083733562e-05
2.68822451063e-05
-4.01119809924e-05
2.8180737697e-05
2.46206607894e-05
-4.9052007933e-05
2.58657248891e-05
2.00422417376e-05
-5.2851529853e-05
2.30279143271e-05
1.3521416028e-05
-5.01691943164e-05
1.98070553665e-05
5.52276713571e-06
-4.06842921389e-05
1.66496043571e-05
-2.73132682008e-06
-2.59082278006e-05
1.41697961514e-05
-9.20326374293e-06
-9.85335554559e-06
1.26264607904e-05
-1.12229470605e-05
1.18112443587e-05
-5.42494034474e-06
1.10500156244e-05
6.21152595779e-06
-5.52563505795e-06
2.81983171775e-05
6.6223382074e-06
-1.1210945972e-05
4.38043059006e-05
7.39402587555e-06
-8.88605712235e-06
5.37043915195e-05
8.63008011472e-06
-1.92554342816e-06
5.63342334141e-05
1.02272993905e-05
6.91323663264e-06
5.21696005874e-05
1.18325494413e-05
1.5315482229e-05
4.26920377731e-05
1.32253541437e-05
2.20498399029e-05
2.98018748151e-05
1.4367646379e-05
2.66240718494e-05
1.53731496514e-05
1.52386722557e-05
2.89360823563e-05
3.64394001938e-07
1.56868470752e-05
2.99312203481e-05
-1.47262591472e-05
1.5699325726e-05
3.00237480322e-05
-2.93794048538e-05
1.52738014543e-05
2.91877479203e-05
-4.25130154354e-05
1.44180592475e-05
2.68963174046e-05
-5.20593699214e-05
1.32713264075e-05
2.21407801747e-05
-5.61746536094e-05
1.18701453375e-05
1.52730743834e-05
-5.34770767134e-05
1.02605357597e-05
6.84894887714e-06
-4.35604934296e-05
8.66882613564e-06
-1.93582777088e-06
-2.79948067193e-05
7.43653923361e-06
-8.83249484883e-06
-1.0923361975e-05
6.67065663486e-06
-1.11157520261e-05
6.2655729908e-06
-5.37776835785e-06
1.15862643835e-05
1.61323263956e-07
-5.53603009641e-06
2.92480273365e-05
1.65312093064e-07
-1.12046947008e-05
4.52495012295e-05
1.69387727508e-07
-8.77679746021e-06
5.53650374487e-05
1.76016660243e-07
-1.66143903922e-06
5.79978165953e-05
1.85900344125e-07
7.40865040556e-06
5.36770964367e-05
1.95737856097e-07
1.59575632363e-05
4.3891163176e-05
2.04833210136e-07
2.28064907492e-05
3.06631789708e-05
2.1283685582e-07
2.73828375459e-05
1.58248597018e-05
2.19070258741e-07
2.98579696168e-05
3.75859272519e-07
2.23676206169e-07
3.09122194675e-05
-1.51549853906e-05
2.26199055134e-07
3.10040151773e-05
-3.02224637704e-05
2.25539365384e-07
3.01157789379e-05
-4.37005882478e-05
2.21816487406e-07
2.76744021756e-05
-5.35658217424e-05
2.16575139545e-07
2.29200163527e-05
-5.78385446548e-05
2.10855425239e-07
1.59320364988e-05
-5.51367864732e-05
2.04758773014e-07
7.35402497364e-06
-4.50051999185e-05
1.99605644903e-07
-1.66239013572e-06
-2.90440153054e-05
1.97235986089e-07
-8.72194830003e-06
-1.14599704042e-05
1.97220196198e-07
-1.11107215281e-05
1.96241704146e-07
-5.39071699884e-06
1.15885478818e-05
-5.89463668794e-06
-5.532551572e-06
2.92541381364e-05
-6.29749197176e-06
-1.12027389983e-05
4.52593078365e-05
-7.06037758821e-06
-8.77536088424e-06
5.53771727175e-05
-8.28177923796e-06
-1.66002993047e-06
5.80106198353e-05
-9.85820779004e-06
7.41069711951e-06
5.36901211262e-05
-1.14420997581e-05
1.59583738288e-05
4.39031527708e-05
-1.28156247998e-05
2.2807469521e-05
3.06737028211e-05
-1.39426298194e-05
2.73849675859e-05
1.58319021473e-05
-1.48025215492e-05
2.98634481329e-05
3.77876961415e-07
-1.52422590991e-05
3.09200155406e-05
-1.5158412427e-05
-1.52502015407e-05
3.10127398635e-05
-3.02300897344e-05
-1.48261553431e-05
3.01234154355e-05
-4.37098083053e-05
-1.39764573867e-05
2.7678031247e-05
-5.35760874676e-05
-1.28393631192e-05
2.29222518111e-05
-5.7848731717e-05
-1.14510114077e-05
1.59345366807e-05
-5.51461859786e-05
-9.85511849584e-06
7.35733898699e-06
-4.5012639437e-05
-8.2751849187e-06
-1.65877903782e-06
-2.90486122162e-05
-7.04940147388e-06
-8.71745542085e-06
-1.14617939196e-05
-6.28441609905e-06
-1.1105292963e-05
-5.88077430604e-06
-5.3848532577e-06
1.10572512511e-05
-1.1437349515e-05
-5.51449730646e-06
2.82173531884e-05
-1.22534911766e-05
-1.12040501779e-05
4.38347888878e-05
-1.37972890146e-05
-8.88047496357e-06
5.37419898555e-05
-1.62700054796e-05
-1.91892943411e-06
5.63736302617e-05
-1.94119486343e-05
6.92214282764e-06
5.22082610131e-05
-2.25993495574e-05
1.5322662591e-05
4.27272864075e-05
-2.53900585895e-05
2.20554568512e-05
2.98305703463e-05
-2.76742700019e-05
2.66284115038e-05
1.53928994755e-05
-2.93113823122e-05
2.89465910231e-05
3.7130866833e-07
-3.01669217757e-05
2.99463108507e-05
-1.47348744705e-05
-3.01871070799e-05
3.0043139947e-05
-2.94004738836e-05
-2.93654811273e-05
2.92049698699e-05
-4.25410734723e-05
-2.77400561931e-05
2.69042381287e-05
-5.20902102732e-05
-2.54392236552e-05
2.21490329955e-05
-5.62060259662e-05
-2.261849123e-05
1.5283323146e-05
-5.35066376178e-05
-1.94157104546e-05
6.86121395128e-06
-4.35843395548e-05
-1.62741570407e-05
-1.92334502575e-06
-2.80097562956e-05
-1.38050261395e-05
-8.81901909778e-06
-1.09294243521e-05
-1.22646564749e-05
-1.11001957658e-05
-1.14495751611e-05
-5.3606929893e-06
9.99200625346e-06
-1.58706065025e-05
-5.55870349325e-06
2.61412262242e-05
-1.70925298477e-05
-1.13101233116e-05
4.09757843095e-05
-1.93838449545e-05
-9.24794651808e-06
5.04584162279e-05
-2.30466173857e-05
-2.70596775319e-06
5.30833288424e-05
-2.7644525822e-05
5.60771389552e-06
4.92408119214e-05
-3.23455525254e-05
1.3588769449e-05
4.035284614e-05
-3.6505818011e-05
2.00037782867e-05
2.82024436144e-05
-3.99228713118e-05
2.43990610466e-05
1.4527503416e-05
-4.23164943072e-05
2.66801112917e-05
3.56082176465e-07
-4.35174481927e-05
2.75220037138e-05
-1.38960926662e-05
-4.35453751967e-05
2.76104923892e-05
-2.7778953739e-05
-4.23936646065e-05
2.69110872906e-05
-4.01565936268e-05
-4.00146866869e-05
2.46523090021e-05
-4.91039534272e-05
-3.65604505632e-05
2.00686229541e-05
-5.29069682054e-05
-3.23646211638e-05
1.35491747971e-05
-5.0222512064e-05
-2.76500815171e-05
5.54992980457e-06
-4.07280486812e-05
-2.30614559118e-05
-2.70717680656e-06
-2.59362699059e-05
-1.9415407567e-05
-9.18144868736e-06
-9.86520090669e-06
-1.71361910678e-05
-1.11996270519e-05
-1.59161815649e-05
-5.39865485679e-06
8.45823320204e-06
-1.85782225668e-05
-5.75056724317e-06
2.31359085448e-05
-2.01523355946e-05
-1.16178062482e-05
3.68127035311e-05
-2.3019809935e-05
-1.00407676176e-05
4.56679488939e-05
-2.76191268145e-05
-4.2826759021e-06
4.82805129415e-05
-3.33642045658e-05
3.10717186949e-06
4.49368045785e-05
-3.92831314609e-05
1.02813434829e-05
3.69343550565e-05
-4.45653369827e-05
1.60620260479e-05
2.59051393127e-05
-4.88724429756e-05
1.99788465795e-05
1.33774378074e-05
-5.18680960145e-05
2.20793611461e-05
3.36100121047e-07
-5.33896558292e-05
2.29135984485e-05
-1.27756490188e-05
-5.34244407276e-05
2.29908605393e-05
-2.54910011193e-05
-5.19593347716e-05
2.22810620007e-05
-3.67096649495e-05
-4.89743614852e-05
2.01783758899e-05
-4.4770004365e-05
-4.46226976281e-05
1.6122623112e-05
-4.80942196252e-05
-3.93100750943e-05
1.02697019586e-05
-4.54398332851e-05
-3.33819572356e-05
3.07750994158e-06
-3.65805327902e-05
-2.76562532441e-05
-4.26450652837e-06
-2.29434515849e-05
-2.3085720764e-05
-9.96680713565e-06
-8.33709084827e-06
-2.02372217084e-05
-1.15054075536e-05
-1.86636433965e-05
-5.58967866452e-06
6.70668037243e-06
-1.92213905708e-05
-6.06345890765e-06
1.94904755862e-05
-2.0825139066e-05
-1.21109233629e-05
3.16799269641e-05
-2.39528578927e-05
-1.12563341877e-05
3.97339425952e-05
-2.90324819051e-05
-6.64059218567e-06
4.2336584162e-05
-3.53831351127e-05
-5.8364494806e-07
3.96551646762e-05
-4.19989680759e-05
5.39732026475e-06
3.27689055083e-05
-4.79425198182e-05
1.02635053902e-05
2.30912390884e-05
-5.27485977935e-05
1.35538835504e-05
1.19699014243e-05
-5.60666263789e-05
1.53199266114e-05
3.08725882789e-07
-5.77476432039e-05
1.60192147009e-05
-1.14083477693e-05
-5.77828858282e-05
1.60755625634e-05
-2.26760555868e-05
-5.61587222252e-05
1.5467133234e-05
-3.25054559538e-05
-5.28525593523e-05
1.37076344356e-05
-3.94589977691e-05
-4.80131672454e-05
1.03440482757e-05
-4.2144074003e-05
-4.20459560487e-05
5.42099239791e-06
-3.95243330732e-05
-3.54285983358e-05
-5.73073501797e-07
-3.1477999157e-05
-2.91048760739e-05
-6.59770514888e-06
-1.93233499113e-05
-2.40598865739e-05
-1.11805094171e-05
-6.59673972121e-06
-2.09540612544e-05
-1.20098319288e-05
-1.93474426966e-05
-5.91298017601e-06
4.78195683058e-06
-1.74834438433e-05
-6.51984683656e-06
1.55193027082e-05
-1.88620077644e-05
-1.27004049968e-05
2.60633523046e-05
-2.17834679635e-05
-1.27133647079e-05
3.31825320438e-05
-2.66782316675e-05
-9.47335414348e-06
3.57233188042e-05
-3.28794726019e-05
-5.0443744645e-06
3.37406988508e-05
-3.94297964606e-05
-5.8647879113e-07
2.80675200518e-05
-4.53616787584e-05
3.09240840425e-06
1.98843941753e-05
-5.01581175988e-05
5.59271306221e-06
1.03502881166e-05
-5.34682873069e-05
6.93582853088e-06
2.78453190809e-07
-5.51454048221e-05
7.46964961418e-06
-9.83412222281e-06
-5.51771289989e-05
7.50686266703e-06
-1.94754482197e-05
-5.35513337208e-05
7.03397510755e-06
-2.77767894754e-05
-5.02568776145e-05
5.70569490968e-06
-3.35208569061e-05
-4.54445400858e-05
3.17547654281e-06
-3.55299086118e-05
-3.95002761357e-05
-5.36592099142e-07
-3.29974294222e-05
-3.29564377935e-05
-5.00461005096e-06
-2.58961264837e-05
-2.67834000444e-05
-9.42276628782e-06
-1.53810659184e-05
-2.19220081676e-05
-1.26529544515e-05
-4.68851012676e-06
-1.9022337108e-05
-1.26243281199e-05
-1.76394609696e-05
-6.39652477058e-06
3.22608993924e-06
-1.365030279e-05
-7.05917342327e-06
1.19638465278e-05
-1.44063187711e-05
-1.31933726942e-05
2.08443838317e-05
-1.6610984982e-05
-1.40529434544e-05
2.69856880392e-05
-2.05926348196e-05
-1.22268213206e-05
2.93798841589e-05
-2.5814254684e-05
-9.45933364438e-06
2.80002697252e-05
-3.14287580997e-05
-6.62134457895e-06
2.3463253873e-05
-3.65584704593e-05
-4.2661155617e-06
1.67175076459e-05
-4.07275225821e-05
-2.68477635607e-06
8.73533037035e-06
-4.36086334305e-05
-1.87741148796e-06
2.48259456216e-07
-4.50666657794e-05
-1.59161294016e-06
-8.26667194974e-06
-4.50917067967e-05
-1.57044609906e-06
-1.63244221919e-05
-4.36752966399e-05
-1.81825029627e-06
-2.31603191982e-05
-4.08120141591e-05
-2.60893378336e-06
-2.77653541272e-05
-3.66390404037e-05
-4.20043228904e-06
-2.91869289085e-05
-3.15063061827e-05
-6.57236281405e-06
-2.68204490911e-05
-2.59020799536e-05
-9.42081026542e-06
-2.0704735416e-05
-2.07045971978e-05
-1.21945033042e-05
-1.1848899173e-05
-1.67509691992e-05
-1.40268870495e-05
-3.1456823828e-06
-1.45660180973e-05
-1.31595788227e-05
-1.38083913615e-05
-6.97678473656e-06
2.41436188828e-06
-8.51818110762e-06
-7.54642842869e-06
9.49242949907e-06
-8.25962580544e-06
-1.32246913714e-05
1.68670883535e-05
-9.30913942887e-06
-1.46764307201e-05
2.20967259593e-05
-1.17849203039e-05
-1.40372741202e-05
2.43084391948e-05
-1.53429857896e-05
-1.26829017857e-05
2.34072626287e-05
-1.93135186151e-05
-1.12139823215e-05
1.97976586454e-05
-2.29566545371e-05
-9.9921333493e-06
1.42279717783e-05
-2.59665992866e-05
-9.19116269738e-06
7.48680208867e-06
-2.80578469182e-05
-8.80955141489e-06
2.25808461192e-07
-2.9116613352e-05
-8.68900470803e-06
-7.05516516498e-06
-2.91330714275e-05
-8.67762008094e-06
-1.38510591248e-05
-2.81016858437e-05
-8.77768576752e-06
-1.94909218643e-05
-2.60236948513e-05
-9.14843194759e-06
-2.31646698113e-05
-2.30137119666e-05
-9.95155818734e-06
-2.4116526987e-05
-1.93710922896e-05
-1.11833354192e-05
-2.19439357219e-05
-1.54091681766e-05
-1.2665486224e-05
-1.67452914321e-05
-1.18679007003e-05
-1.40353364912e-05
-9.39482103609e-06
-9.41312048058e-06
-1.46883381048e-05
-2.34679758119e-06
-8.38143110883e-06
-1.32326605003e-05
-8.64569848745e-06
-7.50953363081e-06
2.47944850486e-06
-3.43064772891e-06
-7.56693091533e-06
8.44610419765e-06
-2.38254150736e-06
-1.18436777779e-05
1.46672535642e-05
-2.31735222646e-06
-1.3212870542e-05
1.91803223946e-05
-3.13294014095e-06
-1.31649779742e-05
2.11888808918e-05
-4.68871312449e-06
-1.26627565871e-05
2.05457978654e-05
-6.61493420449e-06
-1.2055425491e-05
1.75057759306e-05
-8.36423413695e-06
-1.15523240565e-05
1.26749855161e-05
-9.90041521283e-06
-1.12353244315e-05
6.70839953054e-06
-1.09725236515e-05
-1.11186774791e-05
2.13361140076e-07
-1.15133825046e-05
-1.11081456617e-05
-6.29636468308e-06
-1.15204276686e-05
-1.1102885654e-05
-1.23043011336e-05
-1.09908420899e-05
-1.11028879615e-05
-1.71923801298e-05
-9.92356889386e-06
-1.1212036409e-05
-2.02911818058e-05
-8.38643701464e-06
-1.15284670256e-05
-2.09879815696e-05
-6.63597072103e-06
-1.20383178844e-05
-1.90248282892e-05
-4.71395829712e-06
-1.26583643548e-05
-1.45469779391e-05
-3.16587032857e-06
-1.31798948639e-05
-8.35372965676e-06
-2.36258144242e-06
-1.32438253248e-05
-2.41880994623e-06
-2.44083245706e-06
-1.18755917865e-05
-3.5015148467e-06
-7.56305042262e-06
3.53070642555e-06
-6.96132266764e-06
8.71057755081e-06
-7.56237476247e-06
1.39146740729e-05
-7.52140974558e-06
1.78073756619e-05
-7.02559921286e-06
1.95901873559e-05
-6.47147915807e-06
1.89750825386e-05
-5.999781895e-06
1.62864000329e-05
-5.6755041736e-06
1.18580204508e-05
-5.47199122718e-06
6.30244721122e-06
-5.41691238876e-06
2.15069400917e-07
-5.4259755019e-06
-5.88423390168e-06
-5.42110476718e-06
-1.14731759807e-05
-5.40188856202e-06
-1.59490913064e-05
-5.44764722528e-06
-1.86898100701e-05
-5.64571466268e-06
-1.93552090868e-05
-5.97057072727e-06
-1.76197818316e-05
-6.44938962462e-06
-1.37690723191e-05
-7.01659504784e-06
-8.60609441699e-06
-7.5255947592e-06
-3.47174374686e-06
-7.57523838777e-06
-6.97327932777e-06
5.55621746206e-06
5.51542423863e-06
-1.80165475657e-05
1.14285854978e-05
6.48444390278e-06
-1.98959612534e-05
1.66182853116e-05
7.83369268559e-06
-2.05289697457e-05
2.02345543901e-05
9.83306773364e-06
-2.04745048202e-05
2.16717106483e-05
1.22372151563e-05
-2.01650954275e-05
2.07152317345e-05
1.47111076497e-05
-1.97917560996e-05
1.75980557003e-05
1.68801928503e-05
-1.94881039432e-05
1.27356173736e-05
1.86726146692e-05
-1.93411140498e-05
6.7308212162e-06
1.99130653418e-05
-1.93904895075e-05
1.87053443064e-07
2.05430521755e-05
-1.94944688883e-05
-6.36866879815e-06
2.05556719644e-05
-1.94920742602e-05
-1.24072844478e-05
1.99477453604e-05
-1.93813832006e-05
-1.73171074828e-05
1.87207863164e-05
-1.93258504127e-05
-2.04852722096e-05
1.6933700997e-05
-1.94709238942e-05
-2.14907690019e-05
1.47695489397e-05
-1.97829504354e-05
-2.00986671656e-05
1.23060416832e-05
-2.01784090042e-05
-1.65202813493e-05
9.91362102133e-06
-2.05189071512e-05
-1.13624328191e-05
7.92682407888e-06
-2.06046826117e-05
-5.52034021939e-06
6.58629957026e-06
-1.99890179941e-05
5.6212319361e-06
-1.81074400255e-05
6.50473768811e-06
1.13739833066e-05
-1.99146904863e-05
1.25026942784e-05
1.24713095529e-05
-2.37994173781e-05
1.73839167272e-05
1.45023368643e-05
-2.47400272445e-05
2.0639954038e-05
1.7638744492e-05
-2.42244470561e-05
2.17968390057e-05
2.14654150927e-05
-2.3071258258e-05
2.0701436112e-05
2.54449785862e-05
-2.17388238267e-05
1.74881932007e-05
2.90566939439e-05
-2.05760795724e-05
1.26270714738e-05
3.20005865846e-05
-1.97736915184e-05
6.67666999627e-06
3.40474709195e-05
-1.93818315457e-05
1.9616139028e-07
3.50953381527e-05
-1.92638570145e-05
-6.2989123015e-06
3.5119805001e-05
-1.92582413817e-05
-1.22893210958e-05
3.41141942748e-05
-1.936486352e-05
-1.72052103998e-05
3.20920846146e-05
-1.97500892381e-05
-2.0475970785e-05
2.91561114788e-05
-2.05541557824e-05
-2.1625013107e-05
2.55502624834e-05
-2.17299239443e-05
-2.05166008355e-05
2.15841851215e-05
-2.30863657357e-05
-1.73022394114e-05
1.77775073799e-05
-2.42703213871e-05
-1.24545724741e-05
1.46613930548e-05
-2.48175008184e-05
-6.48182016479e-06
1.26453548443e-05
-2.38891123242e-05
1.15535627105e-05
-1.99652840084e-05
7.84488637583e-06
1.65613477281e-05
-2.05763681391e-05
1.45219969477e-05
1.73509187791e-05
-2.47591729317e-05
1.96746676909e-05
1.96539417464e-05
-2.49659075443e-05
2.29448647769e-05
2.33809293914e-05
-2.30575925244e-05
2.3921047049e-05
2.79644328423e-05
-2.0192825226e-05
2.24803026271e-05
3.27435015994e-05
-1.71298782947e-05
1.8841358651e-05
3.71085729944e-05
-1.44806085456e-05
1.35212522291e-05
4.06501122353e-05
-1.26076968139e-05
7.12588609064e-06
4.31047669804e-05
-1.15662357051e-05
2.15224110563e-07
4.43624823333e-05
-1.11449615863e-05
-6.71509254134e-06
4.43960890764e-05
-1.11252581027e-05
-1.31629098906e-05
4.31956899151e-05
-1.1512673376e-05
-1.8550773698e-05
4.07722398064e-05
-1.25386087178e-05
-2.22530523875e-05
3.723401741e-05
-1.44158194243e-05
-2.37469287557e-05
3.28688509852e-05
-1.7080699633e-05
-2.28171548989e-05
2.81008634659e-05
-2.01636104338e-05
-1.95900428772e-05
2.35417286994e-05
-2.30517858547e-05
-1.44731028344e-05
1.98420084772e-05
-2.49863243348e-05
-7.82222170474e-06
1.75593809106e-05
-2.47886952583e-05
1.6777774363e-05
-2.05609025923e-05
9.84285147872e-06
2.01910532022e-05
-2.05376374091e-05
1.76538035283e-05
2.06136350338e-05
-2.42578382403e-05
2.33950699543e-05
2.29313170548e-05
-2.30704224803e-05
2.68329631759e-05
2.68290566876e-05
-1.91346703021e-05
2.75999034515e-05
3.16422186269e-05
-1.3953589012e-05
2.56396135559e-05
3.66545121534e-05
-8.64674396295e-06
2.1286270666e-05
4.12257381647e-05
-4.12404047223e-06
1.51568809863e-05
4.49098798858e-05
-9.22179555837e-07
7.94820685733e-06
4.74606615181e-05
8.62901048085e-07
2.41226524332e-07
4.87726438977e-05
1.59300584088e-06
-7.49366094707e-06
4.88135581812e-05
1.63356230612e-06
-1.47734560184e-05
4.75714898811e-05
9.68450015679e-07
-2.09914274581e-05
4.50506593596e-05
-7.84813683985e-07
-2.54132894126e-05
4.13588559892e-05
-4.00751088847e-06
-2.74212960122e-05
3.67769977961e-05
-8.55826712008e-06
-2.66922119689e-05
3.17679706951e-05
-1.38796821602e-05
-2.32943433457e-05
2.69793481407e-05
-1.90668165206e-05
-1.7591632209e-05
2.31124526387e-05
-2.30146401399e-05
-9.81172088841e-06
2.08181631728e-05
-2.42030112105e-05
2.04052975466e-05
-2.04305142363e-05
1.22465513145e-05
2.16479933733e-05
-2.02395021147e-05
2.1482124429e-05
2.17848116285e-05
-2.31104889094e-05
2.79789338957e-05
2.3919383282e-05
-2.02091898405e-05
3.16420717545e-05
2.76113630262e-05
-1.39510602415e-05
3.2159629043e-05
3.21813520831e-05
-6.1603532245e-06
2.9567527009e-05
3.69570584011e-05
1.61900719001e-06
2.43485697742e-05
4.13658342341e-05
8.06683461008e-06
1.72393550622e-05
4.49298556264e-05
1.25638385255e-05
9.01036229532e-06
4.73979630716e-05
1.51011440894e-05
2.69991939489e-07
4.86708185446e-05
1.6181167867e-05
-8.50915688912e-06
4.87168031951e-05
1.62510774404e-05
-1.68399613888e-05
4.75220880928e-05
1.52847823022e-05
-2.40637840301e-05
4.50828613469e-05
1.27744435691e-05
-2.93559430184e-05
4.14914804148e-05
8.22515395522e-06
-3.19833729913e-05
3.70639091416e-05
1.71287681058e-06
-3.14858859931e-05
3.22829042516e-05
-6.08535604676e-06
-2.78543621443e-05
2.77321460959e-05
-1.38509645869e-05
-2.13983093942e-05
2.40706392733e-05
-2.00924056838e-05
-1.22021116607e-05
2.1959683387e-05
-2.29788581775e-05
2.18292066792e-05
-2.00472346288e-05
1.47272272722e-05
2.07057548012e-05
-1.98702581601e-05
2.54707688515e-05
2.06983541678e-05
-2.17791661286e-05
3.27691397061e-05
2.24842507923e-05
-1.71365002895e-05
3.66612537149e-05
2.56553905455e-05
-8.61090237237e-06
3.69337631195e-05
2.95943629365e-05
1.6745333652e-06
3.37555942225e-05
3.3792976361e-05
1.16615634862e-05
2.76515719883e-05
3.77046078963e-05
1.99357843733e-05
1.95055064513e-05
4.08769116735e-05
2.56487268428e-05
1.01733135246e-05
4.30782855496e-05
2.88625571279e-05
2.99065732393e-07
4.42167845406e-05
3.02370669899e-05
-9.6286497409e-06
4.42627090235e-05
3.0345410995e-05
-1.91011913618e-05
4.32022279284e-05
2.91473291915e-05
-2.73972581056e-05
4.10288314488e-05
2.59513452724e-05
-3.35726844078e-05
3.78155083669e-05
2.01007577313e-05
-3.6768970927e-05
3.3880026064e-05
1.17202881157e-05
-3.64923259318e-05
2.96744134256e-05
1.69629679643e-06
-3.26167455898e-05
2.57450895272e-05
-8.53002601037e-06
-2.53597043158e-05
2.25977645964e-05
-1.69945677093e-05
-1.46652100246e-05
2.08293977902e-05
-2.16003426719e-05
2.08425414727e-05
-1.9622036528e-05
1.6901309114e-05
1.75933448603e-05
-1.95623538942e-05
2.90934514725e-05
1.7483762046e-05
-2.06096108492e-05
3.71491824504e-05
1.88369491978e-05
-1.44656660859e-05
4.12437649397e-05
2.12853544876e-05
-4.0347919303e-06
4.13489999425e-05
2.43524209333e-05
8.20133783069e-06
3.76657352366e-05
2.7668280988e-05
2.00336902141e-05
3.07620553442e-05
3.07825734484e-05
2.98217089684e-05
2.16533482276e-05
3.33084291507e-05
3.65826232571e-05
1.12807608752e-05
3.5090896063e-05
4.03618793448e-05
3.28615759575e-07
3.60335554703e-05
4.19705337211e-05
-1.06936238043e-05
3.60727979118e-05
4.2122685311e-05
-2.12520043004e-05
3.51973187635e-05
4.07649421991e-05
-3.05490497796e-05
3.34429475674e-05
3.69884061969e-05
-3.75139732243e-05
3.08800646615e-05
2.99586464375e-05
-4.11951103599e-05
2.77378986272e-05
2.00364078325e-05
-4.10679335526e-05
2.44168617395e-05
8.16114583606e-06
-3.69735831634e-05
2.13534539233e-05
-4.00316540145e-06
-2.89595121979e-05
1.89192006764e-05
-1.43302495724e-05
-1.68256517311e-05
1.75768349161e-05
-2.04139613873e-05
1.76894811114e-05
-1.92939756708e-05
1.86951903695e-05
1.27278687573e-05
-1.9406810187e-05
3.20427288026e-05
1.26139540287e-05
-1.97998007949e-05
4.06996808738e-05
1.34979400351e-05
-1.25773426932e-05
4.49373673837e-05