/*--------------------------------*- C++ -*----------------------------------*\
| =========                 |                                                 |
| \\      /  F ield         | OpenFOAM: The Open Source CFD Toolbox           |
|  \\    /   O peration     | Version:  3.0.1                                 |
|   \\  /    A nd           | Web:      www.OpenFOAM.org                      |
|    \\/     M anipulation  |                                                 |
\*---------------------------------------------------------------------------*/
FoamFile
{
    version     2.0;
    format      ascii;
    class       volScalarField;
    location    "4.7";
    object      alpha.water;
}
// * * * * * * * * * * * * * * * * * * * * * * * * * * * * * * * * * * * * * //

dimensions      [0 0 0 0 0 0 0];

internalField   nonuniform List<scalar> 
15984
(
1.00000042201
1.00000039864
1.00000024797
1.00000015748
1.00000015785
1.0000001784
1.0000002639
1.00000048806
1.00000054967
1.00000056017
1.00000057178
1.00000081192
1.00000096807
1.00000039645
1.00000037352
1.00000035935
1.00000022737
1.00000013997
1.0000001507
1.00000015814
1.00000017894
1.00000018613
1.0000001922
1.00000018509
1.00000016597
1.00000014694
1.00000020091
1.00000023275
1.00000025627
1.00000025382
1.00000025089
1.00000024973
1.0000002475
1.00000024711
1.00000024596
1.00000023887
1.0000002345
1.00000025954
1.0000003121
1.00000031337
1.00000040327
1.00000031903
1.00000048306
1.00000012731
1.00000008478
1.00000010957
1.00000019893
1.00000052453
1.00000055981
1.00000056019
1.00000053721
1.00000063994
1.00000102951
1.00000082072
1.0000003794
1.00000036455
1.00000035134
1.00000033805
1.00000030088
1.00000026344
1.00000025239
1.00000024912
1.00000023876
1.00000023565
1.00000025528
1.00000026987
1.0000002661
1.00000026702
1.00000026382
1.00000026415
1.00000026643
1.00000026926
1.00000026993
1.00000027145
1.00000026814
1.00000025968
1.00000025477
1.00000027979
1.0000003414
1.00000034702
1.00000041369
1.00000037508
1.00000026866
1.00000011843
1.00000009633
1.00000011236
1.00000017202
1.00000033169
1.00000055139
1.0000005778
1.00000054623
1.00000058859
1.00000090509
1.00000093382
1.00000056728
1.00000037173
1.00000035946
1.00000036785
1.0000003281
1.00000030815
1.00000029032
1.00000027023
1.00000025827
1.00000027309
1.00000027819
1.00000027235
1.00000027148
1.00000027001
1.00000026918
1.00000026973
1.00000027204
1.00000027458
1.00000027722
1.00000027737
1.00000027424
1.00000026783
1.00000026209
1.00000028546
1.00000036106
1.00000041222
1.00000039391
1.00000020127
1.00000016725
1.00000010183
1.00000009062
1.0000001009
1.0000001437
1.00000023393
1.00000039346
1.00000054357
1.00000062489
1.00000049661
1.00000059241
1.00000104053
1.00000074107
1.00000037194
1.00000034122
1.00000034002
1.00000034515
1.00000029897
1.00000028443
1.00000027169
1.00000026626
1.00000027101
1.00000026323
1.00000025934
1.00000025848
1.00000025613
1.00000025513
1.00000025627
1.00000025856
1.00000026001
1.0000002633
1.00000026346
1.00000026054
1.00000025093
1.00000024617
1.00000026957
1.00000035463
1.00000041882
1.00000029254
1.00000017785
1.00000013809
1.00000011467
1.00000007665
1.00000006918
1.0000000973
1.00000017827
1.00000031982
1.00000046371
1.00000056081
1.00000052021
1.00000044823
1.00000066714
1.00000092521
1.00000053829
1.00000032416
1.0000003125
1.0000003571
1.00000028282
1.00000026739
1.00000025686
1.00000025874
1.00000025693
1.00000025008
1.00000024667
1.00000024396
1.00000024351
1.00000024146
1.00000024193
1.00000024373
1.00000024639
1.0000002487
1.00000024718
1.00000024391
1.0000002343
1.00000022623
1.00000024958
1.00000034023
1.00000041031
1.00000024182
1.00000017648
1.00000015049
1.00000010447
1.00000005685
1.00000004929
1.00000006529
1.0000001108
1.00000023345
1.00000039121
1.00000046799
1.00000055013
1.00000042217
1.00000043485
1.00000075556
1.00000075215
1.00000032667
1.00000030125
1.00000029155
1.00000030141
1.00000025518
1.00000025073
1.00000025109
1.00000024896
1.00000024224
1.00000023763
1.00000023769
1.00000023466
1.0000002321
1.00000023242
1.00000023469
1.00000023931
1.00000023825
1.00000023924
1.00000023481
1.00000022246
1.00000021216
1.00000023594
1.0000003298
1.00000040411
1.00000022347
1.00000017218
1.00000014083
1.00000008301
1.00000004623
1.00000003785
1.00000004706
1.00000007632
1.00000017238
1.000000336
1.00000044185
1.0000004523
1.00000042347
1.00000038977
1.0000003683
1.0000009439
1.00000038302
1.00000029775
1.00000028823
1.00000028018
1.00000029657
1.00000025905
1.00000025545
1.00000024798
1.00000024005
1.00000023616
1.00000023389
1.00000023257
1.00000022799
1.00000022927
1.00000023126
1.00000023437
1.00000023558
1.00000023536
1.00000023045
1.00000021681
1.00000020506
1.0000002281
1.0000003236
1.00000040102
1.00000019739
1.00000016758
1.00000012536
1.00000006355
1.00000003822
1.0000000289
1.00000003676
1.00000005801
1.00000013272
1.00000030266
1.00000041488
1.00000050749
1.00000042713
1.00000038885
1.00000035223
1.00000039546
1.0000008343
1.00000029969
1.00000029054
1.00000028295
1.00000028934
1.00000027408
1.00000025994
1.00000025194
1.00000024351
1.00000023737
1.00000023585
1.00000023405
1.00000023018
1.00000023005
1.00000023244
1.00000023576
1.0000002362
1.00000023645
1.00000023105
1.00000021585
1.00000020298
1.00000022574
1.00000032182
1.00000040056
1.00000018712
1.00000014626
1.00000010703
1.00000005191
1.00000003354
1.00000002715
1.00000003085
1.00000004883
1.00000010649
1.00000028129
1.00000038629
1.00000045493
1.00000045776
1.00000039804
1.00000035845
1.00000034025
1.00000077589
1.00000032787
1.00000029533
1.00000028791
1.00000028091
1.00000029677
1.00000026524
1.00000025897
1.00000024878
1.00000024206
1.00000023784
1.00000023842
1.00000023418
1.00000023387
1.00000023589
1.00000023768
1.00000024011
1.00000024008
1.00000023413
1.00000021823
1.00000020393
1.00000022626
1.00000032204
1.00000040124
1.00000019067
1.00000017632
1.00000009745
1.00000004814
1.00000003446
1.00000002731
1.0000000285
1.00000004483
1.00000009173
1.0000002689
1.00000038606
1.00000046345
1.00000044318
1.00000040204
1.00000036313
1.00000034293
1.00000064185
1.00000033265
1.00000029959
1.00000029221
1.00000028533
1.00000030354
1.00000026947
1.00000026143
1.00000025408
1.00000024621
1.00000024086
1.00000023859
1.00000024094
1.00000023768
1.00000023937
1.00000024178
1.00000024343
1.00000024339
1.00000023717
1.00000022075
1.00000020586
1.00000022742
1.00000032316
1.00000040169
1.00000019041
1.00000017761
1.00000008887
1.0000000463
1.00000003647
1.00000003074
1.00000001573
1.0000000476
1.00000009094
1.00000026563
1.00000038184
1.00000044687
1.00000044336
1.00000040664
1.00000036526
1.00000034456
1.00000068944
1.00000035208
1.00000030052
1.00000029316
1.00000028759
1.0000002999
1.00000027049
1.00000026333
1.00000025423
1.00000024671
1.00000024146
1.0000002387
1.00000024288
1.00000023813
1.00000024033
1.00000024244
1.00000024446
1.00000024429
1.00000023802
1.00000022131
1.00000020607
1.00000022726
1.00000032412
1.00000040112
1.00000019917
1.00000011425
1.00000007783
1.00000004456
1.00000004119
1.00000003684
1.00000003847
1.00000005194
1.00000009377
1.0000002678
1.00000037696
1.00000044888
1.00000044696
1.00000040008
1.00000036231
1.00000034242
1.00000076114
1.00000035931
1.00000029727
1.00000028976
1.00000028439
1.00000028631
1.00000026412
1.00000026124
1.00000025047
1.00000024198
1.00000023837
1.00000023706
1.00000023756
1.00000023489
1.00000023749
1.00000024013
1.00000024214
1.00000024232
1.00000023582
1.00000022018
1.00000020397
1.00000022518
1.00000032289
1.00000039975
1.00000021799
1.0000001388
1.00000008099
1.00000004503
1.00000004402
1.00000004408
1.00000004557
1.00000005976
1.00000010801
1.0000002739
1.00000038011
1.00000046471
1.00000043794
1.00000039309
1.00000035545
1.00000039123
1.00000081497
1.00000030108
1.00000029133
1.00000028367
1.00000029565
1.0000002595
1.00000025136
1.00000025264
1.00000024213
1.0000002366
1.00000023336
1.0000002344
1.00000022904
1.00000023069
1.0000002331
1.00000023594
1.00000023804
1.00000023819
1.00000023214
1.00000021667
1.00000020076
1.00000022375
1.00000032094
1.00000039932
1.0000002879
1.00000018493
1.00000009641
1.00000004938
1.00000004984
1.00000005496
1.00000005997
1.00000007132
1.00000013003
1.00000029529
1.00000040826
1.00000044944
1.00000042393
1.00000038167
1.00000037089
1.00000077116
1.00000044601
1.00000029772
1.0000002871
1.00000027868
1.00000027724
1.00000024326
1.00000024738
1.00000024423
1.00000023754
1.00000023248
1.00000022972
1.00000022881
1.00000022647
1.00000022812
1.00000023099
1.00000023365
1.00000023583
1.00000023623
1.00000023052
1.00000021554
1.00000020054
1.00000022518
1.00000032253
1.00000040291
1.00000036463
1.00000020925
1.00000012206
1.00000006991
1.00000006475
1.000000071
1.00000007878
1.00000009478
1.00000017316
1.00000032478
1.00000042488
1.00000045701
1.00000042251
1.00000040034
1.00000056759
1.00000080094
1.00000034259
1.00000030277
1.00000029219
1.00000029918
1.00000025773
1.00000024944
1.00000025195
1.00000024673
1.00000024038
1.0000002357
1.00000023405
1.00000023282
1.00000023156
1.00000023294
1.00000023619
1.00000023922
1.00000024171
1.00000024217
1.00000023728
1.00000022321
1.00000020973
1.00000023609
1.0000003348
1.00000041723
1.00000044125
1.00000029834
1.0000001225
1.00000010081
1.00000010041
1.00000010281
1.00000011494
1.00000014925
1.00000026125
1.00000042283
1.00000050313
1.00000055151
1.00000045747
1.00000053669
1.00000079097
1.00000059398
1.00000034277
1.00000032741
1.00000033657
1.00000029407
1.00000027479
1.00000026392
1.00000026517
1.00000026528
1.00000025791
1.00000025317
1.00000025157
1.00000025341
1.00000025139
1.00000025488
1.0000002554
1.00000025863
1.00000026186
1.00000026326
1.00000025949
1.00000024696
1.00000023582
1.00000026466
1.00000036542
1.00000044905
1.00000063871
1.00000043248
1.0000002756
1.00000016677
1.00000016542
1.00000017134
1.00000019628
1.00000024555
1.00000037249
1.00000055243
1.00000065377
1.00000054639
1.00000053384
1.00000083802
1.00000087533
1.00000042584
1.00000039351
1.00000037624
1.00000036824
1.00000033753
1.00000031873
1.00000030935
1.00000030195
1.00000030542
1.00000029632
1.00000028985
1.00000028656
1.00000028734
1.00000028909
1.00000028989
1.00000029713
1.00000029702
1.0000003009
1.00000030396
1.00000030178
1.0000002919
1.00000028274
1.00000031582
1.00000041949
1.00000050164
1.00000083192
1.0000007486
1.00000048807
1.00000031166
1.00000028097
1.00000028664
1.00000030032
1.00000037325
1.00000057618
1.0000007389
1.00000069279
1.00000070381
1.00000080948
1.00000120938
1.00000063339
1.00000051552
1.00000049215
1.00000047207
1.0000004517
1.00000042192
1.00000040554
1.00000038308
1.0000003816
1.00000038425
1.00000037208
1.00000036438
1.00000036016
1.00000035804
1.00000035863
1.00000036002
1.0000003631
1.00000037039
1.00000037436
1.00000037776
1.00000037688
1.00000036921
1.0000003652
1.00000040083
1.00000051372
1.00000060011
1.00000103405
1.00000079649
1.00000089021
1.00000041926
1.0000003523
1.00000036457
1.00000038978
1.00000059819
1.00000074474
1.00000080603
1.00000084206
1.00000087148
1.00000134619
1.00000100618
1.00000067396
1.00000064305
1.00000060532
1.00000056121
1.00000052293
1.00000048041
1.00000043735
1.00000042031
1.00000040737
1.00000042549
1.00000044749
1.00000044288
1.00000044891
1.00000044758
1.00000044642
1.00000044776
1.00000045223
1.00000045477
1.0000004597
1.00000045912
1.00000045763
1.00000045069
1.00000045524
1.00000050303
1.00000062026
1.00000061915
1.00000062152
1.00000032121
1.00000009983
1.00000012298
1.00000020214
1.00000021882
1.00000022611
1.00000033998
1.00000044786
1.00000050638
1.00000053107
1.00000077266
1.00000092696
1.00000039736
1.00000029529
1.00000017796
1.0000000638
1.0000000562
1.00000005432
1.00000005598
1.00000007923
1.0000000958
1.00000009144
1.00000007821
1.00000006396
1.00000005889
1.00000005864
1.00000011869
1.00000016443
1.00000019086
1.00000023912
1.00000027235
1.00000027389
1.0000002769
1.00000027922
1.00000027959
1.00000028796
1.0000003295
1.0000003854
1.00000028504
1.00000017934
1
1.00000000004
1.00000000032
1.00000009089
1.00000015081
1.00000014218
1.00000006986
1.00000021422
1.00000050383
1.00000088266
1.00000167709
1.0000004992
1.00000043332
1.00000026805
1.00000016946
1.00000004979
1.00000004684
1.00000004014
1.00000004563
1.0000000446
1.00000007266
1.00000007805
1.00000007223
1.00000006611
1.00000006303
1.00000006159
1.00000005991
1.00000009959
1.00000018462
1.0000002637
1.0000003086
1.00000031278
1.00000030736
1.00000030466
1.00000030905
1.00000030467
1.00000033853
1.0000003937
1.00000037362
1.00000002815
1.00000000001
1.00000001571
1.00000000003
1.00000000036
1.00000000012
1.00000000022
1.00000006871
1.00000015689
1.00000041246
1.00000069219
1.00000109639
1.00000184611
1.00000051441
1.00000048576
1.00000042136
1.00000022397
1.00000008108
1.00000007257
1.00000004732
1.00000005972
1.00000011088
1.0000001547
1.00000016853
1.00000015745
1.00000018002
1.00000019819
1.00000025863
1.00000033641
1.00000033434
1.00000033501
1.0000003382
1.00000033708
1.00000034026
1.0000003429
1.00000033634
1.00000033664
1.00000037775
1.00000045053
1.00000044441
1.00000000004
1.00000000008
1.00000000003
1.00000000039
1.00000000019
1.00000000036
1.00000000142
1.00000007322
1.00000007679
1.00000029677
1.00000055949
1.00000069708
1.00000098587
1.00000131547
1.00000050325
1.00000048142
1.00000046105
1.00000040941
1.0000003329
1.00000029071
1.00000027704
1.00000030823
1.00000032148
1.00000032491
1.00000036116
1.00000035237
1.00000034594
1.00000034196
1.00000034128
1.00000034598
1.00000035161
1.00000035317
1.00000035771
1.00000035975
1.00000035968
1.00000035571
1.00000035563
1.00000038994
1.00000047676
1.00000052799
1.00000020174
1.00000000002
1.00000000008
1.00000000003
1.00000000013
1.00000000055
1.0000000458
1.00000014195
1.00000011411
1.0000002106
1.00000031976
1.00000053313
1.00000059973
1.00000095714
1.00000077218
1.00000046207
1.00000044461
1.00000041875
1.00000037963
1.00000036314
1.00000034715
1.00000032927
1.00000031571
1.00000033311
1.00000034544
1.00000033385
1.00000032836
1.00000032577
1.00000032526
1.00000033061
1.00000033495
1.00000033951
1.00000034332
1.00000034729
1.00000034689
1.00000034156
1.00000034043
1.00000037541
1.0000004757
1.00000054189
1.00000030735
1.00000000001
1.00000000001
1.00000000984
1.00000004056
1.00000004969
1.0000000903
1.00000015041
1.00000016612
1.00000014702
1.00000019877
1.0000002905
1.00000054874
1.00000054248
1.00000095134
1.00000046056
1.00000042491
1.00000044918
1.00000036867
1.00000034805
1.00000033223
1.00000031831
1.00000030903
1.00000032378
1.00000032644
1.00000031626
1.00000031155
1.00000031019
1.00000030862
1.00000031494
1.00000031876
1.00000032076
1.00000032544
1.00000032675
1.00000032518
1.00000031735
1.00000031594
1.00000035319
1.0000004586
1.00000053234
1.00000031944
1.00000000001
1.00000007474
1.00000009135
1.00000006418
1.00000005521
1.0000000706
1.0000001165
1.00000016707
1.00000013551
1.00000010538
1.00000021836
1.00000043125
1.0000005227
1.00000050308
1.00000069602
1.00000040902
1.00000039252
1.00000046069
1.00000033844
1.00000032285
1.00000030946
1.00000029797
1.00000030854
1.00000031167
1.00000030287
1.00000029999
1.00000029702
1.00000029782
1.0000003054
1.00000030373
1.00000030733
1.00000030958
1.00000031234
1.00000030995
1.00000030057
1.00000029727
1.00000033562
1.00000044572
1.00000052487
1.00000002144
1
1.00000011153
1.00000008965
1.00000005468
1.00000004774
1.00000005512
1.00000007754
1.0000001495
1.00000016492
1.00000008361
1.00000025081
1.00000037084
1.00000047511
1.00000051971
1.00000055064
1.00000043196
1.00000038348
1.00000036684
1.000000399
1.00000031838
1.00000030545
1.00000029203
1.0000003031
1.00000030508
1.00000029891
1.00000029232
1.00000028921
1.0000002974
1.00000029218
1.00000029436
1.00000029816
1.00000030217
1.00000030464
1.00000030163
1.00000029105
1.00000028598
1.00000032518
1.0000004378
1.00000052035
1.00000000005
1
1.00000010777
1.00000007945
1.00000004869
1.00000004477
1.00000004781
1.00000006254
1.00000013449
1.00000019912
1.0000000831
1.00000018833
1.00000039548
1.00000048176
1.00000046212
1.00000060389
1.00000041616
1.00000038213
1.00000036883
1.00000040596
1.000000344
1.0000003036
1.00000029212
1.00000030589
1.00000030658
1.00000029671
1.00000029092
1.00000028945
1.0000002887
1.00000029258
1.00000029165
1.00000029622
1.00000030021
1.00000030197
1.0000002984
1.00000028665
1.00000028074
1.00000032006
1.0000004341
1.00000051845
1.00000000001
1
1.0000000919
1.00000006714
1.00000004729
1.00000004509
1.00000004712
1.00000005553
1.00000012153
1.00000020761
1.00000009623
1.00000019637
1.00000031464
1.00000047563
1.00000046758
1.00000049115
1.00000050125
1.00000038305
1.00000036956
1.00000036658
1.00000039087
1.00000030535
1.00000029823
1.00000031286
1.00000030748
1.00000029795
1.00000029228
1.00000028837
1.00000029345
1.00000029107
1.00000029295
1.00000029724
1.00000030043
1.00000030222
1.00000029842
1.0000002858
1.00000027918
1.0000003181
1.00000043291
1.00000051797
1
1.00000002951
1.00000010312
1.00000005914
1.0000000487
1.0000000501
1.00000003535
1.00000005296
1.00000010921
1.0000001897
1.00000010922
1.00000016233
1.00000026187
1.00000047536
1.00000045478
1.00000049141
1.0000004625
1.0000003841
1.00000037045
1.00000036001
1.00000040351
1.00000030682
1.00000029695
1.00000031723
1.00000031019
1.00000029868
1.00000029362
1.00000029
1.00000028902
1.00000029619
1.00000029452
1.00000029807
1.00000030121
1.00000030281
1.00000029918
1.00000028584
1.00000027838
1.00000031619
1.00000043225
1.00000051747
1.00000000001
1
1.00000008883
1.00000005072
1.00000005147
1.00000004952
1.00000000053
1.00000001139
1.00000010651
1.00000018499
1.00000010079
1.00000014305
1.00000024252
1.00000047187
1.00000045228
1.00000049539
1.00000045499
1.0000003829
1.00000036914
1.00000036031
1.00000040817
1.00000030517
1.00000029814
1.00000031615
1.00000030711
1.00000029728
1.00000029238
1.0000002888
1.00000028838
1.00000029507
1.00000029373
1.00000029741
1.00000030048
1.00000030198
1.00000029775
1.00000028465
1.0000002769
1.00000031533
1.00000043141
1.0000005159
1
1
1.0000000417
1.00000004411
1.00000005176
1.00000005727
1.00000002961
1.00000005601
1.00000011082
1.00000018871
1.00000008185
1.00000018576
1.00000030857
1.00000047154
1.0000004564
1.00000046331
1.00000052622
1.00000037892
1.00000036526
1.00000036229
1.00000040281
1.00000030072
1.00000028856
1.00000030915
1.00000030336
1.00000029321
1.00000028799
1.00000028456
1.00000028752
1.00000028952
1.00000028999
1.00000029411
1.00000029777
1.00000029933
1.00000029509
1.00000028178
1.00000027418
1.00000031303
1.00000042931
1.00000051426
1.00000000008
1
1.00000003826
1.00000004313
1.00000005117
1.00000006027
1.00000005447
1.00000005744
1.00000011397
1.00000016377
1.00000007329
1.00000017849
1.00000034713
1.00000047161
1.00000047928
1.00000053631
1.0000004229
1.00000037473
1.00000036105
1.00000040768
1.00000032567
1.00000029529
1.00000028302
1.0000003011
1.00000029693
1.00000028893
1.00000028364
1.00000028126
1.00000028653
1.00000028536
1.00000028618
1.00000029066
1.00000029458
1.00000029652
1.00000029269
1.0000002799
1.00000027245
1.00000031155
1.00000042876
1.00000051437
1.00000000045
1.00000000001
1.00000004788
1.00000004996
1.00000005657
1.00000006512
1.00000006924
1.00000007495
1.00000012208
1.00000012305
1.000000073
1.00000019225
1.00000034838
1.00000046525
1.0000004848
1.00000058859
1.00000041202
1.0000003747
1.00000036198
1.00000041274
1.00000030714
1.00000029305
1.00000028094
1.00000029835
1.0000002935
1.0000002879
1.00000028292
1.00000028115
1.0000002877
1.00000028493
1.000000296
1.00000029458
1.00000029721
1.00000029804
1.00000029503
1.00000028336
1.0000002765
1.00000031672
1.00000043383
1.0000005211
1.00000034713
1.00000000029
1.00000000573
1.00000004758
1.00000007511
1.00000008089
1.00000008588
1.00000009568
1.00000014356
1.00000010787
1.00000008872
1.0000002193
1.00000039092
1.00000050364
1.00000052825
1.00000067382
1.00000040808
1.00000038863
1.00000043385
1.00000033257
1.00000031567
1.00000030185
1.00000029027
1.00000030792
1.00000030752
1.0000002962
1.00000029366
1.00000029193
1.00000029226
1.00000029831
1.00000029983
1.00000030918
1.00000031277
1.000000315
1.00000030941
1.00000029909
1.00000029423
1.00000033448
1.00000045314
1.00000054098
1.00000044723
1.00000000147
1
1.00000000305
1.00000007281
1.00000012448
1.00000013236
1.00000016417
1.00000016934
1.00000016085
1.00000017209
1.00000031723
1.00000055554
1.00000055979
1.00000082204
1.00000052209
1.00000044368
1.00000043303
1.00000040027
1.00000036121
1.00000034376
1.00000032874
1.0000003155
1.00000033406
1.00000033366
1.00000032955
1.00000032145
1.00000032309
1.0000003212
1.00000032448
1.0000003287
1.00000033503
1.00000034013
1.00000034462
1.00000034377
1.00000033279
1.00000033037
1.00000037282
1.00000049371
1.00000058013
1.00000047754
1.00000000637
1
1
1.00000000057
1.00000011713
1.00000018662
1.00000019412
1.00000015804
1.00000028285
1.00000042748
1.00000061664
1.0000006484
1.00000089172
1.00000086164
1.00000053192
1.00000050828
1.00000048508
1.0000004339
1.00000041213
1.00000039014
1.00000037272
1.00000035875
1.00000038776
1.00000038451
1.0000003732
1.00000037051
1.00000036724
1.00000037128
1.00000037269
1.00000037825
1.00000038319
1.0000003878
1.00000039371
1.00000039499
1.00000038835
1.00000038942
1.00000043459
1.00000055896
1.00000063963
1.00000035741
1.00000021004
1.00000004341
1.00000000087
1.00000000726
1.00000008806
1.00000012998
1.00000015014
1.00000017191
1.00000045259
1.00000076932
1.0000008621
1.00000114744
1.00000136405
1.00000066364
1.00000063379
1.00000060558
1.00000058012
1.00000048661
1.00000044984
1.00000040759
1.00000041903
1.00000041387
1.00000045715
1.00000045866
1.00000044993
1.00000044264
1.00000043971
1.00000044082
1.0000004446
1.00000044802
1.00000045448
1.00000046428
1.00000046825
1.00000047178
1.00000046867
1.00000047153
1.00000052114
1.0000006501
1.00000072003
1.00000045524
1.00000000142
1.00000026954
1.00000000794
1.00000000036
1.00000000967
1.00000007014
1.00000013388
1.00000027837
1.00000061207
1.00000095066
1.00000135659
1.00000200675
1.00000081779
1.00000073349
1.00000052949
1.0000003564
1.00000023085
1.00000016318
1.00000012409
1.00000012528
1.00000016505
1.00000020518
1.00000023555
1.00000026205
1.0000002865
1.00000032357
1.00000040029
1.00000048145
1.00000048759
1.00000050307
1.00000052865
1.00000053116
1.00000054052
1.00000054472
1.00000054639
1.0000005601
1.00000062196
1.00000074009
1.00000070652
1.00000002225
1
1.00000000001
1.00000000006
1.00000000138
1.00000005659
1.00000004251
1.00000000023
1.00000000009
1.00000024085
1.0000007963
1.00000134907
1.00000020917
1.0000000701
1.00000004109
1.00000008273
1.00000007592
1.00000006963
1.0000000162
1.00000003493
1.0000000208
1.00000002616
1.00000007462
1.00000008518
1.00000008308
1.00000007967
1.00000003222
1.00000005279
1.00000006167
1.0000000184
1.00000003888
1.00000005951
1.00000007491
1.00000025697
1.00000034577
1.00000035015
1.00000036169
1.00000041478
1.00000046697
1.00000019585
1
1.00000000003
1.00000000003
1.00000000022
1.00000000025
1.00000002545
1.00000001172
1.0000000005
1.00000000042
1.00000000002
1.0000009317
1.00000028286
1.00000013984
1.00000001232
1.00000002491
1.00000010028
1.00000009535
1.00000008927
1.00000000011
1.00000003035
1.00000001429
0.999999999969
1.00000007133
1.00000011538
1.00000011286
1.00000010957
1.00000004145
1.00000009896
1.0000000945
1.0000000009
1.00000011572
1.00000013303
1.00000014046
1.00000038561
1.00000043848
1.00000043919
1.00000044603
1.00000050431
1.00000056218
1.00000048542
1.00000000013
1.00000000003
1.00000000439
1.00000000001
1.00000000013
1.00000000007
1.00000000015
1.00000000034
1.00000000013
1.00000000004
1.0000004125
1.00000211088
1.00000037803
1.00000043347
1.00000019025
1.00000009439
1.00000009392
1.00000009049
1.00000007276
1.00000008837
1.00000008234
1.00000004364
1.00000008427
1.00000012592
1.00000011781
1.00000011297
1.00000010901
1.00000010531
1.00000013314
1.00000024512
1.00000038666
1.00000046612
1.00000047043
1.00000047234
1.00000048365
1.00000048989
1.00000049815
1.00000054939
1.00000063355
1.00000059436
1.00000000005
1.00000000001
1.00000000002
1
1.00000000002
1.00000000001
1.00000000008
1.00000000019
1.00000000044
1.00000000007
1.0000000005
1.00000079507
1.00000166148
1.00000048977
1.00000046731
1.00000024968
1.00000016094
1.0000000987
1.00000009491
1.00000009408
1.00000009425
1.00000010087
1.0000001441
1.00000023218
1.00000025653
1.00000029405
1.00000025751
1.00000029492
1.00000040842
1.00000047471
1.00000048409
1.00000049218
1.00000049383
1.00000050355
1.00000051
1.00000051177
1.00000052568
1.00000057184
1.00000066829
1.00000071693
1.00000005028
1.00000000002
1
1
1
1
1.00000000013
1.00000000073
0.999999999918
1.00000000084
1.0000000005
1.00000000847
1.00000078252
1.0000010332
1.00000046574
1.00000039979
1.00000043508
1.00000041419
1.00000041576
1.00000037502
1.00000033109
1.00000034367
1.00000041383
1.00000042321
1.0000004785
1.00000046823
1.00000045916
1.00000045542
1.00000045502
1.00000046193
1.00000046436
1.00000047012
1.00000048214
1.00000048848
1.00000049565
1.00000049637
1.00000050337
1.00000055598
1.00000067417
1.00000073108
1.00000031171
1
1
1.00000000001
1
1
1.00000000008
1.00000003421
1.00000000087
1.00000000183
1.00000000098
1.00000000575
1.00000007044
1.000000773
1.00000069025
1.00000056223
1.00000060824
1.00000052762
1.00000049824
1.00000049206
1.00000046984
1.0000004506
1.00000043515
1.00000041882
1.00000045791
1.00000044458
1.0000004385
1.0000004319
1.00000043853
1.00000043804
1.00000044382
1.00000044822
1.00000045494
1.00000046679
1.00000046966
1.00000046837
1.00000047575
1.00000052854
1.00000065404
1.00000072181
1.00000030131
1
1.00000000001
1.00000005194
1.00000002533
1.00000007248
1.00000007866
1.0000001064
1.00000007063
1.00000004273
1.00000001009
1.00000000783
1.00000002572
1.00000044485
1.00000071495
1.00000052882
1.00000053633
1.00000054763
1.0000004992
1.00000047957
1.0000004564
1.00000043594
1.00000041934
1.00000040129
1.00000044194
1.00000042993
1.00000041818
1.00000042142
1.00000041537
1.0000004203
1.00000042236
1.00000042943
1.00000043849
1.00000044758
1.00000044696
1.00000044383
1.00000045113
1.00000050727
1.00000063747
1.00000071238
1
1
1.00000002773
1.0000001415
1.00000014227
1.0000001208
1.00000011235
1.00000010531
1.00000010117
1.00000006591
1.00000002199
1.00000001225
1.0000000191
1.0000002621
1.00000053825
1.00000070876
1.00000053766
1.00000049876
1.00000048742
1.00000046546
1.00000044435
1.00000042375
1.00000040547
1.00000038795
1.00000042694
1.00000041493
1.00000040896
1.00000040208
1.00000040348
1.00000040412
1.00000040959
1.00000041893
1.00000042958
1.00000043155
1.00000042912
1.00000042674
1.00000043339
1.00000049116
1.00000062606
1.00000070603
1.00000000001
1
1.00000003088
1.00000012921
1.00000013205
1.00000011284
1.00000011087
1.00000010024
1.000000099
1.00000006144
1.00000002784
1.0000000161
1.00000001793
1.00000029456
1.00000057119
1.00000058219
1.00000056927
1.00000054157
1.00000055959
1.00000046542
1.00000043718
1.00000041801
1.00000040018
1.00000038287
1.00000041557
1.00000040891
1.0000003986
1.00000039587
1.00000039409
1.00000039732
1.00000040694
1.0000004117
1.00000041985
1.00000041737
1.0000004193
1.0000004157
1.00000042296
1.00000048137
1.0000006192
1.00000070196
1.00000000003
1
1.00000002484
1.00000011921
1.00000013351
1.00000012086
1.00000011458
1.00000009848
1.00000009483
1.00000005044
1.00000003217
1.0000000192
1.00000001822
1.00000021544
1.00000056805
1.00000056367
1.00000054697
1.00000053411
1.00000053659
1.00000058536
1.00000043437
1.00000041524
1.00000039729
1.00000037977
1.0000004094
1.00000040484
1.0000003961
1.00000039105
1.00000039066
1.00000039362
1.00000040358
1.00000041131
1.0000004082
1.00000041272
1.00000041368
1.00000040983
1.00000041659
1.00000047606
1.00000061543
1.00000069963
1.00000000001
1
1.00000006337
1.00000010955
1.00000014186
1.00000012788
1.00000010503
1.00000009761
1.00000009291
1.000000037
1.00000003314
1.00000002341
1.00000001978
1.00000013564
1.00000053006
1.00000053151
1.00000055174
1.00000052923
1.00000051502
1.00000063205
1.00000043199
1.00000041116
1.00000039301
1.00000038455
1.00000040664
1.00000040379
1.00000039441
1.00000038951
1.0000003902
1.00000039337
1.00000040016
1.00000040809
1.00000040727
1.00000041033
1.00000041106
1.00000040632
1.00000041341
1.00000047247
1.00000061285
1.00000069744
1
1
1.00000005372
1.00000011143
1.00000014643
1.00000010572
1.0000000426
1.00000007683
1.00000009379
1.00000003939
1.00000003475
1.00000002412
1.00000002091
1.0000001203
1.00000050788
1.00000052052
1.00000052989
1.00000052451
1.00000050681
1.00000062111
1.00000042839
1.00000040799
1.00000039001
1.0000003936
1.00000040141
1.00000039825
1.00000039145
1.0000003871
1.00000038831
1.00000039159
1.00000039596
1.00000040609
1.00000040829
1.00000040912
1.00000040838
1.00000040338
1.00000040951
1.00000046944
1.00000061032
1.00000069474
1
1
1
1.0000001016
1.00000014449
1.00000013514
1.00000010974
1.00000009933
1.00000009286
1.00000004026
1.00000003419
1.00000002136
1.00000002145
1.00000018814
1.00000053357
1.00000055029
1.00000052423
1.00000052508
1.00000053625
1.00000060462
1.00000042397
1.00000040504
1.00000038817
1.000000372
1.00000039805
1.00000039674
1.00000038804
1.00000038354
1.00000038432
1.00000038632
1.00000039434
1.00000040477
1.00000040218
1.00000040628
1.00000040607
1.00000040165
1.00000040775
1.00000046744
1.00000060797
1.00000069113
1
1
0.999999999903
1.00000009453
1.00000014287
1.00000012628
1.00000010997
1.00000009795
1.00000009429
1.00000005093
1.00000003219
1.00000001952
1.00000002347
1.00000024492
1.00000052892
1.00000052428
1.00000052206
1.00000053191
1.00000056331
1.00000044958
1.000000421
1.00000040045
1.00000038294
1.00000036696
1.00000038705
1.00000039405
1.00000038529
1.00000038372
1.00000038262
1.00000038607
1.00000039325
1.00000039646
1.00000041367
1.00000040646
1.00000040734
1.00000040257
1.00000040811
1.00000046805
1.00000060851
1.00000069219
1
1
1
1.00000010004
1.00000015475
1.00000014669
1.00000012512
1.00000010851
1.00000009738