/*--------------------------------*- C++ -*----------------------------------*\
| =========                 |                                                 |
| \\      /  F ield         | OpenFOAM: The Open Source CFD Toolbox           |
|  \\    /   O peration     | Version:  3.0.1                                 |
|   \\  /    A nd           | Web:      www.OpenFOAM.org                      |
|    \\/     M anipulation  |                                                 |
\*---------------------------------------------------------------------------*/
FoamFile
{
    version     2.0;
    format      ascii;
    class       volScalarField;
    location    "4.7";
    object      k;
}
// * * * * * * * * * * * * * * * * * * * * * * * * * * * * * * * * * * * * * //

dimensions      [0 2 -2 0 0 0 0];

internalField   nonuniform List<scalar> 
15984
(
0.000698089739734
0.000809268560704
0.00086252312439
0.000875405355302
0.00087391247163
0.000876267562119
0.0008858722884
0.000895226906399
0.000897208120271
0.000890003652014
0.00088277771377
0.000872691797118
0.000862789248843
0.000854991376214
0.000849452030614
0.000845758723543
0.000843361158228
0.000841850988474
0.000840900241665
0.000840333328016
0.000840034329091
0.000839855958512
0.000839745452018
0.000839671461583
0.000839625394573
0.000839606768031
0.00083959899263
0.000839590981465
0.000839613540079
0.000839668104893
0.000839730842108
0.000839743728814
0.000839643727117
0.000839403517714
0.000838658875818
0.000836322135873
0.000829398999193
0.000810680326332
0.000764854021403
0.000670947196654
0.000959903355959
0.00133579382827
0.00148665867756
0.00151571713088
0.00151371181015
0.00152267868259
0.00156087852768
0.00162134307622
0.00167241927406
0.00168871997958
0.00167035308435
0.00164462116372
0.0016206154867
0.00160238343612
0.00159023262587
0.0015825868809
0.00157783465241
0.00157489608399
0.00157305729877
0.00157190935481
0.00157128905221
0.00157095256012
0.00157073637182
0.00157059937119
0.00157053398095
0.00157054967399
0.00157059705498
0.00157063320838
0.00157073134431
0.0015709287899
0.00157114470251
0.001571104607
0.00157047949219
0.00156889589543
0.00156426165678
0.0015510233236
0.00151650214652
0.00143468404038
0.00125466328827
0.000885433173208
0.00108295280042
0.00166271454818
0.0018827489926
0.00192751999069
0.00192915944514
0.00194694204492
0.00200852093993
0.00210890462407
0.00220024653135
0.00223921253163
0.00222641617737
0.00218967753745
0.00215544294924
0.0021297106688
0.00211273984245
0.00210232105599
0.0020960482853
0.00209227015233
0.00208994760286
0.00208851804533
0.00208766457078
0.00208719854536
0.00208690333412
0.00208671647386
0.00208663776421
0.00208667313425
0.00208675982059
0.00208685918192
0.00208704899491
0.00208736174169
0.00208766424562
0.00208750488187
0.00208632800444
0.00208309034027
0.00207423979674
0.00205044242905
0.00199190538977
0.00186006706259
0.00157932390606
0.00098269125095
0.00114849219585
0.0018417499231
0.00209329895935
0.00213928662555
0.00214068537957
0.00216766982093
0.0022537513547
0.00239846920827
0.00253870758608
0.00261059775697
0.00260902824278
0.00257198712587
0.00253014174872
0.00249834064539
0.00247734516698
0.00246452421834
0.00245697721708
0.00245255070049
0.00244990495125
0.00244829894442
0.0024473190044
0.00244673335254
0.00244636641871
0.00244613837872
0.00244605035024
0.00244610247411
0.00244628299101
0.00244643954212
0.00244668814108
0.00244709645851
0.0024474196349
0.00244710254718
0.00244534754684
0.00244045643355
0.00242743004562
0.0023939876802
0.00231509183009
0.0021436896183
0.00178829137142
0.00103340330281
0.0011853339009
0.00192518138514
0.00217846528506
0.00224914120124
0.00226967855371
0.00230923277676
0.00240845686926
0.00256275840819
0.00275423719231
0.00286898399964
0.00288464680684
0.00284924332725
0.00280304637937
0.00276586992241
0.00274118232705
0.00272613367699
0.00271741172224
0.0027124355989
0.00270955178172
0.00270783216685
0.00270677053127
0.00270611632759
0.00270570347922
0.00270544658363
0.00270535331056
0.00270542108534
0.00270569676276
0.00270589409234
0.0027062008959
0.00270666121062
0.0027069778799
0.00270648030804
0.00270413830821
0.00269766565143
0.00268070338204
0.00263863627948
0.00254244409953
0.00233921340178
0.0019273048563
0.00106221092416
0.00120497065658
0.00194789376613
0.00221572936448
0.00231292135742
0.00233813375423
0.00238707729308
0.00250713443279
0.00268898729463
0.00288756367872
0.00304899848685
0.00308489361862
0.00305301577963
0.00300361084543
0.00296178451402
0.00293362183038
0.00291659281249
0.00290680047108
0.0029013584634
0.00289831188789
0.0028965278019
0.00289541294407
0.00289471894921
0.00289428905187
0.00289402679914
0.00289393262816
0.00289402310162
0.00289435647918
0.00289459091807
0.00289494141509
0.00289543619635
0.00289573118227
0.00289504744611
0.00289214347419
0.00288420641884
0.00286373719695
0.00281422606773
0.00270367181044
0.00247513173174
0.00202066432196
0.00107927819485
0.00121373251859
0.00193711626056
0.00222982751485
0.00233070332991
0.00235364647903
0.00241051260576
0.00255365060857
0.00276557114274
0.00298076921135
0.00317227196088
0.003227938935
0.00320046277833
0.00314881655256
0.00310307958415
0.00307189366846
0.00305311236615
0.00304243845515
0.00303661715276
0.0030334571802
0.00303165320722
0.00303050813317
0.00302979012479
0.00302936749814
0.00302911507749
0.0030290226402
0.00302912691501
0.003029497373
0.00302976154516
0.00303014573787
0.00303066270232
0.0030309293057
0.0030300703222
0.00302666534911
0.00301745626617
0.00299403596497
0.00293840564966
0.00281639787683
0.00256835608206
0.00208260495188
0.0010894538816
0.0012168075751
0.00191510831672
0.00222326937064
0.00232144470989
0.00233812979994
0.00240155357031
0.00256753603791
0.00280797128894
0.00304918749805
0.00325375025842
0.00332580896818
0.00330251082235
0.0032492772062
0.00320067136771
0.00316710398785
0.00314688430844
0.00313557036152
0.00312945624254
0.00312623243686
0.00312442341423
0.00312326497399
0.00312254078577
0.00312213637579
0.00312189465702
0.00312180418857
0.00312191248024
0.003122306072
0.00312259374426
0.00312300123986
0.00312353337549
0.00312377034224
0.00312276292038
0.00311894936812
0.00310872686408
0.00308300925776
0.00302269955762
0.00289212987783
0.00262989354897
0.00212224223593
0.00109537911852
0.00121791668204
0.00189698586076
0.00221068994536
0.00230478589233
0.00231370875589
0.00238190298737
0.00256739947715
0.00282952363403
0.00309036949313
0.00330354429138
0.00338679926609
0.00336658748395
0.00331239823332
0.00326186029821
0.00322667234524
0.00320546243217
0.00319369561753
0.00318740295953
0.00318415148212
0.00318234575627
0.0031811849455
0.00318046454738
0.00318007673658
0.00317984034178
0.00317975085824
0.00317986125447
0.00318026516882
0.00318056788513
0.00318099120046
0.00318153147111
0.0031817438432
0.00318062824448
0.00317652543983
0.00316559880719
0.00313831043309
0.00307484201408
0.00293858229584
0.00266709214246
0.00214557818121
0.00109860235067
0.00121853780846
0.00188815152347
0.0022024294787
0.00229362250798
0.00229638787784
0.00236718168127
0.00256509795184
0.00283886578713
0.00310980110013
0.00332753019243
0.00341617368999
0.00339746915716
0.00334279533499
0.00329128824047
0.00325529256578
0.00323359063709
0.0032215813052
0.00321521098086
0.00321195146906
0.00321015009041
0.00320898808872
0.00320827217242
0.00320789061172
0.00320765625996
0.00320756652229
0.00320767883158
0.0032080847953
0.00320839485535
0.00320882569921
0.00320936934266
0.00320956598938
0.00320839195431
0.0032041384379
0.00319285111747
0.00316476750469
0.00309971028079
0.00296061445788
0.00268456356096
0.00215634155677
0.00110000984029
0.0012186887365
0.00188858211555
0.00220282469662
0.0022940244222
0.00229689955133
0.00236764437339
0.00256539013639
0.00283908933563
0.00310997139231
0.00332773689614
0.00341619357781
0.00339740271779
0.00334272175643
0.00329123624377
0.00325525695391
0.00323356748854
0.00322156748623
0.00321520111508
0.00321194163021
0.00321013939569
0.00320897589265
0.00320825687332
0.00320787295373
0.00320763637329
0.00320754476339
0.00320765641377
0.00320806210791
0.0032083719762
0.00320880209281
0.003209343026
0.00320953616421
0.00320835875143
0.00320410322764
0.00319281627399
0.00316473678288
0.0030996848779
0.00296059594021
0.00268455134651
0.00215633481967
0.00110000842397
0.00121832297343
0.0018982098572
0.00221179938661
0.00230590451692
0.00231500125034
0.00238307326035
0.00256823681501
0.00283017928111
0.00309087090618
0.00330414459007
0.00338685996702
0.00336640088582
0.00331218760421
0.00326170475023
0.0032265670916
0.0032053915904
0.00319365133096
0.00318737247836
0.00318412298654
0.00318231475263
0.00318114910306
0.00318042044785
0.00318002571452
0.00317978305999
0.00317968848545
0.0031797967028
0.00318020019276
0.00318050240072
0.00318092357831
0.00318145656907
0.00318165905582
0.00318053367093
0.00317642511506
0.00316549940971
0.00313822253037
0.00307476927551
0.00293852923671
0.00266705700409
0.00214555871215
0.00109859815062
0.00121736690623
0.00191704397615
0.00222502745199
0.00232323121019
0.0023400427696
0.00240327995554
0.00256887967025
0.00280901478168
0.00304994984144
0.00325461367737
0.00332584674198
0.00330218812497
0.00324893262873
0.00320041782138
0.00316693622446
0.00314676738225
0.00313549612832
0.00312940306238
0.00312618576931
0.00312437265149
0.00312320610792
0.00312247269033
0.00312205851776
0.00312180756452
0.00312170944753
0.00312181418512
0.00312220756073
0.00312249504229
0.00312289863614
0.00312341969116
0.00312364210626
0.00312261976353
0.00311879782789
0.0031085765665
0.00308287583377
0.00302258894628
0.00289204871847
0.0026298393817
0.00212221169135
0.00109537199011
0.00121430352385
0.00193952959202
0.00223208085761
0.00233302263445
0.00235606381961
0.00241269343101
0.0025554014953
0.00276691574687
0.00298178191482
0.00317319386835
0.00322786095051
0.00319998639797
0.00314835183785
0.00310273897958
0.00307166711164
0.00305295802266
0.00304234179511
0.00303654406797
0.00303339339774
0.00303158708973
0.00303043266227
0.00302970597377
0.00302927287912
0.00302900975194
0.00302890837241
0.00302900832738
0.00302937909966
0.00302964310993
0.00303002135183
0.00303052596362
0.00303077552377
0.00302989868809
0.00302648347813
0.0030172759805
0.00299387578251
0.00293827157905
0.00281629862725
0.00256828902072
0.00208256625651
0.00108944409002
0.00120541522768
0.00195042001935
0.00221838391113
0.00231556460389
0.00234085166825
0.00238951566459
0.00250912304649
0.00269052426604
0.00288957394168
0.00304974392578
0.00308460692188
0.00305237885989
0.00300304502917
0.00296137191964
0.00293334636737
0.00291642191669
0.00290668449244
0.00290126930371
0.00289823461258
0.00289644995225
0.00289533146343
0.0028946304346
0.0028941904151
0.00289391701977
0.00289381404707
0.00289390119974
0.00289423550021
0.00289446964436
0.00289481380517
0.00289529460429
0.00289557199536
0.0028948710259
0.00289195715957
0.00288402153128
0.00286357270404
0.00281408657962
0.00270356672247
0.00247505957929
0.00202062171806
0.00107926623323
0.00118554933157
0.00192744907058
0.00218216972215
0.00225207478416
0.00227266729539
0.00231186788709
0.00241063788143
0.00256431724096
0.00275587395428
0.00286934736783
0.00288409941097
0.00284846937575
0.0028023953596
0.00276540869208
0.0027408788051
0.00272595655958
0.00271728656406
0.00271233952868
0.0027094716099
0.00270775431708
0.00270669320174
0.00270603477463
0.00270561353165
0.00270534616671
0.00270524536737
0.00270530948984
0.00270559098035
0.00270578835382
0.00270608862568
0.00270653503323
0.00270683588342
0.00270632331412
0.00270397281554
0.00269750187971
0.00268055557624
0.0026385092842
0.00254234573677
0.00233914462655
0.00192726318334
0.00106219795167
0.00114844751948
0.00184346651638
0.00209640336071
0.00214315598652
0.00214467211755
0.00217114647081
0.00225683412241
0.00240060985691
0.00253973933088
0.00261050783237
0.00260826144952
0.00257114445518
0.00252946191528
0.00249786496462
0.00247706537783
0.00246435212102
0.00245685907853
0.00245246297961
0.00244983095767
0.00244823066945
0.00244725478711
0.00244666759296
0.00244629488532
0.00244605923608
0.00244596517097
0.00244601414493
0.00244620477288
0.00244636152055
0.00244660641956
0.0024470037135
0.00244731422055
0.00244698570709
0.00244522458266
0.00244033484782
0.00242731622129
0.00239388775356
0.00231501118916
0.00214363188814
0.00178825576177
0.00103339109638
0.00108269333675
0.00166375518921
0.00188498234907
0.00193045949687
0.00193236120442
0.00194976726565
0.00201076580681
0.00211030956941
0.00220066551345
0.00223876471264
0.00222554829152
0.00218883736506
0.00215480238764
0.00212929888258
0.00211248630347
0.00210217124749
0.00209594874525
0.002092199029
0.0020898910694
0.00208846748183
0.00208762026269
0.00208715381373
0.00208685555956
0.00208666581506
0.00208658288384
0.00208661611792
0.00208670613419
0.00208681550485
0.00208700422914
0.00208731233967
0.0020876064326
0.00208744068924
0.00208626065081
0.00208301796892
0.00207416852864
0.00205037718224
0.00199185034862
0.00186002652641
0.00157929936198
0.000982683427503
0.000959562608967
0.0013361728654
0.00148795117194
0.00151758274862
0.00151583187865
0.00152450286235
0.00156220962849
0.00162202604863
0.00167240139685
0.00168815451217
0.00166961493128
0.00164392711386
0.00162011622362
0.0016020681806
0.00159004264346
0.00158246958689
0.00157775894443
0.0015748454991
0.00157301705851
0.00157187632924
0.00157126428532
0.00157092949624
0.0015707140675
0.00157057701382
0.0015705106554
0.00157052481063
0.00157057366463
0.00157061094064
0.00157071576025
0.00157091326694
0.00157112894323
0.00157108699698
0.0015704585017
0.00156886762875
0.00156423249423
0.00155099618512
0.00151647693294
0.00143466505696
0.00125465408597
0.000885433606106
0.000697922692545
0.000809201138914
0.000862788251725
0.000875950467368
0.000874622141468
0.000876812833003
0.000886180270907
0.000895259354721
0.000896988678373
0.000889640425833
0.000882360715656
0.000872341780813
0.000862543982258
0.000854834888884
0.000849357123619
0.000845700182035
0.000843328338788
0.000841833131464
0.000840889460949
0.000840333894789
0.000840037221041
0.000839861010927
0.000839752464449
0.000839679286611
0.000839633125932
0.0008396138042
0.000839606985421
0.000839598762924
0.000839621728237
0.000839673379973
0.000839732687035
0.000839743889584
0.000839651436482
0.00083941557778
0.000838670436941
0.000836334208064
0.000829408355719
0.000810689616026
0.000764867599339
0.000670963151376
0.000910716537764
0.00126376697267
0.00142542328663
0.0014737267659
0.00148289920088
0.00149473464194
0.00152755085282
0.00157536634009
0.00161638584919
0.00163404588295
0.00163045219427
0.00161708979074
0.00160514498789
0.00159523865184
0.00158705121521
0.00158113775593
0.00157715528291
0.001574585502
0.00157295090147
0.00157190899695
0.00157131094328
0.00157095491859
0.00157071994474
0.00157056258129
0.0015704960654
0.00157053694412
0.00157063192826
0.0015707107387
0.00157083790868
0.00157102158299
0.00157118167515
0.00157114340557
0.00157061359846
0.00156903986029
0.00156435827853
0.00155106695412
0.00151649258228
0.00143462718331
0.00125462456738
0.000885519376948
0.00174028874471
0.00266086136108
0.00302997751584
0.00312704818231
0.00314407217403
0.0031829484638
0.00329022708265
0.00345810675976
0.00362661054061
0.00373358460272
0.00376758479624
0.00375865742624
0.00373411912982
0.00371132990416
0.00369433126994
0.0036829847883
0.00367576645313
0.00367128343509
0.00366849222135
0.00366673356672
0.0036656148121
0.00366493493622
0.00366448445793
0.00366416745866
0.00366406184905
0.00366420097576
0.00366444696325
0.0036646281287
0.00366490354917
0.00366525430767
0.00366548862056
0.00366505043155
0.00366304092248
0.00365719587003
0.00364082618989
0.00359736640487
0.00349181489726
0.00325684799761
0.00276444549553
0.00171786907832
0.00206761945947
0.00338046370838
0.00390063349669
0.00405373915647
0.00409247771217
0.00415434471882
0.00430267821625
0.0045299932944
0.00475430843921
0.00489460306378
0.00493716234702
0.00492142597506
0.00488617232107
0.00485385120079
0.00483045522076
0.00481528858211
0.00480593302603
0.00480028183474
0.0047968467991
0.00479472342638
0.00479340919127
0.00479260073945
0.00479205983704
0.0047916794612
0.00479155988632
0.00479173821662
0.00479204947672
0.00479227979177
0.00479258269509
0.00479299853098
0.00479319852994
0.0047923578252
0.00478897498949
0.00477929165986
0.00475300222101
0.00468623241971
0.00453084591517
0.00419755512897
0.00351802605637
0.00201912411887
0.00225067339112
0.00380354670142
0.00442301364438
0.0046146812413
0.00467248387593
0.00475779852256
0.00494286296199
0.00523072802538
0.00551634921749
0.00569982188803
0.00575947553556
0.00574314173994
0.00570046402653
0.00566011774624
0.00563108706837
0.00561252244793
0.00560132550826
0.00559473809846
0.00559084449147
0.00558848842059
0.00558704500984
0.00558617077366
0.00558559661352
0.00558518960967
0.00558506805512
0.00558527862039
0.00558563025961
0.00558587299971
0.00558619960773
0.00558664226162
0.00558676040304
0.00558545690064
0.00558062750202
0.0055670680958
0.0055312568192
0.00544332141309
0.00524525830413
0.00483251680271
0.00400974777444
0.00218784883266
0.00235589374921
0.0040366209508
0.00471545939911
0.00493462736372
0.00499942797213
0.00510300953419
0.00533591413882
0.00569020492262
0.00604119391063
0.00627753215028
0.00636158865726
0.00634917092277
0.00630160058859
0.00625430171354
0.00622009036419
0.00619835305519
0.00618545927179
0.00617805945733
0.00617381339372
0.00617130392037
0.00616977519267
0.00616885673435
0.00616827360371
0.00616786696177
0.00616775275376
0.00616799301397
0.0061683696615
0.00616863035372
0.00616897531303
0.00616942378439
0.006169425548
0.00616762259358
0.00616133007671
0.00614398181626
0.00609926106016
0.00599232567409
0.0057575976783
0.00527961471673
0.00434494874346
0.00229065060815
0.00241317895762
0.00414410897505
0.00485706750527
0.00507143525332
0.00513578869274
0.00525762558184
0.00553961757778
0.0059659454294
0.00639707235939
0.00669065774369
0.0068030327967
0.00679756165195
0.00674673553485
0.00669380169018
0.00665491042057
0.00663028484047
0.0066158522964
0.00660774848647
0.00660323174333
0.00660062693174
0.00659904747124
0.00659810409562
0.0065975217852
0.00659712527112
0.00659702504341
0.00659728825795
0.00659769731677
0.00659797468684
0.00659833433671
0.0065987723808
0.00659863813886
0.00659633500599
0.00658864894254
0.00656780140286
0.00651510180453
0.00639171385139
0.00612630565641
0.00559572437462
0.00457495126029
0.00235563800096
0.00244015148171
0.00417491377485
0.00489478323536
0.00510180439718
0.0051602442233
0.0052985124679
0.00562876649294
0.00612428703154
0.00663432589403
0.00697992793828
0.00712034413544
0.00712316543372
0.00707053451596
0.00701309987574
0.00697021857517
0.00694308736287
0.00692734407729
0.00691865463173
0.00691393402189
0.00691127753767
0.00690967301854
0.00690872143249
0.00690814226282
0.00690775738069
0.00690767376919
0.00690796262915
0.00690840154853
0.00690869360168
0.0069090627958
0.00690947967356
0.00690920664771
0.00690644114331
0.00689751710407
0.00687363958221
0.00681419303157
0.00667724785604
0.00638722915404
0.00581572701288
0.004730678429
0.00239681731578
0.00245012441848
0.0041686148519
0.00488423846191
0.00508232158901
0.00513215042207
0.00528394040806
0.00565625321983
0.00621029482305
0.0067826148005
0.00717397466272
0.00733848697825
0.00734919045149
0.00729576561742
0.00723498502986
0.00718898979905
0.00715986066751
0.00714309677992
0.00713395788609
0.00712909417183
0.00712641104723
0.00712479760197
0.00712384371807
0.00712326860043
0.00712289462109
0.00712282600508
0.00712314155929
0.00712360320899
0.00712390801079
0.0071242811229
0.00712467287653
0.00712427469501
0.00712112150316
0.00711119210744
0.00708490495345
0.00702018839365
0.00687285384729
0.00656435655466
0.00596286378534
0.00483229713165
0.00242219872413
0.00245270948968
0.00415323438884
0.00486196289701
0.00505292732321
0.005095607885
0.00525688785896
0.00565956743499
0.00625486403912
0.00686948266879
0.00729317666801
0.00747483461604
0.00749149502227
0.00743781404067
0.00737482113688
0.00732671529766
0.0072962088993
0.00727874435021
0.00726930594239
0.00726435155637
0.00726165737691
0.00726004128025
0.00725908461232
0.00725850957354
0.00725814472936
0.00725808597428
0.00725842079756
0.00725889985108
0.00725921389652
0.00725958753462
0.00725995592672
0.00725946109095
0.00725602662251
0.0072453875714
0.00721742803241
0.00714910128029
0.00699474079988
0.00667392613704
0.00605278900205
0.00489316363589
0.00243670197578
0.00245317930557
0.00414325769641
0.00484761355629
0.00503460306831
0.00507224621665
0.00523847537164
0.00565842480765
0.00627463647111
0.00691007265648
0.00735017305796
0.00754046697147
0.00756018643535
0.00750641951261
0.00744232486945
0.00739317014514
0.00736197188012
0.00734415124009
0.0073345654247
0.00732956644842
0.00732686651775
0.00732524699762
0.00732428467458
0.00732370553619
0.00732334318601
0.00732328736739
0.0073236300569
0.00732411971884
0.00732443859982
0.00732481063892
0.00732516249831
0.00732461093983
0.00732102481295
0.00731001667649
0.0072812015861
0.0072110443941
0.00705314867065
0.00672618486784
0.00609534135787
0.00492158084179
0.00244325857064
0.0024534189506
0.00414396419113
0.00484832004194
0.00503520612276
0.00507286090382
0.00523900571397
0.00565880636666
0.0062750311441
0.00691046265022
0.00735039093292
0.00754047877793
0.00756008927469
0.0075063110743
0.00744224503573
0.00739311375436
0.00736193157568
0.0073441206762
0.00733453865041
0.00732953855747
0.00732683436524
0.00732520841688
0.00732423821018
0.00732365146555
0.00732328232896
0.0073232213364
0.007323561899
0.00732405150275
0.00732436973509
0.00732473850398
0.00732508320015
0.00732452202926
0.00732092695808
0.00730991394708
0.00728110066285
0.00721095255509
0.00705307203106
0.00672612753989
0.0060953040752
0.00492156070145
0.00244325276193
0.00245336959957
0.0041552838262
0.00486405896956
0.00505474332424
0.00509736213551
0.00525841065195
0.00566082139651
0.00625609631676
0.00687063641749
0.00729382497376
0.00747487500124
0.00749121630505
0.00743750015865
0.0073745829763
0.00732654789013
0.00729608902316
0.00727865391492
0.00726922695349
0.00726426999176
0.0072615637527
0.00725992912292
0.00725895030304
0.00725835324538
0.00725796920381
0.00725789598499
0.0072582246026
0.00725870356823
0.00725901605205
0.00725938050509
0.00725972869537
0.00725920657881
0.00725574649416
0.00724509346879
0.00721713888303
0.00714883808773
0.00699452089176
0.00667376118914
0.00605268145475
0.00489310533356
0.00243668503232
0.00245107833655
0.0041719202702
0.00488776334245
0.00508549075652
0.00513508875226
0.00528652093401
0.00565853681283
0.00621242877101
0.00678443459885
0.00717494430672
0.00733849822994
0.00734872284755
0.00729525751549
0.00723459822036
0.00718871975052
0.00715966684513
0.00714295044924
0.00713383021726
0.00712896396749
0.00712626287955
0.0071246220401
0.00712363632512
0.00712302855651
0.00712262599887
0.0071225354507
0.00712284188992
0.00712330375142
0.0071236065471
0.00712396583869
0.00712432729745
0.00712388824565
0.00712069631941
0.00711074575119
0.00708446564088
0.00701978794883
0.00687251736076
0.00656410394799
0.00596269845857
0.00483220677255
0.00242217167446
0.0024412098148
0.00417916790456
0.0048995742026
0.00510635996468
0.00516460798105
0.00530240168641
0.0056321597107
0.00612727248311
0.00663662364042
0.00698103221047
0.00712023437515
0.00712249834519
0.0070698515767
0.00701258371494
0.00696985944722
0.00694283263542
0.00692715123044
0.00691848589971
0.00691376402634
0.00691108748056
0.00690945193001
0.00690846412103
0.00690784696107
0.00690742844294
0.00690731889115
0.00690759634868
0.00690803613107
0.0069083262103
0.00690867899509
0.00690905993918
0.00690873831185
0.00690592644514
0.00689697663441
0.00687310704304
0.00681370585369
0.00667683734933
0.00638691953694
0.00581552341126
0.00473056634034
0.00239678202331
0.00241414065997
0.00414880807779
0.00486265034577
0.00507701928926
0.00514121152864
0.00526249121538
0.00554385521896
0.00596949696897
0.00639959733601
0.0066916685017
0.00680271071504
0.00679669933948
0.00674590994897
0.00669318485936
0.00665448447165
0.00662998855443
0.00661562592944
0.00660755065728
0.00660303537449
0.00660041213721
0.00659880408321
0.00659782540179
0.00659720565816
0.00659677526554
0.00659664900664
0.00659689900846
0.00659731035121
0.0065975860605
0.00659792946694
0.00659833042306
0.00659814615487
0.00659579565364
0.00658808282199
0.00656724271128
0.00651458863756
0.00639127977431
0.00612597635835
0.00559550695144
0.00457483139609
0.00235559823158
0.00235659970181
0.0040412114379
0.00472118993222
0.00494069820351
0.00500528431347
0.00510825398724
0.00534054549273
0.00569390694804
0.00604356814873
0.00627824434181
0.00636100650955
0.00634814798615
0.00630068242764
0.00625362605501
0.00621962971108
0.00619803761033
0.00618521721039
0.00617785038559
0.00617360980634
0.00617108628863
0.00616953491383
0.00616858690621
0.00616797154252
0.00616753598439
0.00616739899089
0.0061676272014
0.00616800605847
0.00616826580871
0.00616859656799
0.00616901129604
0.00616896787101
0.00616712237433
0.00616080556031
0.00614346358134
0.00609878287294
0.00599191978059
0.00575728737461
0.00527940964439
0.00434483682949
0.00229061194727
0.00225105090549
0.00380758330858
0.0044284419317
0.00462056139737
0.00467741723762
0.00476215396259
0.00494730657127
0.00523420079348
0.00551831127354
0.00570013550713
0.00575866697087
0.0057420351447
0.00569953549088
0.00565943881296
0.0056306349232
0.00561221393174
0.00560109121116
0.00559453944704
0.00559065401287
0.00558828986138
0.00558683177513
0.00558593740952
0.00558534070626
0.0055849132434
0.00558477337736
0.00558497430833
0.00558532799967
0.00558557055735
0.00558588612142
0.005586302254
0.00558638501239
0.00558504824305
0.00558019996106
0.00556664574256
0.00553086656543
0.00544298748728
0.00524500092361
0.00483234748044
0.00400965895117
0.00218781895038
0.00206769793591
0.00338361294747
0.00390523722565
0.00405890346776
0.00409766430739
0.00415901064589
0.00430665795071
0.00453289252643
0.00475573902996
0.00489455887654
0.00493624684805
0.00492035054263
0.0048852959475
0.00485323800923
0.00483004797396
0.00481501390578
0.00480572877978
0.00480011311088
0.00479668888672
0.00479456280568
0.00479324236302
0.00479242489902
0.00479187256033
0.00479148131118
0.00479134869955
0.00479152000358
0.00479183908776
0.00479206467
0.00479235965726
0.00479275763284
0.00479293464745
0.00479207257671
0.00478867839441
0.00477900172761
0.00475273337378
0.00468600080696
0.00453066564145
0.00419743848916
0.00351797161538
0.00201911033022
0.00174016686992
0.00266286495052
0.00303328307106
0.00313092732418
0.00314817099861
0.00318663906694
0.00329323208985
0.00346016707597
0.00362747703137
0.00373332787403
0.00376675125861
0.00375776349587
0.00373341675276
0.00371084781825
0.00369401285585
0.00368277060966
0.00367561242997
0.00367116218607
0.00366838186573
0.00366662534975
0.00366550584751
0.00366482331289
0.00366436812382
0.00366404673158
0.00366393699901
0.00366407109461
0.0036643209929
0.003664505732
0.0036647747862
0.00366511727708
0.00366534007667
0.00366489251657
0.00366287946942
0.00365704277784
0.00364068447851
0.00359724322076
0.00349171716077
0.00325678630719
0.00276442106698
0.00171786190735
0.000910572245365
0.00126427274844
0.00142655543537
0.00147526497003
0.00148464875596
0.00149623594671
0.00152861800447
0.00157590284316
0.00161637639326
0.00163364978423
0.00162991732819
0.00161660882229
0.00160477792392
0.00159498855289
0.00158688725355
0.00158103163372
0.00157708757492
0.00157453934779
0.00157291310545
0.00157187210091
0.00157127464737
0.00157091574245
0.00157067787864
0.00157051776577
0.00157044908441
0.00157048857688
0.00157058193184
0.00157066063668
0.00157078977859
0.00157097361006
0.00157113223535
0.00157109217794
0.00157056469589
0.00156899916163
0.00156432135966
0.00155103308286
0.00151646013187
0.00143460333803
0.00125461316404
0.000885521599639
0.00100583008412
0.00155150547434
0.00179580024831
0.00187671600894
0.00189993551376
0.00192104018601
0.00196763954055
0.00203801726172
0.0021042306342
0.00214130345633
0.00214792581464
0.00213787165665
0.00212361026973
0.00211340860294
0.00210479964033
0.00209832923938
0.0020938990561
0.00209103809851
0.00208922892044
0.00208809334613
0.00208743767785
0.00208704153841
0.00208678617973
0.00208662355801
0.00208656346652
0.00208663483753
0.00208676617842
0.00208687227872
0.00208703210855
0.00208725051604
0.00208742694655
0.00208727812107
0.00208627982151
0.00208322523588
0.00207438578481
0.00205055771251
0.00199197686756
0.00186010560988
0.00157943433651
0.000983021370454
0.00201363394714
0.00330748490066
0.00382546087833
0.00398380264682
0.00402865401599
0.00409055219901
0.00423285334559
0.00445031993309
0.00467172039063
0.00482098917394
0.0048816878917
0.00488525543922
0.00486539161416
0.00484271743496
0.00482467652539
0.00481230584587
0.00480436509209
0.00479945118706
0.00479643014979
0.00479455075713
0.00479338420181
0.00479267862569
0.00479221739312
0.0047919009115
0.00479180876255
0.00479198268323
0.00479226239784
0.00479246571754
0.00479273125143
0.00479308363796
0.00479323976526
0.00479240354973
0.00478908974459
0.00477949895523
0.00475328432996
0.00468654006676
0.00453114748836
0.00419786820246
0.00351839344004
0.00201958658728
0.00243556528085
0.00421063084022
0.00491625419477
0.00515414650317
0.00523366261506
0.00532609330085
0.00551590520041
0.00579527942092
0.00607444072501
0.00625981503771
0.00633179240767
0.00633055493724
0.00630053544636
0.00626832203261
0.00624385725154
0.00622762251908
0.00621753132415
0.00621147007423
0.00620784987807
0.00620565564707
0.00620432625586
0.00620353532637
0.00620302029665
0.00620266071351
0.00620256122788
0.00620276790818
0.00620309387076
0.00620330299593
0.00620357696225
0.006203949466
0.00620398141643
0.00620249834399
0.00619715559605
0.00618209501225
0.00614234104849
0.00604506964009
0.00582686415099
0.00537395422318
0.00447414549423