/*--------------------------------*- C++ -*----------------------------------*\
| =========                 |                                                 |
| \\      /  F ield         | OpenFOAM: The Open Source CFD Toolbox           |
|  \\    /   O peration     | Version:  3.0.1                                 |
|   \\  /    A nd           | Web:      www.OpenFOAM.org                      |
|    \\/     M anipulation  |                                                 |
\*---------------------------------------------------------------------------*/
FoamFile
{
    version     2.0;
    format      ascii;
    class       surfaceScalarField;
    location    "3";
    object      alphaPhi;
}
// * * * * * * * * * * * * * * * * * * * * * * * * * * * * * * * * * * * * * //

dimensions      [0 3 -1 0 0 0 0];

internalField   nonuniform List<scalar> 
45932
(
6.37698129792e-06
4.2018918893e-06
-1.05788797017e-05
1.18360851704e-05
5.05823700038e-06
-1.05173426234e-05
1.21692856155e-05
1.0515231412e-05
-1.0848430031e-05
6.69962983462e-06
1.63933138124e-05
-1.09236550118e-05
-1.79540362336e-06
1.96549415345e-05
-1.11599006728e-05
-1.0917973687e-05
1.98432138114e-05
-1.07206378017e-05
-1.80666745828e-05
1.68111772688e-05
-9.66247750544e-06
-2.08829907144e-05
1.1109928803e-05
-8.29361829392e-06
-1.92502604257e-05
4.91485134691e-06
-6.5475978464e-06
-1.53710259996e-05
8.40932072412e-07
-4.72019106409e-06
-1.13463557832e-05
-9.45499147181e-07
-3.07920314336e-06
-8.08693090326e-06
-1.36897545842e-06
-1.89048220588e-06
-5.7652604275e-06
-1.22435865616e-06
-1.09733641965e-06
-4.22233806736e-06
-9.21066018415e-07
-6.21883905384e-07
-3.23290981432e-06
-6.38209225707e-07
-3.51244811777e-07
-2.60686027138e-06
-4.26444162266e-07
-1.9962978272e-07
-2.2088141322e-06
-2.84688087212e-07
-1.13346778822e-07
-1.9427060773e-06
-1.94540598756e-07
-7.15518329735e-08
-1.74860246974e-06
-1.38294595856e-07
-5.58022643103e-08
-1.59226375088e-06
-1.03157565241e-07
-5.31693814346e-08
-1.45853329494e-06
-8.06293504839e-08
-5.31064769457e-08
-1.34454635166e-06
-6.536129709e-08
-4.86551978145e-08
-1.25309229592e-06
-5.5900222172e-08
-3.55832631344e-08
-1.1834223609e-06
-5.01725528185e-08
-1.95264128077e-08
-1.12778739522e-06
-4.90128327037e-08
-6.60468402446e-09
-1.07468430059e-06
-4.94226391793e-08
-3.66955597772e-09
-1.01304635706e-06
-5.24832109946e-08
-9.14504579268e-09
-9.31979737414e-07
-5.73611046337e-08
-2.3691111859e-08
-8.2485691297e-07
-6.17603140653e-08
-4.53806576594e-08
-6.91616090871e-07
-6.64213811164e-08
-6.68363488291e-08
-5.38106975867e-07
-6.97695037794e-08
-8.37558097177e-08
-3.78855811742e-07
-7.14217418797e-08
-8.78452596442e-08
-2.32192445785e-07
-7.08013658785e-08
-7.58774130532e-08
-1.1047956251e-07
-6.96224160821e-08
-5.21050329119e-08
-1.86402706658e-08
-6.85355472721e-08
-2.33168168677e-08
4.2974349333e-08
-6.80235157377e-08
6.39789211226e-09
7.90543971989e-08
-6.61697858462e-08
3.00809779396e-08
8.7851289268e-08
-6.37634931833e-08
5.4959275556e-08
6.78220311065e-08
-6.16080819728e-08
8.1629592643e-08
-6.51188754225e-08
1.32932565701e-07
6.32963750807e-06
1.18701588821e-05
-1.3997910291e-05
1.26473840063e-05
1.66471647705e-05
-1.79066683244e-05
1.31837365098e-05
2.94509863071e-05
-1.94720871755e-05
7.33912165469e-06
4.19891269592e-05
-1.97511908047e-05
-1.71110213274e-06
4.86880202424e-05
-1.99828561205e-05
-1.1377533853e-05
4.89090384244e-05
-1.93993987102e-05
-1.89822081752e-05
4.24211091443e-05
-1.8005238674e-05
-2.1823491302e-05
3.00738341793e-05
-1.61226157554e-05
-1.98125554396e-05
1.6202374694e-05
-1.32984706023e-05
-1.55119412705e-05
6.2902268667e-06
-9.74993221144e-06
-1.12737911105e-05
1.18140267174e-06
-6.36508242604e-06
-7.95352391968e-06
-8.50903817426e-07
-3.83837336789e-06
-5.63838800668e-06
-1.33547720517e-06
-2.20404739702e-06
-4.12534726617e-06
-1.21784014631e-06
-1.2162922443e-06
-3.16607798709e-06
-9.31379951122e-07
-6.66125089579e-07
-2.56281297301e-06
-6.63212215844e-07
-3.66521932485e-07
-2.17881169227e-06
-4.64557657592e-07
-2.04155673749e-07
-1.92214628715e-06
-3.30582363853e-07
-1.20646798662e-07
-1.73385200418e-06
-2.43385903594e-07
-8.32265157377e-08
-1.58099339846e-06
-1.87016486467e-07
-6.9024445851e-08
-1.44961816403e-06
-1.50151084167e-07
-6.18804836622e-08
-1.33766072592e-06
-1.25033996736e-07
-5.23140543975e-08
-1.24767042811e-06
-1.0913881489e-07
-3.67819913041e-08
-1.1789672269e-06
-9.95846661169e-08
-1.93207107916e-08
-1.12568518239e-06
-9.62982248247e-08
-6.02438643814e-09
-1.07401888674e-06
-9.69642101365e-08
-4.14959304136e-09
-1.01252086516e-06
-1.02034116815e-07
-1.19692347422e-08
-9.31496936313e-07
-1.10055986385e-07
-2.83487749416e-08
-8.25295052506e-07
-1.1679684179e-07
-5.11832156562e-08
-6.91824841444e-07
-1.24241747326e-07
-7.5666405772e-08
-5.37891902385e-07
-1.28943693758e-07
-9.47745853318e-08
-3.78188503425e-07
-1.30841288012e-07
-1.00299291081e-07
-2.31655036901e-07
-1.29349236647e-07
-8.80005246759e-08
-1.10489875885e-07
-1.26759437156e-07
-6.40420431187e-08
-1.93155392599e-08
-1.23807070614e-07
-3.59149837711e-08
4.0993066484e-08
-1.21262045146e-07
-7.07986245578e-09
7.7929662296e-08
-1.17438499215e-07
1.43248395316e-08
8.69973771774e-08
-1.13824159566e-07
4.0987152888e-08
6.65132047167e-08
-1.11387792504e-07
7.02575238311e-08
-1.1267100204e-07
1.140580634e-07
7.44352671868e-06
1.93373365198e-05
-1.4910708178e-05
1.50035430007e-05
2.86675310236e-05
-1.95803643131e-05
1.55331254812e-05
4.80173189956e-05
-1.90959105179e-05
8.69268385741e-06
6.60384900374e-05
-1.72089247978e-05
-1.62366276825e-06
7.54517080876e-05
-1.64473502578e-05
-1.25514146958e-05
7.56549672591e-05
-1.58181830693e-05
-2.1160316388e-05
6.63011292354e-05
-1.52711186862e-05
-2.42160948884e-05
4.83710427652e-05
-1.52414178425e-05
-2.15689118945e-05
2.78206932495e-05
-1.42655087679e-05
-1.64012982588e-05
1.25602079413e-05
-1.14376147526e-05
-1.15523249824e-05
4.13518101346e-06
-7.80278195353e-06
-7.93388716033e-06
3.22546102656e-07
-4.79192210615e-06
-5.51831730883e-06
-9.84918167228e-07
-2.76615951786e-06
-3.99505309882e-06
-1.19692206758e-06
-1.54421095865e-06
-3.05984568253e-06
-1.02080255185e-06
-8.45812161898e-07
-2.4860704555e-06
-7.68509556862e-07
-4.68504263955e-07
-2.12604939148e-06
-5.56670728183e-07
-2.6793313975e-07
-1.88567784063e-06
-4.05593248912e-07
-1.65385027389e-07
-1.70774593515e-06
-3.03989318968e-07
-1.1735286852e-07
-1.56127454773e-06
-2.35955950431e-07
-9.75576940985e-08
-1.43394693659e-06
-1.90070111335e-07
-8.74368188839e-08
-1.32452987213e-06
-1.58715899282e-07
-7.57659891277e-08
-1.23687941174e-06
-1.38565013133e-07
-5.8256389402e-08
-1.17003688156e-06
-1.26763376865e-07
-3.96953092866e-08
-1.11828988068e-06
-1.22127800336e-07
-2.59464994567e-08
-1.06796926226e-06
-1.23698002742e-07
-2.36127757188e-08
-1.00697882117e-06
-1.29688264897e-07
-3.33591588532e-08
-9.27446818059e-07
-1.39282764903e-07
-5.03255155118e-08
-8.21114039278e-07
-1.48391370838e-07
-7.47565672494e-08
-6.87546058521e-07
-1.57147256073e-07
-1.00679453118e-07
-5.33251489029e-07
-1.62326315429e-07
-1.20928203223e-07
-3.73586576702e-07
-1.63912441855e-07
-1.26609625032e-07
-2.27594221656e-07
-1.61532916214e-07
-1.13824027294e-07
-1.07386224809e-07
-1.57752014065e-07
-8.92297144129e-08
-1.7385071237e-08
-1.53236089749e-07
-6.05846019788e-08
4.22027374697e-08
-1.48983582951e-07
-3.18762143891e-08
7.75241118355e-08
-1.43963515234e-07
-8.80367927137e-09
8.6518686101e-08
-1.3799817347e-07
1.51735638968e-08
6.48688533578e-08
-1.34463755046e-07
4.47191157964e-08
-1.28551035287e-07
8.07411628852e-08
9.76579843328e-06
2.47540648859e-05
-1.51825295559e-05
1.90919435408e-05
3.74191871335e-05
-1.80778005314e-05
1.93813780748e-05
6.09243694125e-05
-1.31964880839e-05
1.08546963038e-05
8.19564940801e-05
-7.39133049064e-06
-1.55295583433e-06
9.28160630006e-05
-4.95670065366e-06
-1.45623329161e-05
9.30083800504e-05
-4.34403276537e-06
-2.4827008213e-05
8.1999398761e-05
-5.43358570644e-06
-2.83362934095e-05
6.08640026308e-05
-8.98367627357e-06
-2.47816365312e-05
3.61410420913e-05
-1.18750166289e-05
-1.82364181253e-05
1.73652796223e-05
-1.13503103857e-05
-1.23656712425e-05
6.6440527023e-06
-8.37964212849e-06
-8.17681115921e-06
1.4824983656e-06
-5.34884447015e-06
-5.51389522228e-06
-4.98462139615e-07
-3.14940503128e-06
-3.91262590704e-06
-1.0164701115e-06
-1.78174856247e-06
-2.97084717476e-06
-9.72843239463e-07
-9.8976467119e-07
-2.41521773534e-06
-7.71198772428e-07
-5.52966454634e-07
-2.07576894915e-06
-5.72797050208e-07
-3.23347343517e-07
-1.85128467307e-06
-4.23173522598e-07
-2.06928007788e-07
-1.68396579393e-06
-3.192389095e-07
-1.52093252866e-07
-1.54426437229e-06
-2.47665242547e-07
-1.28017598039e-07
-1.42139979836e-06
-1.98267126192e-07
-1.14695915504e-07
-1.3152219299e-06
-1.64206632748e-07
-1.00718618078e-07
-1.22995824001e-06
-1.42036798682e-07
-8.18250701577e-08
-1.16531718408e-06
-1.29134296125e-07
-6.23025805173e-08
-1.11524407562e-06
-1.24195156231e-07
-4.80354747495e-08
-1.06621961491e-06
-1.25998810308e-07
-4.67497390577e-08
-1.00621021166e-06
-1.32612240093e-07
-5.71080182941e-08
-9.26993815716e-07
-1.4294677037e-07
-7.55721486981e-08
-8.20550491252e-07
-1.53242563272e-07
-1.01609785205e-07
-6.86431258638e-07
-1.62429790562e-07
-1.28852961389e-07
-5.31275653993e-07
-1.67617572259e-07
-1.49879865695e-07
-3.71187472237e-07
-1.68609449514e-07
-1.55406302747e-07
-2.25225429553e-07
-1.65653659321e-07
-1.41855915509e-07
-1.05415824932e-07
-1.61078292125e-07
-1.16496864378e-07
-1.59666955715e-08
-1.55624069133e-07
-8.70728208063e-08
4.34110703823e-08
-1.5030385655e-07
-5.80665858603e-08
7.81370116355e-08
-1.44700649605e-07
-3.39952683457e-08
8.61684371857e-08
-1.37675868514e-07
-8.3588559551e-09
6.54993829935e-08
-1.31701961451e-07
1.79010640358e-08
-1.19375860079e-07
5.63167208465e-08
1.29631775438e-05
2.72501975146e-05
-1.54592791201e-05
2.4348029686e-05
4.12317181162e-05
-1.51973878521e-05
2.42001350727e-05
6.579954258e-05
-4.72728099774e-06
1.3549752146e-05
8.68394109249e-05
5.76746801041e-06
-1.50018869175e-06
9.76571250504e-05
1.0208880646e-05
-1.7143198451e-05
9.7844686039e-05
1.08067161198e-05
-2.94611097605e-05
8.67177608202e-05
7.59955677721e-06
-3.35922414406e-05
6.53302542201e-05
-3.35119692359e-07
-2.90039483875e-05
3.96353296571e-05
-8.08257681309e-06
-2.07798711068e-05
1.9749181316e-05
-1.0607996293e-05
-1.35991915204e-05
8.12723312366e-06
-8.663885034e-06
-8.64953313636e-06
2.32132371488e-06
-5.78851288751e-06
-5.62277399617e-06
-4.82377467477e-08
-3.4770156707e-06
-3.88370551002e-06
-7.75787449049e-07
-1.97978058926e-06
-2.90602050756e-06
-8.40444188883e-07
-1.11011016862e-06
-2.3546733234e-06
-7.00553642489e-07
-6.22017952359e-07
-2.03022779911e-06
-5.31493327577e-07
-3.6577406018e-07
-1.81937485398e-06
-3.960346329e-07
-2.38015699002e-07
-1.66173130431e-06
-2.99300181363e-07
-1.77605785735e-07
-1.52847903841e-06
-2.3119394736e-07
-1.49748723791e-07
-1.41004153755e-06
-1.82922966771e-07
-1.3381018555e-07
-1.30723147922e-06
-1.49185998914e-07
-1.17862959981e-07
-1.22440279806e-06
-1.27028249855e-07
-9.78715789012e-08
-1.16216603405e-06
-1.1484485992e-07
-7.65597991439e-08
-1.11376118194e-06
-1.09803572252e-07
-6.2826861742e-08
-1.0661185071e-06
-1.11661403664e-07
-6.20062928593e-08
-1.0070655282e-06
-1.18344838503e-07
-7.33426426408e-08
-9.28084432334e-07
-1.28490359303e-07
-9.34566821452e-08
-8.21345577479e-07
-1.38843718656e-07
-1.21154680607e-07
-6.86427001708e-07
-1.47650707422e-07
-1.49713223751e-07
-5.30308287104e-07
-1.52459522361e-07
-1.71291583726e-07
-3.69482779007e-07
-1.52947650033e-07
-1.7650173035e-07
-2.2329590347e-07
-1.4971275896e-07
-1.62141668229e-07
-1.0360835469e-07
-1.44852592728e-07
-1.35926026014e-07
-1.43966225365e-08
-1.39138583559e-07
-1.0570807217e-07
4.51113019038e-08
-1.33499500411e-07
-7.63204942971e-08
7.97318934556e-08
-1.27797639435e-07
-5.15291539475e-08
8.76478560191e-08
-1.20097803669e-07
-2.54983466063e-08
6.72628105612e-08
-1.13891925105e-07
2.56937807662e-09
-9.82340132239e-08
4.61137668345e-08
1.65043702122e-05
2.64633095101e-05
-1.57174828271e-05
2.99427412563e-05
3.96616722825e-05
-1.18683317433e-05
2.92108335385e-05
6.22784918801e-05
4.25295651977e-06
1.6298852721e-05
8.07429618545e-05
1.90084302064e-05
-1.45971785556e-06
9.03402263899e-05
2.50754695421e-05
-1.98021713853e-05
9.05451248805e-05
2.56420139847e-05
-3.42796680791e-05
8.05872922e-05
2.06079652418e-05
-3.91654183579e-05
6.15786965785e-05
8.637307511e-06
-3.36061801697e-05
3.80118955389e-05
-3.93579990167e-06
-2.36446742002e-05
1.94493330365e-05
-9.66166961158e-06
-1.505830948e-05
8.37182871011e-06
-8.83098648552e-06
-9.26025382271e-06
2.68584606187e-06
-6.16260605867e-06
-5.81089929525e-06
2.71837359525e-07
-3.76946056841e-06
-3.89649585392e-06
-5.35981404918e-07
-2.15424028268e-06
-2.86438269532e-06
-6.70411363496e-07
-1.20217305719e-06
-2.30629182061e-06
-5.82712429457e-07
-6.75957691982e-07
-1.99113108293e-06
-4.51991934439e-07
-3.94687442786e-07
-1.79119574234e-06
-3.38730827575e-07
-2.57263154303e-07
-1.64170401757e-06
-2.55514392267e-07
-1.93301103358e-07
-1.5140829271e-06
-1.96361018711e-07
-1.62479135574e-07
-1.39968591926e-06
-1.53321890319e-07
-1.44027048857e-07
-1.30005683762e-06
-1.22752422336e-07
-1.26096010955e-07
-1.21979656394e-06
-1.027519778e-07
-1.04572380433e-07
-1.15969990382e-06
-9.17866490274e-08
-8.31898683807e-08
-1.11297261063e-06
-8.72291965887e-08
-6.93329978334e-08
-1.06669895658e-06
-8.89905848671e-08
-6.89709939624e-08
-1.00851177242e-06
-9.50815270241e-08
-8.14726191569e-08
-9.2972466151e-07
-1.04185413421e-07
-1.03110889441e-07
-8.22614111204e-07
-1.13583627962e-07
-1.32387236649e-07
-6.86819964633e-07
-1.21354076638e-07
-1.62105988893e-07
-5.29680551151e-07
-1.254874498e-07
-1.84125979871e-07
-3.68078185922e-07
-1.25573069051e-07
-1.88991045542e-07
-2.21571504456e-07
-1.22409563315e-07
-1.73823406968e-07
-1.01867238432e-07
-1.17763931206e-07
-1.4680528479e-07
-1.27476716197e-08
-1.12419269194e-07
-1.15849225536e-07
4.70054021327e-08
-1.0715339028e-07
-8.61067774149e-08
8.18020003864e-08
-1.01891942945e-07
-6.0707163387e-08
9.06161229019e-08
-9.42773847427e-08
-3.46382363642e-08
7.02141158251e-08
-8.89367856107e-08
-4.55832805398e-09
-7.40944815163e-08
4.60675997582e-08
1.98159493995e-05
2.25739785392e-05
-1.5926613939e-05
3.50065163286e-05
3.33092396609e-05
-8.83814000526e-06
3.3684703695e-05
5.16825950362e-05
1.19177125396e-05
1.87268796204e-05
6.59111502375e-05
2.97896312696e-05
-1.41988442415e-06
7.34413125148e-05
3.70456778827e-05
-2.21477880043e-05
7.36505452462e-05
3.76224848866e-05
-3.85869878282e-05
6.58271810886e-05
3.1199311006e-05
-4.42592720867e-05
5.10064974339e-05
1.62444767225e-05
-3.79411545368e-05
3.19316487115e-05
-2.37860626007e-07
-2.64201786175e-05
1.66927220299e-05
-8.76437623855e-06
-1.6520355083e-05
7.41246040141e-06
-8.94047703743e-06
-9.90505241413e-06
2.54325578131e-06
-6.47274316386e-06
-6.03282159077e-06
4.15787116784e-07
-4.01621196381e-06
-3.93574129715e-06
-3.33499403042e-07
-2.29959238516e-06
-2.84110424066e-06
-4.90514511894e-07
-1.27456445967e-06
-2.27051940361e-06
-4.41005636562e-07
-7.12317235525e-07
-1.95974171461e-06
-3.49663052458e-07
-4.13132841078e-07
-1.76774351712e-06
-2.62980560933e-07
-2.67773125553e-07
-1.62487974867e-06
-1.98071181229e-07
-2.00330826112e-07
-1.50175946331e-06
-1.51020842684e-07
-1.68485907295e-07
-1.39073215897e-06
-1.16331497978e-07
-1.48047317248e-07
-1.293941506e-06
-9.13781551255e-08
-1.28199549981e-07
-1.21597808779e-06
-7.49877413269e-08
-1.05765142149e-07
-1.15777684883e-06
-6.62966948299e-08
-8.37277356793e-08
-1.11257816788e-06
-6.25247846453e-08
-6.9935472684e-08
-1.06751670189e-06
-6.39489245841e-08
-7.01301199831e-08
-1.01007663761e-06
-6.89285338633e-08
-8.36152686532e-08
-9.31450296585e-07
-7.63093746274e-08
-1.06521140963e-07
-8.23953874131e-07
-8.3910529099e-08
-1.37186075204e-07
-6.87334451712e-07
-9.01465680362e-08
-1.67842177151e-07
-5.29232127528e-07
-9.33226734869e-08
-1.90281689158e-07
-3.66910909196e-07
-9.31345927064e-08
-1.94773896651e-07
-2.20071414076e-07
-9.03500222272e-08
-1.78912630374e-07
-1.00309023965e-07
-8.64048036502e-08
-1.51133853575e-07
-1.12154601543e-08
-8.1956010935e-08
-1.19567024836e-07
4.87815304808e-08
-7.76097571265e-08
-8.95479388804e-08
8.38291848407e-08
-7.32704176904e-08
-6.36736678117e-08
9.44202873302e-08
-6.71456693364e-08
-3.77261347703e-08
7.32440726917e-08
-6.19905773605e-08
-5.77494027303e-09
-5.00761489299e-08
4.92188514839e-08
2.25152913526e-05
1.62307941565e-05
-1.61721036337e-05
3.9009991614e-05
2.35617291301e-05
-6.74719366222e-06
3.72863049577e-05
3.62204469785e-05
1.71858374417e-05
2.07206486122e-05
4.55312199507e-05
3.69455989049e-05
-1.37340533477e-06
5.06004966603e-05
4.49348598345e-05
-2.40277892442e-05
5.07745419887e-05
4.55303878268e-05
-4.20267881256e-05
4.55508751172e-05
3.82753048425e-05
-4.83200019196e-05
3.57808895649e-05
2.15188215108e-05
-4.14881627688e-05
2.26356844661e-05
2.46412894665e-06
-2.87528966843e-05
1.20457837341e-05
-8.08833669383e-06
-1.77842662699e-05
5.46524319396e-06
-9.02143664555e-06
-1.0482038866e-05
1.95202748242e-06
-6.71102788678e-06
-6.24468593735e-06
3.85744745676e-07
-4.20734291737e-06
-3.9844371636e-06
-1.83484899856e-07
-2.41029447307e-06
-2.83059101588e-06
-3.16445317628e-07
-1.32794534449e-06
-2.24636898598e-06
-2.92593366144e-07
-7.32664189955e-07
-1.93653586381e-06
-2.34477201657e-07
-4.25045149597e-07
-1.74986914415e-06
-1.77145901227e-07
-2.72526898473e-07
-1.61174305206e-06
-1.33033443921e-07
-2.03188164796e-07
-1.49206229682e-06
-1.00680105923e-07
-1.7004734013e-07
-1.38364712517e-06
-7.66261689064e-08
-1.48150949932e-07
-1.28911029627e-06
-5.90120291038e-08
-1.26938925744e-07
-1.21308284683e-06
-4.77416306597e-08
-1.03312674354e-07
-1.15633917222e-06
-4.1402799799e-08
-8.16756046171e-08
-1.11239393411e-06
-3.88394774732e-08
-6.7663976816e-08
-1.06832055089e-06
-3.991608874e-08
-6.81337774595e-08
-1.01146826776e-06
-4.33931643393e-08
-8.24101029972e-08
-9.32952365105e-07
-4.85095771851e-08
-1.06334619233e-07
-8.25131808644e-07
-5.37716272287e-08
-1.37976229162e-07
-6.87806372309e-07
-5.79999697389e-08
-1.69487612296e-07
-5.28898230298e-07
-6.00334418526e-08
-1.92212369451e-07
-3.65986562408e-07
-5.96993914768e-08
-1.96361493406e-07
-2.188689926e-07
-5.75865054103e-08
-1.79895056895e-07
-9.90475801554e-08
-5.47326286931e-08
-1.51506211282e-07
-9.96140558516e-09
-5.15764586523e-08
-1.19476089673e-07
5.02043590852e-08
-4.85444378881e-08
-8.92384085237e-08
8.54636299185e-08
-4.55065174973e-08
-6.30275411739e-08
9.66701116487e-08
-4.12476751352e-08
-3.71076354256e-08
7.59488024074e-08
-3.71697211674e-08
-4.10440229141e-09
-2.83624813317e-08
5.42282524519e-08
2.43665911411e-05
8.32636143179e-06
-1.64621563068e-05
4.1712483605e-05
1.19648097493e-05
-5.74897864284e-06
3.97354794186e-05
1.83003026907e-05
1.989715721e-05
2.20523213196e-05
2.27822301629e-05
4.04321536488e-05
-1.33129315728e-06
2.53181147602e-05
4.86659935634e-05
-2.5262469551e-05
2.54227683925e-05
4.92829499456e-05
-4.43214841729e-05
2.28495384923e-05
4.1760352723e-05
-5.10406554985e-05
1.81342218668e-05
2.43658386003e-05
-4.3931463095e-05
1.15388674493e-05
3.98761317336e-06
-3.04004908809e-05
6.20587370184e-06
-7.69106893576e-06
-1.86982002024e-05
2.84666825903e-06
-9.08373824572e-06
-1.09095419478e-05
1.03483281924e-06
-6.8714948673e-06
-6.40770165337e-06
2.18883725457e-07
-4.33501201649e-06
-4.02666228701e-06
-8.13845311402e-08
-2.4831718832e-06
-2.82731274709e-06
-1.53962569293e-07
-1.36186323788e-06
-2.23149112312e-06
-1.44000086882e-07
-7.44445936853e-07
-1.92149910747e-06
-1.15006440071e-07
-4.29490230485e-07
-1.73794167878e-06
-8.67945922522e-08
-2.73935011271e-07
-1.60285784067e-06
-6.46676012142e-08
-2.03474478815e-07
-1.48544776654e-06
-4.84652671212e-08
-1.6965115041e-07
-1.37874182752e-06
-3.63683627322e-08
-1.46994931816e-07
-1.28584894965e-06
-2.74776790131e-08
-1.24464340173e-07
-1.21105337943e-06
-2.18433423886e-08
-1.00734342209e-07
-1.15541367258e-06
-1.87223124493e-08
-7.83594592618e-08
-1.11234205575e-06
-1.74319993408e-08
-6.45134003845e-08
-1.06893739874e-06
-1.79836586797e-08
-6.53651523623e-08
-1.01248147005e-06
-1.97041670812e-08
-8.01676705513e-08
-9.34034390451e-07
-2.21952375774e-08
-1.04780587977e-07
-8.25965190637e-07
-2.47091854395e-08
-1.37148744479e-07
-6.88132434293e-07
-2.66671005239e-08
-1.69181642718e-07
-5.28653735694e-07
-2.74399473466e-08
-1.92087700704e-07
-3.65334936918e-07
-2.70559468342e-08
-1.9597739045e-07
-2.18028651429e-07
-2.58378926036e-08
-1.79069358172e-07
-9.81697396352e-08
-2.43345815256e-08
-1.50269993051e-07
-9.09476162358e-09
-2.27472293995e-08
-1.17914865438e-07
5.11695904491e-08
-2.12798657542e-08
-8.75364074135e-08
8.65373635561e-08
-1.97995636686e-08
-6.10791314686e-08
9.80612654631e-08
-1.76116470906e-08
-3.51630656418e-08
7.74551973965e-08
-1.49535200844e-08
-1.61498306761e-09
-7.90154011188e-09
5.69873421676e-08
2.52891293697e-05
-2.87974848798e-07
-1.66747923513e-05
4.30598591507e-05
-3.43069470105e-07
-5.46285371321e-06
4.09610570326e-05
-4.28448774666e-07
2.08275578709e-05
2.27012051395e-05
-4.7566451195e-07
4.15177433869e-05
-1.30523643198e-06
-5.0670938238e-07
4.98312685232e-05
-2.58610719669e-05
-4.94950320268e-07
5.04735542169e-05
-4.54428273567e-05
-4.51434373292e-07
4.28827277835e-05
-5.23704616994e-05
-3.86633496595e-07
2.54484956494e-05
-4.51523214672e-05
-2.86289958328e-07
4.6070101335e-06
-3.12370873787e-05
-1.81014808768e-07
-7.52835304338e-06
-1.91691688064e-05
-1.00482868e-07
-9.12079170181e-06
-1.1132758963e-05
-4.99516276407e-08
-6.95165655815e-06
-6.4942501771e-06
-2.19525975934e-08
-4.39770609025e-06
-4.05002750323e-06
-7.28505828647e-09
-2.51835508629e-06
-2.82652861085e-06
1.68541697162e-11
-1.37750994879e-06
-2.22427353542e-06
3.46654223761e-09
-7.4975324644e-07
-1.91415581543e-06
4.60828919579e-09
-4.29760821493e-07
-1.73203641806e-06
4.95039697086e-09
-2.73891094916e-07
-1.59843411347e-06
4.7944489169e-09
-2.03089373473e-07
-1.48214602098e-06
4.3141128592e-09
-1.69093936187e-07
-1.3762870372e-06
3.76659234108e-09
-1.46025590297e-07
-1.28423205781e-06
3.2809136823e-09
-1.22851407748e-07
-1.21005828811e-06
2.772335735e-09
-9.88307853827e-08
-1.15496603776e-06
2.42930779222e-09
-7.6283900046e-08
-1.11233141847e-06
2.33539610078e-09
-6.2436855892e-08
-1.06925370774e-06
2.37684182317e-09
-6.34665933577e-08
-1.0129814859e-06
2.56278270664e-09
-7.85621232822e-08
-9.345582851e-07
2.87921982998e-09
-1.03517042225e-07
-8.26352271399e-07
3.29812219624e-09
-1.36230681151e-07
-6.88247034204e-07
3.78790754239e-09
-1.68576600504e-07
-5.28486778531e-07
4.28085892331e-09
-1.91496955136e-07
-3.64977087041e-07
4.65737381283e-09
-1.95238553755e-07
-2.17594221339e-07
4.8534721298e-09
-1.7808905623e-07
-9.77324920817e-08
4.871502863e-09
-1.4908115764e-07
-8.67778947462e-09
4.74847657609e-09
-1.16561296448e-07
5.16153674108e-08
4.50500571294e-09
-8.60856439149e-08
8.70052881592e-08
4.31351463332e-09
-5.95074435366e-08
9.865394375e-08
4.317029848e-09
-3.35804539625e-08
7.79983843496e-08
5.5546024888e-09
1.42599680829e-10
1.18173733773e-08
5.82725627961e-08
2.52776337372e-05
-8.88368814733e-06
-1.66819198836e-05
4.30428922388e-05
-1.26302692092e-05
-5.47805934749e-06
4.09451394478e-05
-1.9137072751e-05
2.08063813817e-05
2.26924828831e-05
-2.37181832736e-05
4.14951720946e-05
-1.303037045e-06
-2.6309451957e-05
4.9798262816e-05
-2.58483524052e-05
-2.63888784468e-05
5.04392434508e-05
-4.54230614362e-05
-2.37288971347e-05
4.28521715939e-05
-5.23467228373e-05
-1.88788957225e-05
2.54159299113e-05
-4.51271039338e-05
-1.20876978546e-05
4.58178600104e-06
-3.12165573372e-05
-6.55210606447e-06
-7.53946247342e-06
-1.91558575029e-05
-3.03877914411e-06
-9.12242718814e-06
-1.11251673915e-05
-1.13049891977e-06
-6.95017439977e-06
-6.4902241025e-06
-2.60956362625e-07
-4.3959731953e-06
-4.04801887815e-06
6.75471409494e-08
-2.51707032495e-06
-2.82558344428e-06
1.54126078484e-07
-1.37657637948e-06
-2.22392086209e-06
1.50945571091e-07
-7.49173308075e-07
-1.91405130201e-06
1.24275888197e-07
-4.29565478791e-07
-1.73206157575e-06
9.67093305265e-08
-2.73775207341e-07
-1.59854136026e-06
7.42129637438e-08
-2.02963575102e-07
-1.48227771231e-06
5.70680536952e-08
-1.69043951813e-07
-1.3764099195e-06
4.39116474675e-08
-1.46044548112e-07
-1.28435253253e-06
3.39842171814e-08
-1.2279869255e-07
-1.21014064499e-06
2.7332190189e-08
-9.88132685155e-08
-1.15499041898e-06
2.35195734479e-08
-7.6280663788e-08
-1.11232135983e-06
2.19931054043e-08
-6.23616802878e-08
-1.06920770825e-06
2.26173322828e-08
-6.33825495558e-08
-1.01290281664e-06
2.46842890998e-08
-7.84493641273e-08
-9.34453615972e-07
2.77914547061e-08
-1.03380852293e-07
-8.26230666978e-07
3.11377972613e-08
-1.36080034529e-07
-6.88126916243e-07
3.40457920448e-08
-1.68378058687e-07
-5.28394077565e-07
3.57744010365e-08
-1.91242343338e-07
-3.6492677669e-07
3.61260966445e-08
-1.9495162875e-07
-2.1758750007e-07
3.52896764395e-08
-1.77790356724e-07
-9.77648456404e-08
3.38073022853e-08
-1.48771826141e-07
-8.74669424456e-09
3.19642354106e-08
-1.16244794381e-07
5.15098365351e-08
2.99971516953e-08
-8.57562489214e-08
8.68722927613e-08
2.81235959392e-08
-5.91768996481e-08
9.84795668328e-08
2.59334721763e-08
-3.32267347542e-08
7.78670119525e-08
2.57083692952e-08
4.54056155732e-10
3.12295106636e-08
5.84480662186e-08
2.4332090477e-05
-1.6734141124e-05
-1.64816374429e-05
4.16613042487e-05
-2.41659717758e-05
-5.79350996786e-06
3.96899778658e-05
-3.69917483286e-05
1.9826015422e-05
2.20287425849e-05
-4.64106264528e-05
4.03536693986e-05
-1.3240437391e-06
-5.15208883706e-05
4.85642227043e-05
-2.52262893523e-05
-5.16639627887e-05
4.91773306884e-05
-4.42647059687e-05
-4.6358067502e-05
4.16675871787e-05
-5.09705493021e-05
-3.64458819286e-05
2.42728310841e-05
-4.38576102865e-05
-2.31167877128e-05
3.91614187965e-06
-3.03406997654e-05
-1.23471419708e-05
-7.72188149601e-06
-1.86595051969e-05
-5.63234074079e-06
-9.08765589405e-06
-1.0887442676e-05
-2.03550116397e-06
-6.86709163275e-06
-6.39598644407e-06
-4.22506414892e-07
-4.32993925052e-06
-4.0207412654e-06
1.71634978232e-07
-2.47936525657e-06
-2.82451744594e-06
3.17041461121e-07
-1.35917023871e-06
-2.23043044778e-06
2.99313342431e-07
-7.42485774454e-07
-1.92120450413e-06
2.43506732774e-07
-4.2848425029e-07
-1.73803205253e-06
1.86955713046e-07
-2.73444614506e-07
-1.60317803842e-06
1.42451751205e-07
-2.03117019389e-07
-1.48583408363e-06
1.09204494261e-07
-1.69506274535e-07
-1.37911485921e-06
8.41601224194e-08
-1.46998974017e-07
-1.28620851243e-06
6.53139875125e-08
-1.24273639482e-07
-1.21130247747e-06
5.29876007108e-08
-1.00602422806e-07
-1.15549935781e-06
4.58612888515e-08
-7.81844805924e-08
-1.11231699246e-06
4.29592821112e-08
-6.41830284414e-08
-1.06880430035e-06
4.41299002936e-08
-6.5053366827e-08
-1.0122500737e-06
4.79397663589e-08
-7.98324513668e-08
-9.33724002034e-07
5.36332976686e-08
-1.04387136206e-07
-8.25608436808e-07
5.96932411719e-08
-1.36688206299e-07
-6.87778653549e-07
6.48187097809e-08
-1.68618853761e-07
-5.28379842625e-07
6.77103574064e-08
-1.91350410817e-07
-3.65185897468e-07
6.80543258584e-08
-1.95137437031e-07
-2.18011540667e-07
6.62794215638e-08
-1.78178635099e-07
-9.82691159698e-08
6.34129664579e-08
-1.49361135966e-07
-9.30257202052e-09
5.99824207903e-08
-1.16995313458e-07
5.0851888041e-08
5.64118384546e-08
-8.65764405272e-08
8.612481735e-08
5.29517261496e-08
-6.01051674024e-08
9.75277209349e-08
4.86345215218e-08
-3.41067357111e-08
7.70273585419e-08
4.68828400632e-08
-6.78620106668e-10
5.08932717511e-08
5.73570016352e-08
2.24585629488e-05
-2.29939019201e-05
-1.6198801113e-05
3.89253249039e-05
-3.38148926856e-05
-6.81784375061e-06
3.72122733467e-05
-5.23322171795e-05
1.70535315048e-05
2.06817464625e-05
-6.66727937238e-05
3.67926862043e-05
-1.35971000004e-06
-7.42383603279e-05
4.47589284232e-05
-2.39674328089e-05
-7.44131363097e-05
4.53568962917e-05
-4.19329746957e-05
-6.65076562288e-05
3.81151341962e-05
-4.82050371367e-05
-5.1545317896e-05
2.13715030185e-05
-4.13704557426e-05
-3.23090394267e-05
2.35766055741e-06
-2.86588766769e-05
-1.6927008848e-05
-8.1317212991e-06
-1.77236045524e-05
-7.54291200106e-06
-9.02472415235e-06
-1.04473467768e-05
-2.60915380739e-06
-6.70263524122e-06
-6.22624988343e-06
-4.44983263325e-07
-4.19865209717e-06
-3.97508867459e-06
3.24504125332e-07
-2.40406134569e-06
-2.82611229677e-06
4.91887698989e-07
-1.3238524325e-06
-2.24461691698e-06
4.47036594774e-07
-7.29248223078e-07
-1.93602801958e-06
3.58059065405e-07
-4.23166993499e-07
-1.75002542018e-06
2.72329814816e-07
-2.71401346101e-07
-1.61226263529e-06
2.071889329e-07
-2.02523214098e-07
-1.49269007871e-06
1.59294012211e-07
-1.6968720946e-07
-1.3843146569e-06
1.23547264277e-07
-1.47792968942e-07
-1.28972466248e-06
9.73101485372e-08
-1.26622666372e-07
-1.21352431964e-06
7.98317693937e-08
-1.03084321864e-07
-1.1565035033e-06
7.02976698523e-08
-8.14957419391e-08
-1.11235261342e-06
6.60899871513e-08
-6.73152401061e-08
-1.06810583933e-06
6.75423010647e-08
-6.76867175837e-08
-1.01109532e-06
7.2801386532e-08
-8.18945130869e-08
-9.3244452732e-07
8.07216697081e-08
-1.05758026794e-07
-8.24551776928e-07
8.90545529257e-08
-1.37270844689e-07
-6.87239526325e-07
9.60721745379e-08
-1.68581329398e-07
-5.28457823161e-07
9.99756736971e-08
-1.9106204174e-07
-3.65749882666e-07
1.00351078919e-07
-1.95019302999e-07
-2.18846129141e-07
9.78529417451e-08
-1.78491171056e-07
-9.92155031564e-08
9.38385073843e-08
-1.50068628846e-07
-1.03131577243e-08
8.90875357454e-08
-1.18017531261e-07
4.96631785276e-08
8.41509697962e-08
-8.77223297169e-08
8.47372628607e-08
7.93559627679e-08
-6.14820689941e-08
9.5743341517e-08
7.30724583272e-08
-3.5446488532e-08
7.49851069926e-08
7.01981653372e-08
-2.56130825055e-09
7.08758862376e-08
5.49961592262e-08
1.97398386171e-05
-2.67817771652e-05
-1.59519608412e-05
3.48881698733e-05
-4.00393991873e-05
-8.9238270929e-06
3.3584859516e-05
-6.27598565292e-05
1.17309545707e-05
1.86789588739e-05
-8.13191583147e-05
2.95522614125e-05
-1.3984204966e-06
-9.09403131638e-05
3.67793321418e-05
-2.20657604451e-05
-9.11108391579e-05
3.73650427945e-05
-3.84590813359e-05