/*--------------------------------*- C++ -*----------------------------------*\
| =========                 |                                                 |
| \\      /  F ield         | OpenFOAM: The Open Source CFD Toolbox           |
|  \\    /   O peration     | Version:  3.0.1                                 |
|   \\  /    A nd           | Web:      www.OpenFOAM.org                      |
|    \\/     M anipulation  |                                                 |
\*---------------------------------------------------------------------------*/
FoamFile
{
    version     2.0;
    format      ascii;
    class       volScalarField;
    location    "3";
    object      k;
}
// * * * * * * * * * * * * * * * * * * * * * * * * * * * * * * * * * * * * * //

dimensions      [0 2 -2 0 0 0 0];

internalField   nonuniform List<scalar> 
15984
(
0.00147914389711
0.00163801878923
0.00170649051958
0.00172307793916
0.00172266030465
0.00172390289452
0.00172950136256
0.00173388883805
0.00173171956341
0.00172254729073
0.00171298043323
0.00170428230014
0.00169666807686
0.00169105233783
0.00168721208624
0.00168472353658
0.0016831614466
0.00168226559608
0.00168176752482
0.00168149269303
0.00168134265201
0.00168126041997
0.0016812185707
0.00168120291577
0.00168120750962
0.00168120898707
0.001681207492
0.00168120601553
0.00168120808984
0.00168119272593
0.00168115294414
0.00168108812511
0.00168101326091
0.0016808812912
0.00168053446057
0.00167921705997
0.00167399379688
0.00165508451997
0.00159632013823
0.001455873683
0.00192931824776
0.00255753553284
0.00281001592729
0.00287041422968
0.00287587730063
0.00288021378775
0.00290424161069
0.00294583555956
0.00297652397556
0.00297570453365
0.00295174901193
0.00292637005742
0.00290670150686
0.00289276995479
0.00288379586097
0.0028782445443
0.00287485122373
0.00287281803007
0.00287171595662
0.00287112068569
0.00287078236202
0.00287058991638
0.00287047947074
0.0028704274189
0.00287040936083
0.00287041199629
0.00287042173752
0.00287045635302
0.00287052645493
0.00287058049412
0.00287058821554
0.00287053683945
0.00287039113628
0.00286985046137
0.0028676503381
0.00285883065458
0.00282733133914
0.00272953109729
0.00246579022318
0.00185946753441
0.00212328100804
0.00314114635155
0.00353306264011
0.00363088589695
0.00364436044617
0.00365565400666
0.00369925592506
0.00377666308675
0.0038403532385
0.00385184707318
0.00382411074177
0.00378742693943
0.0037582144492
0.00373842485631
0.00372593289235
0.00371842287315
0.00371395801578
0.00371131242061
0.00370979555586
0.00370898061089
0.00370851731055
0.00370823751074
0.0037080723435
0.00370799394851
0.00370796320655
0.00370797310789
0.00370802039872
0.00370813024237
0.00370825927451
0.00370835514563
0.00370839670717
0.00370835041878
0.0037080638541
0.00370690701788
0.00370227021645
0.00368487084657
0.00362722328059
0.00346064262563
0.00303357267248
0.00202766038236
0.00221670661963
0.00347165348166
0.00394074275455
0.00405018777412
0.00406390119899
0.00408311488745
0.00415314013865
0.00427971998747
0.00439437979643
0.00443234746357
0.00440706794264
0.00436486641039
0.00432837206726
0.00430368951617
0.00428836265614
0.00427925073772
0.0042739573817
0.00427087818486
0.00426908162989
0.00426808998541
0.00426752544896
0.00426718167775
0.00426696375596
0.00426685724449
0.00426681838949
0.00426684731484
0.00426697091794
0.00426714554702
0.00426732300014
0.00426746382044
0.00426754321874
0.00426746723422
0.0042670052697
0.00426513918631
0.00425789384997
0.00423207165481
0.00415102920353
0.00392845757544
0.00338021888071
0.00210509305947
0.00226494142953
0.00364198114312
0.00413844663473
0.00427496982072
0.00431038699062
0.00434167217521
0.00442397378071
0.00456306796951
0.00474386624329
0.0048218840475
0.00480527851534
0.0047592147639
0.00471709086787
0.00468789559489
0.00467000186839
0.00465945455245
0.00465342122559
0.00464998286527
0.00464799230472
0.00464685389808
0.00464620773871
0.00464581556362
0.00464556616204
0.00464542895778
0.004645389159
0.00464544378242
0.00464563529977
0.0046458488924
0.00464606829846
0.00464624964651
0.00464633827688
0.00464622304156
0.00464557315371
0.00464297652364
0.00463318345414
0.00459962403735
0.00449847239037
0.00423111010073
0.00359376088047
0.00214324379862
0.00228964758201
0.00371152684614
0.00423106759223
0.00440766833608
0.00444622829753
0.00448539590513
0.00458993664247
0.00475941791506
0.00495453854934
0.00507984308541
0.00507603621766
0.0050280221983
0.0049810183362
0.00494769792206
0.0049273382073
0.00491556147276
0.00490885410643
0.00490510443661
0.00490296432167
0.00490171740151
0.00490100567449
0.00490057430349
0.00490030172691
0.00490015272338
0.00490011090987
0.00490018967992
0.00490041690265
0.00490065995812
0.00490091519013
0.00490111972591
0.00490121242241
0.00490105740062
0.00490022441976
0.00489694251439
0.00488485475417
0.00484463762078
0.00472703287742
0.00442506753681
0.00372387981056
0.00216266946688
0.00230125638385
0.00372415143
0.00427804015531
0.00445729580138
0.00449128192853
0.00453663193301
0.00466569068789
0.00487060636384
0.00507439440344
0.00524529792494
0.00525547617575
0.00520691474183
0.00515579938764
0.00511905677936
0.0050965312557
0.0050836571668
0.00507640631616
0.00507239303837
0.00507012304884
0.00506880809824
0.00506804515878
0.0050675807544
0.00506729297517
0.00506713566163
0.00506709509561
0.00506718460207
0.00506743016808
0.00506769620044
0.00506797715695
0.00506819877583
0.00506829423532
0.0050681022533
0.00506710754892
0.00506323689544
0.00504924130447
0.00500367816546
0.00487337117703
0.00454593019439
0.00380082907521
0.00217253916355
0.00230645500604
0.00371362413152
0.00428687929214
0.00446065911892
0.00448643128019
0.00453654376959
0.00468892396304
0.00492606756924
0.00515498296379
0.00534687544887
0.00536904023062
0.00532066074568
0.00526649332629
0.00522703718455
0.00520279427514
0.00518899733103
0.00518137273227
0.00517714321072
0.00517477798355
0.0051734076882
0.00517260762286
0.00517212003047
0.00517181896173
0.005171661338
0.00517162164398
0.0051717085938
0.00517196497903
0.00517224754357
0.00517254530843
0.00517278087128
0.00517287743412
0.00517265478264
0.00517153096772
0.00516720273752
0.00515176007288
0.00510224691619
0.00496283676671
0.00461784005903
0.0038442442036
0.00217740779728
0.0023090763076
0.00370126443263
0.0042816592099
0.00444932396692
0.00446624481042
0.00451967077767
0.00469091805463
0.00495126921164
0.00520188942876
0.0054045256433
0.00543490552274
0.0053868551589
0.0053306825681
0.00528936367381
0.0052639417143
0.00524950807051
0.00524161251331
0.00523725212553
0.00523482319728
0.00523341835474
0.00523259488243
0.0052320883621
0.00523178354057
0.00523162128028
0.00523158402173
0.00523166809262
0.00523192601161
0.00523221908492
0.00523252768537
0.00523277214062
0.0052328689874
0.00523262462444
0.00523141175695
0.00522677470245
0.00521037110073
0.00515828374308
0.00501307389281
0.00465722789427
0.00386687450424
0.00217966647915
0.00231042602189
0.00369488136047
0.00427668622818
0.0044407682195
0.00445142217847
0.0045066637426
0.00468904734639
0.00496103614639
0.00522267494459
0.00543064403027
0.00546495717369
0.00541706542818
0.00535988775496
0.00531762494592
0.00529161029373
0.00527686192304
0.00526881537152
0.00526440138412
0.00526194243272
0.00526052121524
0.00525968666434
0.00525916978083
0.00525886165908
0.00525869796291
0.00525866144442
0.00525874326832
0.00525900022417
0.00525929787869
0.0052596117731
0.00525986123673
0.00525995735281
0.00525970163419
0.00525844340879
0.00525365155461
0.00523677133551
0.00518342176581
0.00503540844271
0.00467442130053
0.00387639032548
0.00218053844058
0.00231050816302
0.00369526146379
0.00427702406167
0.00444115936626
0.00445195210062
0.00450716369243
0.00468939462617
0.00496128089831
0.00522281298849
0.00543076261652
0.00546494202771
0.00541701656708
0.00535984483031
0.00531759514703
0.00529158839952
0.00527684656419
0.00526880637057
0.00526439499636
0.00526193700768
0.0052605171074
0.00525968318301
0.00525916520895
0.00525885678462
0.00525869270634
0.00525865534425
0.00525873668655
0.0052589928785
0.00525929039017
0.00525960421357
0.00525985332556
0.0052599487947
0.00525969259922
0.00525843414313
0.00525364211274
0.00523676187466
0.00518341247661
0.00503539943008
0.00467441313657
0.00387638371724
0.00218053810474
0.00230929479929
0.0037023355573
0.00428262134891
0.00445042210717
0.0044676127856
0.00452097595381
0.00469187525228
0.00495195347625
0.00520228373228
0.00540485468304
0.00543485648577
0.00538671346655
0.00533055775369
0.00528927422873
0.00526387743954
0.0052494601296
0.00524158192897
0.00523723166373
0.00523480728667
0.00523340627111
0.00523258392084
0.00523207436809
0.00523176855
0.00523160483291
0.00523156553918
0.00523164800823
0.00523190436011
0.00523219707484
0.00523250521583
0.00523274897512
0.00523284395025
0.00523259815539
0.00523138449591
0.00522674708539
0.00521034347811
0.00515825649347
0.00501304728923
0.00465720337041
0.00386685460193
0.00217966490188
0.00230674207043
0.00371523716933
0.00428836389439
0.0044623598031
0.00448839855459
0.00453840675789
0.0046903676217
0.00492708727059
0.00515560159134
0.00534730965301
0.00536892292166
0.00532041920061
0.00526628751128
0.00522689182514
0.00520269270208
0.00518891677325
0.00518131975309
0.005177105392
0.00517474993198
0.00517338549738
0.00517258511667
0.00517209639977
0.0051717938635
0.00517163454076
0.00517159200697
0.00517167571792
0.00517192971406
0.00517221184195
0.00517250875437
0.00517274285557
0.00517283691235
0.00517261178331
0.0051714869622
0.00516715809103
0.00515171533745
0.00510220263779
0.00496279315412
0.00461779965947
0.00384421107324
0.00217740375319
0.0023015205455
0.00372603690163
0.00427985887853
0.00445940334128
0.00449362304492
0.0045388318121
0.00466744391844
0.00487185051605
0.00507590481738
0.00524569098502
0.00525524693151
0.00520656967053
0.00515552029354
0.00511885933592
0.00509639132684
0.00508354991511
0.0050763363219
0.00507233851512
0.00507008112811
0.00506877486515
0.00506801165113
0.0050675478011
0.00506725817508
0.00506709931146
0.00506705532562
0.00506714023139
0.00506738367002
0.00506764877224
0.00506792810168
0.00506814831249
0.00506824130882
0.00506804603687
0.00506704964229
0.00506317831709
0.00504918239175
0.00500361959751
0.00487331306064
0.00454587645122
0.00380078477589
0.00217253243655
0.00228979987293
0.00371334595721
0.00423309226059
0.00440993029246
0.00444869684356
0.00448769961447
0.00459180291656
0.00476073134372
0.00495596508496
0.00508003170939
0.00507565863424
0.00502757794679
0.00498067579877
0.00494745535518
0.00492716308369
0.00491544504162
0.00490876743658
0.00490503437926
0.00490290791912
0.00490167240244
0.00490096487686
0.0049005341899
0.0049002599262
0.00490011016911
0.00490006493242
0.00490013917625
0.00490036337636
0.00490060534099
0.00490085841951
0.00490106116286
0.00490115099149
0.00490099341127
0.00490015897842
0.00489687616392
0.00488478775446
0.00484457035592
0.00472696553486
0.00442500545096
0.00372382885277
0.00216265965983
0.00226491989081
0.00364343059969
0.00414147514471
0.00427728419807
0.00431290527274
0.00434399776903
0.00442587072261
0.00456518450083
0.00474480852165
0.00482176333562
0.00480473659124
0.00475869576415
0.00471670345618
0.00468761814088
0.00466980468037
0.00465933369962
0.00465332515772
0.00464990342097
0.00464792922753
0.00464680209843
0.00464616236755
0.00464577208815
0.00464552212983
0.00464538401893
0.00464534176678
0.00464539405402
0.00464558226002
0.00464579442072
0.00464601190444
0.00464619076175
0.00464627648501
0.00464615917693
0.00464550766052
0.00464291095561
0.0046331169941
0.00459955643255
0.00449840374541
0.00423104753685
0.00359370979051
0.00214323264061
0.00221650262722
0.00347252170955
0.00394297767773
0.00405338584731
0.0040674622776
0.00408633768081
0.00415577534159
0.00428121956017
0.00439472820605
0.00443191591682
0.00440641520223
0.00436430085194
0.00432795729758
0.00430339384128
0.00428818777207
0.0042791296938
0.00427386406431
0.00427080177568
0.0042690187862
0.00426803912188
0.00426748156398
0.00426713998575
0.00426692256413
0.00426681587902
0.00426677476889
0.00426680225359
0.0042669251272
0.00426709846494
0.004267274933
0.00426741294166
0.00426749026817
0.00426741235096
0.00426694930462
0.00426508334002
0.00425783692343
0.00423201333409
0.00415096895173
0.0039284033876
0.00338017526985
0.00210508237166
0.00212293548998
0.00314143856628
0.00353435690355
0.00363301218109
0.00364679587965
0.00365782138396
0.00370088708292
0.00377739514799
0.00384020671651
0.0038512276096
0.00382343075957
0.00378687626093
0.00375781354471
0.0037381730133
0.00372577066616
0.0037183156193
0.00371387658741
0.00371124610205
0.00370974405112
0.00370893980457
0.00370848015147
0.00370820384901
0.00370803961965
0.00370796127378
0.00370792796577
0.0037079374059
0.00370798498881
0.00370809656187
0.00370822438481
0.00370831890432
0.00370835912915
0.00370831227374
0.00370802556381
0.00370686912653
0.00370223175318
0.00368483089949
0.00362718062157
0.00346060494905
0.00303354526275
0.00202765599562
0.00192895424386
0.00255742476859
0.00281055441833
0.00287152955493
0.00287722112448
0.00288136650631
0.00290500405013
0.00294600035241
0.00297615527071
0.00297510295138
0.00295117819518
0.00292591146158
0.00290638587924
0.00289257438661
0.00288367479545
0.00287816220075
0.0028747889426
0.00287277307981
0.00287168347214
0.00287109604076
0.00287076263122
0.00287057143156
0.00287046090962
0.00287040855036
0.00287038952865
0.00287039112703
0.00287040148737
0.00287043771862
0.00287050779431
0.00287056113244
0.00287056880441
0.00287051676935
0.00287037117202
0.00286983143261
0.00286763113946
0.0028588109838
0.00282730885241
0.00272950997667
0.00246577917044
0.00185946709621
0.00147899331618
0.00163782954161
0.00170645530672
0.00172323839888
0.00172293086111
0.00172408567487
0.00172952904061
0.00173373061034
0.00173143365945
0.00172223410525
0.00171270830357
0.00170407412397
0.00169652968256
0.00169096738626
0.00168716001676
0.00168468941799
0.00168314397808
0.00168226100905
0.00168177101118
0.00168150177849
0.00168135302813
0.00168127018025
0.00168122869944
0.00168121307122
0.00168121735445
0.00168121853796
0.00168121749772
0.00168121357558
0.00168121319545
0.00168119716341
0.00168115659284
0.00168108972446
0.00168101257856
0.00168088144326
0.00168053480757
0.00167921793712
0.00167399447161
0.00165508545793
0.00159632219899
0.00145588143583
0.00187989221501
0.00248294672436
0.00273899636428
0.00281276277065
0.00282554280978
0.0028328498044
0.00285525924755
0.00288995796325
0.00291753121587
0.002924482153
0.00291609177612
0.00290342613629
0.00289340956667
0.00288642394002
0.00288099629257
0.00287717174427
0.00287463237954
0.00287300310748
0.00287199970212
0.0028713868808
0.00287101391415
0.00287078273016
0.00287064616268
0.00287058516665
0.00287057525865
0.00287060679523
0.00287067111297
0.00287072943842
0.00287077497978
0.00287080374293
0.00287079034535
0.00287071946432
0.00287053674605
0.00286996556688
0.00286773189658
0.00285887623059
0.0028273307013
0.00272951772039
0.00246583143886
0.00185961658483
0.00353475720694
0.00524030100653
0.00590647321256
0.00609114583931
0.0061233331866
0.00615172133195
0.00623687730425
0.00637895726973
0.00651651939762
0.00659094416106
0.00660459975945
0.00659094109908
0.00657102675066
0.00655482291848
0.0065434002477
0.00653595858777
0.0065312727449
0.0065283627475
0.00652656630132
0.00652546733107
0.00652478112314
0.00652434087813
0.00652405681355
0.00652390247158
0.00652385163247
0.00652391673227
0.006524062834
0.00652425563327
0.00652444582735
0.00652461969119
0.00652474017461
0.0065247317368
0.00652429758922
0.00652219793733
0.00651338663073
0.00648046556594
0.00637319322334
0.00606944712293
0.00530857376653
0.00351499154968
0.00411025681286
0.00658341912621
0.00753082229973
0.00781995598384
0.00788593497456
0.00793482435573
0.00805374719341
0.00824566394031
0.00842686567748
0.00852098400073
0.00853270116721
0.00850843126524
0.00847846215821
0.00845486793387
0.0084389841509
0.00842901814196
0.00842294203267
0.00841927329394
0.00841705705163
0.00841571436624
0.00841488063826
0.00841434655785
0.00841399889615
0.00841380913387
0.00841375108911
0.00841382924394
0.00841401107045
0.00841423724608
0.00841447257537
0.00841468573413
0.00841482404137
0.00841473798047
0.00841387118016
0.00840995436382
0.00839448108556
0.00834033542874
0.00817469569812
0.00773116165221
0.00666457500046
0.00406101040672
0.00440345856984
0.00737120024594
0.00851042908393
0.00886885847716
0.00895758285696
0.00902680741987
0.00918583881356
0.00944114266494
0.00968278042273
0.00981127931073
0.00982905337789
0.00979791616285
0.00975953724943
0.00972922516878
0.00970934803777
0.00969715773278
0.00968990768708
0.00968563134201
0.00968309778688
0.00968158469916
0.00968065138554
0.00968005607117
0.00967967150732
0.00967946229814
0.00967940368709
0.00967949200339
0.00967969155819
0.00967994042507
0.00968020829867
0.00968044738692
0.00968058343891
0.00968038747584
0.00967900604972
0.00967308346425
0.00965075667104
0.00957630755086
0.00935887881836
0.00880040852312
0.00750054920972
0.00433545776802
0.00455987330037
0.00781870524141
0.00907854482887
0.00947894423009
0.00957759112116
0.00966563999605
0.00987329415059
0.0102047024072
0.0105208262115
0.0106981795034
0.0107298415216
0.0106951376366
0.0106493999128
0.0106131120139
0.0105895085215
0.0105752529932
0.0105669325509
0.0105621227038
0.0105593181668
0.0105576617739
0.0105566451296
0.0105559997518
0.0105555874299
0.0105553632477
0.0105553064972
0.0105554025827
0.0105556204591
0.0105558968916
0.0105561946192
0.0105564567587
0.0105565827595
0.0105562622881
0.0105543331423
0.0105463783611
0.0105174466605
0.0104244291303
0.0101621747456
0.00950987658382
0.00803209040356
0.0044842124556
0.00464088837942
0.00804616893745
0.00937556139613
0.00977311868765
0.00986943757445
0.0099745665541
0.0102366258018
0.0106579330961
0.0110656568486
0.0113005564255
0.0113517491696
0.011316436374
0.0112646079505
0.0112230080409
0.0111959555003
0.0111798233757
0.0111705318353
0.0111652492532
0.0111622111958
0.0111604273588
0.0111593357888
0.0111586433792
0.0111582058768
0.0111579696258
0.0111579150747
0.0111580183973
0.0111582587462
0.0111585624408
0.0111588882282
0.0111591700097
0.0111592826619
0.0111588356756
0.0111563751687
0.0111465222625
0.0111116517634
0.0110025932003
0.0107032451663
0.00997698389391
0.00836757941587
0.00456725629242
0.00467866057481
0.0081386096445
0.00949182610473
0.0098792968038
0.009966446097
0.0100858626915
0.0104009982139
0.0109071555843
0.0114073201718
0.0116975296013
0.0117701942769
0.0117364195118
0.0116799325225
0.0116338401299
0.0116037862531
0.0115860124947
0.01157589333
0.0115702065713
0.0115669696616
0.0115650797206
0.0115639200095
0.0115631834737
0.0115627215177
0.0115624751277
0.0115624222203
0.0115625357591
0.0115627953954
0.0115631232961
0.0115634739842
0.0115637716673
0.011563869953
0.0115633062847
0.0115603745501
0.0115488872382
0.011509050739
0.0113869866402
0.0110585749985
0.0102766876048
0.00857388006418
0.00461333392822
0.00469363893966
0.00816113109824
0.00951798951016
0.00989257101111
0.00996854895778
0.010098877292
0.0104587880061
0.0110344345743
0.0116103741825
0.0119469743812
0.0120390292123
0.01200776601
0.0119480349589
0.0118984458716
0.0118660100008
0.0118469115743
0.0118361483971
0.0118301432327
0.0118267508165
0.0118247737526
0.0118235571993
0.0118227819405
0.0118222987511
0.011822043484
0.0118219907322
0.0118221154587
0.0118223897403
0.0118227374224
0.011823107894
0.0118234178689
0.011823502767
0.0118228425529
0.0118195330987
0.0118067655377
0.0117631235701
0.011631323521
0.0112817283895
0.010460644008
0.00869527806021
0.00463806603732
0.00469855867739
0.0081576672998
0.00951263419245
0.00987743447083
0.00994437152265
0.0100819273234
0.0104732432302
0.0110952375403
0.0117212704464
0.0120907179714
0.0121970055338
0.0121680622321
0.0121063224048
0.0120543573024
0.0120202841467
0.0120002645669
0.0119890568571
0.011982836121
0.0119793372978
0.0119773001598
0.0119760414822
0.011975236229
0.0119747363772
0.0119744742879
0.0119744207054
0.0119745536369
0.0119748379857
0.0119752000728
0.0119755847206
0.0119759029091
0.011975977376
0.0119752485721
0.0119716769925
0.0119580363603
0.0119118387859
0.0117736083802
0.0114102932716
0.0105644713578
0.00876120175348
0.00465046220838
0.00469992042203
0.00815172687163
0.00950527926162
0.0098655383956
0.00992723140702
0.010068326361
0.0104759459474
0.0111200804358
0.0117703223796
0.0121561169504
0.0122696850433
0.0122420308543
0.0121793240284
0.0121261615705
0.0120912639197
0.0120707786612
0.0120593434325
0.012053017113
0.0120494651781
0.0120473971813
0.0120461154185
0.0120452928821
0.012044783052
0.012044516751
0.012044461636
0.0120445979548
0.0120448880045
0.012045257973
0.0120456504591
0.0120459729767
0.0120460412945
0.0120452764982
0.0120415708322
0.0120274890916
0.0119800128929
0.0118385975774
0.0114685688231
0.010610840775
0.00878981414381
0.00465553632694
0.00470005941565
0.00815238411733
0.00950603668034
0.00986630575075
0.00992810044058
0.0100691612684
0.010476639782
0.0111206616864
0.011770718021
0.0121562660081
0.0122696654897
0.0122419642331
0.0121792640889
0.0121261188469
0.0120912321862
0.0120707546575
0.0120593257177
0.0120530033909
0.0120494534609
0.0120473864353
0.012046104297
0.0120452799327
0.0120447685311
0.0120445007841
0.0120444439995
0.0120445798991
0.0120448698362
0.0120452404786
0.0120456335935
0.0120459560397
0.0120460234164
0.0120452574772
0.0120415509166
0.0120274687354
0.0119799927665
0.0118385784246
0.011468551366
0.0106108257465
0.00878980217274
0.00465553304943
0.00469893942996
0.00815954852675
0.00951486850509
0.00987971157016
0.00994685914592
0.0100843244154
0.010475261676
0.0110969116765
0.0117223972816
0.0120911403244
0.01219694505
0.0121678677324
0.0121061475376
0.0120542297298
0.0120201902093
0.0120001928514
0.0119890039466
0.0119827947119
0.0119793022006
0.0119772679378
0.0119760077146
0.0119751975907
0.0119746930997
0.01197442685
0.0119743689357
0.0119745003303
0.0119747846491
0.0119751486872
0.0119755350226
0.0119758530454
0.0119759248727
0.0119751927571
0.0119716185739
0.0119579767051
0.0119117797422
0.011773552017
0.0114102416558
0.0105644266998
0.00876116632081
0.00465045217541
0.00469417258808
0.00816402165497
0.00952159043202
0.00989632769775
0.00997252298026
0.0101026606677
0.010462030996
0.0110370356987
0.0116119911788
0.0119475534233
0.0120388925396
0.0120074418928
0.0119477499728
0.0118982375859
0.0118658577108
0.011846794132
0.0118360604612
0.011830073011
0.0118266910479
0.01182471829
0.0118234991679
0.0118227180931
0.0118222284365
0.0118219670191
0.0118219076356
0.0118220305803
0.0118223045419
0.0118226550178
0.011823027646
0.0118233371784
0.0118234181629
0.0118227528469
0.0118194395173
0.0118066700383
0.0117630287962
0.0116312325882
0.0112816444451
0.0104605709386
0.00869521968437
0.00463804896809
0.00467922002715
0.00814213546323
0.00949646824357
0.00988433237448
0.00997172605914
0.010090851135
0.0104052692087
0.010910401161
0.011408820646
0.0116980927454
0.0117699342696
0.0117359664863
0.0116795480159
0.0116335592052
0.0116035805745
0.0115858560942
0.0115757737371
0.0115701081461
0.0115668845385
0.0115650008048
0.0115638387315
0.0115630967751
0.0115626278519
0.0115623745016
0.0115623143534
0.0115624252873
0.0115626842535
0.0115630149517
0.0115633676743
0.0115636647223
0.0115637584199
0.0115631886066
0.011560252054
0.0115487624677
0.0115089264714
0.011386866535
0.0110584629692
0.0102765893669
0.00857380103447
0.00461330872479
0.0046413437612
0.00804983758991
0.009380695407
0.00977891103964
0.00987549178864
0.00998025596734
0.0102415151193
0.0106613631997
0.0110675745606
0.0113009644709
0.0113513310035
0.0113158672235
0.0112641410463
0.0112226674252
0.0111957072963
0.0111796393835
0.0111703865092
0.0111651261625
0.0111621032725
0.0111603275193
0.011159235398
0.0111585390338
0.0111580951378
0.0111578524524
0.0111577910347
0.0111578914475
0.0111581304264
0.0111584364447
0.0111587638143
0.0111590445079
0.0111591522624
0.0111586992464
0.0111562338954
0.011146378451
0.0111115079422
0.011002452833
0.010703112525
0.00997686655167
0.00836748447343
0.0045672249765
0.0045601317924
0.0078220277027
0.00908352543295
0.00948479401593
0.00958374140681
0.0096713905846
0.00987816753965
0.0102073100376
0.0105224324844
0.0106983036809
0.0107292616085
0.0106944815409
0.0106488787165
0.0106127323625
0.0105892357558
0.010575054074
0.0105667714344
0.0105619842101
0.0105591958195
0.010557547701
0.0105565328925
0.0105558852702
0.0105554684872
0.0105552396191
0.0105551771071
0.010555269757
0.0105554863776
0.0105557644762
0.0105560632209
0.0105563236516
0.0105564450653
0.0105561192682
0.0105541857911
0.010546228737
0.0105172962712
0.0104242805734
0.0101620320972
0.00950974908109
0.00803198589655
0.00448417661961
0.00440349934481
0.0073738290111
0.00851467781532
0.00887412040481
0.00896302707506
0.00903187611167
0.00919019620941
0.00944384026234
0.00968389633133
0.00981110273325
0.00982835999263
0.00979722055975
0.00975900165325
0.00972883674933
0.00970907846775
0.0096969588575
0.00968974586471
0.0096854911034
0.00968297163608
0.00968146705137
0.00968053680502
0.00967994166599
0.00967955520611
0.00967934409891
0.009679280589
0.00967936564439
0.00967956404707
0.00967981365759
0.00968008201632
0.00968031918854
0.00968045155707
0.00968025138319
0.00967886661513
0.0096729421526
0.00965061379917
0.00957616452869
0.00935873879799
0.00880028169245
0.00750044453456
0.0043354226155
0.00411013437908
0.0065852198326
0.00753405593145
0.0078241744693
0.00789045836214
0.00793899899264
0.00805719718956
0.00824774627288
0.0084274837612
0.00852059899559
0.00853198430925
0.00850776151843
0.00847795265069
0.00845451363502
0.00843873719028
0.0084288366992
0.00842279449104
0.00841914454748
0.00841694070652
0.00841560538938
0.00841477512554
0.00841424248538
0.0084138953588
0.00841370664073
0.00841364517162
0.00841372023534
0.00841390102239
0.00841412707925
0.00841436218746
0.00841457386992
0.00841470973836
0.00841462103122
0.00841375223615
0.0084098340202
0.00839435872123
0.00834021108127
0.00817457085395
0.00773104679999
0.00666448091516
0.00406097895309
0.00353458566277
0.00524130353541
0.00590858254409
0.00609407032192
0.00612656362949
0.00615468266423
0.0062392463042
0.00638030485834
0.00651677097474
0.00659051338175
0.00660397994627
0.00659038383491
0.00657061332625
0.00655454018376
0.00654320318342
0.00653581278346
0.00653115425567
0.00652825989074
0.00652647256405
0.00652537868585
0.00652469504057
0.0065242554434
0.00652397192218
0.0065238185658
0.00652376830814
0.00652382987193
0.00652397623063
0.00652416889691
0.00652435882443
0.00652453252603
0.00652465231113
0.00652464291854
0.00652420781702
0.00652210745189
0.00651329397623
0.00648036996987
0.00637309478487
0.00606935405209
0.00530849885039
0.00351496345656
0.00187975285247
0.00248303524247
0.00273944061474
0.00281355773455
0.00282650288471
0.00283367459329
0.00285579044265
0.00289007382695
0.00291729110573
0.00292408596702
0.00291570787278
0.00290312175075
0.00289319726909
0.00288628318957
0.00288090025709
0.00287710485569
0.00287458225712
0.0028729633738
0.00287196597231
0.0028713555216
0.00287098252256
0.0028707490312
0.00287061083297
0.00287054766735
0.00287053595117
0.00287056564931
0.00287062862415
0.00287068777972
0.00287073384591
0.00287076416866
0.00287075127354
0.0028706812232
0.00287049803585
0.00286992660117
0.0028676916155
0.00285883321475
0.00282728311552
0.00272946954026
0.00246579076708
0.00185960312635
0.00204451683902
0.00301590918357
0.00341925966841
0.00354561528724
0.00357518195713
0.00359064034238
0.00362589788628
0.00368180399532
0.00373187521319
0.00375427147008
0.00375301181475
0.00374255638091
0.00373161519976
0.00372452683508
0.00371920016116
0.00371528701995
0.00371263181215
0.00371091293549
0.00370982105976
0.00370913156858
0.00370869716279
0.00370842304407
0.00370826194282
0.00370818754934
0.00370818447137
0.00370823305636
0.00370832500039
0.00370841881271
0.003708483514
0.00370852399429
0.00370851090896
0.00370840807857
0.00370807130106
0.00370687979732
0.00370219910055
0.00368475482424
0.00362706007946
0.00346051734361
0.00303360249169
0.00202791301334
0.00405230542484
0.00649467298538
0.00742931978075
0.00771664713249
0.00778521812033
0.00783612169505
0.00795510587977
0.00814584060571
0.00833371872141
0.00844571061658
0.00848061677395
0.00847655948992
0.00846073442901
0.00844557299543
0.00843417264963
0.00842655323401
0.00842169438
0.00841866439093
0.00841678314417
0.00841560786591
0.00841486249569
0.00841437723162
0.00841406489291
0.00841388896912
0.00841383808794
0.00841390790874
0.00841406691248
0.00841427437728
0.00841447893475
0.00841466243141
0.00841477311082
0.00841466733044
0.0084137822105
0.0084098494568
0.00839435487579
0.00834018456661
0.00817452343955
0.00773102097905
0.00666456318145
0.00406121179232
0.00480157627683
0.00818287905703
0.00945771172038
0.00988444234837
0.0100036251151
0.0100837281275
0.010241866233
0.0104844819935
0.010716850763
0.0108507740515
0.0108860266446
0.010872579605
0.010846890677
0.0108243042179
0.0108084979755
0.0107983857804
0.010792157479
0.0107883794534
0.0107860895215
0.0107846817288
0.0107837949722
0.0107832207982
0.0107828483976
0.0107826386464
0.0107825775217
0.0107826575924
0.0107828434627
0.0107830789761
0.0107833222731
0.0107835372486
0.0107836453234
0.0107833870878
0.0107817680934
0.0107749549719
0.0107495912512
0.0106659925874
0.0104242617209
0.00980834476883
0.00838151139655
0.00478816021652
0.00520614956817
0.00919526856579
0.0107078038212
0.0112319436045
0.0113898538428
0.0114982710077
0.0116973344571
0.0120028720613
0.0122938919518
0.0124631455787
0.0125068639215
0.0124879731379
0.0124541545438
0.0124251181199
0.0124053733813
0.0123930757694
0.0123856986156
0.0123813296866
0.0123787359227
0.0123771706441
0.0123761926198
0.0123755631972
0.0123751577263
0.0123749310746
0.0123748683408
0.0123749560773
0.0123751552276
0.0123754077399
0.012375673503
0.0123759020018
0.0123759823633
0.0123755283713