/*--------------------------------*- C++ -*----------------------------------*\
| =========                 |                                                 |
| \\      /  F ield         | OpenFOAM: The Open Source CFD Toolbox           |
|  \\    /   O peration     | Version:  3.0.1                                 |
|   \\  /    A nd           | Web:      www.OpenFOAM.org                      |
|    \\/     M anipulation  |                                                 |
\*---------------------------------------------------------------------------*/
FoamFile
{
    version     2.0;
    format      ascii;
    class       volScalarField;
    location    "9.3";
    object      epsilon_0;
}
// * * * * * * * * * * * * * * * * * * * * * * * * * * * * * * * * * * * * * //

dimensions      [0 2 -3 0 0 0 0];

internalField   nonuniform List<scalar> 
7968
(
4.33606839945e-05
5.83222613811e-05
7.08465899024e-05
7.88460901022e-05
8.29970036311e-05
8.41821982327e-05
8.35693756495e-05
8.17377461315e-05
7.95700722239e-05
7.77866265238e-05
7.72933362482e-05
7.8689887432e-05
8.07189936124e-05
8.25360561369e-05
8.32357692641e-05
8.2150480601e-05
7.82113474268e-05
7.0423640735e-05
5.80740196428e-05
4.3235895384e-05
5.8375529513e-05
0.000114566476142
0.000155378340228
0.000178420782376
0.000187507017912
0.000187079765464
0.000181882638125
0.000174631650455
0.000168014665455
0.000163854526392
0.000163143429608
0.000166294313833
0.00017226328376
0.000179227987142
0.00018442387685
0.000184934184233
0.000176286406927
0.000153835488353
0.000113679639434
5.80079564856e-05
7.09358788545e-05
0.00015527228733
0.000215460055281
0.000248942102271
0.000261795116268
0.000260850888925
0.000252907207219
0.000242657627498
0.00023371881895
0.000228264848935
0.000227347678788
0.000231426727587
0.000239443913946
0.000249249500305
0.000257102896493
0.000258200786092
0.000245888606189
0.000213228551719
0.000153979861588
7.0350208929e-05
7.89239568768e-05
0.000178199589742
0.000248790449432
0.000287540409708
0.000301709381333
0.000299861371261
0.000290290276941
0.00027906229074
0.000271157953373
0.000266308388659
0.000265437382094
0.000268983501434
0.000275864031225
0.000286042274338
0.000295422913989
0.000297451853318
0.000283894902451
0.000246088134637
0.000176586857349
7.81517315699e-05
8.30481455331e-05
0.000187211732911
0.000261557065832
0.000301608389613
0.000315124336763
0.000316090080841
0.000313574363015
0.000307051993409
0.000300066063093
0.000295242699992
0.000294275398707
0.000297707680392
0.000303856764293
0.000310095454766
0.000312525568617
0.000310563908833
0.000297574277522
0.000258502731126
0.00018531004195
8.21102316591e-05
8.42365373342e-05
0.00018683660767
0.000260637871874
0.000299729493437
0.000315935596148
0.00032530389148
0.000326032304926
0.000320756693124
0.000313720808204
0.000308501369626
0.000307370513089
0.000311014356449
0.000317251834152
0.000322458216369
0.000322010516958
0.000312693757775
0.000295572255969
0.00025738314088
0.00018474217678
8.31873387735e-05
8.36145531532e-05
0.000181710411357
0.000252786745851
0.000290204760272
0.000313386825226
0.000325983920047
0.000327581095664
0.000321839853
0.000313751504767
0.000307607080832
0.000306252761223
0.000310557514529
0.000317784395222
0.000323568112956
0.000322515478964
0.000310307155661
0.000286133018129
0.000249437009218
0.000179494508744
8.25114817953e-05
8.1801118121e-05
0.000174657770582
0.000242823289743
0.000279104941784
0.000307069380303
0.000320958806012
0.000322139846786
0.000314894600273
0.000304872617456
0.000297323092863
0.000295698363777
0.000301069184861
0.000310122312291
0.000317492447092
0.000317070154568
0.000303909469631
0.000276039554659
0.000239357141074
0.000172352021916
8.06924423557e-05
7.96989512228e-05
0.000168412473197
0.000234432481161
0.00027150635679
0.000300573284177
0.00031456207134
0.000314816532772
0.000305724153956
0.000293638515365
0.000284213431696
0.000282224547587
0.000289154063175
0.000300220943621
0.000309496439811
0.000310186529408
0.000297230837054
0.00026870875512
0.00023079171368
0.000166014220445
7.85982067638e-05
7.80710643104e-05
0.000164759297894
0.000229714771957
0.000267317927126
0.000296531850322
0.000310291346117
0.000309808989109
0.000299482826869
0.000285707229724
0.000274534139113
0.00027217907695
0.00028065089934
0.000293469958572
0.00030401183434
0.00030555031517
0.000292957369537
0.000264417405336
0.000225913574468
0.000162274119554
7.69540507388e-05
7.80143145646e-05
0.000164693258254
0.000229659427042
0.000267266131168
0.000296495097869
0.00031027334786
0.000309809413357
0.000299498653618
0.000285733774241
0.000274565817245
0.000272213522287
0.000280685158269
0.000293496620842
0.000304024287726
0.000305542934654
0.000292925978728
0.00026436096213
0.000225837717528
0.000162179638428
7.68755758177e-05
7.95786052221e-05
0.000168234126702
0.000234269862771
0.000271360155538
0.000300465352538
0.000314501893464
0.000314803470827
0.000305750562516
0.000293694194814
0.000284286184704
0.00028230432097
0.000289229903006
0.000300274250816
0.000309515204959
0.0003101569898
0.000297142775313
0.000268560033723
0.000230597769619
0.000165782412128
7.8438167444e-05
8.16411085556e-05
0.000174376034805
0.000242537026308
0.00027887274467
0.00030687172311
0.000320823251649
0.000322069718856
0.00031488053304
0.000304902437159
0.000297383361639
0.000295768734929
0.000301127301921
0.000310145591544
0.000317468768018
0.000316982151897
0.000303745110652
0.000275798708861
0.000239055243745
0.000172017978944
8.04887171674e-05
8.34385524068e-05
0.000181347206587
0.000252380864112
0.000289851558504
0.000313079425607
0.000325751889149
0.000327425111086
0.000321751699634
0.000313717658104
0.000307608238189
0.000306263633886
0.000310549368578
0.000317736261785
0.000323464769634
0.000322340648447
0.000310051648498
0.00028583487784
0.000249035157047
0.000179090729348
8.22937209703e-05
8.4068022023e-05
0.000186425041252
0.000260138582438
0.000299254345242
0.000315524420313
0.000324981539862
0.000325790455549
0.000320586314261
0.000313611836416
0.000308431432265
0.000307308990106
0.000310927106899
0.00031711591989
0.000322262816913
0.000321740439777
0.000312334044549
0.000295154017867
0.000256890859199
0.000184296909657
8.29823836608e-05
8.28993492072e-05
0.000186779961223
0.000261008910952
0.000301056209651
0.000314612307334
0.000315691338147
0.000313256694375
0.000306805792937
0.000299888959678
0.000295103450934
0.000294140827109
0.000297543342733
0.000303633828953
0.000309805876974
0.000312162537799
0.000310113326393
0.000297050791296
0.000257943154776
0.000184837680122
8.19301053749e-05
7.88141522084e-05
0.000177816593059
0.000248271473125
0.000286993252047
0.000301182172174
0.000299376973465
0.000289864895759
0.000278735691953
0.000270916217537
0.000266098247737
0.000265225128914
0.000268739584336
0.000275550434057
0.000285621745322
0.000294951214904
0.000296928840622
0.000283332509545
0.000245532877977
0.000176155793229
7.8019908206e-05
7.08660013002e-05
0.000154979029403
0.000215043299771
0.00024848123009
0.000261329741347
0.00026040567071
0.000252496670344
0.000242285130495
0.000233370605046
0.00022792170443
0.000226991479206
0.000231046400107
0.000239028767499
0.00024880160718
0.000256624440202
0.000257696463292
0.000245383769344
0.000212762834875
0.000153641167884
7.02686922896e-05
5.83458012307e-05
0.00011440407966
0.000155134101718
0.000178128466078
0.000187176414364
0.000186731573589
0.00018153727729
0.000174295587808
0.000167675260218
0.000163500674065
0.000162768632531
0.000165905061706
0.000171860777254
0.000178819579198
0.000184020926879
0.000184549248645
0.000175944200868
0.000153545862799
0.000113484743196
5.79719450579e-05
4.33535241467e-05
5.82912259272e-05
7.07848538413e-05
7.87517254746e-05
8.28664440942e-05
8.40197005926e-05
8.33855470457e-05
8.15381600642e-05
7.93540322095e-05
7.75537604015e-05
7.70413737809e-05
7.84328105322e-05
8.04646547738e-05
8.22941252045e-05
8.30188491268e-05
8.19708347956e-05
7.80775455627e-05
7.033043255e-05
5.80187907674e-05
4.32185825031e-05
5.70312069817e-05
9.80756064321e-05
0.000133156558755
0.000157012984494
0.000170532775064
0.000176073684991
0.000176418269612
0.000173886173577
0.00017070198759
0.000168429892735
0.000167901731411
0.000169409765526
0.000172147919496
0.000174534711024
0.000174280189359
0.000168962964848
0.000155824275852
0.000132388843227
9.76413841068e-05
5.6762038336e-05
9.83032977696e-05
0.000123651083052
0.000151977725094
0.000172336853465
0.000184426964658
0.000189871991004
0.000190847722756
0.000189282606265
0.000186981640165
0.000185294256566
0.000184967168978
0.000186177075112
0.000188188979632
0.000189638781366
0.000188666680485
0.000183269551031
0.000171276907879
0.000150990476907
0.000122658655642
9.73681735494e-05
0.000133484400728
0.000152217594242
0.000180007330411
0.000200642098806
0.000213064394734
0.000218688157255
0.000219685798272
0.000218051404136
0.000215588991944
0.000213747921915
0.000213415960236
0.000214769147445
0.000216947162147
0.000218469524356
0.000217445230642
0.000211815501132
0.000199382734857
0.000178676454901
0.000150731350887
0.000132021458371
0.000157336639134
0.000172729395779
0.000200807197037
0.000222218583082
0.000235599033852
0.000242301083744
0.000244493440567
0.000243968527617
0.000242276369257
0.000240760990666
0.000240454486549
0.000241529103033
0.000242969263842
0.000243351036724
0.000241038693886
0.00023428352348
0.000220815602034
0.000199221958514
0.000170869364703
0.000155475006399
0.00017083199791
0.000184910144127
0.000213317024924
0.000235670299456
0.000250671167436
0.000260307413074
0.000265235737091
0.000266229759518
0.000265089128016
0.000263697598779
0.000263366942514
0.000264291442099
0.000265196258058
0.000264169932963
0.000259270867067
0.000249460164305
0.000234223448985
0.000211579328161
0.000182787286623
0.000168655447198
0.000176383474087
0.000190416110395
0.00021897615755
0.000242371920641
0.00026028561683
0.000273057923474
0.000279929424343
0.000281823625312
0.000280870234771
0.000279398998124
0.0002790237531
0.000279975782968
0.000280678369981
0.000278783041567
0.00027204701239
0.000259302825003
0.000240982705292
0.000217178695248
0.000188137770948
0.000173984706421
0.000176762033763
0.000191429696506
0.000219986875778
0.000244531751751
0.000265189128394
0.000279912555395
0.000287791175143
0.00028983532039
0.000288543978241
0.000286715182514
0.000286286116948
0.000287539691202
0.000288556675227
0.000286505817027
0.000278811891636
0.000264232634427
0.000243326009646
0.000218185175629
0.000189080883227
0.000174231214879
0.000174347191466
0.000189936540715
0.000218413935698
0.000244036822416
0.000266231491997
0.000281875780016
0.000289913012754
0.000291403663955
0.000289248513393
0.000286888001441
0.000286416234036
0.00028811884909
0.000289982720884
0.000288483054429
0.000280647138217
0.000265214709331
0.000242920154102
0.000216590614302
0.000187560075244
0.000171748468882
0.000171408276284
0.000187787253627
0.000216109103765
0.000242467394344
0.00026524440218
0.000281109532299
0.000288817990246
0.000289440733074
0.000286581359531
0.000283508733718
0.000282936454577
0.000285344810796
0.000287884810541
0.000287243033148
0.000279754925122
0.000264145121792
0.000241326754717
0.000214233385085
0.000185379755629
0.000168757383521
0.000169501727342
0.00018632396855
0.000214509922836
0.000241173525687
0.000264106271519
0.000279931022497
0.000287303184266
0.000287358224545
0.000283851065702
0.00028006185712
0.000279375475089
0.00028246919295
0.000285782677375
0.000285619443298
0.000278481712854
0.000262934070825
0.000239981734268
0.000212583260427
0.000183872835393
0.000166787787275
0.00016943637263
0.000186274514539
0.000214469216174
0.000241137495782
0.000264075401864
0.00027990402289
0.000287277812073
0.000287331209488
0.000283818937908
0.000280023825469
0.000279334750394
0.000282429394647
0.000285745596429
0.000285586365372
0.000278450669317
0.000262901338186
0.00023994290664
0.00021253438363
0.000183805252691
0.000166693720576
0.000171224622984
0.000187646107644
0.000215992654451
0.00024236647767
0.000265158554173
0.000281035068545
0.000288748865076
0.000289368802014
0.000286495206829
0.000283408513964
0.000282829858045
0.000285239729952
0.000287784915987
0.000287153124592
0.00027967045352
0.000264056148828
0.000241222093287
0.000214103098826
0.000185202717137
0.000168518481832
0.00017406404954
0.000189714901677
0.000218227936473
0.000243880457494
0.000266099945229
0.000281765787901
0.000289815948184
0.00029130444035
0.000289133326602
0.000286757438377
0.000286278124281
0.00028798198796
0.000289850389601
0.000288360472078
0.000280526128698
0.000265082288074
0.000242763282867
0.000216395906043
0.000187302136145
0.000171409483899
0.000176419879081
0.000191152376932
0.000219745449111
0.00024432892131
0.000265022598079
0.000279781385531
0.000287686442749
0.000289740920489
0.000288444140516
0.000286605335774
0.000286169688364
0.000287421626943
0.000288439346707
0.000286384517263
0.000278675601806
0.000264070955939
0.000243133016661
0.000217942741556
0.000188773096001
0.000173840058417
0.000176027347174
0.000190114020087
0.000218697827817
0.000242131129119
0.000260089728968
0.000272910080806
0.000279821501811
0.000281741690919
0.000280800212055
0.000279330468542
0.000278951109761
0.000279895452005
0.000280585652761
0.000278668324613
0.00027189965973
0.000259116282144
0.000240758291812
0.000216901256523
0.000187807108602
0.000173583863829
0.000170499734198
0.000184609761773
0.000213019433081
0.000235397030201
0.000250438376905
0.000260129945141
0.000265104942029
0.000266133359471
0.00026501467537
0.000263631264787
0.00026329812818
0.000264211107658
0.000265094883686
0.000264036701983
0.00025909675227
0.000249241181584
0.000233961040631
0.000211275076674
0.000182453667428
0.000168278450013
0.0001570673101
0.000172457494578
0.000200509188105
0.000221923037128
0.000235327987099
0.000242066626354
0.000244302520539
0.000243812335685
0.000242141613669
0.000240633201489
0.00024032324081
0.000241386330672
0.000242805475133
0.000243154682725
0.000240804429665
0.000234013600914
0.000220514476748
0.000198903917023
0.000170558144576
0.000155162780211
0.000133298622308
0.00015198666437
0.000179719686218
0.00020032866801
0.000212750121737
0.000218386978016
0.000219403001082
0.000217784949783
0.000215330022504
0.00021348778123
0.000213148644535
0.000214491978885
0.000216656232115
0.00021816271425
0.000217121707438
0.00021147785924
0.000199042090595
0.000178354812388
0.000150457928194
0.000131799532057
9.82112599342e-05
0.000123466859221
0.000151707612052
0.000172009130483
0.000184065093106
0.000189492973843
0.000190461906817
0.000188893005188
0.000186581751029
0.000184879342126
0.00018453778813
0.000185740399047
0.000187747052335
0.000189196853379
0.000188233146351
0.000182855354362
0.000170899475841
0.000150673279424
0.000122430187738
9.72483189262e-05
5.7018360821e-05
9.79407147217e-05
0.000132922553428
0.000156710023503
0.000170179274478
0.000175686218933
0.000176009797351
0.000173460354169
0.000170250185196
0.000167949624396
0.000167398638048
0.000168900684381
0.000171642444335
0.000174043297953
0.000173815265755
0.000168539578363
0.000155460384023
0.000132103089648
9.74645061325e-05
5.67324054449e-05
7.09153828097e-05
0.000134574593308
0.000189197629199
0.000226695267175
0.000248749399869
0.000259116011654
0.000262067199894
0.000261329664579
0.000259794308205
0.000258767188293
0.000258306128857
0.000258500956394
0.000259366487193
0.000259713521703
0.000256705921663
0.00024655679169
0.000224960058024
0.000188051703798
0.000133938410894
7.0505884937e-05
0.000135045831664
0.000156587987935
0.000189053968074
0.000214343402535
0.00023095019649
0.000240020164669
0.000243660614815
0.000244063748461
0.000243221770709
0.000242421898418
0.000242149202905
0.000242486186038
0.000242998083806
0.000242422691903
0.000238747680305
0.000229706830226
0.000213144122007
0.00018783365112
0.000155186465869
0.000133341927399
0.000189890633651
0.000189507982805
0.000212894553891
0.000233039827598
0.000246967123845
0.000254989221961
0.000258481167463
0.000258980919525
0.000258136764907
0.000257270880961
0.000257028275576
0.000257463564708
0.000258023578613
0.000257396317667
0.000253866105184
0.000245755033794
0.000231657456554
0.000211200152079
0.000187323219546
0.000187201958377
0.000227477119032
0.000215101385053
0.000233381181042
0.000250877353428
0.000264019846839
0.000272649103009
0.000277387221253
0.000278750813003
0.000278340378919
0.000277562119458
0.000277300101753
0.000277647468919
0.000277785750758
0.000276329609102
0.000271637613915
0.000262764449645
0.000249311597801
0.000231301498997
0.00021232061867
0.000224025792672
0.000249640959653
0.000231912353723
0.000247522180532
0.00026421850475
0.000278427643249
0.000288380784829
0.000294043366985
0.000296064236598
0.000295917376673
0.000295187043345
0.00029490105524
0.000295143950631
0.000294923656665
0.000292767814991
0.000287172890119
0.000277176405262
0.000262558006768
0.000245182666725
0.000228692058292
0.000245536010044
0.000260184094792
0.000241124174329
0.00025565334549
0.000272916168374
0.000288473610239
0.000299732055423
0.000306262319362
0.000308637558268
0.00030851340486
0.000307722496419
0.000307423517569
0.000307664566434
0.000307244606543
0.000304555053912
0.000298142479278
0.000287057035223
0.000271338435752
0.000253169379428
0.000237601420059
0.000255541833559
0.000263365775858
0.000244865991754
0.000259203139717
0.000277728798403
0.000294243924642
0.000306459168697
0.000313447183341
0.000315754779133
0.000315344460126
0.000314351513092
0.000314082099277
0.000314527792469
0.0003142108226
0.000311298747266
0.000304351921198
0.000292513043717
0.000275914011567
0.000256607389217
0.000241164332022
0.000258339950218
0.000262936170634
0.000245382192453
0.000259773827301
0.000279197537777
0.000296479622346
0.000309213426275
0.00031619497523
0.00031802493485
0.000317000205602
0.00031561881361
0.000315400496077
0.000316302173642
0.000316504425259
0.000313804541774
0.000306691246116
0.0002944414618
0.00027722847867
0.000257131295731
0.000241604091938
0.000257705864205
0.000261777185501
0.000244707406467
0.000259071078663
0.000278967033879
0.000296619806727
0.000309477854554
0.000316177259494
0.00031735389
0.000315566541539
0.00031364366764
0.000313429818881
0.000314887124027
0.000315872960432
0.000313717156359
0.000306754802349
0.000294382394693
0.000276885709625
0.000256459587486
0.000240891861222
0.000256464274768
0.000261147242449
0.000244114791868
0.000258362705491
0.000278420349864
0.000296178002852
0.00030900282894
0.000315449924742
0.000316171385868
0.000313812907882
0.000311444752224
0.000311208621875
0.000313096697674
0.000314666422463
0.00031296413921
0.00030620609419
0.000293851569715
0.000276277535212
0.000255812676023
0.000240254649855
0.000255771571834
0.000261091763269
0.00024406747086
0.000258327372504
0.000278395759665
0.000296161731429
0.00030899023557
0.000315434714416
0.000316147351102
0.000313775154081
0.000311394750347
0.00031115373804
0.000313044620601
0.000314623972329
0.00031293535398
0.000306188046861
0.000293834369145
0.000276250449817
0.000255765920962
0.000240182040588
0.000255672711213
0.000261590054717
0.000244558480168
0.000258964762723
0.000278896229243
0.000296576694377
0.000309451191751
0.000316151604316
0.000317309796103
0.000315487928068
0.000313534614487
0.000313309196459
0.000314772603042
0.000315780769426
0.000313656180667
0.000306715030401
0.000294338910158
0.000276812521901
0.000256331689656
0.000240690520144
0.00025619168441
0.00026261525233
0.000245137248099
0.000259601576258
0.000279086143291
0.000296420682272
0.000309199361009
0.000316206689195
0.000318027037523
0.000316959442598
0.000315538938487
0.000315306167773
0.000316215771093
0.000316447343847
0.000313775155781
0.000306664400352
0.000294387230592
0.000277120940377
0.000256945386312
0.000241304181295
0.000257301484351
0.000262957222231
0.000244557995304
0.000258980104363
0.000277583303249
0.000294169307633
0.00030645872184
0.000313509973724
0.000315844615633
0.000315421274967
0.000314405671113
0.000314125738158
0.000314576813332
0.000314267890193
0.000311342453369
0.000304351773604
0.000292450024999
0.000275777998157
0.000256377930775
0.000240804811196
0.000257859979565
0.000259754853572
0.000240799218902
0.000255400458876
0.000272739366928
0.000288369643241
0.000299706107263
0.000306315147661
0.000308748699269
0.000308648729759
0.000307859200514
0.000307554567808
0.000307788572688
0.000307348316748
0.000304608024456
0.000298124443471
0.000286965109197
0.000271167802319
0.000252908006049
0.000237220242812
0.000255040003338
0.00024924665508
0.000231605088385
0.000247253004143
0.000264002173595
0.000278275659103
0.000288291412351
0.000294014864076
0.000296090476123
0.000295978699966
0.000295261021433
0.00029497299237
0.000295201650538
0.000294950196288
0.000292741601625
0.000287086919136
0.000277028564058
0.000262345859995
0.000244892955968
0.000228318006563
0.00024505932276
0.000227162812882
0.000214830826355
0.0002331002818
0.000250609442028
0.000263786918873
0.000272465068679
0.000277239976795
0.000278639593896
0.000278255248922
0.000277488154822
0.000277222781905
0.00027755450207
0.000277665701019
0.000276172682129
0.000271441580758
0.000262523398406
0.00024902689849
0.000230980286902
0.000211974127124
0.000223622107005
0.000189683659141
0.000189273294227
0.000212594878421
0.000232703126381
0.000246622121164
0.000254652793484
0.000258157527719
0.000258673696047
0.000257839306707
0.000256978732597
0.000256728049983
0.00025714656636
0.000257683557278
0.000257035248921
0.000253489327474
0.000245366384778
0.000231270742902
0.00021083905662
0.00018701025961
0.000186911156589
0.000134957701709
0.00015637249048
0.000188716984065
0.000213919624099
0.000230468439921
0.000239501439171
0.000243118149607
0.00024350580548
0.000242644140319
0.000241822310851
0.000241530197648
0.000241857690721
0.000242363032445
0.000241792336598
0.000238137647768
0.000229134204769
0.000212634103105
0.000187416846436
0.000154895978513
0.000133187180022
7.09331881039e-05
0.00013435222803
0.000188815949996
0.000226210147957
0.000248192079831
0.000258510219882
0.000261428493632
0.000260664068892
0.000259089365067
0.000258022131555
0.000257529493624
0.000257713287501
0.000258579768245
0.000258947611299
0.000255978970325
0.000245885696622
0.000224371948506
0.000187582606506
0.000133650132413
7.04976415547e-05
8.50733661979e-05
0.000174580826232
0.000249683773423
0.000300929077994
0.000332377770775
0.000349460762834
0.00035775993835
0.000361796491422
0.000364299074139
0.000365724547731
0.000365394317319
0.000363292591906
0.000360066538182
0.000355389914659
0.000346769067618
0.000329768695364
0.000298749350504
0.000248244511156
0.000173908714898
8.45581915593e-05
0.000175444314438
0.000192090968754
0.000230345423965
0.000261502827337
0.000283169214825
0.000296377083413
0.000303340545815
0.000306453989746
0.000307702460207
0.000308118249961
0.000307932776191
0.000307162431335
0.000305608692921
0.000302263216022
0.000295201925618
0.000281971870562
0.000260289011276
0.00022902947979
0.000190410318638
0.000172763741339
0.000250894695623
0.000231015090591
0.000252958404512
0.000274215029
0.000289901369152
0.000299831947495
0.000305073205858
0.000307325997774
0.000308008824168
0.000307909268779
0.000307683217683
0.000307417638399
0.000306470351737
0.000303974591218
0.000298690707448
0.000288671167977
0.000272744821656
0.000251032599342
0.000228287443044
0.000246677148026
0.000302408333774
0.00026260960125
0.000274694637998
0.000290059704929
0.00030294397429
0.000312547917347
0.000317801032176
0.000319741826551
0.000319832305769
0.000319344381216
0.000319027193703
0.000318944433767
0.000318381464646
0.000316208463015
0.000311074526339
0.000301484016702
0.000288271158649
0.000272248676012
0.000259100652821
0.000296880609908
0.000334259694292
0.000284584840069
0.000290693644895
0.000303238395285
0.000315948107721
0.000325244438343
0.000330424509165
0.000332118846119
0.000331868642658
0.000331142467424
0.000330761330929
0.000330725436758
0.000330146337368
0.000327877899101
0.000322805293071
0.000313942093809
0.000301155281889
0.000287829130026
0.000280465489389
0.00032749466408
0.000351834588643
0.000298021117576
0.000300792264595
0.000313005181326
0.000325523251244
0.000334843438165
0.000339811715151
0.000341098211336
0.000340460627281
0.000339531830614
0.000339130871896
0.000339144442496
0.00033853715492
0.000336127972494
0.000330987389012
0.000322430426884
0.000310470639569
0.000297596435823
0.000293423750842
0.000344000319586
0.000360640744446
0.000305140687878
0.000306104574133
0.00031846520919
0.000331250633701
0.000340548420108
0.000345123807464
0.000345812123917
0.000344705303433
0.000343585317027
0.000343244713714
0.000343453538483
0.000342973784957
0.000340541374047
0.000335347026008
0.000326858467157
0.000315248870456
0.000302679339183
0.00030022903501
0.000352059506014
0.000365110167553
0.000308362900685
0.000308361452774
0.000320768377367
0.000333712210982
0.00034285126967
0.000346896502564
0.00034684091992
0.000345165133203
0.000343805693707
0.000343586974533
0.000344202517175
0.000344138088587
0.000341896721831
0.00033675413482
0.000328324600622
0.000316949257724
0.000305047368351
0.000303345140406
0.000356237342724
0.000367919249425
0.000309717149939
0.00030916212373
0.000321250681882
0.00033413740781
0.000343036341907
0.000346548277066
0.000345795762988
0.000343536460331
0.000341866021954
0.000341718136368
0.000342763392024
0.000343338025314
0.000341512250162
0.00033654782624
0.000328223845807
0.000317037605369
0.000305671829558
0.000304671753453
0.00035906223253
0.000369593461426
0.000310254895173
0.000309278528644
0.000321113630407
0.000333895959851
0.000342617720572
0.000345797984192
0.000344612216108
0.000341948925646
0.0003400384989
0.000339922879798
0.000341268482784
0.000342280756984
0.00034079572028
0.000336008869218
0.000327781389665
0.000316708541568
0.000305595745991
0.000305157914471
0.000360748046274
0.00036956012171
0.000310211440701
0.000309247746947
0.00032110292169
0.000333898184263
0.000342625435752
0.000345802167715
0.000344603645225
0.000341922364903
0.000339998391069
0.000339879277725
0.000341231815215
0.000342260916539
0.000340796929897
0.000336023869356
0.000327795611175
0.000316704921451
0.000305558842589
0.000305079642816
0.000360651631093
0.00036777601535
0.000309571934081
0.000309070068211
0.000321221624031
0.000334154761275
0.000343082462152
0.000346600221592
0.000345824500331
0.000343521199462
0.000341817205582
0.000341661512749
0.000342722445372
0.000343338346708
0.000341558662016
0.000336616032654
0.000328275995493
0.000317030638175
0.000305566025699
0.00030444636896
0.000358784530438
0.000364837408414
0.000308118972573
0.000308214839094
0.000320727018206
0.000333768583848
0.000342990122086
0.000347085159226
0.000347025423607
0.000345301144774
0.000343901433326
0.000343674682719
0.000344309811761
0.000344301275149
0.000342092202907
0.000336932095923
0.000328435931364
0.000316945007693
0.000304882583782
0.00030300566168
0.0003558230385
0.00036029094581
0.000304841434116
0.000305916842541
0.000318407225839
0.000331338606795
0.000340783886436
0.000345477179869
0.000346227576829
0.000345125419161
0.000343995647201
0.000343656875254
0.000343885325636
0.000343414415756
0.000340941454009
0.000335646235848
0.000327011221654
0.000315231012658
0.000302477906004
0.00029982284863
0.00035157140498
0.00035149510996
0.000297728197577
0.00030058343409
0.000312910914218
0.000325578133267
0.000335076433851
0.000340209848655
0.000341620790834
0.000341052688367
0.00034015030821
0.000339755623614
0.000339762551605
0.000339111572206
0.000336592358789
0.00033128749533
0.000322539584452
0.000310397339961
0.000297356577724
0.000292999905663
0.000343499242656
0.000333991311616
0.000284338617522
0.000290478992229
0.000303091900718
0.000315902145954
0.000325340708222
0.000330679641586
0.000332510600477
0.000332346224587
0.00033165991222
0.000331288979141
0.000331232189518
0.00033058748497
0.000328183610786
0.000322940738429
0.000313914443827
0.000300997119039
0.000287550558432
0.000280064151826
0.000327032499373
0.000302243188012
0.000262421955093
0.00027447268605
0.000289844748315
0.000302769582962
0.000312435833159
0.000317771599712
0.000319802257152
0.00031995595478
0.000319498618933
0.000319185147054
0.000319080361681
0.000318460957502
0.000316191657436
0.000310954349016
0.000301282210293
0.000288001610519
0.000271926118753
0.000258747961369
0.000296508394589
0.000250846537311
0.000230870541152
0.000252713410248
0.000273908685328
0.000289568293108
0.000299492598189
0.000304743340387
0.000307030710884
0.000307732862966
0.000307632594793
0.000307396825027
0.00030711445953
0.0003061368406
0.000303592199159
0.000298278030199
0.000288244313423
0.000272327474597
0.00025065750925
0.00022798874109
0.000246447199664
0.000175503563887
0.000191943350849
0.000230039703138
0.000261073837827
0.000282637684675
0.000295761797212
0.000302663002801
0.00030573708411
0.000306948216461
0.000307329877357
0.000307115982576
0.000306334131624
0.000304774930218
0.000301440851981
0.000294420686488
0.000281264042933
0.000259690090986
0.000228572888989
0.00019013336125
0.000172698729519
8.51774749391e-05
0.000174345457639
0.000249259854019
0.000300362999171
0.000331698476366
0.000348703611698
0.000356956780252
0.000360967467104
0.000363427362806
0.000364802915561
0.000364425738495
0.000362297176719
0.00035904853165
0.00035437465106
0.000345792040255
0.000328867139757
0.00029797585469
0.000247649187177
0.000173561680901
8.46137374041e-05
0.000101055864059
0.000221823945416
0.000319700952982
0.000387165246426
0.000431577868982
0.000459665616537
0.000477273672936
0.00048900598216
0.000497068890847
0.000501477534578
0.000501297217348
0.000496551496698
0.000487971603796
0.000475484140551
0.000457266470612
0.000429181203761
0.000384942452879
0.000318145545857
0.000221285284665
0.000100512948766
0.000223170319906
0.000230918642265
0.000274642971918
0.000311588608988
0.000338382517578
0.000356133951131
0.000367029911833
0.000373335188161