/*--------------------------------*- C++ -*----------------------------------*\
| =========                 |                                                 |
| \\      /  F ield         | OpenFOAM: The Open Source CFD Toolbox           |
|  \\    /   O peration     | Version:  3.0.1                                 |
|   \\  /    A nd           | Web:      www.OpenFOAM.org                      |
|    \\/     M anipulation  |                                                 |
\*---------------------------------------------------------------------------*/
FoamFile
{
    version     2.0;
    format      ascii;
    class       volScalarField;
    location    "9.3";
    object      epsilon;
}
// * * * * * * * * * * * * * * * * * * * * * * * * * * * * * * * * * * * * * //

dimensions      [0 2 -3 0 0 0 0];

internalField   nonuniform List<scalar> 
7968
(
4.31223251405e-05
5.8018077587e-05
7.0485892557e-05
7.84477067835e-05
8.25757035496e-05
8.37490745349e-05
8.31318850911e-05
8.13004436092e-05
7.91344243086e-05
7.73524627396e-05
7.68573986597e-05
7.82509311877e-05
8.02779637736e-05
8.2095045179e-05
8.2799703472e-05
8.17265268254e-05
7.78111823607e-05
7.00617973843e-05
5.77690911368e-05
4.29969437482e-05
5.80714926051e-05
0.000113971770957
0.000154563232719
0.000177471844642
0.000186490178422
0.000186040612873
0.000180846516026
0.000173609307143
0.000167004684494
0.000162850253643
0.000162136735163
0.00016527900993
0.000171234291947
0.000178185246202
0.00018337894967
0.000183911966997
0.000175333874306
0.000153018133259
0.000113083478726
5.77028230385e-05
7.05751866878e-05
0.000154456635728
0.000214302857236
0.000247579249757
0.000260329669116
0.000259353814622
0.000251418437188
0.00024119076847
0.000232270403602
0.000226824688969
0.000225904783863
0.000229972072099
0.00023796906994
0.000247752418662
0.000255598469493
0.000256729189561
0.000244521789807
0.000212069075692
0.00015316270504
6.99881050695e-05
7.85252985559e-05
0.000177249151652
0.000247426309733
0.000285931932357
0.000299986596699
0.000298113498878
0.000288565035183
0.000277382848475
0.00026950694981
0.000264667598947
0.00026379448866
0.00026732864294
0.000274183926196
0.000284308307169
0.000293666940706
0.000295723043297
0.000282283023347
0.000244722358743
0.000175635321965
7.77516475945e-05
8.26261607601e-05
0.000186192375022
0.000260088837069
0.000299883935697
0.000313295151206
0.000314253065621
0.000311732711415
0.000305224325065
0.000298258020784
0.00029344487134
0.000292475684647
0.000295895636375
0.000302024661011
0.000308247061771
0.000310682431463
0.000308730483994
0.000295846906687
0.000257033583179
0.000184290031038
8.16869153518e-05
8.38025839373e-05
0.000185794638573
0.000259137147469
0.000297978941515
0.000314097548901
0.000323408255344
0.000324121056689
0.000318857519038
0.000311841539482
0.000306634489774
0.000305501905866
0.000309131212787
0.00031534746479
0.000320541025073
0.0003201093454
0.000310851210478
0.000293818166257
0.000255881737126
0.000183699704391
8.27521525798e-05
8.317601051e-05
0.000180671090475
0.000251293888357
0.000288476560671
0.000311543623076
0.000324072132463
0.000325654950585
0.000319932547707
0.000311871230679
0.000305744111087
0.000304388168778
0.00030867362331
0.000315872134148
0.000321636305928
0.000320598238942
0.000308459361508
0.000284400389197
0.000247942982464
0.000178454469916
8.20717097374e-05
8.1362765142e-05
0.000173632374736
0.000241352566615
0.000277415253548
0.000305239385958
0.000319059193135
0.000320232630592
0.000313017193007
0.00030303336534
0.000295507689027
0.000293881224299
0.000299226021043
0.000308239918977
0.000315579481275
0.00031516510893
0.000302077902823
0.000274362160352
0.00023788467238
0.000171325409472
8.02528008302e-05
7.92626091105e-05
0.000167400507259
0.000232981680937
0.000269853180884
0.000298764607061
0.000312683144265
0.000312937004699
0.000303885578488
0.000291849261768
0.000282457041821
0.000280466040046
0.000287360360745
0.000298376781428
0.000307610810167
0.000308301511917
0.000295417642642
0.000267054185032
0.000229338054714
0.000165000377939
7.81604671222e-05
7.76369902489e-05
0.000163754937793
0.000228274488027
0.000265677338005
0.000294735103944
0.000308426171821
0.000307947922016
0.000297669063339
0.000283952093622
0.000272820130026
0.000270462410572
0.000278890885923
0.000291650621996
0.000302144327505
0.000303678545832
0.000291155002229
0.00026277308886
0.000224469968098
0.000161267418003
7.65184579092e-05
7.75805994871e-05
0.000163689471731
0.000228219836088
0.000265626165478
0.000294698975053
0.000308408819351
0.000307949044617
0.000297685689647
0.000283979632805
0.000272853057734
0.000270498192776
0.000278926287708
0.000291678242809
0.000302157650991
0.000303671986485
0.000291124415989
0.000262717457528
0.00022439501261
0.000161173672821
7.64404103325e-05
7.91429418213e-05
0.000167223647053
0.00023282090561
0.000269708615361
0.000298658324652
0.000312624651617
0.000312925723492
0.000303913975791
0.000291907254259
0.00028253250968
0.000280548674662
0.000287438798047
0.000298432409592
0.000307631758629
0.000308274088539
0.000295331685602
0.000266907602666
0.000229146502111
0.000164770458384
7.80012400626e-05
8.12035631665e-05
0.000173352792108
0.000241069108163
0.00027718463964
0.000305044295764
0.000318926280062
0.00032016526114
0.000313006143352
0.000303066544712
0.000295571661966
0.00029395545083
0.000299287812631
0.000308266694792
0.000315559122614
0.000315080341611
0.000301916756908
0.000274124587535
0.000237586376623
0.000170994083442
8.00500601266e-05
8.3000838323e-05
0.000180310378789
0.000250891459146
0.000288127197342
0.000311239655899
0.000323843509541
0.000325502523308
0.000319848223025
0.000311841569539
0.000305749786178
0.000304403715121
0.000308670048438
0.000315828388712
0.000321537178046
0.000320427531062
0.000308208088127
0.000284107120315
0.000247545545984
0.000178053865764
8.18549742611e-05
8.36348014995e-05
0.000185385611518
0.000258641569557
0.000297508231548
0.00031369041923
0.00032308984418
0.000323883329802
0.000318691563397
0.000311737308586
0.000306569580154
0.000305445561773
0.000309049102963
0.000315216580089
0.000320350460056
0.000319844001157
0.000310496460289
0.000293405507322
0.000255394213972
0.000183257693507
8.25481291339e-05
8.24779396725e-05
0.000185762958236
0.000259544191306
0.000299336108261
0.000312788196854
0.000313858694612
0.000311419609857
0.0003049831488
0.000298085969598
0.000293310860626
0.000292346491672
0.000295736733132
0.000301807311518
0.000307962837772
0.00031032470082
0.000308286122179
0.000295328998343
0.000256478580848
0.000183820725625
8.15075545319e-05
7.84158612916e-05
0.000176867961897
0.000246910138727
0.000285388404084
0.000299463828545
0.000297634289976
0.000288145355254
0.00027706255099
0.000269270407127
0.000264462645577
0.000263587556007
0.000267090235021
0.000273876571942
0.000283894392115
0.000293201592105
0.000295205748297
0.000281725482942
0.000244170919188
0.000175206715025
7.76203499191e-05
7.05054882134e-05
0.000154164467737
0.000213887871537
0.000247120811479
0.00025986746623
0.000258912478148
0.000251012369375
0.000240823259656
0.00023192763566
0.00022648735852
0.000225554566414
0.000229597661743
0.000237559647899
0.000247309935084
0.000255124997527
0.000256229188191
0.000244020440201
0.000211605981433
0.000152825641379
6.99068805021e-05
5.80418022418e-05
0.000113809734496
0.000154319621153
0.000177180541892
0.00018616115499
0.0001856945535
0.000180503729763
0.000173276219741
0.000166668655873
0.000162500084609
0.000161765755139
0.000164893494611
0.000170835294763
0.00017778005107
0.000182978847108
0.000183529346916
0.000174993355254
0.000152729678688
0.000112889263417
5.7666893873e-05
4.311515958e-05
5.79870366697e-05
7.04241526845e-05
7.8353401751e-05
8.24453590381e-05
8.35869953977e-05
8.29486586842e-05
8.1101646366e-05
7.89193456678e-05
7.71207011318e-05
7.66066112456e-05
7.79949459749e-05
8.0024576993e-05
8.18538904635e-05
8.25833794712e-05
8.15472626891e-05
7.76775740384e-05
6.99686729492e-05
5.77138886398e-05
4.2979614971e-05
5.67458387677e-05
9.75728135127e-05
0.000132467600229
0.000156194234212
0.000169633246546
0.000175131128911
0.000175458358881
0.000172924000102
0.000169743072097
0.000167473603788
0.000166943734113
0.000168446810039
0.000171180585061
0.000173569652613
0.000173333144402
0.000168059783422
0.000155002962133
0.000131698278912
9.71374118349e-05
5.64753913561e-05
9.78010796033e-05
0.000123010648767
0.00015117468042
0.000171413427829
0.000183425461371
0.0001888259836
0.000189780321413
0.000188207787268
0.000185905507176
0.00018421805647
0.000183889805986
0.000185098295516
0.000187110850063
0.000188568091041
0.00018761771557
0.000182265468149
0.000170351287217
0.000150185387673
0.000122015951138
9.68635767434e-05
0.000132796128861
0.000151415099881
0.000179031095539
0.000199534201102
0.000211871616748
0.000217448642338
0.000218425727114
0.000216785367495
0.000214322921682
0.000212482652176
0.000212149689108
0.000213500770825
0.000215678265462
0.000217206648155
0.000216203216824
0.000210620510448
0.00019827281762
0.000177697948218
0.000149925915213
0.000131330006243
0.000156518278874
0.00017180672543
0.00019969957071
0.000220969767764
0.000234260096778
0.000240913732235
0.000243086467686
0.000242555351353
0.000240862544921
0.000239347509456
0.000239040118636
0.000240113443001
0.000241554315485
0.00024194195783
0.000239649117101
0.000232942752118
0.000219564926691
0.000198112011568
0.000169943468215
0.000154653096071
0.000169932480657
0.000183909370891
0.000212124426236
0.000234331235584
0.000249237823307
0.000258819237852
0.000263714565748
0.000264693855559
0.000263549413824
0.000262157436154
0.000261825881649
0.000262749859242
0.000263658401009
0.000262646938152
0.000257781354865
0.00024802747016
0.000232882867838
0.000210384525376
0.000181783202942
0.000167752198643
0.000175440780432
0.000189370761279
0.000217736610809
0.000240984214219
0.000258797203651
0.000271497221723
0.000278325018615
0.000280198941524
0.000279239670159
0.000277767696056
0.00027739150311
0.000278343306788
0.000279051837595
0.000277177274691
0.000270485229118
0.000257813502869
0.000239593431019
0.000215937071372
0.000187089065785
0.000173038026495
0.000175801984543
0.000190362864185
0.000218726608729
0.000243124296502
0.000263667495486
0.000278307804826
0.000286136065293
0.000288157474779
0.00028686046195
0.000285031713881
0.000284601668219
0.000285854436035
0.00028687760875
0.0002848501837
0.000277206587249
0.000262710073687
0.000241917281674
0.000216922802918
0.000188010593314
0.00017326677175
0.000173385329629
0.000188862438886
0.00021714775657
0.000242622736394
0.000264695068706
0.000280250466044
0.000288234518988
0.00028970305195
0.000287544552356
0.000285185145052
0.000284712353727
0.000286413114614
0.000288281509412
0.000286804860058
0.000279021665129
0.000263677557668
0.000241505727844
0.000215322167966
0.000186482254659
0.000170781604583
0.00017045084216
0.000186712493361
0.00021484342894
0.000241053618977
0.000263704683212
0.000279478392157
0.000287133344872
0.00028773617304
0.000284875577617
0.000281807348792
0.000281233915482
0.000283637500893
0.000286179945713
0.000285559154579
0.000278123636859
0.00026260404434
0.000239911299497
0.000212965383299
0.000184300896298
0.000167794217617
0.000168548681428
0.000185250229901
0.000213245783822
0.000239760977253
0.000262566945539
0.000278299764102
0.000285618836206
0.000285654519678
0.000282149564288
0.00027836787975
0.000277680140696
0.000280766340437
0.000284079591231
0.000283936004199
0.000276850158189
0.00026139298039
0.000238567054821
0.0002113168283
0.00018279468307
0.000165828416019
0.000168483860643
0.00018520109261
0.00021320536125
0.000239725195357
0.00026253632634
0.00027827304062
0.000285593797957
0.00028562790973
0.000282117899468
0.000278330384936
0.000277639977491
0.000280727050199
0.000284042957133
0.000283903325979
0.000276819451933
0.000261360548996
0.000238528527229
0.000211268306887
0.000182727508516
0.000165734972249
0.000170268530295
0.000186572181446
0.000214727747689
0.000240953380053
0.000263619520846
0.000279404660337
0.000287065050902
0.000287665183708
0.00028479041157
0.000281708185956
0.000281128429856
0.00028353352154
0.00028608112447
0.000285470261083
0.000278040054531
0.000262515888239
0.000239807460053
0.000212836058387
0.000184124918847
0.000167556882093
0.000173104052442
0.00018864197734
0.000216962889225
0.000242467321051
0.00026456452863
0.000280141511258
0.000288138543258
0.000289604996976
0.000287430583998
0.000285055800859
0.000284575545944
0.000286277672023
0.000288150683162
0.000286683691547
0.000278901928797
0.000263546339434
0.000241350095027
0.000215128898008
0.000186225833129
0.000170444817056
0.000175461951088
0.00019008689931
0.000218486546292
0.0002429227814
0.000263502189013
0.000278177828283
0.000286032529384
0.000288064300156
0.000286761910018
0.000284923270945
0.000284486809042
0.000285738077269
0.00028676201267
0.000284730513242
0.000277071809519
0.000262549893813
0.000241725915188
0.000216682108706
0.000187704549808
0.000172878107515
0.000175086779795
0.000189070069619
0.000217459769732
0.000240745004658
0.000258602753545
0.000271350717718
0.000278218426087
0.000280118409635
0.000279171177068
0.000277700851507
0.000277320684833
0.000278264862972
0.00027896096844
0.00027706429747
0.000270339557558
0.00025762871379
0.000239370982623
0.000215661525021
0.000186760183408
0.00017263966567
0.000169602141417
0.000183610331079
0.000211828338912
0.000234059668013
0.000249006820506
0.000258643392029
0.000263585376904
0.000264599160876
0.000263476771245
0.00026209304153
0.000261759105196
0.000262671582337
0.000263559058202
0.000262515653676
0.000257609187486
0.000247810585292
0.000232622567726
0.000210082177681
0.00018145127267
0.000167377443504
0.000156250459947
0.000171535977899
0.00019940295831
0.000220675888857
0.000233990947504
0.000240681321429
0.000242897591528
0.000242401287252
0.00024072995085
0.000239221991509
0.000238911218875
0.00023997301927
0.000241392888337
0.00024174796912
0.000239417276683
0.000232675136649
0.000219265882174
0.000197795732275
0.000169633688909
0.000154342624179
0.000132611364346
0.000151185087478
0.000178744665983
0.000199222297101
0.000211559179585
0.000217149582818
0.000218145290067
0.000216521506506
0.000214066774195
0.000212225535558
0.000211885477411
0.000213226652435
0.000215390242072
0.000216902565032
0.00021588221086
0.000210285106826
0.00019793406832
0.000177377817829
0.000149653618428
0.000131109249296
9.77095679839e-05
0.000122827105139
0.000150905547382
0.000171087019966
0.000183065270437
0.00018844899842
0.000189396852377
0.0001878208247
0.0001855085315
0.000183806258855
0.000183463630548
0.000184664766098
0.000186671895395
0.00018812887627
0.000187186577332
0.000181853295222
0.000169975464458
0.000149869386849
0.000121788284867
9.67442919814e-05
5.67331339402e-05
9.7438393796e-05
0.000132234337303
0.000155892276754
0.000169281092936
0.000174745385342
0.000175051964528
0.000172500599613
0.000169294002656
0.00016699629792
0.000166443689538
0.000167940689893
0.000170677850271
0.000173080664332
0.00017287028524
0.000167638056897
0.000154640324159
0.000131413431146
9.69610680693e-05
5.64458570149e-05
7.05973436488e-05
0.000133935495897
0.000188275973255
0.000225569574963
0.000247491857357
0.000257783706535
0.000260700721477
0.000259954415165
0.000258421253019
0.000257397312179
0.000256935240163
0.000257124889769
0.00025798633613
0.000258341106342
0.000255367691735
0.000245294166465
0.000223830365362
0.000187127302179
0.000133297551597
7.01857446082e-05
0.000134408131266
0.00015582019919
0.000188103248785
0.000213247149125
0.000229751206037
0.000238755178966
0.000242357607856
0.000242742079214
0.000241892555502
0.000241090287704
0.000240816742426
0.000241154687165
0.000241673209149
0.000241116262316
0.00023747959543
0.000228505138374
0.000212045383193
0.000186880407586
0.000154415693078
0.000132699541841
0.000188970763974
0.000188558329041
0.000211789546537
0.00023180188051
0.000245633910388
0.000253595146738
0.000257051524253
0.000257534348043
0.000256683389513
0.000255819811538
0.000255577068153
0.000256011063881
0.00025657456829
0.00025596396336
0.000252469776574
0.000244419826549
0.000230417398037
0.000210092246505
0.000186369525951
0.000186275579527
0.000226353273851
0.000214006910407
0.000232144019667
0.000249513813041
0.00026256579401
0.000271139401891
0.000275839375661
0.000277183945199
0.000276765488631
0.000275984684495
0.000275721971712
0.000276070752304
0.000276216439074
0.000274779244873
0.000270126090872
0.000261308377219
0.000247945950491
0.000230061189134
0.000211221285532
0.000222894094877
0.00024838555476
0.000230715534035
0.000246189988367
0.00026276463991
0.000276885005716
0.000286774093773
0.000292395852938
0.000294394557071
0.000294237817931
0.000293503801704
0.00029321692897
0.000293462248864
0.000293251358558
0.00029111764723
0.000285563591211
0.000275630028763
0.000261101914691
0.000243847155823
0.000227489751278
0.000244271440505
0.000258854423629
0.000239861551226
0.000254260184913
0.000271406614112
0.000286866822871
0.000298054965514
0.000304539198766
0.000306888967561
0.000306753467035
0.000305958431569
0.000305658516491
0.000305902545324
0.000305494026626
0.000302830263504
0.000296463185156
0.000285447520339
0.000269826644569
0.000251772767632
0.00023633267474
0.00025420156296
0.000262002867607
0.000243565511064
0.000257774250834
0.000276180965975
0.000292596321117
0.000304735613369
0.000311672619572
0.000313952063283
0.000313529825015
0.000312532971781
0.000312262681785
0.00031271174832
0.00031240792945
0.000309524753844
0.000302627349167
0.000290862458395
0.000274363154147
0.00025517472641
0.000239856941947
0.000256964793533
0.000261565981506
0.000244063533017
0.000258327990205
0.000277630982256
0.000294810137256
0.000307463623591
0.000314390649852
0.000316191297199
0.000315155349438
0.000313770952089
0.000313551709566
0.000314456365233
0.000314672368928
0.000312003123442
0.000304941706377
0.000292768693011
0.000275658410574
0.00025568197945
0.000240277656381
0.000256321762281
0.000260411239388
0.000243382301183
0.000257619153377
0.000277393345567
0.000294941063651
0.000307716322859
0.000314359593551
0.000315507591233
0.000313711438642
0.000311787487088
0.000311572563701
0.000313031191252
0.000314029180974
0.000311903874675
0.00030499420662
0.000292699950163
0.00027530811645
0.000255009344022
0.000239558128764
0.000255082837947
0.000259786554427
0.000242788467175
0.000256909303543
0.000276844709666
0.000294496488841
0.000307237669682
0.000313628262206
0.000314322035761
0.000311956667387
0.000309588973697
0.000309351568025
0.000311239568131
0.000312819980168
0.00031114742686
0.000304442046512
0.000292166127078
0.000274697923377
0.000254362288967
0.000238919122083
0.000254394322426
0.000259731798003
0.000242741507301
0.000256874225501
0.000276820316285
0.000294480386126
0.000307225249495
0.000313613291069
0.000314298305438
0.000311919264872
0.000309539335578
0.000309297043682
0.000311187845066
0.000312777876925
0.000311118939774
0.000304424248982
0.00029214916483
0.000274671089838
0.000254315825597
0.000238846989557
0.000254296319972
0.000260226078285
0.00024323436502
0.00025751355676
0.000277323123888
0.000294898458351
0.00030769014246
0.000314334501126
0.00031546414913
0.000313633487147
0.000311679066393
0.000311452562019
0.000312917387358
0.000313937835982
0.000311843696674
0.000304955138351
0.000292657155863
0.000275235648884
0.000254882245864
0.000239358041656
0.000254812517121
0.000261247933723
0.000243819977004
0.000258156790704
0.000277520454691
0.000294751954461
0.000307450193678
0.000314402908597
0.000316193929893
0.000315115126431
0.000313691621914
0.000313457960528
0.000314370693537
0.00031461629397
0.000311974804689
0.000304915871121
0.00029271548184
0.000275551988301
0.000255497432871
0.000239979539508
0.000255920708346
0.00026159769996
0.000243259096428
0.000257552471565
0.000276036508682
0.000292522611145
0.000304735905448
0.000311735914002
0.000314042221517
0.000313606894554
0.000312587453989
0.000312306901434
0.000312761736315
0.000312466200599
0.000309569705607
0.000302628432917
0.000290800700406
0.000274228509106
0.000254946895691
0.000239499418402
0.000256488681924
0.000258428726074
0.000239538235303
0.000254008645865
0.000271230967965
0.000286763930075
0.000298029987285
0.000304592871635
0.000307000931162
0.000306889728935
0.000306096249493
0.000305790914183
0.000306028103173
0.000305599317383
0.000302884750868
0.000296446616021
0.000285357043422
0.0002696574692
0.000251513079925
0.000235953452601
0.000253703648878
0.000247994620186
0.000230409866197
0.000245922249094
0.000262549762209
0.000276734352886
0.000286686080856
0.000292368802996
0.000294422430507
0.000294300975595
0.000293579804816
0.000293291051808
0.000293522191456
0.000293280057491
0.000291093372242
0.000285479371401
0.00027548388884
0.000260891497485
0.000243559140317
0.000227117473717
0.000243798334777
0.000226041842959
0.000213737827802
0.000231864596271
0.000249247536607
0.000262334618062
0.000270957106015
0.000275694107308
0.000277074992512
0.000276682863398
0.000275913442595
0.000275647475791
0.000275980584478
0.000276099035931
0.000274624687305
0.000269932084314
0.000261069362684
0.000247663122613
0.000229741606914
0.000210876319177
0.00022249333854
0.000188765964157
0.000188325002048
0.000211491374389
0.000231466960776
0.000245290955121
0.000253261033234
0.000256730548451
0.000257230152366
0.000256389273797
0.00025553126667
0.000255280508374
0.00025569786892
0.000256237946583
0.000255605935763
0.000252095624647
0.000244033465234
0.00023003261613
0.00020973270262
0.000186057889766
0.000185986906861
0.000134321378364
0.000155605964642
0.000187767874629
0.000212825320656
0.000229271769793
0.000238239156009
0.000241818264237
0.000242187688789
0.000241318859395
0.000240494896799
0.000240202047157
0.00024053043696
0.000241042138437
0.000240489432548
0.000236872561737
0.000227934998282
0.000211537380481
0.000186465198451
0.000154126399773
0.000132546078858
7.0615584402e-05
0.000133714243639
0.00018789593512
0.000225086491432
0.000246937060411
0.000257180989046
0.000260065662013
0.000259293007044
0.000257720967753
0.000256657215145
0.000256163682721
0.000256342209836
0.000257204273576
0.000257579291712
0.000254644175661
0.000244625818285
0.000223244404863
0.000186659859297
0.000133010355927
7.01777739737e-05
8.47332635093e-05
0.000173825996712
0.00024856208464
0.000299541302885
0.000330814864515
0.000347794848377
0.000356043083378
0.000360062153349
0.000362561146402
0.000363985810846
0.000363654332555
0.00036155188013
0.000358327323701
0.000353666300105
0.000345095231202
0.00032819909999
0.000297355802062
0.00024711762226
0.000173150134443
8.42150674259e-05
0.000174691377023
0.000191207151975
0.000229252865703
0.000260240082302
0.000281782075374
0.000294906016177
0.000301818122158
0.000304904489981
0.000306140383713
0.000306551055034
0.000306365009625
0.000305598991571
0.00030405750637
0.000300738578095
0.000293728676605
0.000280582885319
0.000259024177051
0.000227934190423
0.00018952281902
0.000172003664996
0.000249775715361
0.000229924070347
0.000251709746772
0.000272825009047
0.000288405313501
0.000298263875831
0.000303462404332
0.000305699471087
0.000306372185293
0.000306263755259
0.000306036604367
0.000305777045068
0.000304842543836
0.00030236100847
0.000297120261742
0.000287173506808
0.000271353224805
0.000249781453995
0.000227191959784
0.000245547920586
0.000301024435262
0.000261349577471
0.000273305743828
0.000288547359995
0.000301339242373
0.000310879201712
0.000316091179547
0.000318009736995
0.000318089318494
0.00031759643382
0.000317278268327
0.000317199021063
0.000316646335331
0.000314495022447
0.00030940255829
0.000299878850084
0.000286756773468
0.000270856803519
0.000257835417418
0.000295483604134
0.000332702398617
0.000283201339508
0.000289199120001
0.000301633926685
0.000314256996851
0.00032348973159
0.000328627949014
0.000330298509648
0.000330036622072
0.00032930538665
0.000328923097791
0.000328890612824
0.000328322654975
0.000326078015476
0.000321047032285
0.000312247097196
0.000299550475367
0.000286330823507
0.000279075606843
0.000325921438073
0.000350175031921
0.000296554226261
0.000299225578797
0.000311336588346
0.000323768105528
0.000333022921538
0.00033794788731
0.000339209890616
0.00033856038276
0.000337626402185
0.000337224133222
0.000337241170597
0.000336646277087
0.000334262710487
0.000329164662113
0.000320671105534
0.00030879725561
0.000296024757124
0.00029194872281
0.000342321502964
0.000358932282821
0.000303622901717
0.000304494671119
0.000316754937708
0.000329452888024
0.000338682618935
0.000343212683064
0.000343875519831
0.000342756904772
0.000341631885988
0.000341289932799
0.000341502618762
0.00034103677443
0.000338631899354
0.000333481366887
0.000325056511617
0.000313532513558
0.000301063520243
0.00029870094798
0.00035032827561
0.000363386181483
0.000306818743736
0.000306735366052
0.000319036264557
0.000331890316876
0.000340958700502
0.000344956689905
0.000344875296892
0.000343188072413
0.000341823655821
0.000341603285559
0.00034222273936
0.000342173260812
0.000339960939662
0.000334863217426
0.000326497968271
0.000315209573359
0.000303415396307
0.000301788506656
0.000354487351545
0.000366193990438
0.000308161948164
0.000307528368246
0.000319509020552
0.000332304197337
0.000341130910864
0.000344594919965
0.000343817720293
0.000341548588964
0.000339874055597
0.000339724145788
0.000340772164869
0.000341360485335
0.000339563551284
0.000334644209566
0.000326384705639
0.000315285211984
0.000304022167738
0.000303100729226
0.000357307507587
0.0003678698112
0.000308696180753
0.000307641801489
0.000319368622501
0.000332058756038
0.000340707870338
0.000343840258072
0.000342630832299
0.00033995902857
0.000338045243454
0.000337927254245
0.000339274657146
0.000340299502861
0.000338842640168
0.000334100646529
0.000325937565265
0.000314951022868
0.000303939480351
0.000303581105988
0.000358992328045
0.000367837221978
0.000308653060303
0.000307611198284
0.000319358049154
0.000332061062991
0.000340715664068
0.000343844638288
0.000342622614902
0.000339932945806
0.000338005661012
0.000337884175485
0.000339238505977
0.000340280158897
0.000338844264809
0.00033411598881
0.00032595211225
0.00031494772727
0.000303902955421
0.000303503374172
0.000358896942281
0.000366052943344
0.000308017684846
0.000307436861103
0.000319480433891
0.000332321815694
0.000341177196306
0.00034464721511
0.000343847140892
0.000341534319979
0.000339826344355
0.000339668614828
0.000340732406142
0.000341362097967
0.000339611113839
0.000334713389757
0.000326437803178
0.000315279146656
0.000303917398167
0.000302876723406
0.000357032568048
0.000363116683489
0.000306576098679
0.000306589549573
0.000318995609454
0.000331947070541
0.00034109758531
0.000345145286488
0.000345060110953
0.00034332496526
0.000341920554761
0.000341692234283
0.000342331424242
0.00034233802325
0.00034015793193
0.000335042484108
0.000326610547293
0.00031520659152
0.000303251928839
0.000301450874982
0.000354077091718
0.00035858642444
0.000303325046671
0.000304308094408
0.000316697780959
0.000329541270313
0.00033891800411
0.00034356563315
0.000344290635973
0.00034317710643
0.000342042704463
0.000341703049206
0.000341935895783
0.000341479000339
0.000339033435184
0.000333781922118
0.000325210608132
0.000313516120394
0.00030086371609
0.000298296581918
0.000349844719371
0.000349839742165
0.00029626271891
0.000299017897119
0.000311243277393
0.000323823583723
0.00033325609741
0.000338345909233
0.000339732547027
0.000339153064966
0.000338246051293
0.000337850537417
0.000337861183442
0.000337222443357
0.00033472861781
0.000329466165768
0.000320781669738
0.000308725412029
0.000295786349768
0.000291526341394
0.000341824839448
0.000332438052303
0.000282956507672
0.000288985701826
0.000301488737971
0.000314212182753
0.000323586995896
0.000328884099749
0.000330691572841
0.000330515947542
0.000329825006162
0.000329453259264
0.000329399991538
0.000328766226249
0.000326385703247
0.000321184212627
0.00031222107582
0.000299393550169
0.000286053453431
0.000278675297154
0.000325463050918
0.000300862856895
0.000261163279467
0.000273085130816
0.000288333919518
0.000301166523793
0.000310768928198
0.000316063854321
0.000318072674196
0.000318215831345
0.00031775383855
0.000317439589144
0.000317338288027
0.000316729029218
0.000314480966284
0.000309284564839
0.000299678787092
0.000286488653503
0.000270535238104
0.000257483423006
0.000295114268963
0.000249730309175
0.000229780887093
0.000251466286894
0.000272520413595
0.000288074227598
0.000297926905091
0.000303135533236
0.000305407523456
0.000306099772172
0.000305990803402
0.000305754099731
0.000305477552048
0.000304512760711
0.000301982046176
0.000296710148552
0.000286748549163
0.00027093725729
0.000249407305815
0.000226893905259
0.000245319988784
0.00017475241145
0.000191061060104
0.000228949023201
0.000259813241634
0.000281252969095
0.000294293549033
0.000301143995501
0.000304191637341
0.000305390698176
0.000305767523158
0.000305553203367
0.000304775630108
0.000303228306266
0.000299919987961
0.000292950220005
0.000279877058085
0.000258426757988
0.000227478781399
0.000189246799905
0.000171939896547
8.48380053488e-05
0.000173592303681
0.000248140473084
0.000298977986759
0.000330139065163
0.000347042016258
0.00035524524323
0.000359239340546
0.000361696366814
0.00036307156362
0.000362693305133
0.000360563908144
0.000357316229475
0.000352656846316
0.000344122633616
0.000327300637681
0.000296584526558
0.000246523931297
0.000172804323535
8.4270799847e-05
0.0001006943036
0.00022093972558
0.000318362309965
0.000385504747509
0.000429706201855
0.000457658962039
0.0004751927186
0.000486887352029
0.00049492914336
0.000499327135684
0.000499144586982
0.000494406230789
0.000485845128541
0.000473393707378
0.000455247741264
0.000427297049253
0.000383279277034
0.000316797820174
0.000220391893162
0.000100147192439
0.000222286468676
0.000229914865473
0.000273407438014
0.000310163454785
0.000336818573392
0.000354474980895
0.000365310788775
0.000371579068858
0.00037498294128
0.000376509098782