/*--------------------------------*- C++ -*----------------------------------*\
| =========                 |                                                 |
| \\      /  F ield         | OpenFOAM: The Open Source CFD Toolbox           |
|  \\    /   O peration     | Version:  3.0.1                                 |
|   \\  /    A nd           | Web:      www.OpenFOAM.org                      |
|    \\/     M anipulation  |                                                 |
\*---------------------------------------------------------------------------*/
FoamFile
{
    version     2.0;
    format      ascii;
    class       volScalarField;
    location    "8.4";
    object      p;
}
// * * * * * * * * * * * * * * * * * * * * * * * * * * * * * * * * * * * * * //

dimensions      [1 -1 -2 0 0 0 0];

internalField   nonuniform List<scalar> 
7968
(
4646.62438953
4646.62397796
4646.59413261
4646.55161695
4646.50795252
4646.46950796
4646.4426107
4646.42634479
4646.41533849
4646.4044359
4646.39134492
4646.37601353
4646.36120917
4646.35244324
4646.3557709
4646.37157927
4646.39726835
4646.42532434
4646.44611507
4646.44319911
4646.62629932
4646.64336484
4646.6223517
4646.58382711
4646.54022953
4646.50256017
4646.47525998
4646.45923482
4646.44902667
4646.43853746
4646.42533251
4646.40939099
4646.39356551
4646.38402543
4646.3870556
4646.40297986
4646.42774354
4646.45163965
4646.46369437
4646.44389737
4646.60250611
4646.6284413
4646.61005627
4646.56911564
4646.52017722
4646.47744802
4646.44646948
4646.42764311
4646.41548508
4646.40382971
4646.39026365
4646.37481182
4646.3603478
4646.35329054
4646.35986397
4646.38062632
4646.41055492
4646.43665139
4646.44609359
4646.41775564
4646.56907471
4646.59917147
4646.57834088
4646.53253097
4646.48009216
4646.43805489
4646.41106395
4646.3970752
4646.38843186
4646.37827577
4646.36439859
4646.34687629
4646.32837454
4646.31622185
4646.31866378
4646.3384405
4646.37157136
4646.40211221
4646.4137482
4646.38141886
4646.53649734
4646.56693739
4646.54061096
4646.49119711
4646.44168545
4646.40869262
4646.39311545
4646.3903533
4646.38982383
4646.38369572
4646.36959611
4646.3475749
4646.32043693
4646.29658727
4646.28747341
4646.29817544
4646.32822699
4646.36193759
4646.37866786
4646.34592476
4646.51125741
4646.54201565
4646.51045766
4646.46163101
4646.42120087
4646.4022313
4646.40256137
4646.41518874
4646.42596748
4646.4255524
4646.41128233
4646.38311714
4646.34390984
4646.30401595
4646.27880435
4646.27579264
4646.29691803
4646.32971011
4646.35132717
4646.31827118
4646.49794558
4646.5285213
4646.49318394
4646.44831879
4646.4194927
4646.416603
4646.43564416
4646.46646302
4646.49095732
4646.49744627
4646.48307638
4646.44775859
4646.39399753
4646.33506458
4646.2907996
4646.27193333
4646.28184031
4646.31065642
4646.33590979
4646.30289067
4646.49586419
4646.52683427
4646.48878484
4646.44892584
4646.43163883
4646.44446568
4646.48190458
4646.53112942
4646.56956119
4646.58613428
4646.57225539
4646.52649994
4646.45802522
4646.37981003
4646.31664847
4646.28209262
4646.28073975
4646.30476679
4646.3327459
4646.29925851
4646.49925386
4646.53110146
4646.49134617
4646.45526563
4646.44643017
4646.47097574
4646.52245245
4646.58570479
4646.64279904
4646.67076309
4646.657525
4646.60126902
4646.51286056
4646.41954984
4646.34194158
4646.29557224
4646.28590507
4646.30623034
4646.3359188
4646.30157822
4646.50274469
4646.53509531
4646.49452577
4646.46023931
4646.45571423
4646.48630257
4646.54501395
4646.61725066
4646.68546079
4646.71828339
4646.70532151
4646.64540933
4646.54610219
4646.4415434
4646.35677796
4646.30435645
4646.29037464
4646.30887917
4646.33938821
4646.3045376
4646.50376273
4646.53614659
4646.49563895
4646.46142207
4646.45696138
4646.48761511
4646.54638106
4646.61862619
4646.68684528
4646.71966688
4646.7066833
4646.64678521
4646.54750585
4646.44297052
4646.35822149
4646.30577894
4646.29173941
4646.31014482
4646.34054801
4646.30565438
4646.5022191
4646.5341749
4646.49460285
4646.45875052
4646.45013235
4646.47490304
4646.52657813
4646.58994845
4646.64717106
4646.67521952
4646.66197005
4646.60566653
4646.5172269
4646.42392902
4646.34627564
4646.29978626
4646.28991348
4646.30993193
4646.33931984
4646.30484434
4646.5005602
4646.5317092
4646.49395659
4646.45450682
4646.43762996
4646.45089193
4646.48874913
4646.53832109
4646.57706488
4646.59384509
4646.57997728
4646.53410072
4646.46545655
4646.3871032
4646.32374023
4646.28888459
4646.2871289
4646.3106308
4646.33814097
4646.30444266
4646.50404619
4646.53479514
4646.49984411
4646.45554808
4646.42734078
4646.42511481
4646.44481674
4646.47621407
4646.50114439
4646.50786232
4646.49353002
4646.45809514
4646.40410675
4646.34484983
4646.30017013
4646.28078963
4646.29008312
4646.31819751
4646.34287438
4646.30964213
4646.51838108
4646.54926691
4646.51813217
4646.46997392
4646.43030279
4646.41215255
4646.4133072
4646.42666826
4646.43798695
4646.43787193
4646.42367383
4646.39538268
4646.3558644
4646.3155027
4646.28970781
4646.28602032
4646.30638749
4646.33837748
4646.35939482
4646.32617524
4646.54417963
4646.57482009
4646.54887391
4646.50012313
4646.45143156
4646.41934076
4646.40466929
4646.40271527
4646.40277628
4646.39698648
4646.38298092
4646.3608351
4646.33334786
4646.30894687
4646.29915126
4646.30907467
4646.33829484
4646.37122145
4646.38743169
4646.3544542
4646.57716305
4646.6073642
4646.58683148
4646.54160675
4646.48995343
4646.44882547
4646.42273658
4646.40956592
4646.40152869
4646.39172414
4646.37794718
4646.36029332
4646.34143522
4646.32867228
4646.33039879
4646.34936787
4646.38169411
4646.41156214
4646.42280061
4646.39038034
4646.61078098
4646.63679694
4646.61860802
4646.57812489
4646.52986278
4646.48795042
4646.45781058
4646.43975285
4646.42816883
4646.41684487
4646.40336237
4646.38776164
4646.37290946
4646.36526386
4646.37114909
4646.39118465
4646.42044287
4646.44603528
4646.45522735
4646.42684383
4646.63476043
4646.65184595
4646.63096377
4646.59277692
4646.54971561
4646.51274416
4646.48619507
4646.47086133
4646.46115107
4646.45093811
4646.43778172
4646.42168009
4646.40547674
4646.39538865
4646.39781031
4646.41314464
4646.43740819
4646.46095745
4646.47285726
4646.4530695
4646.6330096
4646.63271689
4646.60299142
4646.56080344
4646.51765982
4646.47989659
4646.45366585
4646.43801118
4646.42744241
4646.41678213
4646.4037275
4646.3882418
4646.37308796
4646.36381944
4646.36659144
4646.38179649
4646.40703545
4646.43474148
4646.4553287
4646.4522669
4156.9832463
4156.9700254
4156.93084466
4156.88214781
4156.83771571
4156.80254526
4156.77805104
4156.76433615
4156.75545904
4156.74556468
4156.73243365
4156.71605946
4156.69915197
4156.68766394
4156.68818892
4156.70192198
4156.72786039
4156.76177242
4156.79157605
4156.80125102
4156.97223553
4156.97009643
4156.93459524
4156.89048326
4156.85278989
4156.82496094
4156.80691146
4156.79781182
4156.79154344
4156.78275271
4156.76959291
4156.75216339
4156.73267372
4156.71660683
4156.71075484
4156.71736592
4156.73621443
4156.76507475
4156.79080084
4156.78957207
4156.93911535
4156.94084728
4156.89946111
4156.85011911
4156.80995532
4156.78266865
4156.76685492
4156.75970469
4156.75460429
4156.74620948
4156.73275329
4156.71439204
4156.6933396
4156.6752207
4156.66718905
4156.67307189
4156.69422918
4156.72791865
4156.75925709
4156.75415467
4156.89972274
4156.90621796
4156.8594609
4156.8084267
4156.77271166
4156.75447833
4156.74933828
4156.75125462
4156.75173184
4156.74572718
4156.73194669
4156.71055914
4156.68339583
4156.65591928
4156.63709787
4156.63398442
4156.65072552
4156.68574972
4156.72185906
4156.7119853
4156.86671738
4156.8799366
4156.83040839
4156.78368134
4156.7604723
4156.76128904
4156.7758409
4156.79437819
4156.80627087
4156.8057238
4156.79168286
4156.7642149
4156.72481414
4156.68007553
4156.64158883
4156.61902904
4156.6240605
4156.65465203
4156.69298338
4156.67613277
4156.84445538
4156.86466306
4156.81541238
4156.77759657
4156.77341893
4156.79702831
4156.83593865
4156.87596149
4156.90273125
4156.90954343
4156.89548018
4156.86027962
4156.80497656
4156.73769207
4156.67458448
4156.63023353
4156.61600311
4156.63770391
4156.67534692
4156.65124805
4156.83393953
4156.86033061
4156.81307718
4156.78587265
4156.80170056
4156.84989914
4156.91474815
4156.97813657
4157.02171228
4157.03695234
4157.02308287
4156.9794354
4156.90632546
4156.81426696
4156.72435839
4156.65577436
4156.62240154
4156.63353506
4156.66905155
4156.63855341
4156.83466782
4156.86547386
4156.82021502
4156.80233636
4156.83513656
4156.90526672
4156.99376202
4157.07948285
4157.1381662
4157.15707748
4157.14284037
4157.09607987
4157.00737114
4156.89179538
4156.77728902
4156.68673704
4156.63664992
4156.63887562
4156.67258198
4156.63756639
4156.84032641
4156.87361314
4156.82975942
4156.81770947
4156.86231446
4156.94788042
4157.05358968
4157.15474594
4157.21440455
4157.23561954
4157.22150498
4157.17134858
4157.08160591
4156.95088828
4156.81854157
4156.71239098
4156.65049451
4156.64698462
4156.67952427
4156.64199839
4156.84493011
4156.87925767
4156.83611457
4156.82671502
4156.87708915
4156.97028906
4157.08451582
4157.19070925
4157.25195797
4157.27613741
4157.26221062
4157.20831654
4157.11492282
4156.98162694
4156.84052745
4156.72664852
4156.65892446
4156.65266524
4156.68456147
4156.64598197
4156.84601947
4156.88037306
4156.83730664
4156.82796785
4156.87840515
4156.97165738
4157.08590759
4157.19207314
4157.25334114
4157.27753947
4157.26360345
4157.20968865
4157.11628159
4156.98291945
4156.8419785
4156.72814033
4156.66039844
4156.65405629
4156.68581836
4156.6471845
4156.84350012
4156.87688159
4156.83326764
4156.82142886
4156.8662534
4156.95202507
4157.05788438
4157.15898432
4157.21873307
4157.239996
4157.22584959
4157.17562786
4157.08588463
4156.95520796
4156.82298137
4156.71683748
4156.65482726
4156.65104676
4156.68319971
4156.6455113
4156.83971659
4156.87070185
4156.82583506
4156.80836486
4156.84159125
4156.91214514
4157.00100882
4157.08700062
4157.14592703
4157.1648693
4157.15055832
4157.10367062
4157.014905
4156.89927595
4156.7847223
4156.69398733
4156.64358244
4156.64530908
4156.67842213
4156.64314151
4156.84049585
4156.86713032
4156.82038749
4156.79381079
4156.81032223
4156.85922982
4156.92473918
4156.98868905
4157.03271773
4157.04814863
4157.03423089
4156.99038254
4156.91699011
4156.82465227
4156.73442178
4156.66540109
4156.63145431
4156.64184372
4156.67661946
4156.64576901
4156.85211004
4156.87260151
4156.82391628
4156.78688404
4156.78357623
4156.80811735
4156.84794168
4156.88873346
4156.91606807
4156.92316366
4156.90911592
4156.8737217
4156.81803824
4156.75026258
4156.68656025
4156.64153773
4156.62652461
4156.64730159
4156.68413775
4156.6596249
4156.87512526
4156.88865797
4156.83962772
4156.79370969
4156.77143809
4156.77329761
4156.78887797
4156.80827287
4156.82078789
4156.82057803
4156.80660233
4156.77896713
4156.73915129
4156.69384353
4156.65463803
4156.63121583
4156.63534973
4156.66495939
4156.70255273
4156.68525949
4156.90857152
4156.91531042
4156.86893066
4156.81863499
4156.78385818
4156.76668828
4156.76259854
4156.76538745
4156.7664989
4156.76086374
4156.74718109
4156.72563496
4156.69803575
4156.66996758
4156.65036216
4156.64635007
4156.6620997
4156.69619264
4156.73170606
4156.72144553
4156.94818534
4156.95007489
4156.90889744
4156.86014713
4156.8208356
4156.79453615
4156.77968574
4156.7733699
4156.76888379
4156.76084743
4156.74748239
4156.72895684
4156.70747163
4156.68872618
4156.67991106
4156.68490732
4156.70515857
4156.73810552
4156.76907532
4156.76366839
4156.98145078
4156.97934831
4156.94396235
4156.90024579
4156.86323407
4156.83622658
4156.81899938
4156.81060753
4156.80485496
4156.79635316
4156.783247
4156.76565174
4156.74575666
4156.72910019
4156.72255116
4156.72842934
4156.74658701
4156.77496541
4156.80045214
4156.79910754
4156.99262818
4156.97944024
4156.94031992
4156.89197405
4156.84815901
4156.81375098
4156.79000848
4156.77695139
4156.76853893
4156.75889723
4156.74580268
4156.72926762
4156.71197405
4156.69990984
4156.69976972
4156.71282561
4156.73814604
4156.77163331
4156.80128177
4156.81090342
3667.33428834
3667.30925082
3667.26401096
3667.21117542
3667.16500003
3667.12872222
3667.10342513
3667.08769229
3667.07618211
3667.06436651
3667.05091515
3667.03587252
3667.02131081
3667.01179419
3667.0132991
3667.02830297
3667.05600213
3667.09401855
3667.12971881
3667.15082165
3667.31158557
3667.3062024
3667.27040152
3667.22883402
3667.19631127
3667.17373725
3667.16004839
3667.15196523
3667.14432968
3667.13405275
3667.12055219
3667.10410032
3667.08580273
3667.06898236
3667.05928432
3667.06076367
3667.07469736
3667.10090026
3667.12619491
3667.12763807
3667.27248795
3667.27715422
3667.22892462
3667.1740994
3667.13302679
3667.10757527
3667.09456455
3667.08835184
3667.082757
3667.07343999
3667.05937908
3667.04090744
3667.01980517
3667.00110017
3666.99104213
3666.99552576
3667.01785564
3667.05687664
3667.09465697
3667.08641427
3667.22908529
3667.24538079
3667.18356288
3667.1227112
3667.08465869
3667.0714106
3667.07397367
3667.08066285
3667.08386073
3667.0787144
3667.06411704
3667.04051604
3667.01001322
3666.97799265
3666.95254484
3666.94506728
3666.96436519
3667.00946666
3667.0599387
3667.04034908
3667.19447123
3667.22429488
3667.15364597
3667.09560974
3667.07262962
3667.07994404
3667.01619698
3667.07667082
3667.17598588
3667.17685971
3667.16170345
3667.13106384
3667.15768974
3667.11171259
3666.95959479
3666.93209779
3666.93522913
3666.97728797
3667.03624107
3667.00300695
3667.17118307
3667.21431605
3667.14039905
3667.09405651
3667.0911851
3666.87593244
3666.70588224
3667.04832358
3667.36108657
3667.36813629
3667.35204402
3667.31316066
3667.52628177
3667.69350157
3667.30045148
3666.94855715
3666.93182053
3666.96187011
3667.02392595
3666.97711539
3667.15996802
3667.21420623
3667.14067216
3667.10959175
3667.04017138
3666.33408667
3666.20225025
3666.90337203
3667.4255417
3667.43947437
3667.42228195
3667.37370841
3667.78544867
3668.35426818
3668.0041827
3667.08797349
3666.94494669
3666.95991713
3667.02177599
3666.96373286
3667.15887757
3667.22037821
3667.14888817
3667.13074771
3666.90234186
3665.89058647
3665.8834402
3666.77247492
3667.41015527
3667.43180982
3667.41375611
3667.35489272
3667.86639798
3668.65601505
3668.50320327
3667.2932389
3666.9635486
3666.96593003
3667.02615824
3666.96090276
3667.16224952
3667.22740962
3667.15842191
3667.14940722
3666.84824788
3665.78450584
3665.80966923
3666.75187919
3667.42683325
3667.45482833
3667.43636179
3667.37039405
3667.89726113
3668.73747196
3668.63790465
3667.38962204
3666.97980779
3666.97342314
3667.03165943
3666.9629375
3667.16533526
3667.23191794
3667.16449241
3667.16016358
3666.86576607
3665.8102311
3665.84461279
3666.79491789
3667.47694129
3667.50843819
3667.4897027
3667.41991797
3667.93939706
3668.76939373
3668.66089643
3667.40548082
3666.98938962
3666.97848656
3667.03531943
3666.96529007
3667.16653481
3667.2331307
3667.16583746
3667.16160679
3666.86738895
3665.81232927
3665.84707541
3666.79727838
3667.47940973
3667.51102863
3667.49228602
3667.4224257
3667.94162104
3668.77118597
3668.66248068
3667.40720397
3666.99112948
3666.98010457
3667.03670933
3666.96662025
3667.16574067
3667.23096135
3667.1623723
3667.15367495
3666.85305253
3665.79077558
3665.81720431
3666.75902121
3667.43436134
3667.46273005
3667.44422582
3667.37802913
3667.90403245
3668.7429325
3668.64264476
3667.39470289
3666.98488338
3666.97809389
3667.035676
3666.96678029
3667.16442653
3667.2260928
3667.15524663
3667.13765851
3666.8933657
3665.84175229
3665.79340878
3666.65824047
3667.28934563
3667.31178973
3667.29388749
3667.23477563
3667.74965139
3668.559267
3668.4503714
3667.28503942
3666.97162624
3666.97328562
3667.03251026
3666.96694978
3667.16715085
3667.22170021
3667.14895762
3667.11868591
3667.029065
3666.22996441
3665.97699388
3666.60926725
3667.11238289
3667.12750157
3667.11087653
3667.06241242
3667.48768724
3668.11954542
3667.89668169
3667.07832016
3666.95544578
3666.96936419
3667.02999284
3666.97149219
3667.17954251
3667.22310011
3667.15000137
3667.10471519
3667.10263124
3666.82966347
3666.52786106
3666.76866584
3667.05444651
3667.06264007
3667.04720011
3667.00856392
3667.24582962
3667.51295284
3667.25478361
3666.96146516
3666.94394753
3666.97268547
3667.03344284
3666.9860503
3667.20359172
3667.23387903
3667.16393205
3667.10696229
3667.08501844
3667.09329923
3667.00989545
3667.03383177
3667.11717614
3667.11865822
3667.10373328
3667.07300118
3667.11540723
3667.10601541
3666.97425117
3666.94611578
3666.94809323
3666.98873075
3667.04650724
3667.01263706
3667.23860166
3667.2553301
3667.19398397
3667.13406461
3667.09707998
3667.0852368
3667.08891406
3667.09653481
3667.10047046
3667.09578683
3667.08130363
3667.05748057
3667.02645019
3666.99383145
3666.96765557
3666.95911346
3666.97707752
3667.0208373
3667.07044056
3667.05022807
3667.28217594
3667.28719332
3667.23909463
3667.18513164
3667.14513689
3667.12101386
3667.10924316
3667.10408954
3667.09926991
3667.09040719
3667.07645852
3667.05776356
3667.03606118
3667.01656978
3667.00547798
3667.00874193
3667.02979475
3667.06765947
3667.10507677
3667.0962655
3667.3213825
3667.31608075
3667.28040274
3667.2393078
3667.20761054
3667.18606072
3667.17334933
3667.16610869
3667.15906881
3667.14912014
3667.13567211
3667.11902457
3667.10022405
3667.08268818
3667.07209327
3667.07259866
3667.08564579
3667.11123028
3667.13624133
3667.13746626
3667.34426379
3667.31913092
3667.27397812
3667.22162057
3667.17625607
3667.14093921
3667.116591
3667.1016774
3667.09073584
3667.07921561
3667.0657952
3667.05055383
3667.03549989
3667.02525656
3667.02588068
3667.03993205
3667.0667736
3667.10421014
3667.13972772
3667.16088023
3177.66410803
3177.62808113
3177.5802801
3177.52475719
3177.47461081
3177.43321276
3177.40248609
3177.38025769
3177.36241234
3177.3464115
3177.33228145
3177.31965582
3177.31077218
3177.30763997
3177.31485099
3177.33485654
3177.36672471
3177.40772975
3177.44574565
3177.47789685
3177.63025621
3177.62241676
3177.5829419
3177.53329767
3177.48958799
3177.45462403
3177.42849701
3177.40719595
3177.38773288
3177.37001711
3177.35544242
3177.34452705
3177.33712294
3177.333591
3177.33692148
3177.35098163
3177.37631566
3177.41085924
3177.43982991
3177.44392058
3177.58880359
3177.58992461
3177.53941669
3177.47428051
3177.41970272
3177.3811858
3177.35870516
3177.344851
3177.33434646
3177.32179292
3177.3064681
3177.28902453
3177.27145259
3177.26142907
3177.26126334
3177.27878438
3177.31486548
3177.36481007
3177.40498772
3177.40072314
3177.5427335
3177.54987237
3177.48403639
3177.40394146
3177.34992775
3177.17077621
3177.02050477
3177.2727813
3177.46578532
3177.46031661
3177.44367567
3177.41710634
3177.54530518
3177.66821058
3177.39566312
3177.2064141
3177.24164508
3177.30661969
3177.36269021
3177.35222669
3177.5042071
3177.5173976
3177.44068235
3177.36041753
3176.96395643
3176.29852001
3176.3703661
3177.13993392
3177.62285559
3177.62399395
3177.6048585
3177.56702859
3177.99422753
3178.69454693
3178.53657412
3177.61772305
3177.19689277
3177.26081714
3177.3282742
3177.31128373
3177.47606233
3177.49477706
3177.41374827
3177.19129771
3175.82882628
3175.14172755
3175.75648392
3176.84598344
3177.47100887
3177.47651188
3177.45369661
3177.40393159
3177.99065418
3179.21044204
3179.9004249
3178.94628725
3177.37630632
3177.23282999
3177.30394115
3177.28070154
3177.45944778
3177.48190608
3177.40362177
3176.67409931
3174.60579134
3174.59115429
3175.46948881
3176.6214835
3177.29316222
3177.30147039
3177.27390199
3177.21092851
3177.84030556
3179.21635938
3180.39485238
3180.31348183
3177.95248017
3177.22145565
3177.28922575
3177.26214969
3177.45216937
3177.47511034
3177.40423797
3176.13189986
3174.02326807
3174.39543299
3175.29710389
3176.47876114
3177.17187994
3177.18313857
3177.15100316
3177.07473194
3177.7089403
3179.14866191
3180.43949893
3180.87838259
3178.50041433
3177.21979265
3177.28017846
3177.25308832
3177.44994988
3177.47125172
3177.409475
3175.96311389
3173.90447839
3174.35395003
3175.27117972
3176.46986335
3177.17186999
3177.18645888
3177.15226222
3177.06744211
3177.68751305
3179.12738518
3180.43778164
3180.980631
3178.67439996
3177.22212597
3177.27393147
3177.24924849
3177.44978366
3177.46965892
3177.41366737
3175.97578003
3173.92756359
3174.38810301
3175.31796238
3176.52167905
3177.22995009
3177.24641589
3177.21123231
3177.1224223
3177.73346485
3179.16266374
3180.46352364
3180.99789132
3178.68408102
3177.22470951
3177.27075859
3177.24809241
3177.45108725
3177.47106006
3177.41531066
3175.97787843
3173.93058633
3174.39209713
3175.32312787
3176.52687967
3177.23582103
3177.25249991
3177.21733333
3177.12838834
3177.73883464
3179.16686688
3180.46642919
3180.99983106
3178.68606689
3177.22676409
3177.27244813
3177.24959372
3177.45373667
3177.4752599
3177.41416351
3175.96929928
3173.91342646
3174.36597827
3175.28801776
3176.48450929
3177.1895792
3177.20510622
3177.17080669
3177.08550596
3177.70369189
3179.13999774
3180.44641735
3180.9862892
3178.68011026
3177.22794152
3177.27871343
3177.25350253
3177.45816314
3177.48149113
3177.41173239
3176.10458693
3173.94359607
3174.29357914
3175.18944459
3176.36365331
3177.05436694
3177.06732764
3177.03498444
3176.95743652
3177.58404216
3179.0135566
3180.3063615
3180.77954386
3178.47153415
3177.22880322
3177.28758266
3177.25970762
3177.4671515
3177.4901842
3177.41321815
3176.60564352
3174.37531996
3174.26142426
3175.11269352
3176.2378824
3176.8972389
3176.90774481
3176.88074028
3176.81705822
3177.43318969
3178.79632398
3179.99797215
3180.05131091
3177.88416898
3177.23276608
3177.29854282
3177.27052245
3177.4849206
3177.50429449
3177.42466599
3177.1662846
3175.59720521
3174.66484528
3175.17860761
3176.2270942
3176.8345366
3176.84247674
3176.82101151
3176.77155599
3177.3477833
3178.56886984
3179.36832143
3178.70118893
3177.35367647
3177.2455068
3177.31444321
3177.29021193
3177.51375937
3177.52755159
3177.45205826
3177.37330519
3176.89289872
3175.97172523
3175.77625098
3176.4166711
3176.86867183
3176.87221153
3176.85480321
3176.81804162
3177.26094681
3178.07363869
3178.19751618
3177.54816356
3177.21212139
3177.2738071
3177.33927107
3177.321363
3177.55255979
3177.56020487
3177.49523346
3177.4164005
3177.36317754
3177.14928608
3176.88397761
3177.01890982
3177.1745761
3177.1704147
3177.15460881
3177.12833774
3177.2921623
3177.53080039
3177.37574069
3177.22293408
3177.25623701
3177.31908078
3177.37362393
3177.36236961
3177.59869186
3177.60019684
3177.55028917
3177.48625912
3177.43318268
3177.39673103
3177.37594113
3177.36361679
3177.35421469
3177.3422817
3177.32714475
3177.30944354
3177.29083898
3177.27992749
3177.27831061
3177.29398753
3177.32808486
3177.37637402
3177.41555569
3177.41069898
3177.64010156
3177.63244925
3177.59335817
3177.54457761
3177.50213771
3177.46873924
3177.44412241
3177.42418252
3177.40563654
3177.38845013
3177.37397292
3177.36279427
3177.35457254
3177.34989353
3177.35176939
3177.36425214
3177.38810938
3177.42154133
3177.44993002
3177.4536579
3177.67417162
3177.63804271
3177.59065226
3177.53590106
3177.48689927
3177.44685404
3177.41743196
3177.39631572
3177.37922718
3177.36359525
3177.349475
3177.33659088
3177.32702866
3177.3229045
3177.32888824
3177.34754318
3177.37815699
3177.41824781
3177.45574719
3177.48791733
2688.02352755
2687.98802545
2687.94073413
2687.87722386
2687.81653995
2687.76195921
2687.7181246
2687.68394651
2687.65676945
2687.63492258
2687.61900373
2687.60988306
2687.60871145
2687.61708132
2687.63762243
2687.67076834
2687.71344879
2687.76274832
2687.8005759
2687.83243407
2687.99030792
2687.96039106
2687.90983819
2687.83781522
2687.76747205
2687.70326091
2687.65100802
2687.60843665
2687.57341901
2687.54645754
2687.52982718
2687.52486698
2687.53173205
2687.54932901
2687.5792096
2687.62247954
2687.67435004
2687.7314802
2687.77252999
2687.79880989
2687.94962005
2687.91643183
2687.8541448
2687.76335141
2687.67719275
2687.44288387
2687.24195553
2687.45816251
2687.62855174
2687.61097209
2687.59286133
2687.57588141
2687.72785721
2687.88815626
2687.66591101
2687.53043271
2687.59757215
2687.67355205
2687.72694052
2687.75628193
2687.89575166
2687.85426879
2687.77371441
2687.64263653
2686.9146334
2686.43232575
2686.6318523
2687.2778642
2687.70354973
2687.69765931
2687.67693166
2687.64369127
2688.0585108
2688.75848093
2688.85998618
2688.18638201
2687.49449634
2687.58941186
2687.66259495
2687.70008357
2687.84708949
2687.79558666
2687.69949402
2686.90103958
2685.42167034
2685.27833252
2685.91304999
2686.81651936
2687.35670142
2687.36016328
2687.33444415
2687.28306692
2687.82234213
2689.0061678
2690.02770331
2689.89245239
2688.19637278
2687.51221456
2687.60203423
2687.64917962
2687.80642442
2687.74380276
2687.47682896
2685.30006743
2684.36393457
2684.77383143
2685.43871913
2686.38460897
2686.96265502
2686.96606222
2686.93162515
2686.86279995
2687.44835432
2688.83958777
2690.20822178
2691.0634993
2689.8902346
2687.63729508
2687.54874922
2687.60538615
2687.77727489
2687.70450941
2686.90653821
2684.07351866
2684.00321606
2684.44034067
2685.1172092
2686.06381609
2686.64124208
2686.63926931
2686.59376765
2686.50509523
2687.08938332
2688.58855322
2690.20329812
2691.36121468
2691.27222523
2688.16688547
2687.50755247
2687.57383013
2687.75907206
2687.67697316
2686.32747485
2683.64439779
2683.81972103
2684.27474493
2684.96981934
2685.90986065
2686.47487858
2686.46760682
2686.41136315
2686.30185457
2686.85402553
2688.37426132
2690.10765799
2691.43305162
2691.72452626
2688.67579596
2687.47537417
2687.55256188
2687.7492388
2687.65948032
2686.13843159
2683.56206686
2683.78533622
2684.26365989
2684.9836073
2685.92880718
2686.48907767
2686.4813672
2686.4236325
2686.30709557
2686.82293008
2688.31945076
2690.06734543
2691.43102269
2691.78826138
2688.82664817
2687.45279947
2687.5395376
2687.74537
2687.65144373
2686.14173272
2683.57920509
2683.81900446
2684.31342067
2685.04837186
2685.99807088
2686.55607206
2686.54664094
2686.49000633
2686.37210663
2686.87635629
2688.36079677
2690.09831177
2691.45259768
2691.79854483
2688.82578285
2687.44126638
2687.53365678
2687.74679159
2687.65306712
2686.14421608
2683.58260466
2683.82382781
2684.32073004
2685.05808563
2686.00862221
2686.56711323
2686.55792638
2686.50157949
2686.38365163
2686.88681505
2688.36925601
2690.10434989
2691.45646425
2691.80104034
2688.82837197
2687.44345383
2687.53547671
2687.75334028
2687.6640615
2686.14545161
2683.57218937
2683.79971972
2684.28573132
2685.01386228
2685.96182315
2686.52463841
2686.51718168
2686.45902669
2686.34224247
2686.85497466
2688.3451136
2690.08540653
2691.44236749
2691.79538058
2688.83371669
2687.45881976
2687.54449865
2687.76548217
2687.68408422
2686.30117266
2683.57834271
2683.74517125
2684.2048637
2684.90513364
2685.84629562
2686.41329009
2686.40810563
2686.34943258
2686.23619514
2686.77236786
2688.26401358
2689.97688812
2691.30509883
2691.63080113
2688.64864168
2687.48440074
2687.56006138
2687.78542005
2687.71364926
2686.83922137
2683.87539141
2683.74256532
2684.17015545
2684.83758909
2685.76436247
2686.32994379
2686.33077815
2686.28436875
2686.19183572
2686.74608852
2688.19195958
2689.78160079
2690.97582231
2691.02473019
2688.09994898
2687.51840103
2687.58301024
2687.8155283
2687.75376671
2687.45165566
2685.05763218
2683.92851591
2684.30345118
2684.93890964
2685.84384955
2686.39833706
2686.40464712
2686.37101428
2686.30055244
2686.8533168
2688.19321113
2689.56179497
2690.50268566
2689.62109497
2687.61545522
2687.56047071
2687.61540437
2687.85670323
2687.80586487
2687.71180037
2686.76544909
2684.97457966
2684.64040763
2685.22133375
2686.07126014
2686.58482402
2686.59132706
2686.56738046
2686.5164823
2687.03320934
2688.19619317
2689.26816723
2689.39428908
2688.06080997
2687.52718912
2687.61377414
2687.65961754
2687.90546968
2687.86447385
2687.78540562
2687.65362837
2686.77128023
2685.95699734
2685.89472508
2686.43843535
2686.83818488
2686.83528968
2686.81674917
2686.78466963
2687.20238691
2687.97909769
2688.36119903
2688.04727174
2687.509246
2687.60307424
2687.67372706
2687.71016664
2687.95924637
2687.92644378
2687.86537068
2687.77617937
2687.69213322
2687.42432498
2687.10937883
2687.20951675
2687.34288795
2687.32693425
2687.30985129
2687.2931277
2687.48045863
2687.75562828
2687.64927108
2687.54826228
2687.61224229
2687.68568127
2687.73728675
2687.76588958
2687.99974491
2687.97012475
2687.92051977
2687.84978266
2687.78133854
2687.71950595
2687.66951344
2687.62893902
2687.59519979
2687.56900796
2687.5525655
2687.54723301
2687.55300205
2687.56892005
2687.59658342
2687.63740732
2687.68697116
2687.7423344
2687.78227593
2687.80794936
2688.03301508
2687.99771544
2687.9511637
2687.88875485
2687.82971653
2687.77711956
2687.73524208
2687.70269981
2687.67665383
2687.65537316
2687.63948314
2687.62987728
2687.62767322
2687.63450402
2687.6531678
2687.68432331
2687.72517821
2687.77316614
2687.81024089
2687.84198398
2198.45268929
2198.41648057
2198.37258589
2198.30748915
2198.24528586
2198.18966472
2198.14586445
2198.11402016
2198.09090398
2198.07184589
2198.0546809
2198.04061164
2198.03343522
2198.03788346
2198.05740414
2198.09134133
2198.13545948
2198.18615101
2198.22172834
2198.25378032
2198.41973273
2198.34767535
2198.28255497
2198.18403453
2198.0845286
2197.98928267
2197.82250576
2197.79721329
2197.83776956
2197.80632703
2197.78684222
2197.78187169
2197.86514567
2197.90351914
2197.85486056
2197.92930044
2198.01069331
2198.09398908
2198.15067099
2198.21854273
2198.38221232
2198.28893703
2198.21379338
2198.09481033
2197.6098082
2197.14762327
2197.28986386
2197.61028751
2197.84987322
2197.82665713
2197.803462
2197.78397813
2198.06421447
2198.48945383
2198.6762069
2198.24301531
2197.91537404
2198.02227576
2198.0907512
2198.17904049
2198.32823082
2198.20188858
2198.10684305
2197.29872281
2196.27850632
2195.89177989
2196.26617371
2196.92723067
2197.33942215
2197.33798652
2197.31151015
2197.2637364
2197.68120832
2198.63857775
2199.55704202
2199.47557728
2198.52588129
2197.90579462
2197.9995595
2198.12084971
2198.28034312
2198.11683035
2197.6419546
2195.65808512
2195.02362092
2195.19599535
2195.61161507
2196.31888707
2196.78756927
2196.80143575
2196.75786438
2196.67190266
2197.13734335
2198.31992921
2199.56347877
2200.48879685
2200.07663918