/*--------------------------------*- C++ -*----------------------------------*\
| =========                 |                                                 |
| \\      /  F ield         | OpenFOAM: The Open Source CFD Toolbox           |
|  \\    /   O peration     | Version:  3.0.1                                 |
|   \\  /    A nd           | Web:      www.OpenFOAM.org                      |
|    \\/     M anipulation  |                                                 |
\*---------------------------------------------------------------------------*/
FoamFile
{
    version     2.0;
    format      ascii;
    class       volScalarField;
    location    "8.4";
    object      rAU;
}
// * * * * * * * * * * * * * * * * * * * * * * * * * * * * * * * * * * * * * //

dimensions      [-1 3 1 0 0 0 0];

internalField   nonuniform List<scalar> 
7968
(
1.05300440584e-05
1.0524360158e-05
1.05242417017e-05
1.0525964489e-05
1.05258407975e-05
1.05156116071e-05
1.05102980934e-05
1.05168274648e-05
1.05199465606e-05
1.05211960413e-05
1.0521350962e-05
1.0520478059e-05
1.05180818547e-05
1.05135311477e-05
1.05129118408e-05
1.05207220233e-05
1.05258411317e-05
1.05241981883e-05
1.05243119635e-05
1.05300399439e-05
1.05242972081e-05
1.05107178417e-05
1.05068988788e-05
1.05066489786e-05
1.05047798411e-05
1.04988725965e-05
1.04957901578e-05
1.04986483888e-05
1.05010831026e-05
1.05022024956e-05
1.0502348293e-05
1.0501559533e-05
1.04995673018e-05
1.04968491557e-05
1.0498074501e-05
1.05033270333e-05
1.05064339638e-05
1.05069208329e-05
1.05107898091e-05
1.05243802246e-05
1.05241571636e-05
1.05068272835e-05
1.05005508717e-05
1.0499023677e-05
1.04969490421e-05
1.04931716531e-05
1.04918674323e-05
1.04941242545e-05
1.04963620166e-05
1.04977897257e-05
1.04979698894e-05
1.04969178979e-05
1.04950795164e-05
1.04926671915e-05
1.04928988783e-05
1.04962432246e-05
1.04988782735e-05
1.05006688559e-05
1.05070028295e-05
1.05242643052e-05
1.05258097099e-05
1.05064228196e-05
1.04988843927e-05
1.04968294036e-05
1.04959765101e-05
1.04937857481e-05
1.04929357754e-05
1.049539576e-05
1.04975484387e-05
1.0498622695e-05
1.04987482144e-05
1.04979321298e-05
1.04960969731e-05
1.04935677156e-05
1.049363856e-05
1.04955742604e-05
1.04965359669e-05
1.04990371071e-05
1.05066832329e-05
1.05259959036e-05
1.05240325332e-05
1.05040359285e-05
1.04965751902e-05
1.04957580072e-05
1.04932617169e-05
1.04872061817e-05
1.04841281278e-05
1.04850508076e-05
1.04862366669e-05
1.04868202699e-05
1.0486983338e-05
1.04866942067e-05
1.04857400259e-05
1.04847200962e-05
1.04869253228e-05
1.04926699196e-05
1.04958163277e-05
1.04966383536e-05
1.05041338902e-05
1.05236549526e-05
1.05151527473e-05
1.0498516279e-05
1.04930262856e-05
1.04938258933e-05
1.04875024138e-05
1.04780409068e-05
1.04743384743e-05
1.04749437202e-05
1.04757579284e-05
1.0475944922e-05
1.04760707817e-05
1.04761398274e-05
1.04755591652e-05
1.04749435892e-05
1.04777640508e-05
1.04865950745e-05
1.04935121925e-05
1.04930415505e-05
1.04984646209e-05
1.05147588575e-05
1.05120131413e-05
1.04962909973e-05
1.04921762139e-05
1.04934300921e-05
1.04848996532e-05
1.04748172452e-05
1.04721314278e-05
1.04738290223e-05
1.04751514895e-05
1.04756895804e-05
1.04757648306e-05
1.04753397721e-05
1.0474209278e-05
1.04726117802e-05
1.04745176592e-05
1.04839497451e-05
1.04930212582e-05
1.04923961453e-05
1.04963687502e-05
1.05121301067e-05
1.05174803058e-05
1.04990543823e-05
1.04943696831e-05
1.04959385951e-05
1.04859206276e-05
1.04754793672e-05
1.04738154182e-05
1.04765627929e-05
1.04786754627e-05
1.04833651473e-05
1.04842071853e-05
1.04788716012e-05
1.04769443614e-05
1.0474289246e-05
1.04751342974e-05
1.04849257577e-05
1.04954831664e-05
1.0494924715e-05
1.04992083743e-05
1.05174936453e-05
1.05202353094e-05
1.05012566688e-05
1.04964424262e-05
1.04980273186e-05
1.04870292519e-05
1.04762130994e-05
1.04750184214e-05
1.04785648505e-05
1.04908624942e-05
1.04944117439e-05
1.04947319064e-05
1.0492146267e-05
1.047964066e-05
1.04756062569e-05
1.04758131392e-05
1.04859719772e-05
1.04974642897e-05
1.04968574887e-05
1.05014225755e-05
1.05202284588e-05
1.05213155743e-05
1.05022190628e-05
1.04976762319e-05
1.04989704901e-05
1.04874796088e-05
1.04763023097e-05
1.04754437872e-05
1.0481153614e-05
1.04941006573e-05
1.04974124364e-05
1.04977434978e-05
1.04950392529e-05
1.04857361763e-05
1.04761517081e-05
1.04758743594e-05
1.04864051016e-05
1.04984310709e-05
1.04981248355e-05
1.05023902268e-05
1.05213030759e-05
1.05213277639e-05
1.05022280769e-05
1.04976821125e-05
1.04989748981e-05
1.0487480261e-05
1.04763052601e-05
1.04754499e-05
1.04811253559e-05
1.04940983995e-05
1.04974096044e-05
1.0497739204e-05
1.04950328548e-05
1.04857166059e-05
1.04761577745e-05
1.04758816876e-05
1.04864110854e-05
1.04984360052e-05
1.04981330787e-05
1.05024023388e-05
1.05213182069e-05
1.0520275847e-05
1.0501288392e-05
1.04964693408e-05
1.04980491474e-05
1.04870406561e-05
1.04762306687e-05
1.04750473997e-05
1.0478595237e-05
1.04908845861e-05
1.04944278971e-05
1.04947428887e-05
1.0492152705e-05
1.04795716601e-05
1.04756355079e-05
1.04758429235e-05
1.04859953426e-05
1.04974851454e-05
1.04968875898e-05
1.05014612146e-05
1.05202778561e-05
1.05175660556e-05
1.04991151542e-05
1.04943757205e-05
1.04959818308e-05
1.0485954825e-05
1.04755241371e-05
1.04738808308e-05
1.0476635846e-05
1.04787522144e-05
1.04834878018e-05
1.04843204415e-05
1.04789535901e-05
1.04770189955e-05
1.04743606641e-05
1.04751976838e-05
1.04849752558e-05
1.04955281125e-05
1.04949227626e-05
1.04992769632e-05
1.05175951857e-05
1.05122400995e-05
1.04963583178e-05
1.04922020608e-05
1.04934840214e-05
1.04849478052e-05
1.04748752091e-05
1.04722214406e-05
1.0473940938e-05
1.04752730106e-05
1.04758159627e-05
1.0475892063e-05
1.04754686737e-05
1.04743294753e-05
1.04727165794e-05
1.04746027968e-05
1.04840180154e-05
1.04930703024e-05
1.04924143369e-05
1.04964421735e-05
1.05123804359e-05
1.05150235781e-05
1.04984735367e-05
1.04930189251e-05
1.04938587431e-05
1.04875207952e-05
1.0478062683e-05
1.04743948475e-05
1.04750404175e-05
1.04758789498e-05
1.04760763123e-05
1.047620726e-05
1.04762749561e-05
1.04756781224e-05
1.04750311625e-05
1.04778264139e-05
1.04866379754e-05
1.04935419588e-05
1.0493032055e-05
1.04984145825e-05
1.05145673715e-05
1.05237429264e-05
1.05039699223e-05
1.04965654982e-05
1.04957999862e-05
1.04932566985e-05
1.04871706583e-05
1.04841041471e-05
1.04850542514e-05
1.04862607584e-05
1.04868565102e-05
1.04870242761e-05
1.04867309643e-05
1.04857606795e-05
1.04847216618e-05
1.04869145302e-05
1.04926695405e-05
1.04958786131e-05
1.04966276025e-05
1.05040587086e-05
1.05232906506e-05
1.052582672e-05
1.05064401893e-05
1.04989130375e-05
1.04968484231e-05
1.04960539722e-05
1.04937488581e-05
1.04928881539e-05
1.04953591289e-05
1.04974963503e-05
1.04985678876e-05
1.04986927931e-05
1.04978784026e-05
1.04960406089e-05
1.04935223412e-05
1.04935971001e-05
1.04956655192e-05
1.04965609848e-05
1.0499064616e-05
1.0506704051e-05
1.05260113114e-05
1.05241815762e-05
1.05068577575e-05
1.05005966512e-05
1.04990750255e-05
1.04969794906e-05
1.04931740599e-05
1.04918866744e-05
1.04941696732e-05
1.04963900828e-05
1.04978137377e-05
1.04979945277e-05
1.04969483365e-05
1.04951106644e-05
1.04926856694e-05
1.0492894852e-05
1.04962613574e-05
1.04989251491e-05
1.05007120963e-05
1.05070339512e-05
1.05242783047e-05
1.05243202368e-05
1.05107569721e-05
1.05069463723e-05
1.05067087727e-05
1.05048168576e-05
1.04988741017e-05
1.04958088376e-05
1.04986814801e-05
1.05011096826e-05
1.05022245547e-05
1.05023725981e-05
1.05015927296e-05
1.0499610265e-05
1.04968843376e-05
1.04980538617e-05
1.05033283503e-05
1.05064896573e-05
1.0506964522e-05
1.05108224006e-05
1.05243911813e-05
1.0530064725e-05
1.05243824659e-05
1.05242708941e-05
1.05260026313e-05
1.05258284529e-05
1.05156201792e-05
1.05103569804e-05
1.05168556517e-05
1.0519969635e-05
1.0521219409e-05
1.05213778699e-05
1.05205118653e-05
1.05181281611e-05
1.05136127324e-05
1.05127212259e-05
1.05205011793e-05
1.05258781633e-05
1.05242229343e-05
1.05243364369e-05
1.05300634785e-05
1.05284278726e-05
1.05174451353e-05
1.05128605672e-05
1.05124202988e-05
1.05098000074e-05
1.05039371727e-05
1.05023657311e-05
1.05059728267e-05
1.05088718559e-05
1.0510242278e-05
1.05104230369e-05
1.05094578409e-05
1.05071043038e-05
1.05038272339e-05
1.05032097235e-05
1.0508180704e-05
1.05122378656e-05
1.05129393439e-05
1.0517523345e-05
1.05284135427e-05
1.0517512213e-05
1.04686433396e-05
1.04399053558e-05
1.04271792083e-05
1.04213547861e-05
1.04188166415e-05
1.0419382626e-05
1.04226903483e-05
1.04260127775e-05
1.04278452568e-05
1.04281011074e-05
1.04267596493e-05
1.04238527978e-05
1.04205014203e-05
1.04192070888e-05
1.04212876498e-05
1.04272581893e-05
1.04401556291e-05
1.04687169106e-05
1.05174343719e-05
1.05129011565e-05
1.04400174395e-05
1.03930018447e-05
1.03701800277e-05
1.03608187148e-05
1.03585244974e-05
1.03596649688e-05
1.03623653728e-05
1.0365382084e-05
1.03676891672e-05
1.03680232499e-05
1.03662850328e-05
1.03636297407e-05
1.0360834616e-05
1.03593826175e-05
1.03613446488e-05
1.03704733049e-05
1.03931887521e-05
1.04399981275e-05
1.05128918276e-05
1.05123153648e-05
1.04272346315e-05
1.03702624232e-05
1.03433821118e-05
1.03326656699e-05
1.03287375288e-05
1.03283032372e-05
1.03302042279e-05
1.03327234028e-05
1.03346274203e-05
1.03350083528e-05
1.03336849225e-05
1.03314535688e-05
1.03295197333e-05
1.03297538668e-05
1.03335256492e-05
1.03438817974e-05
1.03703633788e-05
1.04271296454e-05
1.05123565651e-05
1.05090372614e-05
1.04213729567e-05
1.0360983183e-05
1.0332734453e-05
1.03184522828e-05
1.03130484559e-05
1.03129861746e-05
1.03155297415e-05
1.03186580229e-05
1.03208448754e-05
1.03212953374e-05
1.03198148583e-05
1.03169866683e-05
1.03143977178e-05
1.03142398517e-05
1.03193911485e-05
1.03334438241e-05
1.0361158976e-05
1.04211614834e-05
1.05089312413e-05
1.05036335707e-05
1.04190678041e-05
1.03587666277e-05
1.03289287748e-05
1.03131234454e-05
1.0308582482e-05
1.03100339432e-05
1.03137224208e-05
1.03176359208e-05
1.03202608737e-05
1.03207833966e-05
1.03189670303e-05
1.03153607685e-05
1.03115338907e-05
1.03098640884e-05
1.03141348093e-05
1.03294610918e-05
1.03590747667e-05
1.04188444026e-05
1.05034823783e-05
1.05031156604e-05
1.04199511965e-05
1.03600317124e-05
1.0328605905e-05
1.03131339586e-05
1.03101525353e-05
1.03127009603e-05
1.03173806486e-05
1.03220952644e-05
1.03250519874e-05
1.03256156869e-05
1.03235802976e-05
1.0319207929e-05
1.03143042181e-05
1.03114326819e-05
1.03142226762e-05
1.03291351073e-05
1.03603770847e-05
1.04198384397e-05
1.05030764859e-05
1.05065532238e-05
1.042321365e-05
1.03626768523e-05
1.03304335257e-05
1.03156216701e-05
1.03138380785e-05
1.03174004207e-05
1.03229983322e-05
1.03282210108e-05
1.03357422339e-05
1.03372026194e-05
1.0329839238e-05
1.03250173264e-05
1.03192309713e-05
1.0315293343e-05
1.03168916792e-05
1.03311158318e-05
1.03632529079e-05
1.0423245271e-05
1.05065515275e-05
1.05091656949e-05
1.04262805582e-05
1.03655371216e-05
1.03326970027e-05
1.03184356382e-05
1.031744607e-05
1.0321826498e-05
1.03279311082e-05
1.03442486188e-05
1.03514398399e-05
1.03524201633e-05
1.03472383929e-05
1.03308104491e-05
1.03239205627e-05
1.03192157195e-05
1.03200368389e-05
1.03336619048e-05
1.03660017632e-05
1.04263979246e-05
1.05091949169e-05
1.05103400817e-05
1.04278696632e-05
1.03675767056e-05
1.03342052233e-05
1.03201634687e-05
1.03195542548e-05
1.03242798538e-05
1.03327645343e-05
1.03504764499e-05
1.035751261e-05
1.03584836725e-05
1.0353343109e-05
1.03394724756e-05
1.03265055383e-05
1.03215484033e-05
1.03219789694e-05
1.03353961965e-05
1.03680569312e-05
1.04279927049e-05
1.05103850596e-05
1.05103540737e-05
1.04278841518e-05
1.03675969249e-05
1.03342085053e-05
1.03201549097e-05
1.03195348173e-05
1.03242517114e-05
1.03326933852e-05
1.03504271692e-05
1.03574625199e-05
1.03584316469e-05
1.03532876994e-05
1.03394039976e-05
1.03264689121e-05
1.03215180237e-05
1.03219586848e-05
1.03353906481e-05
1.03680737043e-05
1.04280029028e-05
1.05103994177e-05
1.05092128706e-05
1.04263288692e-05
1.03655989975e-05
1.03327162933e-05
1.03184220196e-05
1.03174024885e-05
1.0321758732e-05
1.03278447334e-05
1.03441385618e-05
1.03513204769e-05
1.03522930002e-05
1.03471013756e-05
1.03306067852e-05
1.03238323363e-05
1.03191431927e-05
1.0319989941e-05
1.03336529981e-05
1.03660495149e-05
1.04264343451e-05
1.05092401369e-05
1.05066446346e-05
1.04233043037e-05
1.03627373773e-05
1.03304835295e-05
1.03156321667e-05
1.03138134275e-05
1.03173446382e-05
1.03229164261e-05
1.03281184788e-05
1.03356723132e-05
1.03371150287e-05
1.03297231358e-05
1.03249130873e-05
1.03191488506e-05
1.03152290756e-05
1.03168540956e-05
1.03311244525e-05
1.03632766821e-05
1.04233178388e-05
1.05066369379e-05
1.0503238644e-05
1.04200638669e-05
1.03601491267e-05
1.03286935108e-05
1.03131840841e-05
1.03101831718e-05
1.03127080922e-05
1.03173593639e-05
1.03220456549e-05
1.03249773916e-05
1.03255324299e-05
1.03235099018e-05
1.03191605796e-05
1.03142750099e-05
1.03114125163e-05
1.03142176056e-05
1.0329169841e-05
1.03604519009e-05
1.04199250973e-05
1.05031959443e-05
1.0503613324e-05
1.04191750818e-05
1.03589251947e-05
1.03290495989e-05
1.03132003531e-05
1.03086514053e-05
1.03100938127e-05
1.03137601242e-05
1.03176457109e-05
1.03202473563e-05
1.03207616414e-05
1.03189556913e-05
1.03153656919e-05
1.03115485581e-05
1.0309878666e-05
1.03141578747e-05
1.03295283242e-05
1.03592011478e-05
1.04189204204e-05
1.05034792305e-05
1.05089602001e-05
1.04214892959e-05
1.03611566819e-05
1.03328947908e-05
1.03185325577e-05
1.03131007461e-05
1.03130191329e-05
1.03155376097e-05
1.03186431897e-05
1.03208088281e-05
1.0321251399e-05
1.03197790211e-05
1.03169619142e-05
1.03143901028e-05
1.03142487602e-05
1.03194231456e-05
1.03335772644e-05
1.03613223654e-05
1.04212449562e-05
1.05088550569e-05
1.05123395668e-05
1.04273711744e-05
1.0370426964e-05
1.03435548935e-05
1.0332793913e-05
1.03287377868e-05
1.03282540629e-05
1.03301233201e-05
1.03326154544e-05
1.03345063407e-05
1.03348808967e-05
1.03335597969e-05
1.03313294677e-05
1.03294367928e-05
1.03297170292e-05
1.03336350297e-05
1.03440379931e-05
1.03705117086e-05
1.04272304785e-05
1.05123483151e-05
1.0512953054e-05
1.04401649633e-05
1.03931414872e-05
1.0370291647e-05
1.03609308847e-05
1.03585941897e-05
1.03596558861e-05
1.03623022054e-05
1.03652656873e-05
1.03675502208e-05
1.03678845544e-05
1.03661646921e-05
1.0363535849e-05
1.03607948175e-05
1.03594265788e-05
1.03614444225e-05
1.03705662185e-05
1.03932969717e-05
1.04401107006e-05
1.05129206108e-05
1.05175683426e-05
1.04687494102e-05
1.04399867534e-05
1.0427215959e-05
1.04213471251e-05
1.04187818314e-05
1.04193262983e-05
1.04226129054e-05
1.0425913125e-05
1.04277253754e-05
1.04279776312e-05
1.04266543349e-05
1.04237658328e-05
1.04204280047e-05
1.04191426415e-05
1.04212423729e-05
1.04272563233e-05
1.04402016054e-05
1.04687969672e-05
1.0517480817e-05
1.05284715471e-05
1.05174674692e-05
1.05128820541e-05
1.05124372911e-05
1.05097816638e-05
1.05039321411e-05
1.05023834261e-05
1.05059715307e-05
1.05088667935e-05
1.05102370137e-05
1.05104194874e-05
1.05094571307e-05
1.05071068133e-05
1.05038427538e-05
1.05032133365e-05
1.05081589975e-05
1.05122290502e-05
1.05129458495e-05
1.05175397924e-05
1.05284627899e-05
1.05247356847e-05
1.05101395043e-05
1.04993073648e-05
1.0493279737e-05
1.0489594035e-05
1.04861121652e-05
1.04858995848e-05
1.04871173579e-05
1.04880752726e-05
1.04884412314e-05
1.0488498718e-05
1.04883089876e-05
1.0487628905e-05
1.04865492243e-05
1.04862200707e-05
1.04889221542e-05
1.04927772497e-05
1.04986037998e-05
1.05101475368e-05
1.05247600693e-05
1.05101456392e-05
1.04412560726e-05
1.03974887713e-05
1.03758288366e-05
1.03682161355e-05
1.03662446587e-05
1.03670184531e-05
1.03692074271e-05
1.03715938057e-05
1.03731317099e-05
1.03733543042e-05
1.03721955163e-05
1.03700601224e-05
1.03678869589e-05
1.03669850749e-05
1.03688441509e-05
1.03763435647e-05
1.03971371716e-05
1.04413225597e-05
1.0510129893e-05
1.04993080244e-05
1.0397623565e-05
1.0335778714e-05
1.03025215541e-05
1.02877889058e-05
1.02834003162e-05
1.02837774766e-05
1.02861157366e-05
1.0288910311e-05
1.02909028715e-05
1.02912792722e-05
1.02898907113e-05
1.02874122247e-05
1.02851357253e-05
1.0284772005e-05
1.02891234684e-05
1.03036077645e-05
1.03364283054e-05
1.03971301881e-05
1.04987657158e-05
1.04927389557e-05
1.03757421469e-05
1.03026832239e-05
1.02590750972e-05
1.02361744717e-05
1.02261386381e-05
1.02237916732e-05
1.02252721734e-05
1.02279753937e-05
1.02301666045e-05
1.02307242349e-05
1.0229416352e-05
1.02270945505e-05
1.0225634499e-05
1.02278772156e-05
1.02377342829e-05
1.02604821225e-05
1.03034023727e-05
1.03764170793e-05
1.04934284279e-05
1.04889284103e-05
1.03681294507e-05
1.02880189966e-05
1.02362745879e-05
1.02071311241e-05
1.01959311304e-05
1.0194492877e-05
1.019692951e-05
1.02002771974e-05
1.02029474196e-05
1.02036494366e-05
1.02020649122e-05
1.01989449346e-05
1.0196429749e-05
1.01980424235e-05
1.02090236819e-05
1.02375585566e-05
1.02888142012e-05
1.03688912584e-05
1.04896596202e-05
1.04858010309e-05
1.0366180497e-05
1.02835458001e-05
1.02261989078e-05
1.01959457785e-05
1.01860531598e-05
1.01863313082e-05
1.0189938852e-05
1.01942226185e-05
1.01976645174e-05
1.01985337738e-05
1.01963653673e-05
1.01916902546e-05
1.01871393758e-05
1.01873881082e-05
1.01980185005e-05
1.02277203355e-05
1.0284482796e-05
1.03669920193e-05
1.04865784309e-05
1.04858754999e-05
1.03669747962e-05
1.02838685742e-05
1.02237422579e-05
1.01945807711e-05
1.01869442144e-05
1.01891634292e-05
1.01941665088e-05
1.01997443864e-05
1.02041399597e-05
1.02051621244e-05
1.02022655816e-05
1.01957306297e-05
1.01885465754e-05
1.01866770727e-05
1.01964039918e-05
1.02256268867e-05
1.02848722473e-05
1.03678487823e-05
1.04866741105e-05
1.04870102583e-05
1.03691012654e-05
1.02861420059e-05
1.02250587436e-05
1.01971587566e-05
1.01915053346e-05
1.01955650323e-05
1.02023161003e-05
1.02093895495e-05
1.02152138749e-05
1.02163966106e-05
1.02122128143e-05
1.02040950507e-05
1.01946404116e-05
1.01905099114e-05
1.01989120607e-05
1.02273337766e-05
1.02872549002e-05
1.03700685956e-05
1.04878511254e-05
1.04878109188e-05
1.03713107835e-05
1.02887310264e-05
1.02273408318e-05
1.0200203081e-05
1.01958314888e-05
1.02014802269e-05
1.02098762372e-05
1.02195650736e-05
1.0226479679e-05
1.02277446262e-05
1.02228150814e-05
1.02121517641e-05
1.02011011682e-05
1.01953035614e-05
1.0202422301e-05
1.02301281163e-05
1.02899899499e-05
1.03723648839e-05
1.04886820459e-05
1.04880814361e-05
1.03726388657e-05
1.02904085876e-05
1.02289340149e-05
1.02021072999e-05
1.01983493529e-05
1.02048735991e-05
1.02145608976e-05
1.02254296883e-05
1.02328923522e-05
1.02341911657e-05
1.02288656605e-05
1.02174191994e-05
1.02049819978e-05
1.0198374253e-05
1.02047767482e-05
1.02320560822e-05
1.02917526417e-05
1.03737445455e-05
1.0488962113e-05
1.04880881547e-05
1.03726511828e-05
1.02904211378e-05
1.02289241116e-05
1.02020801445e-05
1.01983001039e-05
1.02048039399e-05
1.02144754562e-05
1.02253371557e-05
1.02327997745e-05
1.02340970259e-05
1.02287683374e-05
1.02173223946e-05
1.02048919349e-05
1.01982995553e-05
1.02047218102e-05
1.0232021733e-05
1.02917469284e-05
1.03737534086e-05
1.04889712821e-05
1.04878391868e-05
1.03713500523e-05
1.02887691552e-05
1.02273223658e-05
1.02001375374e-05
1.01957124162e-05
1.02013099113e-05
1.02096625152e-05
1.02193261549e-05
1.02262306235e-05
1.02274843857e-05
1.02225522278e-05
1.02118959108e-05
1.02008705861e-05
1.01951136161e-05
1.02022803199e-05
1.02300394242e-05
1.02899752023e-05
1.03723870861e-05
1.04887106678e-05
1.048706594e-05
1.03691727363e-05
1.02862184865e-05
1.02250659534e-05
1.01971276191e-05
1.01914709277e-05
1.01955266642e-05
1.02022481304e-05
1.0209291665e-05
1.02150972213e-05
1.02162579493e-05
1.02120753024e-05
1.02039663726e-05
1.01945271114e-05
1.01903788717e-05
1.01987698116e-05
1.02272333597e-05
1.02872483897e-05
1.03701116916e-05
1.04879050627e-05
1.04859499825e-05
1.03670864774e-05
1.02839984963e-05
1.02237967356e-05
1.01946132757e-05
1.01870639908e-05
1.01893980107e-05
1.0194424748e-05
1.01999420255e-05
1.02042688085e-05
1.02052670445e-05
1.02023974015e-05
1.01959064909e-05
1.0188688959e-05
1.01866736541e-05
1.01963017905e-05
1.02255573855e-05
1.02848995226e-05
1.03679168343e-05
1.04867517725e-05
1.04858593079e-05
1.03663363872e-05
1.02837341153e-05
1.02262951931e-05
1.01959861515e-05
1.01861561398e-05
1.01865741913e-05
1.0190237964e-05
1.01944589103e-05
1.01978185795e-05
1.01986629909e-05
1.01965324237e-05
1.01918914507e-05
1.01872614736e-05
1.01873519377e-05
1.01979236036e-05
1.02276943665e-05
1.02845693927e-05
1.03670968127e-05
1.04866526163e-05
1.04889188262e-05
1.03683167837e-05
1.02882489162e-05
1.02364037988e-05
1.02071561057e-05
1.01959113404e-05
1.0194474325e-05
1.0196892594e-05
1.02001726869e-05
1.0202772664e-05
1.02034516063e-05
1.02018964608e-05
1.01988133418e-05
1.01962962773e-05
1.01979016227e-05
1.0208934922e-05
1.02375746813e-05
1.02889693618e-05
1.03690386568e-05
1.04896560262e-05
1.0492719996e-05
1.03759247539e-05
1.0302927822e-05
1.02592576113e-05
1.02361710126e-05
1.02260203015e-05
1.02236005102e-05
1.02250136683e-05
1.02276476681e-05
1.02297835592e-05
1.0230320421e-05
1.02290339524e-05
1.02267562005e-05
1.02253497711e-05
1.022766206e-05
1.0237631578e-05
1.02605805712e-05
1.03035872619e-05
1.03765674104e-05
1.04934028864e-05
1.04989597182e-05
1.03974029651e-05
1.03359809132e-05
1.03026760382e-05
1.02878537777e-05
1.02833417062e-05
1.02835835564e-05
1.02858197259e-05
1.02885357094e-05
1.02904811066e-05
1.02908472435e-05
1.02894828211e-05
1.0287059685e-05
1.0284869814e-05
1.02846372354e-05
1.02891262183e-05
1.03037067478e-05
1.03365792802e-05
1.03966548989e-05
1.0498186059e-05
1.05101615295e-05
1.04412973671e-05
1.0397307762e-05
1.03759467611e-05
1.03683066925e-05
1.03662895676e-05
1.03670064581e-05
1.03691509754e-05
1.03715024176e-05
1.03730194861e-05
1.03732377994e-05
1.03720914231e-05
1.03699830497e-05
1.03678508268e-05
1.03669968256e-05
1.03689026522e-05
1.03764329396e-05
1.03969038206e-05
1.04413304245e-05
1.0510121199e-05
1.05247784426e-05
1.05101209785e-05
1.04990485009e-05
1.04933526574e-05
1.04896869885e-05
1.04862445072e-05
1.04860294592e-05
1.04872293986e-05
1.04881790687e-05
1.04885413916e-05
1.0488601672e-05
1.04884179925e-05
1.04877462235e-05
1.04866867626e-05
1.04863775255e-05
1.04890325643e-05
1.04928461681e-05
1.04983157322e-05
1.05101263377e-05
1.05247873808e-05
1.05123209554e-05
1.04936502521e-05
1.04893885645e-05
1.04857695712e-05
1.04823310686e-05
1.0480846805e-05
1.04804858089e-05
1.04801581834e-05
1.04796284913e-05
1.04790504276e-05
1.0478799379e-05
1.04791759122e-05
1.0479881388e-05
1.04804755326e-05
1.0481006557e-05
1.04820137427e-05
1.04850380863e-05
1.04891111627e-05
1.04936968586e-05
1.05123831368e-05
1.04934266e-05
1.04070684405e-05
1.03691702311e-05
1.03490134168e-05
1.03403096178e-05
1.03379393755e-05
1.03386750155e-05
1.03404930066e-05
1.03423049249e-05
1.03434606452e-05
1.03436403845e-05
1.03427873072e-05
1.03412192536e-05
1.03395868613e-05
1.03389755325e-05
1.03413864191e-05
1.03500029191e-05
1.03700107433e-05
1.04079898763e-05
1.04939736154e-05
1.04888755001e-05
1.03689761157e-05
1.02983190587e-05
1.02574471263e-05
1.02373843073e-05
1.02294916569e-05
1.02282316723e-05
1.02295067422e-05
1.02311891057e-05
1.02323937438e-05
1.02328018076e-05
1.02323050779e-05
1.02310960058e-05
1.02300422084e-05
1.02314912403e-05
1.02394172131e-05
1.02592424832e-05
1.02996883424e-05
1.03702906768e-05
1.04899009237e-05
1.04848653437e-05
1.03488806706e-05
1.02576017035e-05
1.01993261527e-05
1.01681768538e-05
1.01546605122e-05
1.01507458358e-05
1.01507444055e-05
1.01522561937e-05
1.01539718267e-05
1.01546878164e-05
1.01540962362e-05
1.01524680127e-05
1.01518893291e-05
1.0156390749e-05
1.01704618284e-05
1.02013423716e-05
1.0259035793e-05
1.03501739724e-05
1.04861949237e-05
1.04815785127e-05
1.03401648266e-05
1.02375691881e-05
1.01682379918e-05
1.01314378741e-05
1.01158080952e-05
1.01106754544e-05
1.01091416345e-05
1.01101635331e-05
1.01126118479e-05
1.011373625e-05
1.01127958781e-05
1.01094637681e-05
1.01073973558e-05
1.01133212059e-05
1.01320987183e-05
1.01704100998e-05
1.02391594255e-05
1.03415305666e-05
1.04830057443e-05
1.04803420585e-05
1.03376762355e-05
1.02295154211e-05
1.01549220966e-05
1.01170181611e-05
1.0101477519e-05
1.00954062815e-05
1.00923275762e-05
1.00932341905e-05
1.00968257631e-05
1.00984103057e-05
1.00967598902e-05
1.00903829298e-05
1.00846831371e-05
1.00901504301e-05
1.01123167154e-05
1.01562550131e-05
1.023144488e-05
1.03392066066e-05
1.04818491254e-05
1.04798324791e-05
1.03382490881e-05
1.02280980508e-05
1.01518531069e-05
1.01148068052e-05
1.01004161943e-05
1.00948878049e-05
1.00920462039e-05
1.00938954408e-05
1.0098884955e-05
1.01008640803e-05
1.00980999545e-05
1.00879380758e-05
1.00769942904e-05
1.00800287751e-05
1.0103762895e-05
1.01512117865e-05
1.02302820676e-05
1.03399961508e-05
1.04814575297e-05
1.04792999063e-05
1.0339866387e-05
1.02292458506e-05
1.01530729208e-05
1.01170584547e-05
1.010459388e-05
1.01011056645e-05
1.01004288716e-05
1.01043232406e-05
1.01106625721e-05
1.0112772813e-05
1.01087272351e-05
1.00953234002e-05
1.00798528789e-05
1.00793607167e-05
1.01026068943e-05
1.0151012057e-05
1.02316253773e-05
1.03418716969e-05
1.04810354564e-05
1.04786322941e-05
1.03414498877e-05
1.02306146817e-05
1.01547115764e-05
1.01195222439e-05
1.01087432407e-05
1.01076613434e-05
1.01099102073e-05
1.01163045698e-05
1.01240798734e-05
1.01259343783e-05
1.01202354576e-05
1.01044995427e-05
1.00863490904e-05
1.0083304341e-05
1.01050185671e-05
1.01528119042e-05
1.02332966615e-05
1.03437104923e-05
1.04804483588e-05
1.04780732653e-05
1.03423774381e-05
1.02313484656e-05
1.01556294994e-05
1.01208478095e-05
1.01109530717e-05
1.01113281522e-05
1.01155755041e-05
1.01241715347e-05
1.01334889254e-05
1.01346164901e-05
1.01271789382e-05
1.01098594827e-05
1.00906246399e-05
1.00863876677e-05
1.0107136976e-05
1.01542694175e-05
1.02343217302e-05
1.03448554579e-05
1.04799189424e-05
1.04780579597e-05
1.03423785143e-05
1.02313317703e-05
1.01555878117e-05
1.01207662226e-05
1.01108209425e-05
1.011116285e-05
1.01154213608e-05
1.0124103062e-05
1.01335492859e-05
1.01345458284e-05
1.01269876016e-05
1.01096228487e-05
1.00904014136e-05
1.00862069757e-05
1.01070052864e-05
1.01541810591e-05
1.02342714585e-05
1.03448494489e-05
1.04799081315e-05
1.04786019951e-05
1.03414643092e-05
1.02305816102e-05
1.01546116905e-05
1.01193371952e-05
1.01084550918e-05
1.01073094703e-05
1.01095732953e-05
1.01160820018e-05
1.01239316266e-05
1.01256389566e-05
1.01197782582e-05
1.01039598102e-05
1.00858367092e-05
1.00828784132e-05
1.01046920548e-05
1.01525804845e-05
1.02331632844e-05
1.03436915049e-05
1.04804249339e-05
1.04792737896e-05
1.03399086932e-05
1.02292385597e-05
1.01530473246e-05
1.01171359081e-05
1.010483583e-05
1.01015440425e-05
1.01010492107e-05
1.01050642209e-05
1.0111391449e-05
1.01133736123e-05
1.01092286869e-05
1.00957873133e-05
1.00802879932e-05
1.00795701341e-05
1.01025298044e-05
1.01507854906e-05
1.02314576163e-05
1.03418497238e-05
1.04810190771e-05
1.04798222414e-05
1.03383372612e-05
1.0228142758e-05
1.01519478541e-05
1.01152963124e-05
1.01015422844e-05
1.00966842249e-05
1.00943057245e-05
1.00962438734e-05
1.01011153438e-05
1.01030149326e-05
1.0100252346e-05
1.00901655852e-05
1.00790017541e-05
1.00812396625e-05
1.01040910824e-05
1.01510712395e-05
1.02301349818e-05
1.03399896531e-05
1.04814599757e-05
1.04803463261e-05
1.03378053377e-05
1.02296034996e-05
1.01549955711e-05
1.01174779318e-05
1.0102745889e-05
1.00975242689e-05
1.00950012987e-05
1.00959737981e-05
1.00994130778e-05
1.01009363052e-05
1.00993354183e-05
1.00929910928e-05
1.00868613628e-05
1.00913433242e-05
1.01125530851e-05
1.01561026384e-05
1.02313420818e-05
1.03392395691e-05
1.0481873738e-05
1.04815564521e-05
1.03403314542e-05
1.02377018784e-05
1.01682719731e-05
1.01315571257e-05
1.011640723e-05
1.01118544764e-05
1.01106465972e-05
1.01116534072e-05
1.01139569115e-05
1.01150274316e-05
1.01141367466e-05
1.01108063701e-05
1.01084157372e-05
1.01137098935e-05
1.01319994605e-05
1.01702552649e-05
1.0239132063e-05
1.0341619761e-05
1.04830151737e-05
1.04847849661e-05
1.0349071652e-05
1.02577825734e-05
1.01993329823e-05
1.01680652429e-05
1.01545253516e-05
1.01507430997e-05
1.01508216376e-05
1.01522530505e-05
1.01538559334e-05
1.01545274863e-05
1.01539723167e-05
1.01523726392e-05
1.01516982954e-05
1.01560733146e-05
1.0170181794e-05
1.02012082283e-05
1.02591029747e-05
1.03503185295e-05
1.04861371598e-05
1.048881351e-05
1.03691709644e-05
1.02985308931e-05
1.02574937675e-05
1.02372412943e-05
1.02291888695e-05
1.02278230495e-05
1.02289985223e-05
1.02305582796e-05
1.02316806561e-05
1.02320606325e-05
1.02315944751e-05
1.02304674135e-05
1.02294974826e-05
1.02310489692e-05
1.02391465043e-05
1.02591892085e-05
1.02998280068e-05
1.0370472051e-05
1.0489842807e-05
1.04934033129e-05
1.04072052141e-05
1.0369397172e-05
1.03491594919e-05
1.03403527475e-05
1.03378795529e-05
1.03385308489e-05
1.03402699018e-05
1.03420246625e-05
1.03431549107e-05
1.03433290915e-05
1.03424803607e-05
1.03409579845e-05
1.03393881102e-05
1.03388614965e-05
1.03413780341e-05
1.0350110716e-05
1.03702259145e-05
1.04081552476e-05
1.04939542529e-05
1.0512287347e-05
1.0493660897e-05
1.04895138575e-05
1.04859398848e-05
1.04825331171e-05
1.04810644939e-05
1.04806701524e-05
1.0480314409e-05
1.04797632674e-05
1.04791687403e-05
1.04789214254e-05
1.04793138546e-05
1.04800407766e-05
1.04806638417e-05
1.04812303358e-05
1.04822553277e-05
1.04852371625e-05
1.04892320047e-05
1.04937050354e-05
1.05122913912e-05
1.04848363293e-05
1.04889312032e-05
1.04855566809e-05
1.04811199825e-05
1.04775999711e-05
1.04744372012e-05
1.04711104107e-05
1.04681428552e-05
1.0465697252e-05
1.04639699855e-05
1.04635263343e-05
1.04646740345e-05
1.0466894487e-05
1.04696916724e-05
1.04732179212e-05
1.0477011465e-05
1.04808624054e-05
1.04844657995e-05
1.04881785401e-05
1.04854644996e-05
1.04877629833e-05
1.03950179009e-05
1.0346262639e-05
1.03209142157e-05
1.03093966514e-05
1.03052614289e-05
1.0304700422e-05
1.03054182298e-05
1.03063439323e-05