/*--------------------------------*- C++ -*----------------------------------*\
| =========                 |                                                 |
| \\      /  F ield         | OpenFOAM: The Open Source CFD Toolbox           |
|  \\    /   O peration     | Version:  3.0.1                                 |
|   \\  /    A nd           | Web:      www.OpenFOAM.org                      |
|    \\/     M anipulation  |                                                 |
\*---------------------------------------------------------------------------*/
FoamFile
{
    version     2.0;
    format      ascii;
    class       surfaceVectorField;
    location    "8.2";
    object      ddt0(Uf);
}
// * * * * * * * * * * * * * * * * * * * * * * * * * * * * * * * * * * * * * //

dimensions      [0 1 -2 0 0 0 0];

internalField   nonuniform List<vector> 
22672
(
(0.00117646456862 0.000690845688083 -0.000903503511106)
(0.00069123837441 0.00117545411963 -0.000903167826509)
(0.000565425593507 0.000564882653954 -0.00235164505473)
(0.00206864453559 0.000747790972501 -0.000761254180376)
(0.00173934677588 0.00121534872626 -0.000846265193348)
(0.00131742672701 0.000573070784147 -0.00210727947976)
(0.00246398868601 0.000769558359613 -0.000566654212537)
(0.00229400028037 0.00124518718004 -0.000607497300918)
(0.00177196648079 0.000694540272381 -0.00164020160126)
(0.00249802283301 0.000747491124859 -0.000350947361303)
(0.00256547754364 0.00126891981634 -0.000490605519299)
(0.00179044915367 0.000770299314286 -0.0013025256281)
(0.00227106812544 0.000697305266132 -0.000183383902878)
(0.00239982450447 0.00123616906766 -0.000180578585783)
(0.00149544663277 0.00076231181432 -0.00100873527953)
(0.00193231543379 0.000651927278503 -0.000137265189629)
(0.0021883067563 0.00114607835054 -0.000128488699966)
(0.0012283287005 0.000746119536689 -0.000806845309346)
(0.00148144181825 0.000632850681817 -9.50974044778e-05)
(0.00178285865328 0.00108088178225 -1.30630546393e-05)
(0.000831530899025 0.00073231091995 -0.000629580655216)
(0.000967509801411 0.000652290409936 -8.05528301832e-05)
(0.00126250285205 0.00104054950078 8.03865712072e-05)
(0.000458186301322 0.000745888241539 -0.000526296095104)
(0.000462723197917 0.000697274434473 -9.86814132322e-05)
(0.000721685043017 0.0010376311578 0.000117356961387)
(0.000185462356159 0.000794485363041 -0.000532677888918)
(6.9805531247e-06 0.000723246290905 -0.000117573607162)
(0.000229701980921 0.00107190155092 0.000111113821897)
(3.38214247403e-05 0.00086241088778 -0.000616184364532)
(-0.000449222544118 0.000697187373065 -9.84262243556e-05)
(-0.000215946179376 0.00107162526072 0.000111356344758)
(-2.01314768367e-05 0.00086227363615 -0.000615656017081)
(-0.000955272206357 0.000651902598967 -7.99343751515e-05)
(-0.000708697382873 0.00103675986424 0.000118122878767)
(-0.000172656250615 0.000794035196511 -0.000531135468683)
(-0.0014712295967 0.000632006426333 -9.40336970294e-05)
(-0.00125126696253 0.00103896155207 8.17434290424e-05)
(-0.000447128792406 0.00074500600093 -0.000523562230104)
(-0.00192475557812 0.000650765933581 -0.000136007672647)
(-0.0017743571682 0.00107880342881 -1.14591385335e-05)
(-0.000823163203049 0.000731021177529 -0.000625873122508)
(-0.00226620945021 0.000695989477809 -0.000182209993891)
(-0.00218273808828 0.00114390280103 -0.000126951159537)
(-0.00122274835326 0.000744790639552 -0.00080297848798)
(-0.0024953873086 0.000746122152946 -0.000349760657217)
(-0.00239584443561 0.00123378167294 -0.000179149615319)
(-0.00149171112058 0.000760980629422 -0.00100498856304)
(-0.00246287423541 0.000768256103899 -0.000565643855693)
(-0.00256420065825 0.00126677877269 -0.000489291023293)
(-0.00178865762407 0.000769155712545 -0.00129950843105)
(-0.00206836543042 0.000746484677519 -0.000760578294713)
(-0.00229329550201 0.00124318498181 -0.000606725337946)
(-0.00177123584444 0.000693501753398 -0.00163779254085)
(-0.00117666377439 0.000689422028547 -0.00090301066194)
(-0.00173943386843 0.00121319881312 -0.000845648356157)
(-0.00131736546886 0.000571931701995 -0.00210502013984)
(-0.000691514820864 0.00117309335891 -0.000903001553851)
(-0.000565996715823 0.000563316644537 -0.00235001920388)
(0.00121626405064 0.00173762760873 -0.00084592950875)
(0.000748238737567 0.00206573601528 -0.000760557346863)
(0.000573932204611 0.00131458110958 -0.00210627675372)
(0.00205976652973 0.00177085027009 -0.00069250831389)
(0.00177228658193 0.00205754271517 -0.000692405050387)
(0.00134136515533 0.00133927632213 -0.00168539749138)
(0.00243643144096 0.00180434765879 -0.00053144860768)
(0.00228717216111 0.00209243278498 -0.000463477894661)
(0.00177291589998 0.0015229678724 -0.00122350218184)
(0.00250427164345 0.00179599730617 -0.000320236743779)
(0.00253790435495 0.0020945178444 -0.000361339824835)
(0.00190104985311 0.00172893105223 -0.000892921226325)
(0.00228570396354 0.00169397131899 -0.000125683382871)
(0.00243293276432 0.00198097325234 -6.01046807369e-05)
(0.00171452414077 0.0018096020476 -0.000525665674897)
(0.00198078832814 0.0015625259236 -4.28656497698e-06)
(0.00221279180404 0.00173581125568 2.70623838041e-05)
(0.00145405296392 0.00176410612777 -0.000284256737029)
(0.00152642549052 0.00146575733929 0.000162420921046)
(0.00186992140146 0.00155496394173 0.000218016101971)
(0.00107730943883 0.00169586323699 -1.92372165654e-05)
(0.000995157389022 0.00140215023135 0.000278296362777)
(0.00138559304302 0.00139873897213 0.000421016088712)
(0.000650464024933 0.00160033628623 0.000173416055696)
(0.00048440680219 0.00138632791042 0.000327152196516)
(0.00083024049366 0.00130580938787 0.000540213352711)
(0.000306880120274 0.00148948055252 0.000242712976346)
(6.79693360878e-06 0.00139098900985 0.000340043773817)
(0.000275916707355 0.0012768512616 0.000580130900671)
(9.13357332067e-05 0.00147101347122 0.000272572425842)
(-0.000471211477192 0.00138527605822 0.000327905447881)
(-0.000262580584455 0.00127616152153 0.000580416046586)
(-7.8483941003e-05 0.00147041272683 0.00027315366812)
(-0.000983332865896 0.00140003821527 0.000279800682961)
(-0.000817836432239 0.00130388328844 0.000541113784433)
(-0.00029474803373 0.00148781508049 0.000244484340239)
(-0.00151681913334 0.00146281527616 0.000164317987538)
(-0.00137514552874 0.00139549602953 0.000422681765011)
(-0.000640092936998 0.00159779826711 0.000176322518745)
(-0.00197377196479 0.00155930683137 -2.4026254236e-06)
(-0.00186217584905 0.00155108377169 0.000219539834096)
(-0.00106959896501 0.00169273963759 -1.59605955086e-05)
(-0.00228111233686 0.00169063303314 -0.000123890780965)
(-0.00220766271941 0.00173194195478 2.83979924258e-05)
(-0.00144894165077 0.00176114047945 -0.000281225626221)
(-0.00250187513885 0.00179274884722 -0.000318679981396)
(-0.00242911321534 0.00197711631313 -5.8531290063e-05)
(-0.00171108413922 0.00180668886212 -0.000522925340279)
(-0.00243551401508 0.00180140634021 -0.000530372505547)
(-0.00253684152548 0.00209105451711 -0.000360316786654)
(-0.00189965888226 0.00172656878769 -0.000890821549574)
(-0.00205946987224 0.00176792406265 -0.00069179539939)
(-0.00228651326936 0.0020891712302 -0.000462995160083)
(-0.00177218722876 0.00152083254468 -0.00122213661664)
(-0.0012164749174 0.00173457800791 -0.000845639248068)
(-0.00177234105757 0.0020541244467 -0.000692064998978)
(-0.00134133995171 0.00133706276975 -0.00168411079282)
(-0.00074851640391 0.00206220976029 -0.000760831133067)
(-0.000574029114178 0.00131204429388 -0.00210591393615)
(0.0012460508211 0.00229059087339 -0.000607032888499)
(0.000770075899955 0.0024591869934 -0.000565939674839)
(0.000695315648701 0.00176722380638 -0.00163909713157)
(0.00209427527929 0.00228452890844 -0.000463374631158)
(0.00180571545695 0.00243290093022 -0.000530904157435)
(0.00152455392232 0.00176929474699 -0.00122311247755)
(0.00244390074115 0.00228231027801 -0.000293369111817)
(0.00228445713884 0.00244107697516 -0.000293076323957)
(0.00200299803243 0.00200005905478 -0.00069767959285)
(0.00250904373996 0.00218820981254 -0.000101207761793)
(0.00247687128131 0.00237609341941 -0.000193559204242)
(0.00213971943653 0.0021881547195 -0.000346019407016)
(0.00233045661746 0.00194515114288 9.2641085938e-05)
(0.00238928081828 0.00215525777758 6.95304395165e-05)
(0.00201491533498 0.00219220502204 5.03886102341e-06)
(0.00206922348533 0.00164830649717 0.000249365050752)
(0.00215461847431 0.00173860309797 0.000158845593069)
(0.00178167405122 0.00200634119896 0.000259126859414)
(0.00168001943643 0.00139487862673 0.000476611269637)
(0.00187616378158 0.00138599119576 0.000335329891343)
(0.00147843217025 0.00178851479358 0.00055872401695)
(0.00119009750035 0.00119031213264 0.000682933078646)
(0.00146836949941 0.00104154432878 0.000544885688078)
(0.00107422448985 0.00155847447486 0.00084745206783)
(0.000627909286992 0.0010674510854 0.000793192056867)
(0.000932602589838 0.000775755138057 0.00071324824097)
(0.000629922927782 0.00137656581667 0.00109232441815)
(6.52410296562e-06 0.00102832908356 0.000820503173441)
(0.000321917504238 0.000625659359217 0.000782641629352)
(0.000210902827957 0.00127169802262 0.00127239817071)
(-0.000615308834553 0.00106578030379 0.000793624383138)
(-0.000309455199646 0.000624604574657 0.000782808918609)
(-0.000198932026786 0.00127076098689 0.00127297632926)
(-0.00117936750711 0.00118720573317 0.000683994866483)
(-0.000921155407901 0.000772767966897 0.00071381331516)
(-0.000618720862731 0.00137398103209 0.0010945876652)
(-0.00167129392821 0.00139089455776 0.000477903611569)
(-0.00145876013245 0.00103751876621 0.000545946365062)
(-0.00106483886319 0.00155467759061 0.000849245231027)
(-0.00206287736176 0.00164405840974 0.000250340451946)
(-0.00186898170072 0.00138171529065 0.000335996115066)
(-0.00147145189692 0.00178425451158 0.000560345734426)
(-0.00232605117862 0.0019409992856 9.37574833285e-05)
(-0.0021497829838 0.00173420586279 0.000159263228394)
(-0.00177694905238 0.00200241989776 0.000260465929225)
(-0.00250680009475 0.00218437119675 -0.000100168095322)
(-0.0023854836346 0.00215116181901 7.06433778674e-05)
(-0.00201163332656 0.00218880226025 6.47110774627e-06)
(-0.00244302453163 0.0022787795479 -0.000292939441191)
(-0.00247571247517 0.00237252544729 -0.000193185447497)
(-0.00213843274777 0.00218540304851 -0.000345305304872)
(-0.00209396833713 0.00228100718408 -0.000463264759672)
(-0.00228372729222 0.00243776275213 -0.000293137923737)
(-0.00200229966931 0.00199762374156 -0.000697655294313)
(-0.00124623396801 0.00228689376331 -0.000607256883978)
(-0.00180555768241 0.00242937749203 -0.000531182225334)
(-0.00152462719499 0.00176663242308 -0.00122312636834)
(-0.000770216059688 0.00245546255988 -0.000566517463785)
(-0.00069541068714 0.001764051668 -0.0016398001122)
(0.00126990925135 0.00256066437934 -0.000489810943775)
(0.000748255273023 0.00249137714476 -0.000350482924472)
(0.000770791759901 0.00178368340055 -0.00130151973544)
(0.00209612049725 0.00253422684722 -0.000360605850235)
(0.00179753933972 0.00249884954629 -0.00031920605764)
(0.00173066171104 0.001895862886 -0.000891496006033)
(0.00237835920938 0.00247394695254 -0.000193266416383)
(0.00219016450697 0.00250470514792 -0.000100209778841)
(0.00219053260258 0.00213552761377 -0.000345074705846)
(0.00238617876782 0.00228891493959 -2.28210029325e-05)
(0.00229139820353 0.00238275479908 -2.23529637888e-05)
(0.00228287454984 0.00227948598251 -1.35879957318e-05)
(0.00218592322622 0.00191244986647 0.000135734946648)
(0.00216784760205 0.00207671374174 0.000170699625097)
(0.00213812044061 0.0021829322378 0.000279697554476)
(0.00193318855473 0.00146083529212 0.00024481043366)
(0.0019054567626 0.0015310469816 0.000211018239142)
(0.00187852922269 0.00185365581447 0.00046107550053)
(0.00161340923561 0.00103923923035 0.000403604309783)
(0.0016686432328 0.00103933246607 0.000319710683093)
(0.00159556428953 0.00147724827053 0.000666998755899)
(0.00117792569221 0.000665430443979 0.000575200850402)
(0.00132791336704 0.000547233574837 0.000467604009711)
(0.0012363967581 0.00108255041811 0.000930058273808)
(0.000624113689764 0.0004128039742 0.000702697813455)
(0.000871794118691 0.000167954228487 0.000517415700004)
(0.000781930361619 0.000785465174111 0.00116156039275)
(5.8779855979e-06 0.000321552441458 0.00074494737452)
(0.000304608230854 -3.46679166706e-05 0.000566983090205)
(0.000269534797953 0.000614913808449 0.00127822838616)
(-0.000612780439742 0.000410731065884 0.00070299785063)
(-0.000293249924851 -3.56962936658e-05 0.000566996994775)
(-0.000258521404783 0.000613849349186 0.00127840092239)
(-0.0011679405894 0.00066183922577 0.000575764813738)
(-0.000861262478001 0.000165104896493 0.000517486040216)
(-0.000771651417309 0.000782517083416 0.00116212763206)
(-0.00160503526659 0.00103488949798 0.000404038868558)
(-0.00131879624482 0.00054325345046 0.000467982530374)
(-0.0012275812385 0.0010784605627 0.000930648368841)
(-0.00192727747765 0.00145635583955 0.000244918891514)
(-0.00166156011637 0.00103478156617 0.000319711559663)
(-0.00158870931556 0.00147293894544 0.000668581067024)
(-0.00218145650238 0.00190828771773 0.000136149122933)
(-0.00190045517985 0.00152694655458 0.000210619821927)
(-0.00187372463392 0.0018498207838 0.000461065818264)
(-0.00238375910391 0.00228529104767 -2.23739743077e-05)
(-0.0021637982775 0.00207329165893 0.00017120989675)
(-0.00213471402677 0.00218000468001 0.000280046228538)
(-0.0023772287908 0.00247075319341 -0.000193383930043)
(-0.00228977887593 0.00237986847309 -2.25616252456e-05)
(-0.00228142870734 0.00227731422958 -1.38248914307e-05)
(-0.00209557055632 0.00253104762466 -0.000361055389398)
(-0.00218905802543 0.00250215456823 -0.000100769819418)
(-0.00218971577119 0.00213364684276 -0.000345974918178)
(-0.00126971807486 0.00255716660271 -0.000490442805141)
(-0.00179686765725 0.00249620465478 -0.000320039594366)
(-0.00173019886023 0.00189369584271 -0.000892771497557)
(-0.000748045531679 0.00248821136137 -0.000351333354003)
(-0.000770913470085 0.0017807916276 -0.00130276961107)
(0.00123751312957 0.00239263993892 -0.000179878038337)
(0.000698367100563 0.00226256469943 -0.000183226290917)
(0.000762889894165 0.0014868910923 -0.00100799156569)
(0.00198276266249 0.00242683692371 -5.88099862458e-05)
(0.00169591572938 0.00227793684883 -0.000124429311461)
(0.001811218775 0.00170677911821 -0.000523527865738)
(0.00215739704904 0.00238438896596 7.07036737533e-05)
(0.00194731915656 0.00232396739337 9.42030333643e-05)
(0.00219431727911 0.00200854205155 7.04555162522e-06)
(0.00207964790265 0.00216389775164 0.000171167664241)
(0.0019148974966 0.00218069409211 0.000136901386483)
(0.00218585626107 0.00213294153574 0.000280839997023)
(0.00185175960888 0.0017170793944 0.000245982917592)
(0.00172060332892 0.00184743475647 0.000246299464126)
(0.0019847704103 0.00198035129569 0.000458161764176)
(0.00161004179356 0.00115245036996 0.000285918488576)
(0.00144427038566 0.00125918838033 0.000190686938177)
(0.00169846320108 0.00155206547793 0.000514384522744)
(0.00134481383361 0.000606231184101 0.000383710383021)
(0.00125182725195 0.000705304625826 0.000218827270024)
(0.00143597958979 0.00106734783851 0.000599754556346)
(0.000988436939457 0.000125466367049 0.000409818859313)
(0.00099834564715 0.000165921542238 0.00030645847242)
(0.001122277736 0.000565495293954 0.000737811533482)
(0.000534644206144 -0.000193698446382 0.000381700976754)
(0.000662028846735 -0.000231321512592 0.00030824658787)
(0.000730420128544 0.000174450671774 0.000852846557548)
(5.38187489288e-06 -0.00030479511216 0.000389032710461)
(0.000237196540957 -0.000426577331277 0.000213118544643)
(0.000257068854121 -3.14087080614e-05 0.000920666978043)
(-0.00052420409942 -0.00019553339626 0.000381485184361)
(-0.000226575579784 -0.000427447068819 0.000212816705466)
(-0.000246731528193 -3.23800212607e-05 0.000920632610162)
(-0.000978931396601 0.000122235532617 0.000409703756852)
(-0.000652081536124 -0.00023369471283 0.000308251322301)
(-0.000720743917914 0.000171812607879 0.000852725959748)
(-0.00133674579632 0.000602289075898 0.000383655221479)
(-0.000989602578935 0.000162674934385 0.000306593063528)
(-0.00111373518114 0.000561902634929 0.000737627383153)
(-0.00160373372862 0.00114854312003 0.000285412490076)
(-0.00124475904487 0.000702030465509 0.00021857659192)
(-0.00142903639536 0.00106376185063 0.000599146913986)
(-0.00184688501895 0.00171378033239 0.000245680595744)
(-0.00143898787312 0.00125633420765 0.000189828990454)
(-0.00169321297946 0.00154907627774 0.000513428992142)
(-0.00207671026935 0.0021612345742 0.000171022245812)
(-0.00171619948935 0.00184524655426 0.000246272402083)
(-0.00198091233258 0.00197839216033 0.000457799238178)
(-0.00215564760026 0.00238218657065 7.00524853794e-05)
(-0.00191284833966 0.00217903674999 0.000136290213167)
(-0.00218399121823 0.00213177620756 0.000279860789395)
(-0.00198163705522 0.00242490345018 -5.97540243856e-05)
(-0.00194586935478 0.00232274476835 9.33601586577e-05)
(-0.00219318572594 0.00200790485726 5.4867461331e-06)
(-0.00123677684727 0.00239042199684 -0.000180930143229)
(-0.00169497422365 0.00227667818016 -0.000125342475489)
(-0.0018104616148 0.00170615868846 -0.000525442018077)
(-0.000697940271545 0.00226050132112 -0.000184206951629)
(-0.000762623807103 0.00148517274266 -0.00100938948784)
(0.0011477514229 0.00217939226324 -0.00012777756404)
(0.0006531968883 0.00192207194292 -0.00013749165944)
(0.000746935212087 0.0012176654278 -0.000806477517438)
(0.00173809134455 0.00220481365364 2.85837081494e-05)
(0.00156492989218 0.00197058393462 -3.1789860237e-06)
(0.00176591032925 0.00144382846102 -0.000282095861704)
(0.00174098993081 0.00214797117354 0.000160400746094)
(0.00165099134354 0.00206040672622 0.000251196458285)
(0.00200864747154 0.00177309929442 0.000261690059479)
(0.00153399749669 0.00190001110155 0.000212033186368)
(0.00146371589991 0.00192572992895 0.000246506892076)
(0.00185657430584 0.00187139197314 0.000463060950426)
(0.0012632484007 0.00143955950345 0.000191003484712)
(0.00115608128461 0.00160387676108 0.000287007037296)
(0.00155623845097 0.00169233417878 0.000515339741036)
(0.00105879743826 0.000874801303355 0.000123595719625)
(0.000879367946701 0.00105320620238 0.000124041259759)
(0.0012577234269 0.00125204527323 0.000411232235615)
(0.000881001005426 0.000334764566066 0.000141575359422)
(0.000735260789715 0.00052532492706 7.43793929344e-05)
(0.00103659411719 0.000761266140957 0.000358209984829)
(0.000651286377772 -0.000133159029903 0.000204886200977)
(0.000589663487024 1.92658551058e-05 0.000110889947057)
(0.000811472228363 0.000269572437813 0.000376426518962)
(0.000341190501277 -0.000419908537216 0.000139664155759)
(0.000400078125726 -0.000373568440552 4.04015449955e-05)
(0.000533944898723 -0.000117829708762 0.000452063097698)
(5.09416570165e-06 -0.000504574656038 3.69025396487e-05)
(0.000145971145874 -0.000558426706473 -5.81224031242e-05)
(0.000194338993437 -0.000314608939894 0.000467410320259)
(-0.000331172968391 -0.000421328708598 0.000139582843407)
(-0.00013561855356 -0.000559050251699 -5.84728582292e-05)
(-0.000184318358083 -0.000315349292025 0.000467164447727)
(-0.000642158588104 -0.000135586952135 0.000205140628978)
(-0.000390258537863 -0.000375471781449 4.05077370741e-05)
(-0.000524506880398 -0.000119875667086 0.000451988691892)
(-0.000873235659239 0.000332108273428 0.000141514433969)
(-0.000580971644686 1.70746792519e-05 0.000111135698287)
(-0.000803032901161 0.000267026126418 0.000375966364258)
(-0.00105248869452 0.000872499002377 0.000122993092298)
(-0.000728071674256 0.00052350834124 7.40417433049e-05)
(-0.00102953822645 0.000759074825896 0.000357241344843)
(-0.00125827033884 0.0014378811017 0.000190420796793)
(-0.000873757901012 0.00105203660992 0.000123178476995)
(-0.00125224418401 0.00125066898196 0.00040980723821)
(-0.00153072659668 0.00189897363027 0.000211540369438)
(-0.00115118978236 0.00160339795735 0.000286734228739)
(-0.00155188226612 0.00169186582414 0.000514270806467)
(-0.00173909595772 0.00214736218023 0.000159597886445)
(-0.00146127352723 0.00192586196412 0.00024566605609)
(-0.00185419883891 0.0018717885037 0.000461635379216)
(-0.00173691260122 0.0022042030198 2.77717075542e-05)
(-0.00164927477174 0.00206066001152 0.000250282864176)
(-0.00200728408804 0.00177408229245 0.000259943378409)
(-0.00114707756552 0.00217813816931 -0.000128619283889)
(-0.00156397081088 0.00197044864986 -3.95016143442e-06)
(-0.00176520035426 0.0014447246243 -0.000283790362433)
(-0.00065271553537 0.00192069991059 -0.000138395922186)
(-0.000746456698124 0.00121725764103 -0.000807648295741)
(0.00108279850294 0.00177177127014 -1.28930814238e-05)
(0.00063438777114 0.0014697976153 -9.58827231848e-05)
(0.000733385030322 0.000818831357054 -0.00062972495903)
(0.001557903715 0.00185945624937 0.000219433764112)
(0.00146876709449 0.00151429171201 0.000162887002018)
(0.00169783952348 0.00106439354494 -1.78961973802e-05)
(0.00138899706222 0.00186712606243 0.000337302604267)
(0.00139849900632 0.00166893993147 0.000478394659721)
(0.001791398946 0.00146726033519 0.000561433051847)
(0.00104284878037 0.00166104951151 0.000321480743004)
(0.00104314511344 0.00160377449601 0.000405558436767)
(0.00148070474333 0.0015860532954 0.000669238454821)
(0.000709556871826 0.00124527295542 0.000220044812343)
(0.000610523585742 0.00133652691853 0.000385560722669)
(0.00107175812556 0.00142773808528 0.000601703439186)
(0.00053082377066 0.000729176463281 7.48249330691e-05)
(0.000339722644004 0.000873529886243 0.000142863335053)
(0.000766974512965 0.00102907175992 0.000359230731169)
(0.000433348116551 0.000229506194226 4.36939805697e-05)
(0.000235574020536 0.000426329393855 4.39954672001e-05)
(0.000591545544678 0.000584296265951 0.000196970470295)
(0.000321942071849 -0.000187823688135 -5.35947089242e-05)
(0.000196815099913 -1.32620316286e-05 -6.84999402929e-05)
(0.000461699065512 0.000143771985722 0.000144091256088)
(0.000184918407826 -0.000454295619001 -0.000157385013888)
(0.000152976913775 -0.000321908566816 -0.000188906400395)
(0.000319704353974 -0.000189870136429 8.52365545265e-05)
(5.09237961395e-06 -0.000550713559156 -0.000153497801002)
(5.73569915203e-05 -0.000483460088885 -0.000190843634055)
(0.000116779917811 -0.000377845223296 0.000104513697815)
(-0.000174902252058 -0.000455352478184 -0.000157547964562)
(-4.6909819225e-05 -0.000483865221471 -0.000191047480341)
(-0.000106610559274 -0.000378350523596 0.000104314134312)
(-0.000312623802062 -0.000189444120837 -5.34971936174e-05)
(-0.000142894758946 -0.000323072949851 -0.00018925938204)
(-0.000310038308332 -0.000191177577706 8.47661736276e-05)
(-0.000425250152111 0.00022815505558 4.36630076221e-05)
(-0.000187646635484 -1.44739305274e-05 -6.83799339661e-05)
(-0.000452864808119 0.00014240794044 0.000143660429021)
(-0.000524038207317 0.00072849546763 7.42271280012e-05)
(-0.000227847846207 0.000426011804757 4.39014874122e-05)
(-0.000583949949788 0.00058362446176 0.000195928022318)
(-0.000704045818193 0.0012452519575 0.00021949190894)
(-0.000333542014925 0.000874087379697 0.000142294072822)
(-0.000760846779184 0.00102940754677 0.000357804963154)
(-0.00103878155076 0.00166156097981 0.000320859915391)
(-0.000605168757121 0.00133764089823 0.00038539235285)
(-0.0010667594162 0.00142903289748 0.000600512536442)
(-0.00138670762863 0.00186799732972 0.000336351033821)
(-0.00104026282267 0.00160510684281 0.000404863856091)
(-0.00147769283553 0.00158806577789 0.000668752722876)
(-0.00155633500316 0.00186020125076 0.000218560995188)
(-0.00139647399585 0.00167053367845 0.000477657434804)
(-0.00178954063122 0.00146984532629 0.000559716700149)
(-0.00108205763134 0.001771626664 -1.37267997314e-05)
(-0.00146777695546 0.00151529093837 0.000162221017735)
(-0.00169711011688 0.00106672027904 -1.94174417295e-05)
(-0.000633897781904 0.00146955422283 -9.67972918059e-05)
(-0.000732797247432 0.000819587930281 -0.000631349308478)
(0.00104308643805 0.00125016053908 7.98973602568e-05)
(0.000654195971421 0.000955593336392 -8.17441173689e-05)
(0.000747478359974 0.000444186821193 -0.000528104594)
(0.00140263576732 0.00137322534957 0.000421847897627)
(0.00140593728407 0.00098247748921 0.00027818606988)
(0.00160272685087 0.000636182240163 0.00017317032605)
(0.0010459011768 0.00145701073077 0.00054665049222)
(0.00119502935694 0.00117749190886 0.000684237543132)
(0.00156234994544 0.00106089155759 0.000849242123445)
(0.000551826901291 0.00131797189733 0.000469638416431)
(0.000670833914211 0.00116628332577 0.000576733807819)
(0.00108715745705 0.00122462787722 0.000932717395763)
(0.000171025984875 0.000989643537314 0.000308379245378)
(0.000131023286171 0.000978150908243 0.000412075503244)
(0.000570787108876 0.00111190900751 0.000740283087026)
(2.52003779733e-05 0.000581760881657 0.000112033869184)
(-0.000127211563571 0.000642078298277 0.000206421811322)
(0.000275895896391 0.000802036359617 0.000378211535108)
(-6.22295670921e-06 0.000189302465592 -6.8198453663e-05)
(-0.000180865635005 0.000313606029707 -5.33496252793e-05)
(0.000151212627755 0.000452967290676 0.000144818920817)
(1.49968060571e-05 -0.000146199019672 -0.000203811631764)
(-0.000138736787026 7.108440772e-06 -0.000203813554436)
(0.000118721611881 0.00011021180499 -4.11785786526e-05)
(1.8999463467e-05 -0.000366131998172 -0.000222365020562)
(-7.50262538419e-05 -0.000229494537891 -0.000240520190752)
(9.23198048033e-05 -0.000163215051922 -9.6234891321e-05)
(5.21879751933e-06 -0.000439030863915 -0.000228393313393)
(-2.21219482459e-05 -0.000343790995143 -0.000266214580638)
(3.79688951273e-05 -0.000301519171457 -0.000125892750652)
(-8.6939410639e-06 -0.000366658074481 -0.000222758897818)
(3.26509989119e-05 -0.00034396440351 -0.000266426341274)
(-2.74056799201e-05 -0.000301763737638 -0.000126130012991)
(-5.18332967133e-06 -0.000146957204083 -0.000204142122389)
(8.53119479747e-05 -0.000229931242558 -0.000241098678229)
(-8.21297767317e-05 -0.000163732906921 -9.68697983834e-05)
(1.4994825884e-05 0.000189109641772 -6.81414541758e-05)
(0.000148259356751 6.80459651728e-06 -0.00020416057025)
(-0.000109263503707 0.000109908767529 -4.16573857495e-05)
(-1.78041931456e-05 0.000582647937015 0.000111968432233)
(0.000189073491573 0.000314402251222 -5.33203394724e-05)
(-0.000142970453899 0.000453727095208 0.000144299077709)
(-0.000165061323654 0.000991310984683 0.000308194516732)
(0.000133750154642 0.00064402956056 0.000206447762812)
(-0.000269159882828 0.00080398266288 0.000377329476921)
(-0.000547577955479 0.00132003274241 0.000469396293549)
(-0.000125652376116 0.000980648014568 0.00041204262523)
(-0.000565344251565 0.00111478674799 0.000739601155573)
(-0.00104318805129 0.00145924543805 0.000546170257073)
(-0.000667935862869 0.00116901388021 0.000576491921302)
(-0.00108381322853 0.00122808067164 0.000931758256176)
(-0.001401062939 0.00137509233004 0.000421317457352)
(-0.00119320887241 0.00118021266023 0.000683697299151)
(-0.00156039102316 0.001064653957 0.00084807396262)
(-0.00104240117147 0.00125098602969 7.9150525661e-05)
(-0.00140529595171 0.000984156388114 0.000277572267693)
(-0.00160219514104 0.000639338393392 0.00017205722331)
(-0.000653859731343 0.000956163610383 -8.27147235421e-05)
(-0.000746890869215 0.000445982537501 -0.000529507938467)
(0.00104095785909 0.000709528091192 0.000116544592254)
(0.000699322911764 0.000451699340522 -0.000100010170448)
(0.000797064812097 0.000171665824796 -0.000536322712604)
(0.0013103676605 0.00081737990402 0.000540575715386)
(0.00139064615108 0.000472047576927 0.00032673732706)
(0.00149285221985 0.000292630746463 0.000241902032363)
(0.000781497531572 0.000919931976133 0.000714320858731)
(0.00107285265542 0.00061507768003 0.000793941518218)
(0.00138098561838 0.000615768497939 0.00109233335189)
(0.000174183926221 0.00085999368035 0.000519170894631)
(0.000419415919279 0.000611621862241 0.000703467013794)
(0.000791389142872 0.000768717873416 0.00116314104875)
(-0.000224819955521 0.000651453659869 0.000310118069188)
(-0.000186788715143 0.000523170933086 0.000383404209578)
(0.000180982122131 0.000718374652391 0.000855157050733)
(-0.000366180694241 0.000390739180943 4.10383168582e-05)
(-0.000412948940377 0.000331086520773 0.000142872516041)
(-0.000110342045618 0.000523057934467 0.000453413205326)
(-0.000314095521558 0.000144600350389 -0.000188964726053)
(-0.000446333719536 0.000176103419011 -0.000157661630771)
(-0.000181413646198 0.000309971272448 8.6304223297e-05)
(-0.000221922130173 -8.26713056348e-05 -0.000240522113424)
(-0.000358092859119 1.15636591267e-05 -0.000222703697369)
(-0.000154668770541 8.35439794873e-05 -9.59408982339e-05)
(-0.000114969700768 -0.000225622534586 -0.000284369750828)
(-0.000218129346102 -0.000121293471086 -0.0002844467642)
(-8.68027655446e-05 -9.50159735297e-05 -0.000214649205126)
(5.20917440341e-06 -0.000269815305717 -0.000304247608518)
(-7.37052270929e-05 -0.000182027795614 -0.00032942324528)
(-2.47294662221e-05 -0.000178863170923 -0.000281595861109)
(0.000125251428821 -0.000225693805669 -0.000284766121684)
(8.42068369297e-05 -0.000181936517289 -0.000329626421983)
(3.54686944466e-05 -0.000178859778811 -0.000281852404261)
(0.000231739984964 -8.26032446482e-05 -0.000241117126091)
(0.000228410068201 -0.000121009665677 -0.00028495778718)
(9.72216866398e-05 -9.48958612831e-05 -0.000215273233243)
(0.000322997144884 0.000145412453558 -0.000189339455547)
(0.00036762415006 1.23005184594e-05 -0.000223212152912)
(0.000164342075855 8.41902506534e-05 -9.66385948747e-05)
(0.000373868795606 0.000392736347739 4.11589911055e-05)
(0.000454559415269 0.000177930213805 -0.000157744167355)
(0.000189927903375 0.000311820056645 8.57480555792e-05)
(0.000230717160621 0.000654315731494 0.000310295871309)
(0.000419351318455 0.000333937805573 0.000143348475764)
(0.000117254362122 0.000526131740473 0.000453430343026)
(-0.000170165002541 0.000863138616047 0.000519138252983)
(0.000191671573674 0.000526530526462 0.000383749054934)
(-0.000175692883478 0.0007223112395 0.000855166548294)
(-0.000779052208663 0.000922961500126 0.00071401896338)
(-0.000417231081865 0.000614964847406 0.000703530083771)
(-0.000788388882446 0.000773038228774 0.00116298398877)
(-0.00130957716718 0.000819808593358 0.000539952109492)