/*--------------------------------*- C++ -*----------------------------------*\
| =========                 |                                                 |
| \\      /  F ield         | OpenFOAM: The Open Source CFD Toolbox           |
|  \\    /   O peration     | Version:  3.0.1                                 |
|   \\  /    A nd           | Web:      www.OpenFOAM.org                      |
|    \\/     M anipulation  |                                                 |
\*---------------------------------------------------------------------------*/
FoamFile
{
    version     2.0;
    format      ascii;
    class       volScalarField;
    location    "8.2";
    object      rAU;
}
// * * * * * * * * * * * * * * * * * * * * * * * * * * * * * * * * * * * * * //

dimensions      [-1 3 1 0 0 0 0];

internalField   nonuniform List<scalar> 
7968
(
1.05289341118e-05
1.05236595064e-05
1.05264059882e-05
1.05317315163e-05
1.05040989873e-05
1.04888012706e-05
1.05086759756e-05
1.05169327549e-05
1.0520626017e-05
1.05219716529e-05
1.05219734986e-05
1.05206337061e-05
1.05169527914e-05
1.05087140122e-05
1.04888412688e-05
1.05041132556e-05
1.05317301046e-05
1.05264062606e-05
1.05236587832e-05
1.05289320455e-05
1.05236645367e-05
1.05111752581e-05
1.05098320081e-05
1.05134558173e-05
1.04938626409e-05
1.04801333007e-05
1.04932807113e-05
1.05019769249e-05
1.05064889382e-05
1.05082057112e-05
1.05082089305e-05
1.05065006878e-05
1.05020027004e-05
1.04933140163e-05
1.04800882982e-05
1.04937965977e-05
1.05134531504e-05
1.05098342841e-05
1.05111750971e-05
1.0523661385e-05
1.05264092891e-05
1.05098303861e-05
1.05061324046e-05
1.05084398735e-05
1.04970454458e-05
1.04848607701e-05
1.0490902456e-05
1.05002686254e-05
1.0506476929e-05
1.0509255434e-05
1.05092609989e-05
1.05064951667e-05
1.05003020292e-05
1.04909390998e-05
1.04848093955e-05
1.0496977356e-05
1.05084423376e-05
1.05061363845e-05
1.05098286901e-05
1.05264038411e-05
1.053173363e-05
1.05134509205e-05
1.05084375632e-05
1.05094618624e-05
1.05008914384e-05
1.04893031251e-05
1.04915185027e-05
1.05007796562e-05
1.05074550431e-05
1.0510689415e-05
1.05106954818e-05
1.05074736011e-05
1.05008122828e-05
1.0491548989e-05
1.04892531802e-05
1.0500832235e-05
1.05094628734e-05
1.05084411349e-05
1.05134464198e-05
1.05317269486e-05
1.05041099735e-05
1.04938270525e-05
1.04970198037e-05
1.05008752874e-05
1.04940726769e-05
1.04763070777e-05
1.04733984293e-05
1.04785297817e-05
1.04865134494e-05
1.04895417576e-05
1.04895489466e-05
1.0486534471e-05
1.04785514567e-05
1.04734181557e-05
1.04762385327e-05
1.0493983421e-05
1.05008674003e-05
1.04970141309e-05
1.04938275844e-05
1.05041018675e-05
1.04888282275e-05
1.0480113275e-05
1.04848521596e-05
1.04893036287e-05
1.04763208575e-05
1.04571437171e-05
1.04550250172e-05
1.04605620904e-05
1.04643478807e-05
1.04696151005e-05
1.04696349262e-05
1.04643682167e-05
1.04605957716e-05
1.0455055169e-05
1.04570940297e-05
1.04762403039e-05
1.04892936325e-05
1.04848480513e-05
1.04801170218e-05
1.04888182917e-05
1.05087027314e-05
1.0493301654e-05
1.04909315833e-05
1.04915520951e-05
1.04734300363e-05
1.04550369323e-05
1.04543649465e-05
1.04603092654e-05
1.0471764998e-05
1.04771259303e-05
1.04771406507e-05
1.04718272988e-05
1.04603445273e-05
1.04544011414e-05
1.04550112833e-05
1.04733783184e-05
1.04915514422e-05
1.04909391286e-05
1.04933021559e-05
1.05086941595e-05
1.05169444922e-05
1.05019874652e-05
1.05002896188e-05
1.05008043502e-05
1.04785488383e-05
1.04605595898e-05
1.04603024288e-05
1.04745307905e-05
1.04849720801e-05
1.04885573762e-05
1.04885670657e-05
1.04850034193e-05
1.04746119558e-05
1.0460334115e-05
1.04605420722e-05
1.04785057498e-05
1.05008072915e-05
1.05002998874e-05
1.05019903079e-05
1.0516940325e-05
1.0520627676e-05
1.05064884498e-05
1.0506486813e-05
1.05074664261e-05
1.04865028652e-05
1.04643333429e-05
1.04716726296e-05
1.04849465575e-05
1.0493128167e-05
1.04963994094e-05
1.04964056593e-05
1.04931494116e-05
1.04849836671e-05
1.04717334445e-05
1.04643165667e-05
1.04864761235e-05
1.05074680355e-05
1.05064966189e-05
1.05064927476e-05
1.05206271721e-05
1.05219705871e-05
1.05082023604e-05
1.05092597554e-05
1.05106925084e-05
1.0489516854e-05
1.04695020838e-05
1.04770524568e-05
1.04885229677e-05
1.04963874749e-05
1.04996177023e-05
1.04996216483e-05
1.04964005563e-05
1.0488546129e-05
1.04770750268e-05
1.04694862597e-05
1.04894843501e-05
1.05106900273e-05
1.05092667384e-05
1.05082052423e-05
1.05219710511e-05
1.05219680464e-05
1.05082020282e-05
1.05092631277e-05
1.05106979321e-05
1.04895297037e-05
1.04695479702e-05
1.04770843405e-05
1.04885407407e-05
1.04963951354e-05
1.04996200306e-05
1.04996228667e-05
1.04964041906e-05
1.04885556355e-05
1.04770918263e-05
1.04695088438e-05
1.04894885789e-05
1.05106901501e-05
1.05092656848e-05
1.05082009399e-05
1.0521966763e-05
1.05206177878e-05
1.05064859703e-05
1.05064944377e-05
1.05074764964e-05
1.04865278096e-05
1.04643594199e-05
1.04717926807e-05
1.04849981003e-05
1.04931540688e-05
1.04964108266e-05
1.04964134277e-05
1.04931629331e-05
1.04850132093e-05
1.04718020547e-05
1.0464333423e-05
1.04864917954e-05
1.05074708182e-05
1.05064965996e-05
1.05064834814e-05
1.05206165324e-05
1.0516926303e-05
1.05019838565e-05
1.05003015332e-05
1.05008172232e-05
1.04785494117e-05
1.04605972264e-05
1.04603604975e-05
1.04746419974e-05
1.04850141275e-05
1.04885753216e-05
1.04885795884e-05
1.04850277939e-05
1.04746774662e-05
1.04603794126e-05
1.046057719e-05
1.04785170185e-05
1.050081752e-05
1.05003079468e-05
1.05019853447e-05
1.05169287248e-05
1.05086802835e-05
1.04933020517e-05
1.04909454964e-05
1.04915621276e-05
1.04734220409e-05
1.04550635089e-05
1.04544267799e-05
1.04603642375e-05
1.04717855226e-05
1.04771183591e-05
1.04771261877e-05
1.04718230841e-05
1.04603868257e-05
1.04544542369e-05
1.04550536401e-05
1.04733978625e-05
1.04915705478e-05
1.04909601199e-05
1.04933116571e-05
1.05086897483e-05
1.04888119568e-05
1.04801216064e-05
1.0484837049e-05
1.04892729262e-05
1.04762401463e-05
1.04570907415e-05
1.04550210252e-05
1.04605566004e-05
1.04643435929e-05
1.04695187718e-05
1.04695309694e-05
1.04643537063e-05
1.04605853807e-05
1.04550593848e-05
1.04570892547e-05
1.04762203265e-05
1.04892938959e-05
1.04848642513e-05
1.04801383401e-05
1.04888311603e-05
1.05041020631e-05
1.04938256503e-05
1.04969930284e-05
1.05008397399e-05
1.04939799804e-05
1.0476226673e-05
1.04733641139e-05
1.04784929857e-05
1.04864314341e-05
1.04894548694e-05
1.04894605716e-05
1.04864583018e-05
1.04785158722e-05
1.04733966066e-05
1.04762128008e-05
1.04939453223e-05
1.05008538557e-05
1.04970095577e-05
1.04938345798e-05
1.05041154581e-05
1.05317270584e-05
1.05134441878e-05
1.05084343634e-05
1.05094590445e-05
1.05008726572e-05
1.04892949053e-05
1.0491536538e-05
1.05007892129e-05
1.05074374998e-05
1.05106551612e-05
1.05106578744e-05
1.05074495525e-05
1.05008101336e-05
1.04915607926e-05
1.04892689555e-05
1.0500832337e-05
1.05094545949e-05
1.05084322641e-05
1.05134425875e-05
1.05317273046e-05
1.05264042381e-05
1.05098293876e-05
1.05061302196e-05
1.05084361179e-05
1.04970333485e-05
1.04848662525e-05
1.04909301246e-05
1.05002877331e-05
1.05064822697e-05
1.05092487886e-05
1.0509250321e-05
1.0506490532e-05
1.05003085633e-05
1.04909581231e-05
1.04848354381e-05
1.04969848675e-05
1.0508431378e-05
1.05061303775e-05
1.05098293179e-05
1.05264045099e-05
1.05236663553e-05
1.05111741571e-05
1.05098244164e-05
1.05134417542e-05
1.0493867706e-05
1.04801592718e-05
1.04933001918e-05
1.05019856788e-05
1.05064877205e-05
1.05081971309e-05
1.05081978251e-05
1.05064944863e-05
1.05020067795e-05
1.04933319341e-05
1.04801205425e-05
1.04938109178e-05
1.0513441946e-05
1.0509828311e-05
1.05111769862e-05
1.05236691469e-05
1.05289419422e-05
1.05236601768e-05
1.05263947249e-05
1.0531716219e-05
1.05041146915e-05
1.04888319076e-05
1.05086893328e-05
1.05169388589e-05
1.05206281331e-05
1.05219705606e-05
1.05219719624e-05
1.05206366404e-05
1.05169629176e-05
1.05087366543e-05
1.04888904951e-05
1.05041454307e-05
1.05317203862e-05
1.05263986109e-05
1.05236628956e-05
1.05289438482e-05
1.05207274738e-05
1.0513869867e-05
1.05145034265e-05
1.05155911479e-05
1.05119655578e-05
1.05078434195e-05
1.05079671364e-05
1.05112569052e-05
1.05140701601e-05
1.05151678201e-05
1.05151695526e-05
1.05140767924e-05
1.05112680207e-05
1.05079742244e-05
1.05078374828e-05
1.05119489287e-05
1.05155770536e-05
1.05144967607e-05
1.05138629761e-05
1.05207251701e-05
1.05138691676e-05
1.04778397765e-05
1.04557538153e-05
1.04490905326e-05
1.04458053105e-05
1.04452030631e-05
1.04490553315e-05
1.04551587615e-05
1.04602070839e-05
1.04627911138e-05
1.04627950677e-05
1.04602186788e-05
1.04551780406e-05
1.0449072865e-05
1.04452074883e-05
1.04457971493e-05
1.04490830239e-05
1.04557476722e-05
1.04778307308e-05
1.051386442e-05
1.05145072238e-05
1.0455757879e-05
1.04152786704e-05
1.03981677095e-05
1.03919396216e-05
1.039300715e-05
1.03987621904e-05
1.04071010242e-05
1.04145044345e-05
1.04186041912e-05
1.04186120841e-05
1.04145251309e-05
1.04071342846e-05
1.03987965965e-05
1.03930366219e-05
1.03919581903e-05
1.03981728014e-05
1.04152739745e-05
1.04557480398e-05
1.05144976953e-05
1.05155871872e-05
1.04491002423e-05
1.0398177968e-05
1.03677643673e-05
1.03640937379e-05
1.03613958155e-05
1.03638366119e-05
1.03726881205e-05
1.03817838302e-05
1.03873026922e-05
1.03873157837e-05
1.03818169985e-05
1.0372731432e-05
1.03638647311e-05
1.03614149121e-05
1.03641266857e-05
1.03677687334e-05
1.03981731486e-05
1.04490893552e-05
1.05155793306e-05
1.05119594978e-05
1.04458206511e-05
1.03919575468e-05
1.03640996373e-05
1.03473435533e-05
1.03361966237e-05
1.03355150612e-05
1.03410127989e-05
1.03530861361e-05
1.03599331254e-05
1.03599507616e-05
1.03531347959e-05
1.03410602565e-05
1.03355540074e-05
1.03362180615e-05
1.03473433573e-05
1.0364122627e-05
1.03919581311e-05
1.04458131697e-05
1.05119559154e-05
1.05078445496e-05
1.04452259331e-05
1.03930313068e-05
1.03614135624e-05
1.03362005297e-05
1.03243775339e-05
1.03235676619e-05
1.03287629675e-05
1.03354265131e-05
1.03441505568e-05
1.03441810483e-05
1.03354662783e-05
1.03288168957e-05
1.03236181982e-05
1.03244139028e-05
1.03362092741e-05
1.03614180732e-05
1.03930382861e-05
1.04452226552e-05
1.05078431208e-05
1.05079803611e-05
1.04490820841e-05
1.03987893924e-05
1.03638573377e-05
1.03355111648e-05
1.0323556522e-05
1.03226346639e-05
1.03274818689e-05
1.03410382945e-05
1.03493481727e-05
1.03493741739e-05
1.03411219232e-05
1.03275327205e-05
1.03226859867e-05
1.03235938815e-05
1.0335524257e-05
1.03638579796e-05
1.03987973368e-05
1.04490822758e-05
1.05079769857e-05
1.05112731629e-05
1.04551813189e-05
1.04071240278e-05
1.03726947159e-05
1.03409933023e-05
1.03287335597e-05
1.03274643293e-05
1.03414965964e-05
1.0355508759e-05
1.03620310029e-05
1.03620495589e-05
1.03555645912e-05
1.0341597677e-05
1.03275074064e-05
1.03287665222e-05
1.03410076705e-05
1.03727041169e-05
1.04071326224e-05
1.04551860289e-05
1.05112730807e-05
1.0514075699e-05
1.04602197461e-05
1.04145211572e-05
1.03817781238e-05
1.03530283618e-05
1.03353826468e-05
1.03409196512e-05
1.03554615269e-05
1.03668704255e-05
1.03728835544e-05
1.03728967933e-05
1.03669065853e-05
1.03555169084e-05
1.03409899317e-05
1.03354015302e-05
1.03530457701e-05
1.03817814655e-05
1.04145250201e-05
1.04602262985e-05
1.05140787633e-05
1.05151660421e-05
1.04627989932e-05
1.0418616298e-05
1.03872890294e-05
1.03598719065e-05
1.03439920744e-05
1.03492286533e-05
1.0361972914e-05
1.03728616518e-05
1.03788565348e-05
1.0378864721e-05
1.03728825041e-05
1.03619988513e-05
1.03492473972e-05
1.034399447e-05
1.03598620892e-05
1.03872796737e-05
1.0418612853e-05
1.04628015929e-05
1.05151665163e-05
1.05151707875e-05
1.04628025729e-05
1.04186219435e-05
1.038730383e-05
1.03599060476e-05
1.03440618655e-05
1.03492805535e-05
1.03620000726e-05
1.0372871491e-05
1.03788533685e-05
1.03788572689e-05
1.0372880023e-05
1.03620051605e-05
1.03492665607e-05
1.03440228362e-05
1.03598717383e-05
1.03872790331e-05
1.04186090335e-05
1.04627988277e-05
1.05151674218e-05
1.05140826625e-05
1.04602246968e-05
1.041453249e-05
1.03818109548e-05
1.03531136109e-05
1.03354511607e-05
1.03410712657e-05
1.03555384277e-05
1.03668939863e-05
1.03728757583e-05
1.03728780026e-05
1.03668974663e-05
1.03555369568e-05
1.03410532732e-05
1.03354233078e-05
1.03530773639e-05
1.03817802902e-05
1.04145148106e-05
1.04602190547e-05
1.05140812092e-05
1.05112718374e-05
1.0455179642e-05
1.04071370883e-05
1.03727313989e-05
1.03410598039e-05
1.0328821444e-05
1.0327540897e-05
1.03416145698e-05
1.03555324946e-05
1.03620080808e-05
1.03620104401e-05
1.03555402942e-05
1.03416311532e-05
1.03275281068e-05
1.03287966264e-05
1.03410273153e-05
1.03727056691e-05
1.0407121616e-05
1.04551764187e-05
1.05112744879e-05
1.05079702411e-05
1.04490713703e-05
1.03987970644e-05
1.03638701616e-05
1.03355619228e-05
1.032363537e-05
1.03227067641e-05
1.03275251854e-05
1.03410296999e-05
1.03492705921e-05
1.03492768672e-05
1.03410559216e-05
1.03275235431e-05
1.03227001049e-05
1.03236201342e-05
1.03355389166e-05
1.03638525024e-05
1.03987884077e-05
1.04490706426e-05
1.05079715953e-05
1.05078278669e-05
1.04452053817e-05
1.03930348623e-05
1.03614200909e-05
1.03362253372e-05
1.0324429836e-05
1.03236133502e-05
1.03287824718e-05
1.03354031724e-05
1.03439900676e-05
1.0344001226e-05
1.03354045288e-05
1.0328783881e-05
1.03236120429e-05
1.03244234392e-05
1.03362093722e-05
1.0361408805e-05
1.03930326026e-05
1.04452070073e-05
1.05078264904e-05
1.05119447359e-05
1.04457962692e-05
1.03919534654e-05
1.03641260461e-05
1.03473418049e-05
1.03362062555e-05
1.03355199173e-05
1.03409982127e-05
1.03529847637e-05
1.03598039806e-05
1.03598072629e-05
1.03530052557e-05
1.03409973242e-05
1.03355157978e-05
1.033619587e-05
1.03473204932e-05
1.03641223832e-05
1.03919511742e-05
1.04457981559e-05
1.05119470392e-05
1.05155837493e-05
1.04490898407e-05
1.03981761861e-05
1.0367778772e-05
1.03641240207e-05
1.03613988524e-05
1.03638216976e-05
1.03726550867e-05
1.03817196641e-05
1.03872057349e-05
1.03872030701e-05
1.03817136864e-05
1.0372651003e-05
1.03638103927e-05
1.03613835571e-05
1.03641165925e-05
1.03677840665e-05
1.03981687345e-05
1.04490897682e-05
1.0515587886e-05
1.05145233487e-05
1.04557687092e-05
1.04152897658e-05
1.03981745476e-05
1.039195252e-05
1.03930194023e-05
1.03987594765e-05
1.0407075807e-05
1.04144527512e-05
1.04185311188e-05
1.04185274375e-05
1.04144442579e-05
1.04070682013e-05
1.03987516224e-05
1.03930085865e-05
1.03919384476e-05
1.03981605724e-05
1.04152838274e-05
1.04557696311e-05
1.05145276179e-05
1.05139102123e-05
1.04778607799e-05
1.04557656202e-05
1.04490849538e-05
1.04458001036e-05
1.0445205677e-05
1.0449056856e-05
1.04551498704e-05
1.04601831339e-05
1.04627534173e-05
1.0462751003e-05
1.04601784038e-05
1.04551465978e-05
1.04490513297e-05
1.04451916333e-05
1.04457833003e-05
1.04490748247e-05
1.04557618427e-05
1.04778634511e-05
1.05139148892e-05
1.05207895406e-05
1.05139171942e-05
1.05145135542e-05
1.0515573794e-05
1.05119550764e-05
1.05078470954e-05
1.05079775409e-05
1.0511267528e-05
1.05140761041e-05
1.05151677115e-05
1.05151682495e-05
1.05140800688e-05
1.05112758917e-05
1.0507982581e-05
1.05078406636e-05
1.05119437935e-05
1.05155672023e-05
1.05145112938e-05
1.05139170434e-05
1.0520791294e-05
1.04878758663e-05
1.04751374735e-05
1.04822248902e-05
1.04888655913e-05
1.0492780985e-05
1.04956569025e-05
1.04957375361e-05
1.04893614985e-05
1.04777211062e-05
1.04765803043e-05
1.04765746975e-05
1.04777151412e-05
1.04893844772e-05
1.04957707306e-05
1.0495687313e-05
1.04928053097e-05
1.04888773827e-05
1.04822275564e-05
1.04751547103e-05
1.04878892403e-05
1.04751469035e-05
1.04158387656e-05
1.0397933888e-05
1.03991951441e-05
1.04058550901e-05
1.04129505124e-05
1.04187583868e-05
1.04186541009e-05
1.04113596503e-05
1.04129195682e-05
1.04129233028e-05
1.04113729595e-05
1.04187000564e-05
1.0418813403e-05
1.04129980342e-05
1.04058942831e-05
1.03992266718e-05
1.03979511951e-05
1.04158559796e-05
1.04751514285e-05
1.04822188217e-05
1.03979298642e-05
1.03620092979e-05
1.03430848646e-05
1.03358768432e-05
1.03422334466e-05
1.03553409095e-05
1.03689725637e-05
1.03769091061e-05
1.03816162374e-05
1.03816257968e-05
1.03769333554e-05
1.03690112212e-05
1.03554296823e-05
1.03423333629e-05
1.03359305957e-05
1.0343100559e-05
1.0362023643e-05
1.03979458161e-05
1.04822205266e-05
1.04889296132e-05
1.03992830977e-05
1.03430949781e-05
1.02984320642e-05
1.03017030124e-05
1.02964651114e-05
1.02996546922e-05
1.03079829583e-05
1.03171643222e-05
1.03231206402e-05
1.03231336598e-05
1.03171952692e-05
1.03080198734e-05
1.02996885122e-05
1.02964950864e-05
1.03017524057e-05
1.02984774275e-05
1.03430969432e-05
1.03992241155e-05
1.04888727508e-05
1.04928028684e-05
1.04059010658e-05
1.03358902247e-05
1.0301712492e-05
1.02694076923e-05
1.02535619376e-05
1.02525036052e-05
1.02590640852e-05
1.02678199506e-05
1.02740245308e-05
1.02740422932e-05
1.02678637361e-05
1.02591177339e-05
1.02525547919e-05
1.02536028851e-05
1.02694304588e-05
1.030175317e-05
1.033588234e-05
1.04058962172e-05
1.04928025096e-05
1.04956467121e-05
1.04129572424e-05
1.03422450867e-05
1.02964875106e-05
1.02535664812e-05
1.02334078345e-05
1.02300990952e-05
1.02356600294e-05
1.02436359517e-05
1.02494384962e-05
1.02494595769e-05
1.02436871817e-05
1.02357235616e-05
1.02301584004e-05
1.02334572377e-05
1.02535974358e-05
1.02965035398e-05
1.03422735436e-05
1.04129901725e-05
1.04956723745e-05
1.04956649317e-05
1.04187025189e-05
1.03553470201e-05
1.02996741904e-05
1.02524976772e-05
1.02300848398e-05
1.02260318026e-05
1.02314120528e-05
1.02396664808e-05
1.02457455972e-05
1.02457678331e-05
1.02397246316e-05
1.02314758261e-05
1.02260876829e-05
1.0230131214e-05
1.02525308355e-05
1.02996892949e-05
1.03553973123e-05
1.04187647838e-05
1.04957117095e-05
1.04891745401e-05
1.04184703826e-05
1.03689730284e-05
1.03079892914e-05
1.02590390964e-05
1.02356208453e-05
1.02313852897e-05
1.02377064054e-05
1.02469728109e-05
1.02533016007e-05
1.0253321706e-05
1.02470264667e-05
1.02377703485e-05
1.02314310486e-05
1.02356570998e-05
1.02590681675e-05
1.03080053017e-05
1.03690048019e-05
1.04185719041e-05
1.04892505749e-05
1.04776709249e-05
1.04113001175e-05
1.03768914426e-05
1.03171535593e-05
1.02677758105e-05
1.02435745627e-05
1.02396025888e-05
1.02469365172e-05
1.02566914601e-05
1.02632577346e-05
1.02632736172e-05
1.02567332394e-05
1.02469844668e-05
1.02396355209e-05
1.02435938904e-05
1.02677944235e-05
1.03171668326e-05
1.03769188611e-05
1.04113351121e-05
1.04776796705e-05
1.04765366316e-05
1.04128766743e-05
1.03816018735e-05
1.03230972532e-05
1.02739700087e-05
1.0249361725e-05
1.02456672559e-05
1.02532472115e-05
1.02632322476e-05
1.02699718948e-05
1.02699817199e-05
1.02632576729e-05
1.02532704836e-05
1.02456726006e-05
1.02493565378e-05
1.02739699389e-05
1.03231009049e-05
1.03816160313e-05
1.04128906568e-05
1.04765342259e-05
1.04765486883e-05
1.04128986034e-05
1.03816141814e-05
1.03231080445e-05
1.02739940373e-05
1.02493966e-05
1.02457030066e-05
1.02532715353e-05
1.02632405886e-05
1.02699670526e-05
1.02699709172e-05
1.02632499839e-05
1.025327114e-05
1.02456797008e-05
1.02493640875e-05
1.02739726304e-05
1.03230983303e-05
1.03816142188e-05
1.04128931938e-05
1.04765349407e-05
1.04777067064e-05
1.04113641861e-05
1.03769235191e-05
1.03171746689e-05
1.02678314781e-05
1.02436536578e-05
1.02396892332e-05
1.02469963721e-05
1.02567086473e-05
1.02632392039e-05
1.02632397864e-05
1.02567093188e-05
1.02469828851e-05
1.02396516919e-05
1.02436080167e-05
1.02678004709e-05
1.0317159215e-05
1.03769125198e-05
1.04113428806e-05
1.04776857776e-05
1.04893547505e-05
1.04186744156e-05
1.03690042524e-05
1.0308005621e-05
1.02591014488e-05
1.02357150456e-05
1.02314726268e-05
1.02377662923e-05
1.02469766277e-05
1.02532571434e-05
1.02532564833e-05
1.02469744086e-05
1.02377507014e-05
1.02314338238e-05
1.02356701774e-05
1.02590720273e-05
1.03079932994e-05
1.03689977679e-05
1.04185853896e-05
1.04892623543e-05
1.04957698841e-05
1.04188180666e-05
1.03554130744e-05
1.02996788809e-05
1.02525475731e-05
1.02301641146e-05
1.02261004251e-05
1.0231438338e-05
1.02396340833e-05
1.02456583998e-05
1.02456577268e-05
1.02396319743e-05
1.0231422367e-05
1.02260692373e-05
1.02301319564e-05
1.02525275182e-05
1.0299672829e-05
1.03554229423e-05
1.04187885295e-05
1.04957300235e-05
1.04957000173e-05
1.04130172148e-05
1.0342313382e-05
1.02964874889e-05
1.02535938813e-05
1.02334557117e-05
1.02301346108e-05
1.02356528327e-05
1.02435718656e-05
1.02493184146e-05
1.02493166579e-05
1.02435652923e-05
1.02356386445e-05
1.02301132911e-05
1.02334370703e-05
1.02535808412e-05
1.02964851144e-05
1.03423234772e-05
1.04130160133e-05
1.04956888836e-05
1.04928139879e-05
1.04059166378e-05
1.03359209589e-05
1.03017455783e-05
1.02694128263e-05
1.02535722841e-05
1.02524985252e-05
1.0259022072e-05
1.02677257839e-05
1.02738843734e-05
1.02738806793e-05
1.0267715871e-05
1.02590051079e-05
1.02524786901e-05
1.02535538762e-05
1.02693947456e-05
1.03017439486e-05
1.03359150982e-05
1.04059360547e-05
1.04928254063e-05
1.04889023023e-05
1.03992678303e-05
1.03431156571e-05
1.02984892865e-05
1.03017402626e-05
1.02964587262e-05
1.02996197843e-05
1.0307912942e-05
1.03170528126e-05
1.03229711375e-05
1.03229650624e-05
1.03170360891e-05
1.03078893011e-05
1.02995930161e-05
1.02964333104e-05
1.03017299462e-05
1.02985100723e-05
1.03431110788e-05
1.03993018708e-05
1.04889337926e-05
1.0482260625e-05
1.03979789721e-05
1.03620494332e-05
1.03431075199e-05
1.03359154543e-05
1.03422983292e-05
1.03553690141e-05
1.03689235499e-05
1.03768182399e-05
1.03814984881e-05
1.03814924522e-05
1.03768021402e-05
1.03689050537e-05
1.0355370299e-05
1.03423118978e-05
1.03359189815e-05
1.03431043926e-05
1.0362050821e-05
1.03979904014e-05
1.04822737133e-05
1.04751818238e-05
1.04158737672e-05
1.03979762137e-05
1.039918902e-05
1.04058723531e-05
1.04129781145e-05
1.04187724258e-05
1.04186221345e-05
1.04113321191e-05
1.04128798735e-05
1.04128774473e-05
1.04113269969e-05
1.04186349094e-05
1.04187968984e-05
1.0413010366e-05
1.04059120387e-05
1.03992460264e-05
1.03979866645e-05
1.04158921089e-05
1.04752005259e-05
1.04879041423e-05
1.0475164954e-05
1.04822517781e-05
1.04888311494e-05
1.04927841002e-05
1.04956774912e-05
1.04957529371e-05
1.04893461937e-05
1.04777300418e-05
1.04765871773e-05
1.04765858764e-05
1.04777300529e-05
1.0489364852e-05
1.04957822915e-05
1.04957159911e-05
1.0492827867e-05
1.04888914711e-05
1.04822645528e-05
1.0475181681e-05
1.04879237792e-05
1.04768565837e-05
1.04666027146e-05
1.04707837876e-05
1.0468939192e-05
1.04663229547e-05
1.04629449426e-05
1.04594096355e-05
1.04563995804e-05
1.04537345877e-05
1.04530880337e-05
1.04530744093e-05
1.04537199933e-05
1.04564039515e-05
1.0459408289e-05
1.04629433461e-05
1.04663366662e-05
1.04689550342e-05
1.04708007059e-05
1.04666373023e-05
1.04768867736e-05
1.04666237569e-05
1.03902631186e-05
1.03689341785e-05
1.03612638604e-05
1.03624973474e-05
1.03692043097e-05
1.03777738856e-05
1.03848718194e-05
1.03889016302e-05
1.03905358828e-05
1.0390536918e-05
1.03889087344e-05
1.03848983352e-05
1.0377821379e-05
1.03692543313e-05
1.03625373046e-05
1.03612959707e-05
1.03689650766e-05
1.03902963301e-05
1.04666358711e-05
1.04707835418e-05
1.03689310905e-05
1.03299672013e-05
1.03113307727e-05
1.03073607642e-05
1.03181049709e-05
1.03341133745e-05
1.03477526483e-05
1.03547870153e-05
1.03583351178e-05
1.03583417222e-05
1.03548050204e-05
1.0347784174e-05
1.03342163102e-05
1.03181364224e-05
1.03072701498e-05
1.03113310033e-05
1.0330001861e-05
1.03689694657e-05
1.0470803769e-05
1.04689307999e-05
1.03612606789e-05
1.03113540654e-05
1.02673620968e-05
1.02580907116e-05
1.02556295723e-05
1.02631474293e-05
1.02744484771e-05
1.02845839847e-05
1.02906048795e-05
1.02906229137e-05
1.0284631771e-05
1.02745151369e-05
1.02632214672e-05
1.02557049213e-05
1.02581647863e-05
1.02671730725e-05
1.03113559404e-05
1.03613047185e-05
1.04689597959e-05
1.04662997491e-05
1.03624988029e-05
1.03074731325e-05
1.02581033592e-05
1.021928227e-05
1.02025846606e-05
1.02022125908e-05
1.02096008512e-05
1.02182422411e-05
1.02240480459e-05
1.02240677651e-05
1.02182944145e-05
1.02096625693e-05
1.02022673165e-05
1.02026391069e-05
1.02193433751e-05
1.02581664697e-05
1.03073561216e-05
1.03625440877e-05
1.04663357141e-05
1.04628988596e-05
1.03691991977e-05
1.03181592719e-05
1.02556340951e-05
1.02025826097e-05
1.01760576068e-05
1.01699450901e-05
1.0174120621e-05
1.01812140754e-05
1.0186393319e-05
1.01864152207e-05
1.01812740819e-05
1.01741819366e-05
1.01699811505e-05
1.01760829078e-05
1.02026210327e-05
1.02556931318e-05
1.03181571244e-05
1.03692512203e-05
1.04629427391e-05
1.04593593805e-05
1.03777436873e-05
1.03340944889e-05
1.02631296346e-05
1.02021943294e-05
1.01699304216e-05
1.01601293614e-05
1.01624795477e-05
1.01688216841e-05
1.01738327455e-05
1.01738551958e-05
1.01688836594e-05
1.01625385068e-05
1.01601488305e-05
1.01699344111e-05
1.02022174709e-05
1.02631910754e-05
1.0334179866e-05
1.0377805866e-05
1.04594025375e-05
1.04563520549e-05
1.03848084753e-05
1.03477249968e-05
1.02743980538e-05
1.02095568584e-05
1.01740832095e-05
1.01624577506e-05
1.01642012389e-05
1.01708297892e-05
1.01762003545e-05
1.01762215074e-05
1.01708880006e-05
1.01642500131e-05
1.0162463589e-05
1.01740718006e-05
1.02095718017e-05
1.02744613045e-05
1.03477835026e-05
1.03848732164e-05
1.04563846528e-05
1.04536737832e-05
1.0388826519e-05
1.03547387202e-05
1.02845067664e-05
1.02181747885e-05
1.01811514068e-05
1.01687749623e-05
1.01708038162e-05
1.01784047526e-05
1.01843961903e-05
1.01844147221e-05
1.01784542798e-05
1.01708387808e-05
1.01687638253e-05
1.01811270233e-05
1.0218180971e-05
1.02845650008e-05
1.03547965758e-05
1.03888745922e-05
1.04537001311e-05
1.04530419171e-05
1.03904759305e-05
1.03582850122e-05
1.029051847e-05
1.02239676592e-05
1.01863186143e-05
1.0173768538e-05
1.01761520146e-05
1.0184369097e-05
1.01906688059e-05
1.01906826015e-05
1.01844056681e-05
1.01761685935e-05
1.01737359051e-05
1.01862744271e-05
1.02239574289e-05
1.02905607289e-05
1.03583310996e-05
1.03904988301e-05
1.04530521337e-05
1.04530671598e-05
1.03905014812e-05
1.03583004761e-05
1.02905419171e-05
1.02239921561e-05
1.01863470786e-05
1.01737937904e-05
1.01761703908e-05
1.01843760661e-05
1.01906643952e-05
1.01906725741e-05
1.01843970705e-05
1.01761669048e-05
1.01737397937e-05
1.01862793254e-05
1.02239591651e-05
1.02905619324e-05
1.03583318008e-05
1.03905029613e-05
1.04530465682e-05
1.04537311805e-05
1.03889014894e-05
1.03547768436e-05
1.02845660299e-05
1.02182354937e-05
1.01812245641e-05
1.01688413919e-05
1.01708490273e-05
1.01784168602e-05
1.01843786366e-05
1.01843822367e-05
1.01784281897e-05
1.01708307412e-05
1.01687716813e-05
1.01811389851e-05
1.02181860501e-05
1.02845698873e-05
1.0354799332e-05
1.03888872832e-05
1.04536950206e-05
1.04564188145e-05
1.03849138816e-05
1.03477669605e-05
1.02744685312e-05
1.02096247302e-05
1.0174160285e-05
1.0162525118e-05
1.01642316866e-05
1.01708114104e-05
1.0176138199e-05
1.01761397041e-05
1.01708168951e-05
1.01642074244e-05
1.01624485336e-05
1.01740696777e-05
1.02095711445e-05
1.02744696206e-05
1.03477905264e-05
1.03848979495e-05
1.04563896328e-05
1.04594301117e-05
1.03778487631e-05
1.03341966403e-05
1.02631900645e-05
1.02022445994e-05
1.01699783362e-05
1.01601554908e-05
1.01624594266e-05
1.01687401812e-05
1.01737015467e-05
1.01737029068e-05
1.0168744173e-05
1.01624351061e-05
1.01600846188e-05
1.01698984059e-05
1.02022019612e-05
1.02632010732e-05
1.03342299431e-05
1.03778430282e-05
1.04594096293e-05
1.04629645669e-05
1.03692896469e-05
1.03181645975e-05
1.02556842106e-05
1.02026169709e-05
1.01760732892e-05
1.016993095e-05
1.01740545792e-05
1.01810878586e-05
1.01862184369e-05
1.01862170253e-05
1.01810859765e-05
1.01740316994e-05
1.0169875921e-05
1.01760189542e-05
1.02025959514e-05
1.02557042568e-05
1.03181555171e-05
1.03692922782e-05
1.04629526154e-05
1.04663529176e-05
1.03625777204e-05
1.03073610385e-05
1.02581616951e-05
1.02193195458e-05
1.02025891883e-05
1.02021786209e-05
1.02095134044e-05
1.02180977628e-05
1.0223853463e-05
1.02238490152e-05
1.02180872678e-05
1.02094911305e-05
1.02021439703e-05
1.02025637512e-05
1.02193164912e-05
1.02581791286e-05
1.03072654536e-05
1.03625842479e-05
1.04663479692e-05
1.04689687903e-05
1.03613375717e-05
1.03113852766e-05
1.02671980769e-05
1.02581490438e-05
1.02556521956e-05
1.02631280875e-05
1.02743746243e-05
1.0284453572e-05
1.02904287366e-05
1.02904228026e-05
1.02844392854e-05
1.02743567944e-05
1.02631117728e-05
1.02556426721e-05
1.02581479895e-05
1.02670290078e-05
1.03113504146e-05
1.03613440622e-05
1.04689702497e-05
1.04708076022e-05
1.03689989792e-05
1.03300364627e-05
1.03113594398e-05
1.03072623e-05
1.03180932053e-05
1.03341559131e-05
1.03477084224e-05
1.03547029379e-05
1.03582235759e-05
1.03582172174e-05
1.03546861321e-05
1.03476871953e-05
1.03341597408e-05
1.03180566755e-05
1.03071436925e-05
1.03113209499e-05
1.0330030001e-05
1.03690065266e-05
1.04708160362e-05
1.04666314784e-05
1.03903071436e-05
1.0368996115e-05
1.03613280542e-05
1.03625570149e-05
1.03692595514e-05
1.03778154423e-05
1.03848865984e-05
1.03888894037e-05
1.03905105767e-05
1.03905097049e-05
1.03888880959e-05
1.03848916117e-05
1.03778293463e-05
1.03692767898e-05
1.03625716598e-05
1.03613415067e-05
1.03690099031e-05
1.03903258382e-05
1.04666495838e-05
1.04768523501e-05
1.04666029859e-05
1.04707985917e-05
1.04689652191e-05
1.04663559856e-05
1.04629725391e-05
1.0459436768e-05
1.04564269953e-05
1.04537503676e-05
1.04531080048e-05
1.04531074256e-05
1.04537540771e-05
1.04564394178e-05
1.04594557392e-05
1.04629941856e-05
1.04663779247e-05
1.04689874842e-05
1.04708217281e-05
1.04666286126e-05
1.04768806612e-05
1.0449914662e-05
1.04510319835e-05
1.04581852375e-05
1.04549407976e-05
1.04486876952e-05
1.04433316034e-05
1.04377304713e-05
1.0432421568e-05
1.04293592844e-05
1.04288733486e-05
1.04288672835e-05
1.04293533102e-05
1.04324253505e-05
1.04377448667e-05
1.04433488321e-05
1.04486918958e-05
1.0454945835e-05
1.04582140983e-05
1.04511046333e-05
1.04499691838e-05
1.0451124921e-05
1.03537330717e-05
1.03379871018e-05
1.03319697016e-05
1.03350045485e-05
1.03423826885e-05
1.03503688267e-05
1.03563645945e-05