/*--------------------------------*- C++ -*----------------------------------*\
| =========                 |                                                 |
| \\      /  F ield         | OpenFOAM: The Open Source CFD Toolbox           |
|  \\    /   O peration     | Version:  3.0.1                                 |
|   \\  /    A nd           | Web:      www.OpenFOAM.org                      |
|    \\/     M anipulation  |                                                 |
\*---------------------------------------------------------------------------*/
FoamFile
{
    version     2.0;
    format      ascii;
    class       surfaceScalarField;
    location    "2.5";
    object      alphaPhi;
}
// * * * * * * * * * * * * * * * * * * * * * * * * * * * * * * * * * * * * * //

dimensions      [0 3 -1 0 0 0 0];

internalField   nonuniform List<scalar> 
22672
(
5.32901344632e-06
5.34724022981e-06
-1.06762535883e-05
1.19885556111e-05
4.20002253141e-06
-1.08595876168e-05
1.82301536536e-05
3.89424337124e-06
-1.01358799358e-05
2.26325449068e-05
4.45639420853e-06
-8.85872422994e-06
2.43732628506e-05
5.78040918505e-06
-7.52111169568e-06
2.32725520978e-05
7.50527433435e-06
-6.40510788513e-06
1.97226513941e-05
9.17143828504e-06
-5.62107795898e-06
1.41858436668e-05
1.06527990097e-05
-5.11634228962e-06
7.38396284169e-06
1.16905237909e-05
-4.88826261726e-06
-1.18769281003e-08
1.2214449734e-05
-4.81893604873e-06
-7.40813072237e-06
1.22154075387e-05
-4.81921963172e-06
-1.42115120874e-05
1.16928830211e-05
-4.88941234936e-06
-1.97498074155e-05
1.06565108828e-05
-5.11882667674e-06
-2.33004090864e-05
9.1761064408e-06
-5.62491153026e-06
-2.43998248475e-05
7.50975040598e-06
-6.41054523477e-06
-2.2655488907e-05
5.78420896705e-06
-7.52840515589e-06
-1.82477945067e-05
4.4594170762e-06
-8.86711349706e-06
-1.20003108757e-05
3.89756369074e-06
-1.01450615303e-05
-5.33385467217e-06
4.20514713593e-06
-1.08716033662e-05
5.35569692115e-06
-1.06895515584e-05
4.18566855028e-06
1.20181134437e-05
-1.08566744442e-05
1.17865882368e-05
1.18047819917e-05
-1.52056091169e-05
1.93078178186e-05
1.25871774899e-05
-1.62143188785e-05
2.45857602615e-05
1.47081599891e-05
-1.55296034026e-05
2.6715390234e-05
1.7957752428e-05
-1.43073155631e-05
2.5584412769e-05
2.17206357787e-05
-1.30836126232e-05
2.15963992075e-05
2.52863267903e-05
-1.21278054131e-05
1.54722071867e-05
2.83042768909e-05
-1.15264499641e-05
8.02786491612e-06
3.04036230195e-05
-1.12693144723e-05
-1.13379951261e-08
3.14606284803e-05
-1.12066227427e-05
-8.05134168131e-06
3.14615958361e-05
-1.12064948153e-05
-1.54966010382e-05
3.04068545023e-05
-1.12687461462e-05
-2.16228660716e-05
2.83092705964e-05
-1.1526205039e-05
-2.56112986828e-05
2.52922258171e-05
-1.21282820159e-05
-2.67421864581e-05
2.17266416625e-05
-1.30856450866e-05
-2.46085327437e-05
1.79628119818e-05
-1.43123560284e-05
-1.93242305984e-05
1.47127162939e-05
-1.55376272268e-05
-1.17955316478e-05
1.25931997878e-05
-1.6224321318e-05
-4.18789732524e-06
1.18150114772e-05
-1.52174984634e-05
1.20359619379e-05
-1.08681621717e-05
3.88429952559e-06
1.82617848375e-05
-1.01280278272e-05
1.25795795207e-05
1.93206710396e-05
-1.6211397314e-05
2.14198412777e-05
2.14160838847e-05
-1.7668962222e-05
2.76460668547e-05
2.51663199925e-05
-1.66847704839e-05
3.0192423249e-05
3.02343521039e-05
-1.48221781713e-05
2.892341028e-05
3.58389793348e-05
-1.28501898162e-05
2.43496605014e-05
4.10790459528e-05
-1.12181185672e-05
1.73774270654e-05
4.54163120294e-05
-1.01404785414e-05
8.98978923939e-06
4.84169577189e-05
-9.62514878038e-06
-9.06723869623e-09
4.99237728592e-05
-9.46476096051e-06
-9.0080073134e-06
4.99247642725e-05
-9.46369982217e-06
-1.73973770374e-05
4.8418906859e-05
-9.62267380281e-06
-2.43711529947e-05
4.54194773457e-05
-1.01367468829e-05
-2.89476943655e-05
4.10828922157e-05
-1.12138725442e-05
-3.02168484755e-05
3.58429139574e-05
-1.2847357531e-05
-2.76685715918e-05
3.02381389666e-05
-1.48234666546e-05
-2.14363259956e-05
2.51707876615e-05
-1.66903420884e-05
-1.25887321181e-05
2.14234285233e-05
-1.76778301101e-05
-3.88677731822e-06
1.93344783446e-05
-1.62214072884e-05
1.82860769099e-05
-1.01370248889e-05
4.44938312946e-06
2.26572869626e-05
-8.84484385957e-06
1.47076631825e-05
2.45866420655e-05
-1.55241259651e-05
2.51816518169e-05
2.7626064172e-05
-1.66842616402e-05
3.25679468985e-05
3.25311245781e-05
-1.47504108566e-05
3.55534706105e-05
3.88543743367e-05
-1.160634977e-05
3.39679830766e-05
4.56995945474e-05
-8.27412089831e-06
2.84740902634e-05
5.20191375298e-05
-5.44697498697e-06
2.02176398765e-05
5.71866868611e-05
-3.51333156724e-06
1.04166215835e-05
6.07467683672e-05
-2.52920247691e-06
-7.04292381843e-09
6.25347953478e-05
-2.18693265318e-06
-1.04315534633e-05
6.25341556403e-05
-2.18548411019e-06
-2.02330798578e-05
6.07452885212e-05
-2.52474837631e-06
-2.84924967505e-05
5.71848051313e-05
-3.5057869309e-06
-3.39891949981e-05
5.20168256876e-05
-5.43745303683e-06
-3.55776722806e-05
4.56973867729e-05
-8.26584300459e-06
-3.25904283262e-05
3.88533214503e-05
-1.16025196456e-05
-2.51995567663e-05
3.25323238653e-05
-1.47523987639e-05
-1.47182548182e-05
2.76323085708e-05
-1.6690211724e-05
-4.45330093049e-06
2.46012454102e-05
-1.55320445226e-05
2.26850994176e-05
-8.85211733861e-06
5.77433641762e-06
2.43855661172e-05
-7.50241076209e-06
1.79591448133e-05
2.67032978532e-05
-1.43016340145e-05
3.02541644284e-05
3.01568068683e-05
-1.48252739364e-05
3.88999303516e-05
3.54970981299e-05
-1.16124326724e-05
4.23129663203e-05
4.22416236972e-05
-6.79945919034e-06
4.02686378254e-05
4.94335080848e-05
-1.690117625e-06
3.36149690929e-05
5.59824835394e-05
2.69077682462e-06
2.37580058619e-05
6.13217213769e-05
5.72152971316e-06
1.22011094517e-05
6.49870588611e-05
7.31708209844e-06
-6.47760777165e-09
6.68245512085e-05
7.9175035762e-06
-1.22141329924e-05
6.68225484986e-05
7.91962374351e-06
-2.37725264087e-05
6.49807338267e-05
7.32291571022e-06
-3.36318866129e-05
6.13124815084e-05
5.73165610554e-06
-4.02894555694e-05
5.59713683271e-05
2.7033493003e-06
-4.23360845833e-05
4.94219084061e-05
-1.67813236467e-06
-3.89231387224e-05
4.22319777511e-05
-6.79150256031e-06
-3.02735367492e-05
3.54922148031e-05
-1.16097620272e-05
-1.79719561003e-05
3.01583641297e-05
-1.48276102833e-05
-5.77966371686e-06
2.67157661189e-05
-1.43064078245e-05
2.4412431646e-05
-7.50697945458e-06
7.49623940922e-06
2.32735985639e-05
-6.38458741729e-06
2.17173620047e-05
2.55635838093e-05
-1.30808296639e-05
3.58538658108e-05
2.88818374663e-05
-1.28622072187e-05
4.57428439729e-05
3.39051852875e-05
-8.29636382982e-06
4.95066963743e-05
4.01899600336e-05
-1.71271530822e-06
4.68969383675e-05
4.68160653087e-05
5.22756097968e-06
3.89854030388e-05
5.2790464731e-05
1.11034044985e-05
2.74537727455e-05
5.77051676023e-05
1.51483380605e-05
1.40644698546e-05
6.10675277598e-05
1.73086862908e-05
-7.72800420546e-09
6.27377115158e-05
1.8159267137e-05
-1.40798956548e-05
6.27345318876e-05
1.81600884383e-05
-2.74689207553e-05
6.10575948472e-05
1.731214791e-05
-3.9002544513e-05
5.76891470515e-05
1.51569289846e-05
-4.69171204342e-05
5.27704093739e-05
1.11153173771e-05
-4.95293499143e-05
4.67941032152e-05
5.23999678043e-06
-4.57655909246e-05
4.01699951685e-05
-1.7018935427e-06
-3.58734749958e-05
3.3890526215e-05
-8.29017556932e-06
-2.17304564211e-05
2.88765566236e-05
-1.28610216849e-05
-7.50230149043e-06
2.5570089993e-05
-1.30824222938e-05
2.32963675072e-05
-6.38603131989e-06
9.16005718141e-06
1.97135559609e-05
-5.59970518738e-06
2.52766874583e-05
2.15761135485e-05
-1.21298203446e-05
4.10856448577e-05
2.43163756654e-05
-1.12427555593e-05
5.20563645945e-05
2.84264723625e-05
-5.49262756415e-06
5.60549337951e-05
3.35551118558e-05
2.63668108996e-06
5.28697079129e-05
3.89277488268e-05
1.10733681768e-05
4.37842749472e-05
4.37358129806e-05
1.81402303372e-05
3.07071842416e-05
4.77222385172e-05
2.3059932399e-05
1.56803903229e-05
5.03825616271e-05
2.57118184556e-05
-1.10043112982e-08
5.16682868781e-05
2.67606860174e-05
-1.57020834965e-05
5.16652516206e-05
2.67605161845e-05
-3.07280916757e-05
5.03719990585e-05
2.57115263188e-05
-4.38048267284e-05
4.77029343461e-05
2.30629863695e-05
-5.28918998222e-05
4.37090457803e-05
1.8148523577e-05
-5.60777231703e-05
3.88970258023e-05
1.10825089632e-05
-5.20777753224e-05
3.35247167698e-05
2.64572166326e-06
-4.11038075091e-05
2.84025188175e-05
-5.48607905171e-06
-2.52892441122e-05
2.43025956042e-05
-1.12403474952e-05
-9.16598367611e-06
2.15760920542e-05
-1.21291424895e-05
1.97289600877e-05
-5.59863304085e-06
1.0639446001e-05
1.41672275029e-05
-5.0939768352e-06
2.82900324645e-05
1.54577864686e-05
-1.15316525947e-05
4.54164622342e-05
1.7363498294e-05
-1.01742110071e-05
5.72212857027e-05
2.01992715729e-05
-3.5771845845e-06
6.14016388488e-05
2.37324499892e-05
5.64191536152e-06
5.77970527659e-05
2.74302113464e-05
1.51023476039e-05
4.77761825645e-05
3.06943789936e-05
2.30620345021e-05
3.34317384953e-05
3.34176594014e-05
2.86492024157e-05
1.70425369038e-05
3.51721672571e-05
3.15994543224e-05
-1.55449219456e-08
3.6007789573e-05
3.27188480292e-05
-1.70730926107e-05
3.60038138651e-05
3.27187274646e-05
-3.34603853443e-05
3.51596274138e-05
3.15998507651e-05
-4.78051445752e-05
3.33935364942e-05
2.86542241049e-05
-5.78254774472e-05
3.06628206792e-05
2.30663083713e-05
-6.14267259917e-05
2.73936411415e-05
1.51048989245e-05
-5.72414343125e-05
2.36957178546e-05
5.64372796582e-06
-4.54320472318e-05
2.0168546242e-05
-3.57510701953e-06
-2.8300046049e-05
1.73437275216e-05
-1.01731425651e-05
-1.06445716314e-05
1.54509220516e-05
-1.15303650567e-05
1.41753636837e-05
-5.09121495381e-06
1.16764779789e-05
7.35472578368e-06
-4.86344132508e-06
3.03867257271e-05
8.01970575615e-06
-1.12729341082e-05
4.8412438818e-05
8.99648017103e-06
-9.65835174699e-06
6.07767335125e-05
1.04300847108e-05
-2.59577741758e-06
6.50705466758e-05
1.22110449104e-05
7.22804884934e-06
6.11711883511e-05
1.40702730451e-05
1.72588704274e-05
5.04418509287e-05
1.56840449106e-05
2.57401136365e-05
3.51869145128e-05
1.70410730744e-05
3.16312167861e-05
1.7876835592e-05
1.78758911884e-05
3.46066595161e-05
-1.87637726186e-08
1.82739990431e-05
3.56292194342e-05
-1.79163943338e-05
1.82681306635e-05
3.56335624816e-05
-3.52281633649e-05
1.78587188134e-05
3.4612435636e-05
-5.04807761005e-05
1.70149435223e-05
3.16311888897e-05
-6.1205715082e-05
1.56511901034e-05
2.57367376633e-05
-6.50977680219e-05
1.40331794869e-05
1.7252388428e-05
-6.07950328419e-05
1.21734544836e-05
7.21991907156e-06
-4.84241620742e-05
1.03987004983e-05
-2.60128014269e-06
-3.03935409938e-05
8.97435658259e-06
-9.66105282712e-06
-1.16797417613e-05
8.00936066042e-06
-1.12725677312e-05
7.35592355539e-06
-4.86054552064e-06
1.22004992002e-05
-5.52968014148e-08
-4.7910052273e-06
3.14430241112e-05
-1.71680495034e-08
-1.12049622993e-05
4.99154570198e-05
1.21953049336e-08
-9.48893992165e-06
6.25561025724e-05
2.96490131697e-08
-2.23949937809e-06
6.68972384411e-05
3.31503617179e-08
7.83604657682e-06
6.28341843942e-05
2.55731848854e-08
1.81084027455e-05
5.17239648931e-05
1.09499113079e-08
2.67829571266e-05
3.60258527359e-05
-5.54354630062e-09
3.27451291602e-05
1.82785717237e-05
-1.59700088783e-08
3.56387255726e-05
-2.58889121585e-08
-2.5929753043e-08
3.66046409033e-05
-1.8330372934e-05
-3.10588691856e-08
3.66034907696e-05
-3.60749311176e-05
-3.17972209365e-08
3.56355497991e-05
-5.17688824811e-05
-2.82812239731e-08
3.2737048022e-05
-6.28730184047e-05
-1.7269674639e-08
2.67726818241e-05
-6.69257305601e-05
-6.50246550704e-09
1.80924546172e-05
-6.25715825075e-05
1.82496424498e-09
7.81736779787e-06
-4.99230114671e-05
3.15306318189e-09
-2.25289260108e-06
-3.1445810212e-05
-6.47991297167e-09
-9.49666601884e-06
-1.22017664666e-05
-2.74694965202e-08
-1.12072434364e-05
-5.73607969755e-08
-4.78883628104e-06
1.2201359652e-05
-7.4659975149e-06
-4.79025599903e-06
3.1442236398e-05
-8.05729531653e-06
-1.12011203975e-05
4.99118489038e-05
-8.97641243786e-06
-9.48072244632e-06
6.25476088491e-05
-1.03771340106e-05
-2.22938620591e-06
6.68845889459e-05
-1.21517639606e-05
7.84837942991e-06
6.281992902e-05
-1.40276999314e-05
1.8117325803e-05
5.17133970327e-05
-1.56696719542e-05
2.67876296955e-05
3.60184767187e-05
-1.70597424184e-05
3.27487042804e-05
1.82713522288e-05
-1.79192765205e-05
3.56508812748e-05
-3.21588142025e-08
-1.83373860032e-05
3.66144872337e-05
-1.83345081122e-05
-1.8339310871e-05
3.66106309406e-05
-3.60753632509e-05
-1.79269467147e-05
3.56358989008e-05
-5.17624327658e-05
-1.70715221968e-05
3.27304463747e-05
-6.28615018468e-05
-1.56871555855e-05
2.67688072142e-05
-6.69125108695e-05
-1.40472809247e-05
1.8092081676e-05
-6.25598600002e-05
-1.21708152485e-05
7.81967938863e-06
-4.99147613523e-05
-1.03931368759e-05
-2.2486758729e-06
-3.14410090071e-05
-8.98739941735e-06
-9.49294648732e-06
-1.22002470759e-05
-8.06306493358e-06
-1.12054538341e-05
-7.46810420042e-06
-4.78946040007e-06
1.16776361988e-05
-1.42810943589e-05
-4.86282246451e-06
3.03846956282e-05
-1.55023071058e-05
-1.12615739332e-05
4.84008809553e-05
-1.73577703888e-05
-9.63522932448e-06
6.07506589603e-05
-2.01642132888e-05
-2.56221428983e-06
6.5029172618e-05
-2.36925287686e-05
7.26166279237e-06
6.11239934609e-05
-2.74026860687e-05
1.72808496866e-05
5.04008628838e-05
-3.06919374417e-05
2.57450468589e-05
3.51562097051e-05
-3.34403796214e-05
3.16255225982e-05
1.78526742588e-05
-3.52216091893e-05
3.46055139017e-05
-3.39442842367e-08
-3.60727494719e-05
3.56224659821e-05
-1.79200792853e-05
-3.60731678718e-05
3.561972837e-05
-3.52183664041e-05
-3.52205666837e-05
3.45919327824e-05
-5.04556718044e-05
-3.3439837492e-05
3.16055212649e-05
-6.11680564734e-05
-3.06942219484e-05
2.57196100508e-05
-6.50571933527e-05
-2.74057980787e-05
1.72472413926e-05
-6.07596048576e-05
-2.3693210717e-05
7.22513963737e-06
-4.83992578725e-05
-2.01640189077e-05
-2.58974693821e-06
-3.03791827055e-05
-1.73562344796e-05
-9.65091536099e-06
-1.16742813056e-05
-1.55004492725e-05
-1.12675329979e-05
-1.42800016692e-05
-4.86247082375e-06
1.06399452181e-05
-1.98267837776e-05
-5.09406102948e-06
2.82838998959e-05
-2.16295185199e-05
-1.15167169092e-05
4.53960262723e-05
-2.43274340691e-05
-1.01425209042e-05
5.71770696863e-05
-2.84140981363e-05
-3.53118178788e-06
6.13353313076e-05
-3.35360916715e-05
5.68579971516e-06
5.77217236815e-05
-3.89157058969e-05
1.51262166899e-05
4.77085635358e-05
-4.3739958438e-05
2.30615594226e-05
3.33756390638e-05
-4.77454779125e-05
2.8637875103e-05
1.70019369389e-05
-5.04220278799e-05
3.15746445404e-05
-3.4144961369e-08
-5.17157103521e-05
3.26790737328e-05
-1.70690576714e-05
-5.17136643386e-05
3.26757497104e-05
-3.34378641647e-05
-5.04152222793e-05
3.15630219792e-05
-4.77643999835e-05
-4.77340981031e-05
2.86210182364e-05
-5.77662504745e-05
-4.37266573268e-05
2.30340071847e-05
-6.13614602483e-05
-3.88998226118e-05
1.50897196503e-05
-5.71837967579e-05
-3.35181257593e-05
5.64665948666e-06
-4.5390677057e-05
-2.83965925169e-05
-3.56019830797e-06
-2.82759766475e-05
-2.43126875464e-05
-1.01584616565e-05
-1.06350144981e-05
-2.16188493756e-05
-1.15223487074e-05
-1.98213042265e-05
-5.09379701836e-06
9.15799854178e-06
-2.33820554642e-05
-5.60264503189e-06
2.52655066552e-05
-2.56221222859e-05
-1.21149667853e-05
4.10558220814e-05
-2.89074087077e-05
-1.12103743734e-05
5.19987143567e-05
-3.39112556622e-05
-5.44561423115e-06
5.59706186205e-05
-4.01885996185e-05
2.68030824676e-06
5.27760031248e-05
-4.68137354535e-05
1.10931062277e-05
4.37003048712e-05
-5.27959856441e-05
1.81310242383e-05
3.06415741236e-05
-5.77218900956e-05
2.30354215808e-05
1.56336597744e-05
-6.10937554521e-05
2.56795833953e-05
-3.16315362045e-08
-6.27660660103e-05
2.67163941128e-05
-1.56960514963e-05
-6.27620257756e-05
2.67131774106e-05
-3.07003838003e-05
-6.10812665709e-05
2.56705712689e-05
-4.3753210882e-05
-5.77020590076e-05
2.30207129313e-05
-5.28174764191e-05
-5.27701720814e-05
1.81079396963e-05
-5.59942183986e-05
-4.67831052299e-05
1.10595792101e-05
-5.20028742728e-05
-4.01544613279e-05
2.64540780313e-06
-4.10492344142e-05
-3.38801608837e-05
-5.47038012646e-06
-2.52567078614e-05
-2.88822909123e-05
-1.12227807479e-05
-9.15284904422e-06
-2.5604642715e-05
-1.21182012721e-05
-2.33730373784e-05
-5.60096626193e-06
7.49168211989e-06
-2.44831482739e-05
-6.39055207854e-06
2.16998806835e-05
-2.67605804186e-05
-1.30697307064e-05
3.58163817379e-05
-3.01882383184e-05
-1.28357752473e-05
4.56770749281e-05
-3.55141256237e-05
-8.2578816113e-06
4.94139113713e-05
-4.22490669121e-05
-1.6761339739e-06
4.67928185535e-05
-4.94340554771e-05
5.24143011197e-06
3.88902802757e-05
-5.59812487294e-05
1.10880663977e-05
2.73784844401e-05
-6.13229314716e-05
1.51125805749e-05
1.40145175871e-05
-6.49887837799e-05
1.72592942312e-05
-2.83943066319e-08
-6.682287388e-05
1.80996504995e-05
-1.40701179789e-05
-6.68177428314e-05
1.80973648541e-05
-2.74307194295e-05
-6.497398246e-05
1.72529458893e-05
-3.89365386072e-05
-6.12984759428e-05
1.51021993881e-05
-4.6827954921e-05
-5.59492236172e-05
1.10702036133e-05
-4.9432676277e-05
-4.93950924985e-05
5.21715793612e-06
-4.56800458989e-05
-4.22076950793e-05
-1.69984395253e-06
-3.5810404837e-05
-3.54768776787e-05
-8.27244562457e-06
-2.16926237215e-05
-3.01592454135e-05
-1.28411978492e-05
-7.48728089884e-06
-2.67408270251e-05
-1.3069010631e-05
-2.44730595121e-05
-6.38731147552e-06
5.76478855444e-06
-2.27358008538e-05
-7.51213618179e-06
1.79350470388e-05
-2.46356454434e-05
-1.42951571652e-05
3.02107525688e-05
-2.76567641387e-05
-1.48071466121e-05
3.88319648099e-05
-3.2550732118e-05
-1.15848010878e-05
4.22205526476e-05
-3.88647163549e-05
-6.77293757437e-06
4.01654182814e-05
-4.56988026603e-05
-1.67988772891e-06
3.35185620281e-05
-5.20089739218e-05
2.67465700748e-06
2.36821594966e-05
-5.71695807104e-05
5.68324600457e-06
1.21524552063e-05
-6.07229744614e-05
7.26382143043e-06
-2.40372982965e-08
-6.25041940107e-05
7.85744423141e-06
-1.21995022083e-05
-6.24988658024e-05
7.85668502384e-06
-2.37262037161e-05
-6.07080490613e-05
7.26126174388e-06
-3.35569739387e-05
-5.71463432541e-05
5.67811081944e-06
-4.019346399e-05
-5.19774845867e-05
2.66541076878e-06
-4.22352592594e-05
-4.56619543452e-05
-1.69169855855e-06
-3.88348241562e-05
-3.88264744793e-05
-6.78138542572e-06
-3.02074121504e-05
-3.25172947806e-05
-1.15872379281e-05
-1.79303839933e-05
-2.76311254883e-05
-1.48049379831e-05
-5.76196202469e-06
-2.46189457989e-05
-1.42904389509e-05
-2.27276774945e-05
-7.50734381168e-06
4.43661129147e-06
-1.83186351154e-05
-8.85377874316e-06
1.4678718028e-05
-1.93574910015e-05
-1.55202618738e-05
2.51360429748e-05
-2.14411778891e-05
-1.66727844815e-05
3.25033513303e-05
-2.51847581415e-05
-1.47333023548e-05
3.54720444032e-05
-3.02459500534e-05
-1.15875764457e-05
3.38774589658e-05
-3.58406004313e-05
-8.26377573866e-06
2.83906448142e-05
-4.10691880014e-05
-5.45294329203e-06
2.01523118364e-05
-4.53969887451e-05
-3.53459041502e-06
1.03767696922e-05
-4.83885411968e-05
-2.55876063868e-06
-2.05153279617e-08
-4.98890203615e-05
-2.21838059115e-06
-1.04164037055e-05
-4.98846366434e-05
-2.21840842668e-06
-2.01886657984e-05
-4.83774261022e-05
-2.55889025082e-06
-2.84211084432e-05
-4.53783118646e-05
-3.5351679124e-06
-3.38991771978e-05
-4.10454436813e-05
-5.45445467677e-06
-3.54832533067e-05
-3.5812818563e-05
-8.26465767265e-06
-3.25063781156e-05
-3.02184468446e-05
-1.15851520349e-05
-2.51343934046e-05
-2.51612263304e-05
-1.47277015315e-05
-1.46760443302e-05
-2.14240653004e-05
-1.6665631018e-05
-4.43468936533e-06
-1.93472097658e-05
-1.5513045946e-05
-1.83138790178e-05
-8.84844446138e-06
3.86954116178e-06
-1.20535192554e-05
-1.0134654841e-05
1.25490030585e-05
-1.18286770052e-05
-1.62082764831e-05
2.13754145764e-05
-1.26053872067e-05
-1.76622024988e-05
2.75892797617e-05
-1.47232483158e-05
-1.66752721172e-05
3.01246054931e-05
-1.79696361741e-05
-1.48115469617e-05
2.88519593334e-05
-2.17262392831e-05
-1.28416269516e-05
2.42833234181e-05
-2.52844012021e-05
-1.12161824808e-05
1.73266162592e-05
-2.82948279566e-05
-1.01451696638e-05
8.95838313215e-06
-3.03878435585e-05
-9.63296695215e-06
-1.82781805846e-08
-3.14395570927e-05
-9.47256403671e-06
-8.99325798955e-06
-3.14369605357e-05
-9.47276586902e-06
-1.73570926716e-05
-3.03806233316e-05
-9.6328194344e-06
-2.43076487819e-05
-2.82839546343e-05
-1.01443458005e-05
-2.88680791571e-05
-2.52704278192e-05
-1.12141302565e-05
-3.01322304613e-05
-2.171099851e-05
-1.28378313768e-05
-2.75904158917e-05
-1.79550357673e-05
-1.48050854413e-05
-2.13730111236e-05
-1.4711879869e-05
-1.66670405336e-05
-1.254572036e-05
-1.25977709294e-05
-1.76535190944e-05
-3.86713027758e-06
-1.18251918367e-05
-1.62005787449e-05
-1.20519136879e-05
-1.01290954645e-05
4.17156281334e-06
-5.3629067742e-06
-1.08621769116e-05
1.17592328225e-05
-4.21178516981e-06
-1.52045619011e-05
1.92703306114e-05
-3.90495096175e-06
-1.62115340208e-05
2.45405326283e-05
-4.46680356154e-06
-1.55266493679e-05
2.66649703528e-05
-5.79042263575e-06
-1.43036520441e-05
2.55315638504e-05
-7.51294890874e-06
-1.30798786813e-05
2.15487852201e-05
-9.17589609087e-06
-1.21258670231e-05
1.54347619044e-05
-1.06535923277e-05
-1.15269328749e-05
8.00550091158e-06
-1.16878159828e-05
-1.1270681088e-05
-1.69380527901e-08
-1.22092309358e-05
-1.12079994695e-05
-8.03740165203e-06
-1.22081232766e-05
-1.12084578512e-05
-1.54614410143e-05
-1.16849394455e-05
-1.12716092678e-05
-2.15679559847e-05
-1.06496215774e-05
-1.15275916936e-05
-2.55421192365e-05
-9.17113694593e-06
-1.21252385207e-05
-2.66672541448e-05
-7.50849158108e-06
-1.3077303484e-05
-2.45369864619e-05
-5.7866942478e-06
-1.42987456617e-05
-1.92639508406e-05
-4.46468277492e-06
-1.55198620683e-05
-1.17531146373e-05
-3.90449632182e-06
-1.62041279061e-05
-4.1675667893e-06
-4.21275600843e-06
-1.51979900317e-05
-5.36271181281e-06
-1.0856768486e-05
5.3195332006e-06
-1.06824383636e-05
1.19724405041e-05
-1.08646926825e-05
1.82097392777e-05
-1.01422493096e-05
2.26092257339e-05
-8.86628311976e-06
2.43478258629e-05
-7.52902731023e-06
2.32463750642e-05
-6.41157809621e-06
1.96972770455e-05
-5.6266045236e-06
1.41651514921e-05
-5.12155452159e-06
7.37069231005e-06
-4.89317027087e-06
-1.46067208989e-08
-4.82394279153e-06
-7.39750543668e-06
-4.82556055673e-06
-1.41850291532e-05
-4.89758974886e-06
-1.97073825007e-05
-5.12730952866e-06
-2.32463204195e-05
-5.6321621589e-06
-2.43393866359e-05
-6.41548001922e-06
-2.25950369152e-05
-7.53104867276e-06
-1.81942940611e-05
-8.86542629408e-06
-1.1959903511e-05
-1.01388747523e-05
-5.31228149755e-06
-1.0860378566e-05
-1.06749931929e-05
7.61168745736e-06
7.62908345498e-06
-2.59170318473e-05
1.51520535816e-05
8.56520058449e-06
-2.69651542465e-05
2.15806555964e-05
9.668101763e-06
-2.62325837039e-05
2.58400716016e-05
1.13709506545e-05
-2.44892810857e-05
2.72657461205e-05
1.34717481622e-05
-2.24186976074e-05
2.57456901729e-05
1.56873995594e-05
-2.05723298655e-05
2.16184221496e-05
1.77227619324e-05
-1.92170706415e-05
1.54601029647e-05
1.94437415929e-05
-1.84013316894e-05
8.01826745544e-06
2.06468483779e-05
-1.80940292367e-05
-1.41173538742e-08
2.12583847368e-05
-1.80447576592e-05
-8.0469365291e-06
2.1258056121e-05
-1.804423539e-05
-1.5489439728e-05
2.06458236081e-05
-1.80929504221e-05
-2.16486942663e-05
1.94418675712e-05
-1.84008342196e-05
-2.57755133351e-05
1.77198321502e-05
-1.92183427433e-05
-2.72935169798e-05
1.56832090615e-05
-2.05756273089e-05
-2.58625192747e-05
1.3466270492e-05
-2.24256935147e-05
-2.15954859658e-05
1.13650638527e-05
-2.44992059857e-05
-1.51595612428e-05
9.66383154091e-06
-2.62448402856e-05
-7.61332825237e-06
8.56491070074e-06
-2.69827457524e-05
7.63412694004e-06
-2.59370073512e-05
8.55564817555e-06
1.51751424235e-05
-2.69584002151e-05
1.64870748267e-05
1.64939312285e-05
-3.10658218918e-05
2.29210410845e-05
1.84380695996e-05
-3.14181261425e-05
2.71124775894e-05
2.14424827472e-05
-2.97927081495e-05
2.84628433401e-05
2.51704337486e-05
-2.73563504734e-05
2.68222083154e-05
2.91228366783e-05
-2.48785865874e-05
2.24748771919e-05
3.27982207158e-05
-2.2855766971e-05
1.60639801396e-05
3.58492257704e-05
-2.15213790095e-05
8.33829401225e-06
3.79783316264e-05
-2.08748196133e-05
-1.43985036868e-09
3.90593120744e-05
-2.06681795791e-05
-8.34175663485e-06
3.90587541856e-05
-2.06666557687e-05
-1.60690426892e-05
3.79757545739e-05
-2.0871483944e-05
-2.24821787306e-05
3.58452313503e-05
-2.15167094421e-05
-2.68318561978e-05
3.2792366106e-05
-2.28509242398e-05
-2.84735401145e-05
2.91151266383e-05
-2.48758934604e-05
-2.71218909779e-05
2.51608416996e-05
-2.73585763236e-05
-2.2927016421e-05
2.14327374308e-05
-2.98001740778e-05
-1.64888270352e-05
1.84310481446e-05
-3.14297260526e-05
-8.55425950495e-06
1.64934553336e-05
-3.10806099625e-05
1.51856836675e-05
-2.69739785656e-05
9.66632880105e-06
2.15980701722e-05
-2.62174454239e-05
1.84434606496e-05
2.2918412629e-05
-3.14130417e-05
2.54116910835e-05
2.53941241343e-05
-3.15935074874e-05
2.98671843756e-05
2.92865941474e-05
-2.89842802792e-05
3.12196042723e-05
3.41300516563e-05
-2.51346192368e-05
2.93167123458e-05
3.92788099017e-05
-2.11030646421e-05
2.44908134615e-05
4.40667247606e-05
-1.76609482114e-05
1.74582508626e-05
4.80006031209e-05
-1.52591699579e-05
9.04943978083e-06
5.07331170578e-05
-1.39714317036e-05
7.01076852435e-09
5.21211023001e-05
-1.34841146927e-05
-9.03631868858e-06
5.21195254342e-05
-1.34814959708e-05
-1.74473491884e-05
5.07286810744e-05
-1.39645267186e-05
-2.44835870003e-05
4.79933578139e-05
-1.52484281282e-05
-2.93139983061e-05
4.40566005666e-05
-1.76477587548e-05
-3.12207935444e-05
3.92661841756e-05
-2.10915791616e-05
-2.98697256647e-05
3.41159211789e-05
-2.51296172907e-05
-2.54132703689e-05
2.92728648154e-05
-2.89869247556e-05
-1.84426639717e-05
2.53844029397e-05
-3.16017900852e-05
-9.66375112593e-06
2.29171260393e-05
-3.14239909647e-05
2.16122371683e-05
-2.62273366395e-05
1.13750187627e-05
2.58443539732e-05
-2.44658852174e-05
2.14569269422e-05
2.70970344792e-05
-2.97848054389e-05
2.93154281949e-05
2.98356334454e-05
-2.89840947539e-05
3.42394476171e-05
3.41939654419e-05
-2.45823374472e-05
3.56093574419e-05
3.96290599573e-05
-1.84749636649e-05
3.32785181461e-05
4.54038968964e-05
-1.20687115766e-05
2.76759972838e-05
5.0739032391e-05
-6.51619313938e-06
1.96483602871e-05
5.50795886808e-05
-2.56517469416e-06
1.01587370645e-05
5.80641827775e-05
-3.70350754119e-07
1.15152969776e-08
5.95716809781e-05
5.09444285204e-07
-1.01362935263e-05
5.95690302038e-05
5.13079434915e-07
-1.96287533076e-05
5.80556479302e-05
-3.59338125058e-07
-2.76604805517e-05
5.50664902492e-05
-2.54746343901e-06
-3.32693417788e-05
5.07214620033e-05
-6.49337161943e-06
-3.56058916563e-05
4.53838442243e-05
-1.20470951057e-05
-3.42393068855e-05
3.96079690633e-05
-1.84610968041e-05
-2.93157204389e-05
3.41748395568e-05
-2.45779580045e-05
-2.14559833876e-05
2.98217390125e-05
-2.89872851088e-05
-1.13730771857e-05
2.7093569467e-05
-2.97915943073e-05
2.58595853193e-05
-2.44724709138e-05
1.34783502314e-05
2.72560851359e-05
-2.23925722733e-05
2.51887079284e-05
2.84362350162e-05
-2.73510316713e-05
3.41642036972e-05
3.1176505432e-05
-2.51420033256e-05
3.96828063221e-05
3.55495749407e-05
-1.84864080598e-05
4.10727791227e-05
4.10002568343e-05
-9.56108947411e-06
3.81819125075e-05
4.67564133544e-05
-1.51120994343e-07
3.15948647651e-05
5.20916166001e-05
7.92472503579e-06
2.23209751142e-05
5.6406742033e-05
1.36686649455e-05
1.1501188196e-05
5.93755159349e-05
1.6825135003e-05
1.2100363532e-08
6.08814074905e-05
1.80974864025e-05
-1.14780048863e-05
6.08771103351e-05
1.81014207174e-05
-2.2299788801e-05
5.93629584866e-05
1.68373532489e-05
-3.15781689732e-05
5.63869224403e-05
1.36898319893e-05
-3.81705617247e-05
5.20656073409e-05
7.95147851303e-06
-4.1068384509e-05
4.6725855633e-05
-1.22320240707e-07
-3.96822865111e-05
4.0970449382e-05
-9.54015908969e-06
-3.4165593561e-05
3.55229007635e-05
-1.84745934301e-05
-2.51895373519e-05
3.11570502115e-05
-2.51390154051e-05
-1.34780702057e-05
2.8428891411e-05
-2.73529370509e-05
2.72695561755e-05
-2.23946678722e-05
1.56922817373e-05
2.57271286597e-05
-2.05476530982e-05
2.91383119346e-05
2.67910113018e-05
-2.48818139642e-05
3.93100246217e-05
2.92714580733e-05
-2.11285509316e-05
4.54562862332e-05
3.32169680863e-05
-1.21103887201e-05
4.68317802756e-05
3.81075178039e-05
-1.94713909064e-07
4.33736992404e-05
4.32948866445e-05
1.21465955881e-05
3.57341460687e-05
4.81011756477e-05
2.27337435245e-05
2.51601296537e-05
5.20087837732e-05
3.01199322832e-05
1.29398715379e-05
5.46943005036e-05
3.42103788569e-05
8.87710298758e-09
5.60456250703e-05
3.59258357515e-05
-1.2922630815e-05
5.60402351072e-05
3.59286476347e-05
-2.51442932244e-05
5.46780081219e-05
3.42187441975e-05
-3.57212092398e-05
5.19829610803e-05
3.01376393933e-05
-4.33654718653e-05
4.80671741589e-05
2.27580400296e-05
-4.68275581441e-05
4.32554175653e-05
1.21724557792e-05
-4.54570230311e-05
3.80667400245e-05
-1.6886474767e-07
-3.93126909627e-05
3.31814177852e-05
-1.20928962589e-05
-2.91408441965e-05
2.92445793961e-05
-2.11203215464e-05
-1.56929880457e-05
2.67777495178e-05
-2.48788365379e-05
2.57353938777e-05
-2.05448591175e-05
1.77251528171e-05
2.15981104928e-05
-1.91972609802e-05
3.28080615335e-05
2.24502637592e-05
-2.28715228901e-05
4.40901598026e-05
2.44580511922e-05
-1.77120736876e-05
5.07860667818e-05
2.76321119175e-05
-6.60289734905e-06
5.21640007748e-05
3.15411191983e-05
7.82435690865e-06
4.8176853495e-05
3.56780481955e-05
2.2677710418e-05
3.95894338403e-05
3.95395604467e-05
3.52888144139e-05
2.78211214918e-05
4.27232352202e-05
4.41141235724e-05
1.42884897881e-05
4.48862347927e-05
4.90524593582e-05
3.01105374208e-09
4.59488572832e-05
5.1143074538e-05
-1.42823758415e-05
4.59430486709e-05
5.11427385302e-05
-2.78152918486e-05
4.486884862e-05
4.90536326754e-05
-3.95845756273e-05
4.26942761855e-05
4.41209549868e-05
-4.81743818594e-05
3.95006073436e-05
3.53049210668e-05
-5.21636667064e-05
3.56315210548e-05
2.26957625243e-05
-5.07873313805e-05
3.14927259209e-05
7.84337342895e-06
-4.40936718254e-05
2.75881782524e-05
-6.58658994608e-06
-3.2810520407e-05
2.44244033376e-05
-1.77029568639e-05
-1.77265447183e-05
2.24306327824e-05
-2.28660154417e-05
2.16002047464e-05
-1.91901529263e-05
1.94443770075e-05
1.5444878884e-05
-1.83846608489e-05
3.58537451892e-05
1.60544263968e-05
-2.15460242485e-05
4.80176257568e-05