/*--------------------------------*- C++ -*----------------------------------*\
| =========                 |                                                 |
| \\      /  F ield         | OpenFOAM: The Open Source CFD Toolbox           |
|  \\    /   O peration     | Version:  3.0.1                                 |
|   \\  /    A nd           | Web:      www.OpenFOAM.org                      |
|    \\/     M anipulation  |                                                 |
\*---------------------------------------------------------------------------*/
FoamFile
{
    version     2.0;
    format      ascii;
    class       volScalarField;
    location    "2.5";
    object      alpha.water;
}
// * * * * * * * * * * * * * * * * * * * * * * * * * * * * * * * * * * * * * //

dimensions      [0 0 0 0 0 0 0];

internalField   nonuniform List<scalar> 
7968
(
0.99999999355
0.999999980187
0.999999980187
0.999999988971
0.999999998243
0.999999992128
0.999999989866
0.999999992584
0.999999997786
0.999999983232
1.00000000167
1
0.999999994138
0.999999994314
0.999999995692
0.999999999284
0.999999999217
0.999999984038
0.999999977902
0.999999971405
0.999999988215
0.999999999896
0.999999992736
0.999999999754
0.99999999989
0.999999999555
0.99999998757
0.99999998725
0.999999974039
0.999999974957
0.999999972396
1.00000000285
0.999999999019
0.999999993748
0.99999999826
0.999999997033
0.999999980161
0.999999979655
0.999999963816
0.999999974316
0.999999994756
1.00000000301
1
1.00000000022
1
0.999999991943
0.99999999593
0.999999973465
0.999999973902
0.99999997062
0.999999970605
0.999999980484
0.999999993492
0.999999996036
0.999999993461
0.999999999284
0.999999975005
0.999999974975
0.999999980121
0.999999977679
1.00000000131
0.999999999765
1.00000000166
1.00000000053
1
0.999999999927
0.999999977497
0.999999979593
0.999999972669
0.999999991227
0.999999970605
0.999999970605
0.999999996448
0.999999984937
0.999999990587
0.999999988785
0.999999999556
0.999999974939
0.999999999926
1.00000000025
0.999999999117
1.00000000261
0.999999999813
1.00000000014
1.00000000087
0.999999978552
0.999999994415
0.999999979262
0.999999993349
0.999999975624
0.999999996385
0.999999986477
0.999999999281
0.99999999903
0.999999982337
0.999999998952
1.00000000016
1.00000000072
1.00000000007
1.00000000039
1.00000001809
0.999999996982
0.999999997982
1.00000000344
0.999999977837
0.999999986136
0.999999977453
0.999999989891
0.99999999196
0.999999997639
0.999999992533
0.999999997013
0.99999999942
1.00000000103
1.00000000397
1.00000000169
1.00000000319
1.00000000034
1.00000000109
0.999999999432
1.00000000205
1.0000000131
0.999999997464
0.99999999172
0.999999994265
0.999999974551
0.99999999182
0.999999979595
0.999999997865
0.999999993817
0.999999991855
0.99999999904
1.00000000236
1.0000000023
1.00000000329
1.00000000183
1.00000000091
1.00000000153
1.00000000013
0.999999997739
1.00000002635
0.999999999616
0.999999997428
0.999999999966
0.999999985542
0.999999997251
0.999999983438
0.999999994767
0.999999996555
0.999999996365
0.999999993889
1.00000000154
1.00000000016
1.00000000298
1.00000000037
1.00000000167
1.00000000071
1.00000000133
0.999999998307
0.99999999961
1.00000000153
1.00000001797
0.999999993763
0.999999983823
0.999999998469
0.999999983473
0.99999999774
0.999999992586
0.99999999508
0.99999999438
0.999999998543
1.00000000007
1.00000000101
1.00000000057
1.00000000045
1.00000000144
1.00000000075
1.00000000533
1.000000005
1.00000001283
1.00000000996
1.00000000176
0.99999999923
0.999999984292
0.999999976426
0.999999999629
0.99999998504
0.999999992623
0.99999998426
0.999999994568
1.00000000001
1.00000000001
0.999999999628
1.00000000042
1.00000000144
1.00000000114
1.00000001271
1.00000001041
1.00000000416
1.00000001043
1.00000000048
1.00000000474
0.999999999778
0.999999978412
0.999999976309
0.999999978139
0.999999985849
0.999999983366
0.999999983281
0.999999996554
0.999999999762
0.999999998568
0.999999999899
0.999999997766
1.00000000041
1.00000000494
1.00000000688
1.00000000049
1.00000001646
1.00000000244
1.0000000058
1.00000000038
0.999999984161
0.999999985622
0.999999977632
0.999999996161
0.999999997739
0.999999983429
0.999999984286
0.999999999909
0.999999992413
0.999999993885
0.999999992358
0.999999997052
0.999999997788
0.999999998684
1.0000000013
1.00000000144
1.00000000351
1.0000000181
1.00000000012
1.00000000069
0.999999985248
0.999999959597
0.999999979936
0.999999971849
0.999999999117
0.999999990593
0.999999991498
1.00000000007
0.999999987974
0.999999988273
0.999999993123
0.999999992218
0.999999999963
0.999999990198
0.9999999895
1.00000000014
1.00000000079
1.00000000269
1.00000000021
0.999999986294
0.999999959121
0.99999997555
0.999999965437
0.99999996949
0.999999966792
0.999999999999
1
1
0.999999988347
0.999999973793
0.999999992171
0.999999999076
0.999999985529
0.999999998039
0.999999982833
0.999999984935
1.00000000026
1.00000000015
1.00000000001
0.999999973789
0.999999955808
0.999999955692
0.999999965259
0.999999978047
0.999999961437
0.999999966694
1
0.999999976022
0.999999981429
0.999999975971
0.999999996906
1
0.999999993903
0.999999982932
0.999999987132
0.999999978936
0.999999979328
0.999999997104
0.999999978513
0.999999958477
0.999999955692
0.999999955692
0.9999999587
0.999999974355
0.999999970682
0.999999970329
0.999999969384
0.999999972092
1
0.999999996642
0.999999994161
0.999999999106
0.999999993905
0.999999993707
0.999999979637
0.999999979623
0.999999975046
0.999999982061
0.999999985542
0.999999975925
0.999999957303
0.999999955692
0.999999955692
0.999999955692
0.999999978595
0.99999998824
0.9999999723
0.999999972102
0.99999997481
0.999999968229
1
0.999999981819
0.99999999669
0.99999998314
0.999999997018
0.999999974473
0.999999973208
0.999999972875
0.999999985831
0.999999980752
0.999999989176
0.999999972449
0.999999964851
0.999999961389
0.999999982324
1.00000000086
0.9999999987
0.999999981284
1.00000000618
0.999999969372
0.999999970515
0.999999998005
0.999999965421
0.999999996573
0.999999982736
0.999999979526
0.999999978833
0.999999972363
0.99999998342
0.999999980348
0.999999990531
0.999999993812
0.999999979937
0.999999973979
1.0000000002
1.00000000002
1.00000000153
1.00000000771
1.00000000536
0.999999984313
0.999999970625
0.999999966521
0.999999963764
0.999999963762
0.999999991031
0.999999991031
0.999999982295
0.999999968332
0.999999983821
0.999999980102
0.999999991063
0.999999995679
0.999999992953
0.999999997251
1
1.00000000049
1.00000000041
1.00000000258
1.00000000756
1.00000000284
1.00000000343
0.999999988978
0.999999967943
0.999999963762
0.999999978523
0.999999991031
0.999999964423
0.999999959978
0.999999983136
0.999999991377
0.99999998893
0.999999982088
0.999999983779
0.999999998496
1.00000001002
1.00000000034
1.00000000815
1.00000000224
1
1.00000000073
0.999999994182
0.999999995021
0.999999998207
0.999999998331
0.999999937911
0.999999904998
0.999999955174
0.999999943358
0.999999997197
1.00000000015
1
0.999999998047
0.999999995563
1.00000000357
0.999999999266
1.00000000662
0.999999998694
1.0000000067
1.00000000433
1.00000000173
1.000000003
0.999999996412
0.999999988264
0.999999994981
0.999999973183
0.999999953574
0.999999953674
0.999999954137
1.00000000218
0.999999996958
1.00000000425
1
1.00000000277
1.00000000007
1.00000000514
0.999999999361
0.999999993047
0.999999991067
0.999999983622
1.00000000501
0.999999993908
0.999999983027
0.999999976664
0.999999984907
0.999999993347
0.999999985071
0.999999957797
0.999999965498
1
1.0000000056
1.00000000018
1.00000001297
1.00000000011
1.00000000561
1
1.00000000027
0.999999994388
0.999999974992
0.999999999998
0.999999995824
0.999999989392
0.999999998587
0.999999976664
0.999999981163
0.9999999946
0.999999992229
1
1.00000000001
1.00000001317
1.00000000008
1.00000001541
1.00000000092
1.00000001393
1.00000000028
1.00000000817
0.999999997922
0.999999990422
0.999999999916
1
1
0.999999999999
0.999999993296
0.999999995865
0.999999999231
1.00000000469
1.00000000007
1.00000000022
1.00000000023
1.00000000367
1.00000000859
1.00000000097
1.00000001726
1.0000000009
1.00000001275
1
1.00000000673
0.999999998981
0.999999994538
0.99999997802
0.999999979206
0.999999959964
1.00000000262
1.00000000412
1.00000001027
1.00000000161
1.00000000606
1.00000000044
0.999999997232
1.00000004807
1.00000000226
1.00000001514
1.00000000091
1.00000001425
1
1.00000001084
0.999998916732
0.999999998416
0.99999999765
0.999999974721
0.999999984259
0.999999312589
1.00000000833
1.00000001016
1.00000000765
1.00000001324
1.00000000188
1.00000000415
0.99999999459
1.00000000016
1.00000001626
1.00000000021
1.00000000917
1
1.00000000191
0.999999999672
0.999999989402
0.999999994369
0.999999995528
0.999999997136
1.00000000075
1.00000000674
1.00000000482
1.00000000962
1.00000001283
1.0000000065
1.00000000882
1.00000000261
1.00000002123
1.00000001669
1.00000000296
1.00000002145
1.00000000328
1.00000001161
0.999999999223
0.999999999878
0.999999995874
0.999999992284
0.999999996874
0.99999999561
0.999999999625
1.00000000237
1.00000000397
1.0000000058
1.00000000415
1.00000001012
1.00000000827
1.00000002278
1.0000000054
1.0000000005
1.00000001231
1.00000000129
1.00000001528
0.99999999996
1.00000000146
0.99999998536
0.999999986705
0.999999993418
0.999999991188
0.99999999909
0.999999997784
0.999999999039
0.999999999675
1.00000000497
1.00000002286
1.00000001182
1.00000000851
1.00000001038
1.00000000165
1.00000002931
1.00000000126
1.00000000396
1.0000000001
1.00000000379
0.999999996825
0.999999985782
0.999999998764
0.999999984317
0.999999991526
0.999999998903
0.999999999992
0.999999996367
0.999999996577
0.999999997105
1.00000000759
1.00000000159
1.0000000177
1.00000000442
1.00000000436
1.00000000012
1.00000000805
1
1.00000000114
0.999999999726
0.99999999449
0.999999999828
0.999999985856
0.999999997268
0.999999992791
0.999999992597
0.999999998651
0.99999999962
0.999999995974
0.999999995469
1.00000000353
1.00000000441
1.00000000352
1.00000002452
1.00000000013
0.999999997157
1.00000000085
1.00000000151
1
1.0000000013
0.99999999977
1.00000000002
0.999999989956
0.999999972582
0.999999998775
0.999999992339
0.999999995932
0.999999993594
0.999999999772
0.999999990836
1.00000000005
1.00000000154
1.00000000255
1.00000000557
1.00000001948
0.999999998662
1.00000000206
1.00000000042
0.999999973454
0.999999983145
0.999999966407
0.999999999246
0.999999254965
0.999999982729
1.00000000173
0.99999998721
0.999999991488
0.99999925028
0.999999978201
0.999999990416
0.999999998579
1.00000000058
1.00000000056
1.00000000209
0.999999999476
1.00000000021
0.999999999869
0.999999976432
0.999999970369
0.999999961096
0.99999997153
0.999999967505
0.999999984758
1.00000000042
1.00000000406
0.999999987739
0.999999983869
0.999999985293
1
0.999999984196
0.999999987635
0.999999989267
0.999999991879
1.00000000021
1.00000000043
0.999999985714
0.99999997187
0.999999970758
0.999999956945
0.999999975249
0.999999967911
0.999999976636
0.999999993444
1.00000000123
1.00000001351
1.00000000282
1.0000000004
1
0.999999984362
0.999999984196
0.999999991899
0.99999998874
0.999999976154
0.999999989313
1.00000000003
0.99999996904
0.999999972109
0.999999954617
0.999999971728
0.999999960928
0.999999984521
0.999999988948
1.00000000035
1.00000000245
1.00000000364
1.00000001296
1.0000000032
1.0000000017
0.99999999022
0.999999984689
0.999999984651
0.999999982106
0.999999975142
0.999999974552
0.999999979854
0.999999976798
0.99999997489
0.999999961249
0.999999974466
0.999999977333
0.999999987439
1.00000000038
1.00000000057
1.00000000062
1.00000001131
1.00000000982
1.00000001084
1.00000000015
1.00000000089
0.999999995311
0.999999978073
0.999999985396
0.999999985396
0.999999974201
0.999999962958
0.999999983414
0.999999964448
0.999999981029
0.999999991116
0.999999978942
0.99999998957
1.00000000096
0.999999999573
1.00000000767
1.0000000054
1.00000001107
1.00000000587
1.00000000815
1.00000000039
0.99999999695
0.999999975657
0.999999980599
0.999999964079
0.999999959756
0.999999952409
0.99999997811
0.999999975686
0.999999933588
0.99999997226
0.99999997109
1
0.999999998225
0.999999996858
1.00000001475
1.0000000046
1.00000000295
1.00000002017
1.00000000563
1.00000000674
1.00000000016
0.999999982639
0.999999980377
0.999999917831
0.999999958239
0.999999952772
0.999999994805
0.99999999169
0.999999974815
0.999999980948
0.999999998639
1.00000000929
1.00000000066
1.00000001265
1.00000000222
1.00000000335
1.00000000478
1.00000001938
0.9999999966
1.00000001083
1.00000001377
0.999999961611
0.999999948976
0.999999924713
0.999999929995
0.999999939006
0.999999986652
0.99999999497
0.999999983187
0.999999982537
0.999999986221
0.999999997143
1.00000000693
1.00000000373
1.00000001168
1.00000000271
1.00000000368
1.00000000732
1.00000000527
1.00000000549
1.00000000179
0.99999999808
0.999999976062
0.999999949475
0.999999965724
0.999999957111
0.999999989535
0.999999980317
0.999999982514
1.00000000112
0.999999997195
0.999999998658
1.00000000106
1.00000001273
1.00000000239
1.0000000177
1.00000000542
1.00000000441
1.00000000549
1.00000000173
0.999999991708
0.999999984794
0.999999988255
0.999999963683
0.999999975275
0.999999972505
1.00000000888
0.999999998589
0.999999997284
1.00000000001
1.00000000183
1
1.0000000056
1.00000000032
1.00000001239
1.00000000133
1.00000000565
1.00000000279
1.00000000124
0.999999999424
0.999999981615
0.999999984075
0.999999987979
0.999999991009
1.00000000008
1.00000000031
1.00000000164
1.00000000889
1.00000000012
1.00000000509
1.00000000019
1.00000000486
1
1.00000000835
1
1.00000000249
1.00000000114
1
1.0000000004
1.00000000042
1.00000000018
1.00000000112
1.00000000012
1.0000000011
1.00000000007
0.999999997825
1.00000004675
1.0000000011
1.00000001215
1.00000000057
1.00000000926
1.00000000004
1.00000000707
0.999999973985
1.00000000093
1.00000000071
1.00000000329
1.00000000009
0.999999990513
1.00000000219
1.00000000492
1.00000000214
1.00000000554
1.00000000051
1.00000000293
0.99999999452
1.00000000408
1.00000002601
1.00000000433
1.00000001551
1.00000000018
1.00000001102
0.999997649757
0.999992825807
0.999999991319
1.00000000085
0.999999972489
0.999999883527
0.999995317518
0.999998238961
1.00000000723
1.00000001196
1.00000000352
1.00000000773
1.00000000233
1.0000000053
1.00000001438
1.00000000848
1.00000002735
1.0000000006
1.00000001399
1
1.00000000364
0.999999989145
1.00000000056
0.999999999969
0.999999999341
1.00000000027
0.999999934758
1.00000000763
1.0000000106
1.00000000924
1.00000001423
1.00000000424
1.00000002662
1.00000001314
1.00000000112
1.00000001897
1.00000000865
1.00000002186
1
1.00000000843
1.00000000099
1.00000000661
1.00000000032
0.999999999587
1.00000000053
1.00000000077
1.00000000572
1.00000001222
1.00000000675
1.00000001206
1.00000000427
1.00000001783
1.00000000969
1.00000000558
1.00000003043
1.0000000032
1.00000002419
1.00000000392
1.0000000204
1.00000000171
1.00000000896
1.00000000087
0.999999999728
0.99999999965
0.999999996233
1.00000000067
1.00000000661
1.00000001113
1.00000001788
1.00000001956
1.00000002267
1.00000000848
1.000000007
1.00000000167
1.00000000063
1.00000002583
1.000000003
1.00000001323
1.00000000104
1.00000001071
1.00000000065
1.0000000032
0.999999998637
0.999999992359
0.999999994838
1.00000000033
1.00000000418
1.00000000373
1.00000000973
1.00000000669
1.00000002482
1.0000000048
1.00000001097
1.00000000022
1.00000002134
1.00000000386
1.00000000532
1.00000000009
1.00000000367
1.00000000049
1.00000000374
1.00000000026
0.99999999895
0.999999999013
1.00000000001
1.00000000019
1.00000000129
1.00000000076
1.00000000325
1.00000000277
1.00000000104
1.00000000778
1.00000000877
1.00000000925
1.00000000155
1.00000001176
0.999999998346
1.00000000181
1.00000000015
1.00000000108
1.00000000068
0.999999798259
1
1.00000000388
1
0.999999999961
0.999999906898
1.00000000118
1.00000000055
1.00000000105
1.00000000241
0.999999999628
1.00000001673
1.00000000241
0.999999992626
1.00000000108
1.00000000299
1.00000000004
1.00000000041
1.00000000002
0.999998644966
0.999995180084
0.999999973281
1.00000000079
0.999999994783
0.999999998327
0.999995715531
0.999996375106
1.00000000025
1.00000000103
1.00000000172
1.00000000416
1.00000000265
1.00000002316
0.999999997118
0.999999999454
1.00000000035
1.00000000039
1.00000000025
1.00000000005
1.00000000045
0.999999997539
1.000000006
1.00000001258
1.00000000274
1.0000000016
0.999999991062
1.00000000006
1.0000000002
1.00000000019
1.00000000032
1.00000000047
1.00000000103
0.999999995608
0.999999999257
0.999999985223
1.00000000018
1.00000000051
1.00000000051
1.00000000014
1.00000000048
1.00000000161
1.00000000095
1.00000001304
1.0000000087
1.00000000001
1.00000000015
1.00000000005
1.00000000001
0.999999993343
0.999999986317
0.999999990171
1
0.999999995695
0.999999980062
0.999999947592
0.999999947106
1.00000000021
1.00000000026
1.00000000108
1.00000000153
1.00000000102
1.00000000191
1.00000002185
1.00000001219
1.00000001299
1.00000000005
1.00000000039
0.999999995382
0.999999980247
0.999999986769
0.999999962601
0.999999970119
1.00000000027
0.999999979195
0.999999962807
0.999999940486
0.99999994335
1.00000000031
1.0000000013
1.00000000078
0.999999997428
1.0000000013
1.00000000807
1.00000001501
1.0000000085
0.99999999983
0.999999999703
1.00000000047
0.999999983624
0.999999978597
0.999999963844
0.99999995187
0.999999969783
0.999999948937
0.999999954222
0.999999956377
0.999999977038
0.999999981525
1.00000000025
1.00000000083
1.00000000883
1.00000002118
1.00000000953
1.00000000544
1.00000002171
1.00000000713
1.00000000074
1.00000000039
0.999999986898
0.999999975353
0.999999973633
0.999999952671
0.999999955236
0.999999968873
0.99999992536
0.999999928735
0.999999922455
0.999999987287
1
0.999999998252
1.00000000908
1.00000000811
1.00000001108
1.00000000162
1.00000000767
1.0000000333
0.999999997838
0.999999998222
1
0.999999921326
0.999999912951
0.999999927641
0.999999954793
0.999999983808
0.999999992787
0.99999996255
0.999999986436
1.00000000698
1.00000000329
1.00000002049
1.00000001063
1.00000000808
1.00000000203
1.00000001593
1.00000001078
1.0000000105
1.00000000423
1.00000001615
0.999999937027
0.999999891648
0.999999908414
0.999999930884
0.999999899915
0.999999980144
0.999999992625
0.999999965771
0.999999991071
0.999999997023
1.00000000519
1.00000000301
1.00000001401
1.0000000126
1.00000000952
1.00000000757
1.0000000161
1.00000000825
1.00000001093
1.00000000708
0.99999999147
0.999999973635
0.999999978464
0.999999974525
0.999999901604
1.00000000068
0.999999976607
0.999999980832
0.999999985748
0.999999989379
1.00000000038
1.00000000855
1.00000001013
1.00000002441
1.00000000755
1.00000001288
1.0000000195
1.00000001175
1.00000000572
1.00000000255
0.999999999936
0.99999999117
0.999999970945
0.99999997637
1
1.00000000018
1.00000000336
0.999999998927
0.999999998016
0.999999982863
1.00000000231
1.0000000029
0.999992287673
0.999986383948
0.999989336371
0.999990065084
0.999987972094
0.999992110855
1.00000000574
1.00000000106
1.00000000001
1.00000000001
1.00000000065
1.00000000004
0.999999999311
1.00000002725
1.00000000033
1.00000000483
1.00000000007
1.00000000132
0.999975883099
0.999903736335
0.999813850856
0.999831104634
0.999846501122
0.999847085428
0.999832145539
0.999814131207
0.999905803211
0.999977538315
1.00000000018
1.00000000054
1.00000000003
1.00000000062
0.999999994087
1.000000015
1.00000001796
1.00000000044
1.00000000826
0.999974824452
0.999856538874
0.99982190322
0.999995086123
1.00000000002
1.00000000235
1.00000000151
1.00000000006
0.999995029796
0.999823441282
0.999857436452
0.99997584127
1.0000000011
1.00000000278
0.999999999952
0.99999999764
1.00000001708
1.00000000531
1.00000002386
1.00000000843
0.999901976511
0.999815514438
0.99999999382
0.999999994399
0.999999999279
1.00000000005
0.99999999959
0.999999999413
0.999999993197
0.999999994865
0.999816277018
0.999902990877
1.00000001098
1.00000000469
1.0000000018
1.00000001291
1.00000001484
1.00000001825
1.00000002237
0.99999138824
0.999818021476
0.999983858087
1
0.999944012342
0.999667015996
0.999710412947
0.999715400309
0.999675367472
0.99993356752
1.00000000377
0.999980172578
0.999820782834
0.999992464317
1.00000003267
1.00000001444
1.00000001877
1.00000001525
1.00000001235
1.00000003932
0.999985372326
0.999837712207
1.00000000012
1.00000000789
0.9996102143
0.999888589357
0.99999999989
0.999999999759
0.999874965136
0.999609684501
1.0000000077
1.00000000822
0.999839391977
0.999986038554
1.0000000249
1.00000001563
1.00000000051
1.00000000165
1.00000001787
1.00000001236
0.999985033695
0.999846943692
1.00000000881
1.00000000115
0.99969249956
0.999999999835
1.00000000029
0.999999999826
1.0000000009
0.999684835434
1.00000001306
1.00000001089
0.999847955772
0.999986213011
1.00000001619
1.00000000628
1.00000000136
1.00000001623
1.00000000297
1.00000002984
0.999984820247
0.99984523744
1.00000000082
1.00000000694
0.999688035354
0.999999998219
0.999999999185
0.999999999107
1.00000000027
0.999688802561
1.00000000524
1.00000000485
0.999846592731
0.999984370425
1.00000002198
1.00000000631
1.00000000024
1.00000000114
1.00000001785
1.00000000867
0.999982538979
0.999831970159
1.00000000352
1.00000000064
0.999627737255
0.99987576848
1.00000000027
1.0000000005
0.999874770698
0.999626426057
1.00000000148
1.00000000095
0.999831365876
0.999981333564
1.00000001986
1.00000001878
1.00000000001
1.00000000795
1.00000000367
1.00000002237
0.999985950103
0.999808370813
0.999977010304
1.00000000159
0.999931478825
0.999678511468
0.999733027016
0.999733213976
0.999679321562
0.999926096724
1
0.999975949809
0.999808331498
0.999984859551
1.00000002472
1.00000000734
1.00000001981
0.999999994922
1.0000000069
1.00000000246
1.0000000096
0.999893637608
0.999802495719
0.999999996905
0.999999995282
1.00000000003
1.00000000594
1
1.00000000044
0.999999999903
0.999999993221
0.999803512632
0.999892387678
0.999999555078
1.00000000577
1.00000001839
1.00000000304
0.999999988939
0.999999999652
1.00000000121
1.00000000154
0.999970276378
0.99984589624
0.999808758236
0.9999839755
1.00000000112
1.00000000115
1.00000000441
1.00000000075
0.999986978385
0.999809338528
0.999845236684
0.99996981643
1.00000000094
1.00000000131
1.00000000092
1.00000001632
0.999999990131
1.00000000168
1.00000000018
1.00000000085
1.00000000129
0.99997131708
0.999896356895
0.999804247274
0.999825782264
0.999841853791
0.999841349764
0.999826580661
0.999805181407
0.999897366846
0.999971438766
1
1.00000000002
0.99999999984
1.00000000024
0.999999993902
0.999999991008
0.999999985034
0.999999971832
1.00000000066
1.00000000122
1.00000000345
1.00000001501
0.999988420673
0.999983917539
0.999984703734
0.999984403113
0.999983809257
0.999988908336
1.00000000686
1.0000000017
0.999999999164
0.999999997957
0.999999979754
0.999999999995
0.999999991137
0.999999973516
0.999999974729
0.999999940628
0.999999953169
1.00000000047
1.00000000185
1.0000000054
1.00000002188
1.00000003193
1.00000001603
1.000000009
1.0000000277
1.0000000139
1.00000000752
1.00000000197
0.999999999795
0.999999979732
0.999999962612
0.999999963959
0.99999998128
0.999999937735
0.999999953497
0.999999940047
0.999999942417
1.00000000063
1.00000000044
1.00000000659
1.00000001225
1.00000001374
1.00000000929
1.00000000724
1.00000001106
1.00000002092
1.00000000541
1.00000000149
1
0.999999984748
0.999999978115
0.999999983239
0.99999997772
0.999999937141
0.999999922734
0.999999910805
0.999999915892
1
0.99999999491
1.00000000178
1.0000000033
1.00000000265
1.00000000426
1.00000000177
1.00000000424
1.00000000952
1.00000001609
0.999999997744
1.00000000061
0.999999928903
0.999999927809
0.999999940489
0.999999902119
0.999999941982
0.999999984924
0.999999960872
0.99999999248
1.00000000394
1.00000002387
1.00000001193
1.00000000781
1.00000001756
1.00000001949
1.00000002743
1.0000000031
1.00000000351
1.00000000957
1.0000000035
1.00000001127
0.999999900033
0.999999931388
0.999999855028
0.999999911564
0.999999971161
0.999999955484
0.999999971026
0.999999994615
1.00000000254
1.00000000173
1.00000001076
1.00000002139
1.00000003171
1.0000000141
1.00000003753
1.00000002212
1.00000002574
1.00000000781
1.00000000654
0.999999991976
0.999999974084
0.999999982727
0.999999926037
0.99999993909
1.00000000013
0.999999972561
0.999999983775
0.999999998076
1.00000000007
1.00000000388
1.00000000438
1.00000001638
1.00000001887
1.00000002134
1.00000001134
1.00000002214
1.00000001001
1.00000000752
1.00000000437
1.00000000225
1.00000000055
0.999999985134
0.999999970118
1
1.0000000027
1
1
1.00000000073
0.999999295726
0.999943395367
0.999819753001
0.999711085593
0.999703189371
0.999725074956
0.99972310412
0.999701951922
0.999709983171
0.999817450211
0.999943984057
0.999998424713
1.00000000396
1.00000000043
1
0.999999999656
1.00000001964
1.00000000355
1.00000000056
1.00000000149
0.99988234481
0.999446121358
0.999330543302
0.999470028365
0.999482708354
0.999515443735
0.999518455882
0.999487385994
0.999477463649
0.999338557431
0.999445284388
0.999881172671
0.999999093874
1.00000000315
0.99999999979
0.999999990392
1.00000001838
1.00000000773
1.00000000807
0.999945601581
0.999452087368
0.999181098165
0.998371110121
0.997483693027
0.997678762584
0.997522389188
0.997520688777
0.997683704405
0.997489245648
0.998378686347
0.999185868472
0.999452362225
0.999945840266
1.0000000029
1.00000000343
0.999999999702
1.00000002873
1.00000001444
1.00000000418
0.999828614254
0.999299392814
0.998352606617
0.996029644365
0.995412515896
0.995521074525
0.995181494551
0.99518091237
0.995530970964
0.995412298946
0.996023628098
0.998359208136
0.999306783586
0.99982931338
1.00000000883
1.00000001384
1.00000002102
1.00000001849
1.00000001808
1.00000001398
0.999705086716
0.999460333655
0.997541610339
0.995279654684
0.994745220603
0.994654072189
0.994674631546
0.994676876092
0.994658308126
0.99473696225
0.995271070976
0.997565606985
0.99946431769
0.999704944942
1.00000000999
1.00000002015
1.00000000484
1.00000000039
1.00000001983
1.00000001626
0.99969052573
0.999469399586
0.997765433661
0.99535503187
0.994621012756
0.994929608831
0.995337973168
0.995315460483
0.994910124419
0.994621199428
0.995347334383
0.99776562134
0.999469521048
0.999691460037
1.00000001285
1.00000001257
0.999999999668
1.00000001417
1.00000003238
1.00000000967
0.99972684998
0.999484043972
0.997518037572
0.995071778651
0.99466270778
0.995342266729
0.995771046304
0.995782213164
0.995329938796
0.994660088973
0.9950524691
0.997496863846
0.99947705213
0.999730231745
1.00000000481
1.00000003557
1.00000000398
1.00000000087
1.0000000403
1.0000000031
0.999724086952
0.99948979394
0.997512362704
0.995071220416
0.994661097606
0.995277912451
0.995732884509
0.995727060705
0.995293165179
0.994662260407
0.995043122573
0.997486369575
0.999477971541
0.999726292511
1.00000000657
1.0000000405
1.00000002454
1.00000000117
1.00000000111
1.00000000915
0.999684323837
0.999470415347
0.997736106976
0.995349393032
0.994627741372
0.994908475438
0.995315438094
0.995301356478
0.994908514184
0.994627419053
0.995332981773
0.997726006987
0.9994618349
0.999685530214
1.000000014
1.00000000293
1.00000000132
1.00000000064
1.00000000971
1.00000000363
0.999696674763
0.999460419082
0.997546840042
0.995300741081
0.99473409971
0.994654934971
0.994684566007
0.994684749721
0.994655414376
0.99473026561
0.99529481867
0.997547400134
0.999453146389
0.999695963218
1.00000000707
1.00000001778
1.00000000315
0.999999999724
1.00000000344
1.00000000619
0.999818591656
0.999295615332
0.998377295969
0.996072385443
0.995392257568
0.995479468686
0.995167371556
0.995171322797
0.995480832671
0.995385588504
0.996070628042
0.998364672912
0.999279916438
0.999821525368
1.00000001042
1.00000000479
1.00000001351
0.999999992172
1.00000000244
1.00000000212
0.999935281057
0.999437769536
0.999183963006
0.998379670262
0.997492978412
0.997681135442
0.997487033858
0.997488658015
0.997677577146
0.997481110869
0.998378099607
0.999178003922
0.999435458556
0.999935298536
1.00000000195
1.0000000098
1.00000000222
0.999999976168
1.00000000048
1.00000000202
0.999990735308
0.999868574913
0.999435356381
0.99929175143
0.999450348547
0.999460866397
0.999473289477
0.99947300431
0.999464066485
0.999452710594
0.99928899697
0.999433624345
0.999869439252
0.999993170177
1.00000000191
0.999999993223
0.999999999311
0.999999998023
0.999999999746
1.00000000234
1.00000000025
0.999991869579
0.999934879403
0.999817372264
0.99970206085
0.999684029646
0.999719554336
0.99971844433
0.999679672462
0.999697001417
0.999817913124
0.999936670799
0.999994455043
0.999999996352
1
0.999999995376
0.999999991826
0.999999999845
0.999999981165
0.999999987091
1.00000000118
1.00000000078
1.00000000372
1.00000000739
1.00000000726
1.00000000935
1.00000000505
1.00000000847
1.00000000993
1.0000000131
1.0000000054
1.00000000213
1
0.999999991611
0.999999984757
0.999999981531
0.999999992941
0.999999954282
0.999999920556
0.999999974404
0.999999987266
1.00000000017
1.00000000255
1.00000000422
1.00000000903
1.00000000425
1.00000003853
1.0000000082
1.00000000955
1.00000001101
1.00000001081
1.00000000175
1.00000000013
0.999999988082
0.999999982386
0.999999983228
0.999999959797
0.999999936916
0.999999899215
0.999999907864
0.999999958662
0.999999958125
0.999999993819
1.00000000113
1.00000000028
1.00000000028
1.00000000089
1.00000000012
1.00000000594
1.00000000282
1.00000000552
1.0000000131
1.00000000049
0.999999922706
0.999999907575
0.999999887465
0.99999990134
0.999999915021
0.999999969633
0.999999942493
0.999999991923
1.00000001502
1.00000001101
1.00000001106
1.00000004303
1.00000004943
1.00000005689
1.00000004903
1.00000004138
1.00000003264
1.00000000576
1.00000000531
1.00000000211
0.999999973499
0.999999847586
0.999999833206
0.999999902925
0.9999999566
0.999999946885
0.99999992168
0.999999983622
1.00000000024
1.00000000635
1.00000000813
1.00000001925
1.00000005661
1.00000006781
1.00000005848
1.00000005422
1.00000001062
1.00000000786
1.0000000075
1.00000000226
0.999999991088
0.999999984087
0.999999952946
0.999999897972
1.00000000008
0.999999945598
0.999999984863
0.999999994222
1.00000000147
1.00000000546
0.999978579589
0.999944095695
0.999953891076
0.999964053081
0.999963261004
0.999954916002
0.999946474613
0.999979895333
1.00000000303
1.00000000435
1.00000000207
0.999999992141
0.999999952034
0.999999993056