/*--------------------------------*- C++ -*----------------------------------*\
| =========                 |                                                 |
| \\      /  F ield         | OpenFOAM: The Open Source CFD Toolbox           |
|  \\    /   O peration     | Version:  3.0.1                                 |
|   \\  /    A nd           | Web:      www.OpenFOAM.org                      |
|    \\/     M anipulation  |                                                 |
\*---------------------------------------------------------------------------*/
FoamFile
{
    version     2.0;
    format      ascii;
    class       volScalarField;
    location    "2.5";
    object      epsilon;
}
// * * * * * * * * * * * * * * * * * * * * * * * * * * * * * * * * * * * * * //

dimensions      [0 2 -3 0 0 0 0];

internalField   nonuniform List<scalar> 
7968
(
0.00133824594677
0.00152007963341
0.00165684004603
0.00173256111307
0.00176657056602
0.00177589184657
0.00177267074524
0.00176408754311
0.00175498116704
0.00174819284018
0.00174819081334
0.00175497715973
0.00176409314411
0.00177269622205
0.00177593974434
0.00176663848894
0.00173263570287
0.00165691033487
0.00152015005082
0.00133828078883
0.0015200552945
0.00239827178564
0.00302351508724
0.00338286338655
0.00355790573264
0.00361768970446
0.00361632651511
0.00359120091721
0.00356661351899
0.00355273036405
0.00355269448041
0.00356652384218
0.00359108691966
0.00361622460313
0.00361764546909
0.00355795908695
0.00338299332304
0.00302367096759
0.00239842929413
0.00152012360006
0.00165677016842
0.0030234121415
0.00402836359611
0.00462839342102
0.00493771657558
0.0050569742808
0.00507002608078
0.00504011272834
0.00500812709108
0.00499039878731
0.00499031764155
0.0050079144579
0.00503981013111
0.00506969404407
0.00505671386349
0.00493761073434
0.00462843857489
0.00402849370901
0.00302356830579
0.00165684940932
0.00173240762332
0.00338256847773
0.00462821910476
0.00538322115767
0.00577307977449
0.00591770190822
0.0059265263251
0.00588255775225
0.00583950881322
0.00581681889944
0.00581669804955
0.00583917875997
0.00588204987847
0.00592592988915
0.00591715178534
0.00577272001133
0.00538307246007
0.00462822359179
0.00338265743797
0.00173248547682
0.00176631484928
0.00355744877576
0.00493748098148
0.00577312980044
0.0061880083452
0.00632248608008
0.0063650246434
0.00636572698453
0.00634315626367
0.00632585198122
0.00632576123085
0.00634290082363
0.00636533595986
0.00636453623055
0.00632172654059
0.00618738240499
0.00577272666893
0.0049372865079
0.00355740691437
0.00176636763766
0.00177555333156
0.00361721626337
0.00505697031856
0.00591831827371
0.00632327838528
0.00654363978569
0.00663461171309
0.00663717106581
0.0066089355954
0.00658697001043
0.00658689228532
0.00660870097028
0.00663678783516
0.00663412925682
0.00654306393486
0.00632247670032
0.00591767792653
0.00505656772566
0.00361702361696
0.00177556274037
0.00177227080655
0.00361596158103
0.00507051647735
0.00592812019697
0.00636586798265
0.00663506128256
0.00672521553361
0.00671222287551
0.00666873197305
0.00663781638315
0.00663774578387
0.00666852526966
0.00671187947398
0.00672476326843
0.00663454616476
0.00636528584939
0.00592740398656
0.00506999411132
0.00361565428972
0.00177223470884
0.00176363295159
0.00359094627477
0.00504104845473
0.00588504327312
0.0063670498386
0.00663796955694
0.00671236116182
0.00667771697729
0.0066149623807
0.00657272666722
0.00657265011635
0.00661476878251
0.00667742773785
0.00671200210136
0.00663756126507
0.00636658911596
0.00588447670936
0.0050405552769
0.00359059828249
0.00176356108522
0.00175447095355
0.00356635201789
0.00500916181768
0.00584226693887
0.00634479812091
0.00661003023253
0.0066689665423
0.00661490348437
0.0065343622642
0.00648093817312
0.00648085863604
0.00653421246345
0.00661475359758
0.00666879961061
0.00660982843005
0.00634455445762
0.00584204714912
0.0050088428087
0.00356604902779
0.00175437838031
0.00174765459345
0.00355237599155
0.00499122295629
0.00581930895134
0.0063275798177
0.00658832721755
0.00663836215343
0.00657289236718
0.00648102201141
0.00641881618909
0.00641882877328
0.00648106936751
0.0065729901375
0.00663846334668
0.00658840472542
0.0063276231303
0.00581952084069
0.00499117200237
0.00355218824017
0.00174756485307
0.00174775165964
0.00355234925528
0.0049909981883
0.00581891941539
0.0063274457208
0.00658828014466
0.00663841522295
0.00657303655282
0.00648120614319
0.00641907983951
0.00641918920468
0.00648149441511
0.00657341404669
0.00663880263761
0.00658865155569
0.00632779477353
0.00581957107054
0.00499123447259
0.00355229914772
0.0017476823315
0.00175465912348
0.00356628849667
0.00500856826105
0.00584120065874
0.00634448669824
0.00660999608879
0.00666923945621
0.0066154722249
0.00653515050166
0.00648196777735
0.00648208745777
0.00653549631065
0.00661595777522
0.00666978735892
0.00661056534999
0.00634506817409
0.00584222484164
0.00500903559314
0.00356635214163
0.00175461038511
0.00176386643147
0.00359094454127
0.00504034977565
0.00588369787667
0.00636677574732
0.00663813507797
0.00671298614649
0.00667875940074
0.00661639427912
0.00657453148569
0.00657464460826
0.00661670930429
0.00667922548103
0.00671356367304
0.00663877732353
0.00636745370294
0.00588486419484
0.00504089711801
0.00359105121712
0.00176382828325
0.00177253970194
0.00361613462637
0.00507001911362
0.00592697871603
0.00636575919318
0.00663551406673
0.00672621277257
0.00671370172818
0.0066706350885
0.00664010435094
0.00664019910394
0.00667088899718
0.00671409415338
0.00672673087997
0.00663611909007
0.00636642050723
0.005927980272
0.00507045406661
0.00361619083069
0.00177249411941
0.00177584504899
0.00361763395411
0.0050568947904
0.00591768854957
0.00632275042747
0.00654427767054
0.00663590529318
0.00663901580326
0.00661125202164
0.00658965195896
0.00658972998618
0.00661145782163
0.00663933014319
0.00663633171183
0.00654483630917
0.00632375233101
0.00591828718485
0.00505706516973
0.00361758042966
0.00177578939337
0.00176660808748
0.00355809027387
0.00493782761702
0.00577304215986
0.00618791177579
0.00632313556262
0.00636642047828
0.00636773927744
0.00634565296531
0.0063286656342
0.00632872742205
0.0063458208704
0.00636799695804
0.00636677373581
0.00632377190918
0.00618836773193
0.00577318129887
0.00493773761102
0.00355793554892
0.00176654718474
0.00173264414553
0.00338328076201
0.00462882166092
0.00538353079945
0.00577328736282
0.00591830046469
0.00592794491983
0.00588483672061
0.00584236145149
0.00581997374684
0.00582004293135
0.00584254547865
0.00588511111284
0.00592827690307
0.00591858556203
0.00577337521458
0.00538341803342
0.00462860407384
0.00338309009148
0.00173259207844
0.00165692869629
0.00302403551332
0.00402900483051
0.00462888437449
0.00493809547083
0.00505745800969
0.00507088433421
0.00504142631682
0.00500977294428
0.00499223305558
0.00499231377119
0.00500996881253
0.00504168040011
0.00507113000797
0.00505761383845
0.00493808854517
0.00462873527918
0.00402879482308
0.00302387431299
0.00165688747823
0.00152014581684
0.00239868528006
0.0030239853131
0.0033832869881
0.00355825088089
0.00361802150395
0.00361677408532
0.00359183185363
0.00356740518104
0.00355364115896
0.0035537180228
0.0035675985033
0.00359207960612
0.00361700417984
0.00361816983081
0.00355827650333
0.00338320007269
0.00302384701528
0.00239857732289
0.00152011580902
0.00133826535347
0.00152016415954
0.00165694350375
0.00173265737409
0.00176664705759
0.00177593927157
0.00177270827235
0.0017641371304
0.00175505311011
0.00174829852596
0.00174833528841
0.00175513615199
0.00176423605848
0.00177279555281
0.00177599451485
0.00176666517636
0.00173264172426
0.00165691156048
0.00152014129927
0.00133825255119
0.00149756696499
0.00225383676764
0.00282647405027
0.00317796461044
0.00336867972057
0.00345397100406
0.0034774998857
0.00347122476438
0.00345710018089
0.00344716095413
0.00344714052574
0.00345704938689
0.00347116376152
0.00347745079502
0.00345395131822
0.00336869967578
0.00317800914064
0.00282652487358
0.00225389794795
0.0014976043789
0.0022537259515
0.00266745986841
0.00316828997084
0.00350239841318
0.00369468160321
0.00378849726012
0.00382249518372
0.00382628642441
0.00382009379852
0.00381476212427
0.00381473339997
0.00382001851781
0.00382618370991
0.00382238833342
0.00378841273181
0.00369463994304
0.00350239779438
0.00316831514692
0.00266749547196
0.00225375482613
0.00282626577215
0.00316818534333
0.00371671441645
0.00410271311754
0.00433412999375
0.00445183026269
0.00449748912615
0.00450530827646
0.00449964833074
0.00449401862318
0.00449398214807
0.00449954985502
0.00450516617614
0.00449732944103
0.0044516876119
0.00433403396205
0.00410266766899
0.00371670477877
0.003168191131
0.0028262772118
0.00317761095834
0.00350217998254
0.00410260502728
0.00453792743886
0.00480571651123
0.00494598217479
0.00500416313223
0.00501737458254
0.00501325938635
0.00500781113968
0.00500777105256
0.00501314540915
0.005017200831
0.00500395455115
0.00494577243381
0.00480554469757
0.00453780695249
0.00410252923528
0.00350213309087
0.00317758927374
0.00336818126943
0.00369437126469
0.0043339544185
0.00480566903363
0.00510063449082
0.00526158287131
0.00534366617195
0.00537500965474
0.00537963842132
0.00537694410126
0.00537691185893
0.00537954703998
0.00537487038297
0.00534348597952
0.0052613365901
0.00510038996232
0.00480546039696
0.00433379312384
0.00369425073098
0.00336809103829
0.00345339703122
0.0037881582716
0.00445167755653
0.00494600794885
0.0052616591434
0.00545810958714
0.00556358798237
0.00560588808143
0.00561444405802
0.00561257338753
0.00561254255501
0.0056143549604
0.0056057539006
0.00556341495413
0.00545788792592
0.00526137088132
0.00494572244794
0.0044514337438
0.00378795990051
0.00345321735748
0.00347693572434
0.00382219024976
0.00449743959483
0.00500434580792
0.00534371498725
0.00556359343212
0.00568161850329
0.00572825031999
0.00573683637477
0.00573401790769
0.00573398077398
0.00573673463152
0.0057281083741
0.00568144016561
0.00556337250002
0.00534344753258
0.00500402860888
0.00449714717268
0.0038219355528
0.00347667979462
0.00347069344265
0.00382602383848
0.00450535808963
0.00501770539325
0.00537509946351
0.00560590921652
0.00572829630258
0.00577451742202
0.00578024048591
0.00577458666374
0.00577454215604
0.00578013002579
0.00577437740732
0.00572811698952
0.00560568772933
0.00537484367237
0.00501741312098
0.00450506991473
0.00382575337593
0.0034704036806
0.00345656546935
0.00381983243431
0.00449972002193
0.00501363284795
0.00537977431064
0.00561451556384
0.0057369775486
0.00578034901743
0.00578061852715
0.00577086734889
0.00577084128216
0.00578054063012
0.00578021396517
0.00573680919706
0.00561431650676
0.00537955774164
0.00501341844692
0.00449948809341
0.0038195899803
0.00345629188922
0.00344660398775
0.00381447929428
0.00449405774657
0.00500814051101
0.00537713418481
0.00561272419832
0.00573422417941
0.00577473445675
0.00577094080829
0.00575836748016
0.0057583412678
0.00577087511809
0.00577463480706
0.00573410397749
0.00561257932359
0.00537698486175
0.00500802950141
0.00449391804556
0.00381429962535
0.00344639412885
0.00344664477078
0.00381448081027
0.00449402359437
0.00500810466453
0.00537716481482
0.0056127906644
0.00573431243846
0.00577485830101
0.00577113114967
0.00575857239699
0.0057585646407
0.005771089392
0.00577480570727
0.00573425790135
0.00561271501703
0.00537709890597
0.005008113113
0.00449398949901
0.00381437844773
0.00344651900089
0.00345668463477
0.00381984896052
0.00449963990029
0.00501352815685
0.00537987127297
0.00561471162998
0.00573722862711
0.00578066354945
0.00578105097472
0.00577135503399
0.00577136756089
0.00578105859876
0.00578066513406
0.00573722276481
0.00561469278708
0.00537988112127
0.00501365657044
0.00449969573139
0.00381981193333
0.00345662790434
0.00347092231304
0.00382609902508
0.00450529925686
0.00501759779176
0.00537527227525
0.00560622437442
0.00572870110175
0.00577502311792
0.00578082867717
0.00577523512704
0.00577524973355
0.005780860634
0.0057750633525
0.00572873109378
0.0056062516362
0.00537533822561
0.005017791934
0.00450540028653
0.0038260932838
0.00347089460444
0.00347731179053
0.00382237707801
0.00449748692371
0.00500432683478
0.0053439617277
0.00556400621138
0.00568214199788
0.00572889662414
0.0057375931299
0.00573485109818
0.00573486917364
0.00573764078579
0.00572896086122
0.00568220654054
0.00556407469289
0.00534406591344
0.00500451538476
0.00449757344003
0.0038223595181
0.00347726302689
0.00345393438937
0.00378849377384
0.00445189434041
0.00494613703601
0.00526187804512
0.00545857361814
0.00556419577279
0.00560662475038
0.00561530121071
0.00561352644049
0.00561355166775
0.00561536711824
0.00560671434307
0.00556429399716
0.00545869013985
0.00526206377073
0.00494626478526
0.00445192061077
0.00378843588738
0.00345384080561
0.00336883546809
0.00369484572803
0.00433434228896
0.00480595966898
0.00510094037058
0.0052620556164
0.00534431372242
0.00537581295028
0.00538057714017
0.00537798707603
0.00537801765692
0.00538065815329
0.00537592655271
0.00534444429156
0.00526222037117
0.00510106489845
0.00480600108468
0.00433430504185
0.00369475127349
0.00336870774202
0.00317826870609
0.0035027328992
0.00410311519972
0.00453834646261
0.00480609656626
0.00494644938911
0.00500482115691
0.0050182469462
0.00501429723548
0.00500894969745
0.00500898621976
0.00501439467675
0.00501838445334
0.00500497189617
0.00494657858067
0.00480616151333
0.00453833723439
0.00410304869372
0.0035026293059
0.00317814248204
0.00282682323351
0.00316874555466
0.00371727779877
0.00410320544624
0.00433455807078
0.00445226982963
0.00449803311772
0.00450599832234
0.00450046470064
0.00449492939249
0.0044949704126
0.00450056965704
0.00450613827867
0.00449817383402
0.00445237636879
0.00433460290346
0.00410318773594
0.00371721515753
0.00316865598029
0.00282671616243
0.00225408604133
0.00266796362826
0.0031688385706
0.00350289986728
0.00369511534341
0.00378890253714
0.00382294486924
0.00382682574187
0.00382072308667
0.00381546890025
0.00381551123333
0.00382083018192
0.00382696417056
0.00382307776742
0.0037889982247
0.00369515468742
0.00350288482888
0.00316878770207
0.00266789490144
0.00225400732996
0.00149760793577
0.00225426705521
0.00282702687524
0.00317849882391
0.00336915761407
0.00345441609951
0.00347798922445
0.00347181348643
0.00345779380427
0.00344795001155
0.00344801800217
0.00345796521235
0.00347203553574
0.00347820660053
0.00345458399621
0.00336925167611
0.00317851962556
0.00282700498177
0.00225424167386
0.0014975878002
0.00161603714085
0.00274228976663
0.00363555418842
0.00421299847151
0.00454855232176
0.004717232923
0.00478193644693
0.00479233304017
0.00478368171327
0.00477537946334
0.00477534723103
0.00478360358474
0.00479223795656
0.00478185287626
0.00471719080519
0.00454857206549
0.00421305906603
0.0036356273367
0.00274237387716
0.00161608220031
0.0027421111796
0.0031062250611
0.00366739113137
0.0040704412027
0.0043225038371
0.00446177717449
0.0045267883271
0.00454967922259
0.00455375885632
0.00455275540027
0.00455272849876
0.00455368853948
0.00454958240315
0.00452668417346
0.00446168994009
0.00432245607236
0.00407043540382
0.00366741714237
0.00310626455304
0.00274214938082
0.00363522135632
0.00366726243794
0.0041571882938
0.0045417205794
0.00479438879414
0.00494001031843
0.00501144119429
0.00503877264917
0.00504516858295
0.00504495204878
0.00504492816162
0.00504510445394
0.00503867819183
0.0050113300171
0.00493990727644
0.00479431863534
0.00454168764881
0.00415718109828
0.00366725783838
0.00363521708596
0.00421245834122
0.00407019235478
0.00454160561378
0.00493400851265
0.00520116970402
0.00536053293289
0.00544206588476
0.00547546748553
0.00548564761383
0.00548664949655
0.00548663218035
0.00548559826458
0.00547538197349
0.00544194137322
0.00536040231311
0.00520105494519
0.00493391877546
0.00454153446301
0.00407012106081
0.00421238493437
0.00454783576453
0.00432215876391
0.00479418806435
0.00520108679911
0.00548560587581
0.00566252455336
0.00575909113512
0.00580203014405
0.00581519727328
0.00581676881599
0.00581675407151
0.00581515080758
0.0058019533241
0.00575898671982
0.00566240258398
0.00548545004402
0.00520092913113
0.00479403852559
0.00432200586096
0.00454765162695
0.00471645121332
0.00446138520891
0.00493977812375
0.00536042204908
0.00566245698583
0.00585748402339
0.00596790535868
0.00601874123615
0.00603444673352
0.00603633468126
0.00603631889114
0.0060343945696
0.00601865894544
0.00596779329629
0.00585734035923
0.00566228430176
0.00536020326992
0.00493955408975
0.00446115000192
0.00471613563137
0.00478123976286
0.00452640739263
0.00501122764684
0.00544197684474
0.0057590031226
0.00596785830997
0.00608844412273
0.0061436793808
0.00615987567104
0.00616105465963
0.00616102968318
0.0061598047652
0.00614358450449
0.0060883139328
0.00596768749081
0.00575879727214
0.00544172099514
0.00501095772908
0.00452611468797
0.00478082704505
0.00479175272332
0.00454931621987
0.00503856581151
0.0054753258922
0.00580190653947
0.0060186483684
0.00614370876131
0.00619934501954
0.00621358720869
0.00621272299705
0.00621268938899
0.0062134987597
0.00619922753038
0.00614355187398
0.0060184528993
0.00580168977915
0.00547507583594
0.00503829136527
0.00454900787318
0.00479132008296
0.00478312216578
0.00455337495965
0.00504491849896
0.00548540790242
0.0058150272299
0.00603430190753
0.00615984460354
0.00621356347633
0.00622432114607
0.00622101179253
0.00622098994621
0.00622424428485
0.00621341746797
0.00615966077029
0.00603410381631
0.00581482275268
0.0054851836895
0.005044678355
0.00455309465684
0.00478275102086
0.00477476410481
0.00455233533424
0.00504465763475
0.00548640830749
0.00581659587363
0.00603618524317
0.00616093470645
0.00621261340042
0.00622097936847
0.00621626995354
0.0062162330988
0.00622088603064
0.00621246396341
0.00616075778257
0.00603601291106
0.00581642565018
0.005486232714
0.00504448096101
0.00455211721816
0.00477451546926
0.00477475315178
0.00455232246979
0.00504462925734
0.0054864053489
0.00581661371911
0.00603622899474
0.00616099393765
0.00621270023817
0.00622112093346
0.00621641588385
0.00621639148326
0.00622103198737
0.00621257173225
0.00616085273608
0.00603609721102
0.00581649212328
0.00548628724945
0.00504452729908
0.00455217944849
0.004774646124
0.00478312134565
0.00455335306692
0.00504485073544
0.00548540567818
0.00581507394532
0.0060344175351
0.00615999831415
0.00621376772208
0.00622461411904
0.00622133429602
0.00622133332955
0.00622457976711
0.00621370074195
0.00615991195881
0.00603433152349
0.00581500737725
0.00548534140719
0.00504481432652
0.0045532733067
0.00478312673967
0.00479186171738
0.00454933465966
0.00503849941526
0.00547529030094
0.00580196695264
0.00601880431685
0.00614393699919
0.00619966487953
0.00621395796378
0.00621312250833
0.00621312900535
0.00621396366972
0.00619965941607
0.00614390867026
0.00601877119115
0.00580195796149
0.00547530287021
0.00503850568529
0.0045492866388
0.00479191067277
0.00478157298232
0.00452652993849
0.00501123265075
0.00544194092769
0.00575909770969
0.00596805090128
0.00608872326981
0.00614406797569
0.00616033205869
0.00616154487994
0.00616155913587
0.00616036754035
0.00614410599356
0.00608874408286
0.00596806948293
0.00575912581924
0.00544199811145
0.00501124111221
0.00452647522538
0.00478158578302
0.00471708672117
0.00446166970226
0.00493993045195
0.00536049849254
0.00566262886261
0.0058577214185
0.00596822336423
0.00601914944322
0.0060349307995
0.00603687940455
0.00603690381736
0.00603499587509
0.00601922887749
0.00596829104256
0.00585777419755
0.00566265732056
0.00536052995786
0.00493990772219
0.00446158485473
0.00471701899348
0.00454873714293
0.00432261410992
0.00479451180532
0.00520129844155
0.00548579609071
0.00566278833997
0.00575942689549
0.00580245432765
0.00581569578605
0.00581732871451
0.0058173594976
0.00581577644855
0.00580255971767
0.00575952753386
0.00566285976123
0.00548584288084
0.00520129580795
0.00479445779391
0.0043225073969
0.00454860864986
0.00421347633336
0.00407077850926
0.00454208499824
0.00493436742229
0.00520144242746
0.00536080497267
0.00544241185715
0.00547589942875
0.00548613521071
0.00548721111643
0.00548724735032
0.00548622944457
0.00547602605491
0.00544253888582
0.00536089888235
0.00520148210391
0.00493435353556
0.00454202690568
0.00407067762341
0.00421334355444
0.00363617100391
0.00366792387333
0.00415778781915
0.00454221128557
0.00479477410904
0.00494034720865
0.00501180692043
0.00503921354883
0.00504568123304
0.00504553492464
0.00504557797687
0.00504578968248
0.00503935397624
0.00501194175096
0.00494044769607
0.00479482193788
0.00454220974509
0.00415774759436
0.00366784928155
0.0036360682492
0.00274276467794
0.00310690883498
0.00366808391923
0.00407104784417
0.00432300476356
0.00446221440615
0.00452724408978
0.00455020958242
0.00455437134835
0.00455344504531
0.00455349190084
0.00455448885374
0.00455035991713
0.0045273872057
0.00446232184126
0.00432306042174
0.00407105614992
0.00366806075509
0.00310686337322
0.00274269747848
0.00161609303017
0.00274305508582
0.00363656468935
0.00421399577946
0.00454946543207
0.0047181099595
0.00478291485926
0.0047934955464
0.00478501749133
0.00477685621072
0.00477695946365
0.00478528317086
0.00479385702469
0.00478329552487
0.0047184417768
0.00454969716779
0.00421411769177
0.00363660960164
0.00274306442711
0.0016160733905
0.00168892891684
0.00303463188398
0.00413892056717
0.00487896303695
0.00532846744758
0.00557034064537
0.00567793300842
0.00571188854013
0.00571569737931
0.00571303159042
0.00571298748103
0.00571559256746
0.00571175964084
0.00567781383572
0.0055702777605
0.00532850009121
0.0048790659787
0.00413905288826
0.00303477899879
0.00168898299113
0.00303439821537
0.00339800463892
0.00402936115731
0.00450262371931
0.00481391607826
0.00499800114021
0.00509381037558
0.00513598329997
0.00515071963193
0.00515433232326
0.00515430939855
0.00515066106552
0.0051359036399
0.00509372321257
0.00499792735067
0.00481388295015
0.00450263830337
0.0040294167984
0.00339808066648
0.00303448218957
0.00413848170152
0.00402921525203
0.00452887239293
0.00494547464338
0.00523443276695
0.00541271868679
0.00550953330259
0.00555417900057
0.00557023407981
0.00557407438713
0.00557405940987
0.00557019683342
0.00555412595726
0.00550946312923
0.0054126499285
0.00523439363253
0.00494547002425
0.00452889183287
0.00402923291375
0.00413850300014
0.00487827123199
0.00450234697153
0.00494534968165
0.00534639263052
0.00563591774639
0.00582087442939
0.00592515959002
0.00597598619376
0.00599385033246
0.00599749115214
0.00599748534868
0.00599383195589
0.00597595437189
0.00592508145962
0.00582078141712
0.00563583936331
0.00534633269037
0.0049452976024
0.00450227894133
0.0048781830603
0.00532762521156
0.00481354207052
0.00523420618657
0.00563580630808
0.00593536107723
0.00613544572402
0.0062523324478
0.00630857108692
0.00632688133415
0.00632948475824
0.00632948399573
0.00632686640101
0.00630853707706
0.00625226838099
0.00613535204466
0.00593523969869
0.0056356767668
0.0052340689384
0.00481337699769
0.00532738304592
0.00556949612947
0.0049975690108
0.00541242306949
0.00582067402922
0.00613532263804
0.006350040699
0.00647739248681
0.00653715775126
0.00655411479043
0.00655475010866
0.00655474342604
0.00655408174317
0.00653709339841
0.00647729438669
0.00634991153822
0.00613516807494
0.00582047520434
0.00541220557852
0.00499731076555
0.00556908315209
0.0056772889286
0.00509336683184
0.00550919571247
0.00592489586443
0.00625209471976
0.00647727580243
0.0066104386771
0.00666914359544
0.00668206656222
0.00667950619009
0.00667948836401
0.00668200761056
0.00666904352939
0.00661029396965
0.00647709617978
0.00625189771294
0.00592465282811
0.00550892987672
0.00509304565768
0.00567676825368
0.00571145502537
0.00513553177991
0.00555378005923
0.00597557152392
0.00630823766207
0.0065369234661
0.00666901531434
0.00672240692313
0.00672971546411
0.00672401224671
0.00672398784208
0.00672963272296
0.00672225107038
0.00666882028272
0.00653670286014
0.00630801590569
0.00597533375952
0.00555350192065
0.00513518899924
0.00571094250073
0.00571528075562
0.00515021983106
0.00556975990464
0.0059933836136
0.00632645732238
0.00655372083625
0.00668162752736
0.00672935221387
0.00673298249936
0.00672556032946
0.0067255187186
0.00673286061385
0.00672916366393
0.00668139175912
0.00655348633267
0.00632622992407
0.00599315252248
0.00556950124392
0.00514989974472
0.00571488611499
0.00571246460335
0.00515376449447
0.00557351926667
0.00599696963095
0.00632898863304
0.00655424363932
0.00667878962632
0.00672343491798
0.00672534335939
0.0067170752358
0.00671703273656
0.00672522427236
0.00672323322448
0.00667853127888
0.00655401859753
0.00632877289711
0.00599676860747
0.00557331206682
0.00515350288378
0.00571225725921
0.00571234630162
0.00515371463234
0.00557344978106
0.00599691733024
0.00632896016588
0.00655423549375
0.00667879347768
0.00672345000211
0.00672535924954
0.00671710938179
0.00671708921817
0.00672528554835
0.00672329416424
0.00667856515086
0.00655403600694
0.00632877127428
0.00599675858474
0.00557330416142
0.00515352304122
0.00571233612396
0.00571498647189
0.00515009507986
0.00556958295527
0.00599324331071
0.00632636027436
0.00655367608318
0.00668162482922
0.00672940783711
0.00673305875158
0.00672567869362
0.00672567813284
0.00673303815994
0.00672933351072
0.00668149504594
0.00655353203836
0.00632621818125
0.00599312703193
0.00556948541278
0.00514996032365
0.00571512503856
0.00571115371688
0.00513539731038
0.00555356083162
0.00597539252459
0.00630808128196
0.00653682481679
0.0066690013218
0.00672246964924
0.00672985580409
0.00672422002737
0.00672423747731
0.00672988308597
0.00672246680373
0.00666895927286
0.00653674545269
0.00630798621602
0.00597530113904
0.00555348760935
0.00513528966965
0.00571133710785
0.00567719520712
0.0050933056221
0.00550899788354
0.00592463289217
0.00625190446327
0.00647714468099
0.00661040444242
0.00666921386182
0.00668219638312
0.00667967660186
0.00667970489015
0.0066822582877
0.00666926888878
0.00661041953741
0.00647712136413
0.00625185029564
0.00592460175902
0.00550893048572
0.00509319238457
0.00567731209696
0.0055698129382
0.00499767182025
0.00541235950128
0.00582048575158
0.00613516590009
0.00634991881933
0.00647732331941
0.00653716374634
0.00655418418376
0.00655487042396
0.00655490531687
0.0065542755808
0.00653726428551
0.0064773823847
0.00634992594252
0.00613513236848
0.00582044314601
0.00541227389452
0.00499753691177
0.0055697929865
0.00532837499469
0.00481385279984
0.00523433489575
0.00563576456361
0.00593524309153
0.00613532362032
0.00625221895609
0.00630851438663
0.00632687679453
0.00632950776473
0.0063295474605
0.00632698017949
0.00630863563225
0.00625230516658
0.00613535363391
0.00593522160142
0.00563569643754
0.00523423345503
0.0048137102658
0.00532824780087
0.00487929992164
0.00450284773703
0.00494567926803
0.00534654363758
0.00563591029114
0.00582078721357
0.00592507978781
0.00597592999352
0.00599384274128
0.00599752990349
0.00599757342474
0.00599395169407
0.00597606183472
0.00592518764711
0.00582084136968
0.00563589695986
0.0053464874858
0.00494559442012
0.00450272762816
0.00487915068992
0.00413955378762
0.00402986184749
0.00452938556127
0.00494582062789
0.00523461127484
0.0054127750996
0.00550954053347
0.00555420517282
0.00557030158274
0.00557419787765
0.00557424867171
0.00557042410097
0.0055543527358
0.00550966367607
0.00541285218321
0.00523463284116
0.00494580161932
0.00452933832511
0.00402978651151
0.0041394462996
0.00303520513243
0.00339874987237
0.00403005000044
0.00450316674198
0.00481429694775
0.00499826282112
0.00509404661676
0.00513626802841
0.00515107221152
0.00515475644452
0.0051548071789
0.00515119759508
0.00513642269813
0.00509418495343
0.004998361851
0.00481434598271
0.00450317513355
0.00403003528938
0.00339871814745
0.00303514181678
0.00168895232883
0.0030355537364
0.00414010011427
0.00488008064132
0.00532943971669
0.00557124247516
0.00567897676778
0.00571319071349
0.00571722134454
0.00571471598342
0.00571484499776
0.00571755073535
0.00571364035182
0.00567945858596
0.00557168040803
0.0053297596454
0.00488026882665
0.00414019254609
0.00303558843009
0.0016889321347
0.00174023749946
0.00324135094534
0.00450733070443
0.00537841011431
0.00592412407188
0.0062320090148
0.00638382223432
0.00644841227604
0.00647358908714
0.00648258087036
0.00648252675307
0.00647346241106
0.0064482576938
0.00638367845189
0.00623193260481
0.00592417395861
0.00537856481761
0.00450754351265
0.00324156566218
0.00174029876854
0.00324112840357
0.00360832026103
0.00430989958758
0.0048535903315
0.00522403334393
0.00545274271298
0.0055798712573
0.00564294310525
0.0056705073844
0.00568027894791
0.00568026042411
0.00567046195159
0.00564288393803
0.00557981018162
0.0054526958
0.00522402825272
0.00485364055931
0.00431000164819
0.00360844837999
0.00324127542639
0.00450685447325
0.00430975242016
0.00484559051139
0.00530997006846
0.00564255367211
0.00585581296239
0.00597854057705
0.00604017614725
0.00606505551716
0.00607234759477
0.00607233593845
0.00606503500379
0.00604014537636
0.00597849071499
0.0058557543303
0.00564252862785
0.0053099888111
0.00484564283357
0.0043098092554
0.00450692876097
0.00537763761351
0.00485331025866
0.00530985169705
0.00574423931177
0.00606951634442
0.0062872403623
0.00641705356162
0.00648303323678
0.00650580617816
0.00650987828183
0.00650987646307
0.00650579772622
0.00648300785966
0.00641696664096
0.00628711146577
0.00606942504902
0.0057441826357
0.00530981132279
0.00485325782605
0.00537755268101
0.005923291456
0.0052236795652
0.00564235062752
0.00606941058609
0.00640325960986
0.00663857035029
0.00678101000768
0.00684793159444
0.0068649218203
0.00686363980108
0.00686364159319
0.00686490803342
0.00684788600304
0.00678091100953
0.00663842425708
0.00640309443279
0.00606925777753
0.00564220380793
0.00522350922911
0.00592301114206
0.0062312943398
0.00545235499135
0.00585555419398
0.00628704533199
0.00663843997477
0.00688849901342
0.00703485887876
0.00709415102999
0.00710010023156
0.00709102321115
0.00709101267232
0.00710005676964
0.00709404240563
0.00703467893187
0.00688828122782
0.00663822090655
0.00628678969598
0.00585531173665
0.00545207731121
0.00623080692328
0.00638342900315
0.00557947606679
0.00597822646386
0.00641677896909