/*--------------------------------*- C++ -*----------------------------------*\
| =========                 |                                                 |
| \\      /  F ield         | OpenFOAM: The Open Source CFD Toolbox           |
|  \\    /   O peration     | Version:  3.0.1                                 |
|   \\  /    A nd           | Web:      www.OpenFOAM.org                      |
|    \\/     M anipulation  |                                                 |
\*---------------------------------------------------------------------------*/
FoamFile
{
    version     2.0;
    format      ascii;
    class       surfaceVectorField;
    location    "2.5";
    object      Uf_0;
}
// * * * * * * * * * * * * * * * * * * * * * * * * * * * * * * * * * * * * * //

dimensions      [0 1 -1 0 0 0 0];

internalField   nonuniform List<vector> 
22672
(
(0.0020994114147 0.000838051695699 -0.00200344588883)
(0.000832952188457 0.0021067702311 -0.00200319689571)
(0.00136151948169 0.00136703797293 -0.00420618407597)
(0.00472714110128 0.000491529126225 -0.00187797163309)
(0.00307289836015 0.00165281394862 -0.00277912185523)
(0.00386016721608 0.00130167637613 -0.00428054541867)
(0.00719121690342 0.00038382083593 -0.00157882934384)
(0.00615081369186 0.00153373843995 -0.00289211346843)
(0.00669960771792 0.00134178046918 -0.00399781326476)
(0.00892945478182 0.000501143783439 -0.00122268476435)
(0.00853651691797 0.0017597545785 -0.00265732436593)
(0.00887039318508 0.00156900631044 -0.00349798709558)
(0.0096169085055 0.000791580016498 -0.000904681621998)
(0.00993111353116 0.00228838066687 -0.00234662501796)
(0.0100947336035 0.00195236035395 -0.0029758234452)
(0.00918270279415 0.0011429365209 -0.000669391981015)
(0.0100604774806 0.00297610984456 -0.00207038174983)
(0.0101127358995 0.00241376161775 -0.00254188697011)
(0.00778097633233 0.00148603896663 -0.000514180130166)
(0.00908634242027 0.00364067196373 -0.001879054194)
(0.00909619318586 0.00284245735555 -0.00223892213893)
(0.00559578686556 0.00177694898678 -0.00042256617731)
(0.00713271701464 0.00423095556882 -0.0017597603641)
(0.00712763106211 0.00323516784751 -0.0020457372186)
(0.00291193755569 0.0019603454921 -0.000382790503205)
(0.00451570997489 0.00464422226785 -0.0017120487058)
(0.00451070915538 0.0035129360499 -0.00196033984129)
(-5.62705580335e-06 0.00202255375339 -0.000372577562157)
(0.00153922744637 0.00485296101946 -0.00170157104102)
(0.00153725627079 0.00365450598696 -0.00193536078272)
(-0.00292340549213 0.00196088687845 -0.000383123537444)
(-0.00155015752749 0.00485331256491 -0.00170167365422)
(-0.00154927766 0.00365463908767 -0.00193549798794)
(-0.00560775527905 0.00177797556885 -0.000423307108105)
(-0.00452703082288 0.00464522167632 -0.00171242079336)
(-0.00452310112391 0.00351328986432 -0.00196083731396)
(-0.00779345403091 0.00148743741964 -0.000515435597437)
(-0.00714462797566 0.00423249699605 -0.00176049097823)
(-0.00714051975379 0.00323568254967 -0.00204676723312)
(-0.00919527660377 0.00114450074597 -0.000671183967402)
(-0.00909864668531 0.00364254688122 -0.00188025646134)
(-0.00910926533799 0.00284300308788 -0.00224069862312)
(-0.00962888510461 0.000793089538318 -0.00090695588839)
(-0.0100726895847 0.00297798251019 -0.00207209264594)
(-0.0101254239545 0.00241415023549 -0.00254435503166)
(-0.00893971912538 0.000502462947302 -0.00122528056113)
(-0.00994233234566 0.00228996706292 -0.00234904516221)
(-0.0101060968286 0.00195245110216 -0.00297912168332)
(-0.00719896799545 0.000385018577786 -0.00158157747194)
(-0.00854533627739 0.00176103224456 -0.00266023168118)
(-0.00887902969453 0.00156889274002 -0.00350177986825)
(-0.00473221159084 0.000492818449505 -0.00188124987715)
(-0.00615661056385 0.00153515467602 -0.00289531445562)
(-0.00670507768819 0.00134189651758 -0.00400191493646)
(-0.00210148116246 0.000839638251303 -0.00200749832155)
(-0.00307606582531 0.00165497305738 -0.00278303976317)
(-0.00386313169138 0.00130245059807 -0.00428571340782)
(-0.000832992483793 0.00211030939008 -0.00200734383956)
(-0.00136150294962 0.00136853169017 -0.00421179897803)
(0.00164700991571 0.00308141412504 -0.00277887286211)
(0.000487097945153 0.00473912577039 -0.00187681738693)
(0.00129728293866 0.0038695356336 -0.00427936841246)
(0.00464874812053 0.00289322285399 -0.00379326369057)
(0.00288743780231 0.00465614468646 -0.00379285814469)
(0.00392202304651 0.00392764381748 -0.00600507081031)
(0.00762138295948 0.00314140132927 -0.00397060849052)
(0.00656117791575 0.0049706973315 -0.00437678759473)
(0.00707724145887 0.00424877601114 -0.00640959231083)
(0.00970784406575 0.00382627645769 -0.00378126461954)
(0.00940469430812 0.00581836647031 -0.0042493140118)
(0.00947980604378 0.00497614881077 -0.00614506661516)
(0.0105500855558 0.00480909414823 -0.0035123251458)
(0.0110530542908 0.00711506003365 -0.00390547892038)
(0.0108063430425 0.00602122963437 -0.00566890833534)
(0.0101030686193 0.00586466601909 -0.00328004396282)
(0.0112566330424 0.00861591817652 -0.00354894225027)
(0.0108579659358 0.00719589241872 -0.00519277221029)
(0.0085274780811 0.00682402566792 -0.00312463442793)
(0.0101357394957 0.0100387277127 -0.00327519732418)
(0.00972979852548 0.00830065409054 -0.00482243956785)
(0.00610804238506 0.00757485296564 -0.00304924289259)
(0.00792748500952 0.011242202164 -0.00311215123803)
(0.00760624837728 0.00923459099987 -0.00459177970837)
(0.003168551898 0.00803705948447 -0.00303082924362)
(0.0049976023659 0.0120792881659 -0.00305519598444)
(0.00480319377984 0.00988488621256 -0.00449554017284)
(-5.36001707286e-06 0.00819185952605 -0.00303066713308)
(0.00169933679077 0.0125007241157 -0.00305034205015)
(0.00163654460046 0.0102135369419 -0.00447381380111)
(-0.00317945728268 0.00803793090934 -0.00303097091013)
(-0.00170897361541 0.0125011943123 -0.00305028497126)
(-0.0016426926709 0.0102136433169 -0.00447374707632)
(-0.00611937693981 0.00757648668517 -0.00304960466348)
(-0.00500760507126 0.0120806404869 -0.00305513620201)
(-0.00480976893921 0.00988514541195 -0.00449546386181)
(-0.00853930736722 0.00682621062919 -0.00312531184213)
(-0.00793807092121 0.0112443108605 -0.00311217808638)
(-0.00761348637889 0.00923492100926 -0.00459185226451)
(-0.0101151600405 0.00586705457898 -0.00328116513987)
(-0.0101469550179 0.0100412894047 -0.00327541780369)
(-0.00973772698007 0.00830088437006 -0.00482286454088)
(-0.0105617636407 0.00481126764692 -0.00351418191976)
(-0.011268159379 0.00861852781888 -0.00354971843824)
(-0.0108662697094 0.00719573562522 -0.00519392362929)
(-0.00971779487949 0.00382804436199 -0.00378399628227)
(-0.011063881082 0.00711736279466 -0.00390732642709)
(-0.0108141051199 0.00602048727929 -0.00567135449158)
(-0.00762848147335 0.00314313241994 -0.00397396866487)
(-0.0094132654629 0.00582046818145 -0.00425219857087)
(-0.00948571253578 0.00497509106177 -0.00614874750871)
(-0.00465261781157 0.00289578503163 -0.00379710434164)
(-0.00656654910889 0.00497337815212 -0.00438029279892)
(-0.00708058732162 0.00424833686293 -0.00641409269408)
(-0.00164798691615 0.00308585108872 -0.00278288528118)
(-0.00288977897061 0.00466055280106 -0.00379676185584)
(-0.00392308798552 0.00392907218369 -0.00601022173682)
(-0.000486967614394 0.00474662918024 -0.00188042706766)
(-0.00129665654961 0.00387404427755 -0.00428431550681)
(0.00152969567378 0.00616114271999 -0.00289080266951)
(0.000380124977797 0.00720406322517 -0.00157607221831)
(0.00133901197812 0.00671100672624 -0.00399463668369)
(0.00496757413366 0.0065655526353 -0.00437638204885)
(0.00313792703351 0.00762666384173 -0.00396930770835)
(0.00424658460185 0.00708159890844 -0.00640840008319)
(0.00846549782862 0.00746549550209 -0.00465549311602)
(0.00746582831493 0.00846409525999 -0.00465533734966)
(0.00783898546853 0.00783770803578 -0.00699132082296)
(0.0109299367809 0.00890357640354 -0.00437352831264)
(0.0108353983353 0.00996138460984 -0.00438023931452)
(0.0105598000316 0.00913952642619 -0.00660745139029)
(0.0119377985361 0.0106864975281 -0.00394209602485)
(0.012781915078 0.0119835786059 -0.00378155131461)
(0.012046347156 0.0108518407779 -0.00587636861845)
(0.011436033871 0.0125163178555 -0.00354409561164)
(0.0130286314912 0.0142197222471 -0.00314570724342)
(0.0121043984911 0.01272040922 -0.00510202125528)
(0.00962612350558 0.0141428097418 -0.00326271413428)
(0.0116934303103 0.0163109320562 -0.00262916534558)
(0.0108136263762 0.0144688061568 -0.00446226969357)
(0.00686864780808 0.0153957304808 -0.00311810432987)
(0.00910396084293 0.0180414326116 -0.00230039786615)
(0.00842440697088 0.015918964013 -0.00404172531827)
(0.00355244541351 0.0161674903988 -0.00307470879097)
(0.00571171868541 0.019238350551 -0.00216145828123)
(0.00530286476741 0.0169270212673 -0.00384282693571)
(-4.32511370726e-06 0.016426124525 -0.00306995988833)
(0.00193687782305 0.0198396160617 -0.00212872682388)
(0.00180470246251 0.0174370841287 -0.00378208659179)
(-0.00356128805242 0.0161683518514 -0.00307445026315)
(-0.00194471888887 0.0198399138369 -0.00212843681527)
(-0.00180613781419 0.017437086419 -0.00378172197766)
(-0.00687795396178 0.0153973982903 -0.00311770962492)
(-0.00571986730462 0.0192392738807 -0.00216074825681)
(-0.00530481739948 0.0169270163857 -0.00384193505489)
(-0.00963614693857 0.0141450907812 -0.00326228404794)
(-0.00911271749958 0.0180429604028 -0.00229936718059)
(-0.00842725983517 0.0159189200129 -0.00404042813057)
(-0.0114468095846 0.0125188772951 -0.00354397110206)
(-0.01170318763 0.0163128033061 -0.00262798658177)
(-0.0108177512952 0.0144685528623 -0.00446082841228)
(-0.0119486908658 0.0106890013242 -0.00394286294556)
(-0.0130392838691 0.0142217070507 -0.00314504859624)
(-0.0121097445535 0.0127197055204 -0.00510128197939)
(-0.0109396059904 0.00890597185147 -0.00437552871569)
(-0.0127924327906 0.0119855637304 -0.00378223215482)
(-0.0120520220892 0.0108506184563 -0.00587727752789)
(-0.00847259934832 0.00746831278535 -0.00465852270492)
(-0.0108441142745 0.00996364568848 -0.00438236636893)
(-0.0105644167073 0.00913826720051 -0.00661018363272)
(-0.00497147367113 0.00656987009265 -0.00437995031312)
(-0.00747154839001 0.0084675427247 -0.00465840811075)
(-0.00784160513551 0.00783755484255 -0.006995296716)
(-0.00153076712598 0.00616842710985 -0.00289430364232)
(-0.00314048963891 0.0076327132238 -0.00397273346882)
(-0.00424711521208 0.00708412973089 -0.00641287853794)
(-0.000380400114816 0.00721447751458 -0.00157910372218)
(-0.00133847660627 0.00671835944822 -0.00399862435184)
(0.00175688415106 0.00854434581688 -0.00265457725715)
(0.000498011767748 0.00893954806916 -0.00121797268588)
(0.00156746874013 0.00887908697679 -0.0034923731999)
(0.00581808440114 0.00940423693066 -0.00424826300916)
(0.00382388527485 0.00970829200906 -0.00377915559226)
(0.00497633980203 0.00947988569941 -0.00614283164237)
(0.00996746418642 0.0108282857419 -0.00438008354816)
(0.00890638381271 0.010921926485 -0.00437352507714)
(0.00914468924995 0.0105528517566 -0.00660721116962)
(0.0128942787646 0.0128798109914 -0.00378826231649)
(0.0128909063606 0.0128796265973 -0.00378895996778)
(0.0122989934056 0.0122867977453 -0.00584505212759)
(0.0140777959219 0.0153109678606 -0.00298516253318)
(0.0151793572734 0.0154028684693 -0.00276574307704)
(0.0140002888532 0.0145009410829 -0.00460279698014)
(0.0134492490816 0.0177576290938 -0.00223077697737)
(0.0154352354024 0.0181341994166 -0.00167065507722)
(0.0140290411003 0.0168864505288 -0.00328591434372)
(0.0112725593257 0.0199028406 -0.00166684907746)
(0.0137995988734 0.0206567452111 -0.000758651407101)
(0.0124798373852 0.0191004437315 -0.0021691018396)
(0.00800202390401 0.0215352850112 -0.00134375181751)
(0.0106898137824 0.0227190319645 -0.000147404841546)
(0.0096738026296 0.0209135035004 -0.00140703779586)
(0.00412226029703 0.0225343530255 -0.00121547631413)
(0.00667284013184 0.0241396687808 0.000142849642889)
(0.00606107615522 0.0221627931823 -0.00102152536008)
(-3.57235746084e-06 0.0228679661728 -0.00118720375081)
(0.00225645151697 0.024852933716 0.000233555954828)
(0.00205793000046 0.0227915068547 -0.000887454320168)
(-0.00412952428087 0.0225347089557 -0.00121473480894)
(-0.00226316114058 0.0248527669759 0.000234041939514)
(-0.00205666151694 0.0227911757374 -0.000886870885849)
(-0.00800963665915 0.0215360112037 -0.00134240581249)
(-0.00667978133601 0.0241392739408 0.000144196730861)
(-0.00606025994131 0.0221618186924 -0.00101985939521)
(-0.0112810618619 0.0199038416673 -0.00166506971442)
(-0.010697419287 0.0227186225239 -0.000145276209136)
(-0.00967396227934 0.0209119801292 -0.00140421224525)
(-0.0134589816584 0.0177587655097 -0.00222906407595)
(-0.0138084865661 0.020656287729 -0.000756126195183)
(-0.0124817237345 0.019098296125 -0.00216554497778)
(-0.01408828139 0.0153122652723 -0.0029844178055)
(-0.0154453551874 0.0181338917389 -0.00166849060828)
(-0.0140328426967 0.0168837849897 -0.0032828715228)
(-0.0129040877618 0.0128815132706 -0.00378906980806)
(-0.0151897250969 0.0154030750842 -0.00276505429192)
(-0.0140051432972 0.0144981029724 -0.00460169854598)
(-0.00997507013594 0.010831052297 -0.00438225177475)
(-0.0128999832418 0.0128808543213 -0.00378991697607)
(-0.0123034080474 0.0122844463865 -0.00584622691708)
(-0.00582258909619 0.00940930456341 -0.00425119126645)
(-0.0089127566283 0.0109251178562 -0.00437570498573)
(-0.00914753183199 0.0105522285204 -0.00661006320232)
(-0.00175846370033 0.00855340223114 -0.00265753354869)
(-0.00382708797733 0.00971497624731 -0.00378181303798)
(-0.0049772196743 0.00948281923992 -0.0061464000709)
(-0.000498819788223 0.00895162964463 -0.0012203485705)
(-0.00156736895134 0.00888825978658 -0.00349562461845)
(0.00228589126802 0.00993398182555 -0.00234255102099)
(0.00078833148039 0.00962186248318 -0.000898434457852)
(0.00195162235526 0.0100981568951 -0.00296821041798)
(0.00711554359215 0.0110462457157 -0.00390441766024)
(0.00480606517117 0.0105451509258 -0.00350997014567)
(0.00602221848909 0.0108008822341 -0.00566651510798)
(0.0119914108136 0.0127666887827 -0.00378240149675)
(0.0106888924222 0.0119235381846 -0.0039433973515)
(0.0108584432464 0.0120329555532 -0.00587747997041)
(0.0154210799667 0.015157932444 -0.00276644072832)
(0.015322308122 0.0140551282787 -0.00298864998254)
(0.0145155500521 0.0139799997799 -0.00460516765503)
(0.0167749241277 0.0179400313006 -0.00145123562108)
(0.0179637997602 0.0167464227305 -0.00145445273007)
(0.0164610715043 0.01643631403 -0.0026973901032)
(0.015963897461 0.0207104028821 -0.000198529506956)
(0.0181915644861 0.019616663325 0.000184534944284)
(0.0164315528149 0.0190624222172 -0.000671423500536)
(0.013323973744 0.0231200740929 0.000760792828813)
(0.0161968061651 0.0222313058191 0.0015608815983)
(0.0145511213648 0.0214855213743 0.00106538189664)
(0.0094150980143 0.0249467048985 0.00133919661885)
(0.0124931024818 0.0243628830374 0.00249929904099)
(0.011222363192 0.0234540664344 0.00226504755402)
(0.0048341448394 0.0260661015927 0.00159188191185)
(0.00776691967758 0.0258259815454 0.00296815370941)
(0.00699812974181 0.0248082714627 0.00289466605934)
(-3.19113284501e-06 0.0264404051013 0.00165480164516)
(0.0026206286031 0.0265594899039 0.00313031624571)
(0.00236969885488 0.0254909750273 0.00313080662498)
(-0.00484068251968 0.0260652358036 0.00159297347932)
(-0.00262746120627 0.026558702384 0.00313062325891)
(-0.00236783756691 0.0254900238099 0.00313158244017)
(-0.00942204029521 0.0249452577409 0.00134132633421)
(-0.00777366160306 0.0258237002334 0.00296931580313)
(-0.00699664326255 0.0248055266755 0.00289695609172)
(-0.0133319312659 0.0231182651326 0.000763667310101)
(-0.0125003518545 0.0243595652038 0.00250176687452)
(-0.0112218764518 0.0234499250464 0.00226896967315)
(-0.0159732202876 0.0207084783865 -0.00019555272751)
(-0.0162053786067 0.0222273713353 0.00156400145856)
(-0.0145524485512 0.021480153966 0.00107022228172)
(-0.0167851119041 0.0179385281486 -0.0014491270947)
(-0.0182012668161 0.019612694635 0.000187521670613)
(-0.0164348619974 0.0190564145313 -0.000666900044208)
(-0.0154309671958 0.0151575271949 -0.00276590145992)
(-0.0179738631943 0.0167434139493 -0.00145246489059)
(-0.0164656694937 0.0164306405136 -0.00269447871619)
(-0.0119995343445 0.012768198772 -0.00378337018705)
(-0.0153314958233 0.0140539464654 -0.00298829809527)
(-0.0145202252188 0.0139755666881 -0.00460452659569)
(-0.00712077467417 0.0110509127002 -0.00390632675726)
(-0.0106957252786 0.0119251825795 -0.00394446351918)
(-0.0108619261655 0.0120309956995 -0.00587883174425)
(-0.00228809657284 0.00994353390516 -0.00234462805979)
(-0.00480979278028 0.0105510892753 -0.00351161033415)
(-0.00602382057854 0.0108033166741 -0.00566880263044)
(-0.000789540741143 0.00963385198591 -0.00089996954299)
(-0.00195212652149 0.0101079083449 -0.00297032750537)
(0.0029724784797 0.0100580930306 -0.00206585358254)
(0.00113937359325 0.00918288880905 -0.000662078635909)
(0.00241243388034 0.0101109165126 -0.0025335098887)
(0.00861454371139 0.0112446501708 -0.00354894983694)
(0.00585990415415 0.0100945517197 -0.00327806330974)
(0.00719567056196 0.0108480411979 -0.00519147034877)
(0.0142256032991 0.0130075136282 -0.0031496458373)
(0.0125161798676 0.0114191349468 -0.00354786446741)
(0.0127253786103 0.0120865423496 -0.00510665810293)
(0.0181514368451 0.0154063072487 -0.00167666198429)
(0.0177662675099 0.0134239843419 -0.00223949499444)
(0.0168995073374 0.0140031994455 -0.00329468747656)
(0.0196459421841 0.0181585252264 0.000181317835291)
(0.0207334775864 0.0159323022668 -0.000209532189877)
(0.0190873097564 0.0163995905081 -0.00068037798556)
(0.0186093495505 0.0208542839982 0.00194394604954)
(0.020888516125 0.0185769654973 0.00193964161024)
(0.018972844152 0.0189390949617 0.00207630243978)
(0.0154677842871 0.023175351333 0.00329938781048)
(0.0185289406103 0.0209631580135 0.00373137542731)
(0.0167307646809 0.0212564857661 0.00440972986363)
(0.0108903084065 0.0249298070898 0.00412825613155)
(0.0142371687818 0.0229259321599 0.00496728752935)
(0.0128519089237 0.0231393669499 0.0060144475394)
(0.00557806658301 0.0259982108147 0.00450658804327)
(0.0088158661459 0.0242685642395 0.00559406162318)
(0.00798885817533 0.0244314527472 0.00686968259701)
(-3.65384104582e-06 0.0263536617076 0.00460613785946)
(0.00296774022751 0.0249356302145 0.00581436580096)
(0.00270024255086 0.0250818428578 0.00720560473442)
(-0.00558529038934 0.0259960098606 0.00450696558272)
(-0.00297627109115 0.0249344481605 0.00581434349161)
(-0.00270017214769 0.0250802473507 0.00720591504647)
(-0.010897415858 0.0249256786811 0.00412975634344)
(-0.00882396546056 0.0242648417227 0.00559430865595)
(-0.00798868440047 0.0244267415222 0.00687100652287)
(-0.0154755954612 0.0231699698695 0.00330210102298)
(-0.0142451629711 0.0229199444595 0.00496875948353)
(-0.0128522708009 0.0231321028732 0.00601781984333)
(-0.0186183284552 0.0208483861773 0.00194707585668)
(-0.0185378331241 0.0209557073332 0.00373408778151)
(-0.0167326737069 0.0212474285616 0.00441441218593)
(-0.0196556524918 0.0181530736281 0.000184183874721)
(-0.0208981039433 0.0185689177419 0.00194245439967)
(-0.0189762191547 0.0189289833234 0.00208111074258)
(-0.0181610279548 0.0154024491768 -0.00167486152594)
(-0.0207431087056 0.0159251474894 -0.000207054036284)
(-0.0190917985237 0.0163900020857 -0.000676354313094)
(-0.0142337724442 0.0130063281398 -0.0031493914274)
(-0.0177750747402 0.013419189395 -0.00223827416422)
(-0.0169043484175 0.0139955014384 -0.00329250069227)
(-0.00862004838816 0.011247401747 -0.00354974709607)
(-0.01252292235 0.0114180163062 -0.0035480120433)
(-0.0127293247837 0.0120821166442 -0.00510656530617)
(-0.00297496716777 0.0100663163516 -0.00206695181735)
(-0.00586369560853 0.0100983901261 -0.00327874434496)
(-0.00719775834818 0.0108487263729 -0.00519239337404)
(-0.00114079757211 0.00919321515644 -0.000662794808363)
(-0.002413259888 0.0101194784046 -0.002534338777)
(0.00363614469967 0.0090807753116 -0.00187428836311)
(0.00148236742836 0.00777690084254 -0.00050583384265)
(0.00284108301889 0.00909090085959 -0.00223016202649)
(0.0100348701415 0.0101228642583 -0.00327697794021)
(0.00681767578343 0.00851885256136 -0.003123098164)
(0.0082986580562 0.00971898250679 -0.00482303093207)
(0.0163135311936 0.0116730230705 -0.00263771362455)
(0.0141399494403 0.0096123926284 -0.00326900090493)
(0.0144707666816 0.0107966831749 -0.00447192103886)
(0.020671646493 0.0137724190677 -0.000772365200023)
(0.01990840093 0.0112530483403 -0.00168130027876)
(0.0191101593239 0.0124560632145 -0.00218717798421)
(0.0222602882454 0.016166768048 0.00154879158507)
(0.0231426978594 0.0132997741781 0.000741511420642)
(0.0215089046561 0.0145220170572 0.00104389222747)
(0.0209948853285 0.0184999529353 0.00372707098802)
(0.0232129215561 0.015444566436 0.00328906813272)
(0.0212907252843 0.0167011111565 0.00439781294956)
(0.0173850497528 0.0205206288 0.00539927514618)
(0.0205511800646 0.0173656413163 0.00540071954292)
(0.0187212640686 0.0186935533324 0.00720736826986)
(0.0121905105975 0.0220588843949 0.00643309302098)
(0.0157536438592 0.0189581202646 0.00682795253478)
(0.0143369509508 0.0203380988052 0.00916237130612)
(0.00622398165552 0.0229915053203 0.00690183938088)
(0.00971918899593 0.0200207499362 0.00749411065381)
(0.00888268997137 0.0214655299088 0.0102143663927)
(-4.83973611498e-06 0.0232998101903 0.00702257143311)
(0.00326090078362 0.0205345858713 0.00772147198356)
(0.00299590962007 0.0220255732148 0.0106298901455)
(-0.00623356199581 0.0229887857728 0.00690168656483)
(-0.00327233950352 0.0205334388617 0.00772161876806)
(-0.0029994398674 0.0220236787834 0.0106297556551)
(-0.0121996850984 0.022053468298 0.00643331179604)
(-0.00973012775433 0.0200167977856 0.00749444771581)
(-0.00888586659082 0.0214598616304 0.0102141893734)
(-0.0173940482593 0.0205128416834 0.00540074624206)
(-0.0157639699512 0.0189508041551 0.00682966150433)
(-0.0143398852362 0.0203290786726 0.00916352263372)
(-0.0210044508743 0.0184905555726 0.0037294663245)
(-0.0205619440964 0.0173555131622 0.00540251882197)
(-0.0187250030792 0.0186815799375 0.0072106114944)
(-0.0222699094131 0.0161571656308 0.00155121648867)
(-0.0232234205958 0.0154330270001 0.00329078934745)
(-0.0212951672733 0.0166872402519 0.00440135846379)
(-0.0206806573754 0.0137644146827 -0.000770466674567)
(-0.0231520698807 0.013288607141 0.000743018055862)
(-0.0215135195932 0.0145081674068 0.00104729143403)
(-0.0163211555682 0.0116683159578 -0.00263689478011)
(-0.019916345483 0.0112445036421 -0.00168020909363)
(-0.0191147943644 0.0124445195226 -0.00218481878822)
(-0.0100400733763 0.0101228052079 -0.00327700929219)
(-0.0141459551647 0.00960811818958 -0.00326879672374)
(-0.0144746293519 0.0107891500392 -0.0044711917769)
(-0.0036386367709 0.00908663014915 -0.00187458733598)
(-0.00682104594292 0.00851993474277 -0.0031231110002)
(-0.00830078109663 0.00971714634217 -0.00482299248311)
(-0.00148382017002 0.00778447389525 -0.000505885740276)
(-0.00284215183782 0.00909713659194 -0.00222990397537)
(0.00422561969065 0.00712578526656 -0.00175464364354)
(0.00177304154892 0.00558775640678 -0.000413265339282)
(0.00323344989576 0.00712071718478 -0.00203648070702)
(0.0112364421654 0.00791815316716 -0.00311512112872)
(0.00756760421194 0.00610164040582 -0.00304748274524)
(0.00923127849158 0.00759841621898 -0.00459361525609)
(0.0180415504948 0.00909115114779 -0.00231258755915)
(0.0153909891829 0.00686228570838 -0.00312522249294)
(0.0159184547046 0.0084143203319 -0.0040550042023)
(0.0227329526673 0.0106730930821 -0.000167423658094)
(0.0215382939772 0.00799404220638 -0.00136121247221)
(0.0209204864171 0.0096601649685 -0.00143239536034)
(0.0243950395772 0.012475531193 0.00248178796829)
(0.0249689739778 0.0094042826898 0.00131459820783)
(0.0234771988841 0.0112053991417 0.00223340986865)
(0.0229628275699 0.0142238594191 0.00496271668762)
(0.0249722531192 0.0108804540395 0.00411557307938)
(0.0231780888928 0.0128361063391 0.00599633511214)
(0.0189797747138 0.0157435457162 0.00682939693152)
(0.0220944812638 0.0121851175031 0.00643948791668)
(0.020369810174 0.0143271474407 0.00916359289351)
(0.0132787497507 0.0169008383668 0.00788897016761)
(0.0169116631776 0.0132728051659 0.00789317519845)
(0.0155808947627 0.0155713547067 0.0113863610481)
(0.00676770055374 0.0175825284332 0.00831374325649)
(0.0103862780679 0.0139731397953 0.00853577551003)
(0.00962170548486 0.0163912378994 0.012558683581)
(-6.6078602727e-06 0.0178011475426 0.00842051931851)
(0.00347242073279 0.0143066939275 0.00873637551236)
(0.00323216925686 0.0167810704864 0.0130022260208)
(-0.0067806064081 0.0175801445559 0.00831437991904)
(-0.00348666385017 0.0143052433346 0.0087374503506)
(-0.00324004687289 0.0167795524519 0.0130022194089)
(-0.0132908944871 0.0168947499183 0.0078907974241)
(-0.0104013184049 0.0139683655786 0.00853749590019)
(-0.0096289848032 0.0163859019911 0.0125587436679)
(-0.0189919358764 0.0157336748747 0.00683143408424)
(-0.016926034397 0.0132635908617 0.00789506869669)
(-0.0155877816505 0.0155611184713 0.0113882745809)
(-0.0229746620994 0.0142115925309 0.00496384184492)
(-0.0221080692255 0.0121730155367 0.00643975462182)
(-0.0203771566522 0.0143130374563 0.00916523882923)
(-0.0244054569263 0.0124625080186 0.00248259091464)
(-0.0249842778065 0.0108666137423 0.00411538511076)
(-0.0231847832389 0.0128195361602 0.00599721711137)
(-0.0227413483983 0.0106615148136 -0.000166724363197)
(-0.0249782457313 0.00939052745249 0.00131399966933)
(-0.0234823238942 0.0111883835784 0.00223397386085)
(-0.0180480732924 0.0090831703295 -0.00231211103725)
(-0.0215449478715 0.00798292391535 -0.00136129981459)
(-0.0209244948666 0.00964548274003 -0.00143169855282)
(-0.0112407600096 0.00791513093331 -0.00311489843175)
(-0.0153956424906 0.00685556040109 -0.00312532603344)
(-0.0159215460751 0.00840405733757 -0.00405476351111)
(-0.00422773708999 0.00712867486227 -0.0017544094045)
(-0.00757010778476 0.00610015588438 -0.00304724073647)
(-0.00923291744612 0.00759399829034 -0.00459325554907)
(-0.00177422443015 0.00559228600217 -0.000412845861196)
(-0.00323442410121 0.0071240149857 -0.00203555790505)
(0.0046385938224 0.00450804927035 -0.00170610444098)
(0.00195639603965 0.00289923245198 -0.000372695747604)
(0.0035110874084 0.00450284882415 -0.00195007548811)
(0.0120725276165 0.00499394430389 -0.00305758410945)
(0.00802955918622 0.00316444498063 -0.00302796216006)
(0.00988112783681 0.00480026641012 -0.00449674360869)
(0.0192365693141 0.00570984077009 -0.002173847406)
(0.016161741691 0.00355415191014 -0.00308029795218)
(0.0169251196389 0.00530264865135 -0.00385591115307)
(0.0241518215957 0.00667006900912 0.000120809393721)
(0.0225349117617 0.00412670752842 -0.00123131733911)
(0.0221675094757 0.00606172391465 -0.0010479174429)
(0.0258596176231 0.00776257899937 0.00294838331893)
(0.0260856080634 0.00483724575912 0.00156656969794)
(0.0248302818505 0.00699660985895 0.00285924587636)
(0.0243103308901 0.00881204566807 0.00559234430844)
(0.0260404037217 0.00557964309824 0.00449241916136)
(0.0244736524553 0.00798649104171 0.00685010848937)
(0.0200444976859 0.00971615636469 0.00750326618361)
(0.0230284477284 0.00622473586734 0.00690976159421)
(0.0215017332786 0.00888235610808 0.0102262317498)
(0.0139793650386 0.0103837115907 0.00853998054086)
(0.0175945985222 0.00676651516426 0.00832105174816)
(0.016401705529 0.00962108330385 0.0125714448566)
(0.00710062380763 0.0107573398814 0.00895840776589)
(0.0107604074591 0.00709967461504 0.00895982564681)
(0.0100697135746 0.0100700718137 0.0137522322025)
(-7.75821058856e-06 0.0108765756165 0.00905330654444)
(0.00359047986525 0.00725869997169 0.00914048394826)
(0.00337186766971 0.0102822280036 0.0141564033396)
(-0.00711704263115 0.0107536806234 0.00896056633174)
(-0.00360869794807 0.00725640437092 0.00914131250502)
(-0.0033830582911 0.0102800557836 0.0141581503821)
(-0.0139963402662 0.0103759903263 0.00854176717277)
(-0.0107796415754 0.00709313677036 0.00896099866486)
(-0.010082407636 0.0100635492207 0.013754551275)
(-0.0200604739023 0.00970470316158 0.00750338923427)
(-0.0176127401912 0.00675642307092 0.00832090795401)
(-0.0164139233018 0.0096096030964 0.0125713223356)
(-0.0243244383292 0.00879827905674 0.00559129788766)
(-0.0230444201515 0.00621218117091 0.0069080923008)
(-0.0215124795185 0.00886737142895 0.0102248142286)
(-0.0258707593091 0.00774802750831 0.00294679386544)
(-0.026053747735 0.00556551769384 0.0044898211949)
(-0.0244824731705 0.00796916106556 0.00684742600464)
(-0.0241593900768 0.00665690492662 0.000119424217932)
(-0.026094551764 0.00482324715384 0.00156328343728)
(-0.0248358950249 0.0069787261544 0.00285591338562)
(-0.0192414980704 0.00570015312743 -0.00217451481078)
(-0.0225399310033 0.00411525550234 -0.00123322938136)
(-0.0221705235071 0.00604608549511 -0.00105022725854)
(-0.0120754334612 0.00498891385111 -0.00305766833816)
(-0.0161646227869 0.00354659777965 -0.00308124430676)
(-0.0169268182625 0.00529117809902 -0.00385711045801)
(-0.004639989951 0.0045083451344 -0.00170567719317)
(-0.00803088968988 0.00316145503852 -0.0030279196148)
(-0.00988182271665 0.00479422224613 -0.00449675461278)
(-0.00195709176107 0.00290119153915 -0.000372100822046)
(-0.00351170413694 0.00450357484195 -0.00194890459393)
(0.00484736611139 0.0015296638895 -0.00169455346668)
(0.00201870316209 -2.42696138398e-05 -0.000362244693331)
(0.00365270901191 0.00152731813185 -0.0019238698514)
(0.0124936135333 0.00170010843311 -0.00305067600279)
(0.00818418381284 -8.86617257326e-06 -0.00302666912417)
(0.0102099143713 0.00163752564859 -0.00447294180624)
(0.0198364189571 0.00194425462969 -0.00213776788529)
(0.0164195299024 2.947911834e-06 -0.00307337150703)
(0.0174350690214 0.00181299703004 -0.00379160509632)
(0.0248615266033 0.00226608134819 0.000214442965107)
(0.0228661532102 9.85706146664e-06 -0.00119985415286)
(0.0227941398305 0.00207042211345 -0.000908257435532)
(0.0265888503749 0.00262880215562 0.00311060554037)
(0.0264558809553 1.15773370951e-05 0.00163175666138)
(0.0255089217309 0.00238208348104 0.00309834938679)
(0.0249744699861 0.00297256062387 0.00580983644713)
(0.0263914507536 8.6770495419e-06 0.00459235844809)
(0.0251202481815 0.00271024525078 0.00718535739679)
(0.0205569721251 0.00326225780763 0.00772754715877)