/*--------------------------------*- C++ -*----------------------------------*\
| =========                 |                                                 |
| \\      /  F ield         | OpenFOAM: The Open Source CFD Toolbox           |
|  \\    /   O peration     | Version:  3.0.1                                 |
|   \\  /    A nd           | Web:      www.OpenFOAM.org                      |
|    \\/     M anipulation  |                                                 |
\*---------------------------------------------------------------------------*/
FoamFile
{
    version     2.0;
    format      ascii;
    class       volScalarField;
    location    "6.7";
    object      epsilon_0;
}
// * * * * * * * * * * * * * * * * * * * * * * * * * * * * * * * * * * * * * //

dimensions      [0 2 -3 0 0 0 0];

internalField   nonuniform List<scalar> 
7968
(
0.000102217681761
0.000131220985693
0.000155601712208
0.000171466152994
0.000180423987874
0.000184170364212
0.000184570817191
0.000182845635121
0.000180436892026
0.000178396817303
0.00017815021263
0.000179992433029
0.000182328037794
0.00018404042611
0.000183681088544
0.00018000439434
0.000171157482502
0.000155411144247
0.000131123726032
0.00010218568133
0.000131260630374
0.000250968964035
0.000340255810273
0.000393506749599
0.000419039422804
0.000425448705133
0.000421401363721
0.000412681258893
0.000404398910674
0.000399408309104
0.000399004405421
0.00040337417549
0.000411242820348
0.000419768181482
0.000423800372567
0.000417466312826
0.000392163789245
0.000339277101479
0.000250424560177
0.000131076297129
0.000155705515404
0.000340268013894
0.000476643822907
0.000557645126436
0.00059629767
0.000605945897194
0.000599500187785
0.000586984110784
0.000575644627693
0.000569036397482
0.000568448353871
0.000574124723977
0.000584858261718
0.000597095748355
0.000603484075616
0.000593917094441
0.000555542172167
0.000475057200513
0.000339356116039
0.000155361644239
0.000171594225554
0.000393546939684
0.000557675611828
0.000653786337621
0.000697552834514
0.00070596689502
0.000695636767334
0.000679673539289
0.000666441344341
0.000659034775647
0.000658253020454
0.00066444889811
0.000676967634781
0.000692638120152
0.000702947422347
0.000694593122232
0.000651092514944
0.000555566656222
0.00039227066443
0.000171075539726
0.000180569788218
0.000419094431211
0.000596370473474
0.000697583749404
0.000739278691469
0.000744672497449
0.000746584612139
0.000739718962348
0.000730597385057
0.0007243546604
0.000723565199174
0.000728643961234
0.000737187405171
0.000743966299032
0.000742077774422
0.000736075687972
0.000694522099431
0.000593853928341
0.000417481532616
0.000179877789806
0.000184332123078
0.00042554278923
0.00060604243431
0.000705935942655
0.000744544358526
0.000769981491127
0.0007769903123
0.000771389487367
0.000761868056933
0.000754895309971
0.000753932496468
0.00075953259755
0.000768465311235
0.000774156217643
0.000767486111569
0.000742169952585
0.000702859349895
0.000603344903589
0.000423739351948
0.000183516244392
0.000184733853386
0.000421523797336
0.000599596101026
0.000695488146301
0.000746357824435
0.000776882292151
0.000784095823445
0.000776465510581
0.000764357457262
0.000755530655086
0.000754327262122
0.000761484934765
0.000772945087405
0.000780822848866
0.000774227341749
0.000744107016505
0.000692587549142
0.000596893800739
0.000419641493902
0.000183862569859
0.000183007051923
0.000412881169948
0.000587178657269
0.000679585813194
0.000739537516396
0.000771374056606
0.000776601202065
0.000765204312459
0.000749085124657
0.000737645350115
0.000736181753326
0.00074563890327
0.000760989554627
0.000772756813758
0.000768391146225
0.000737230925338
0.000676826212935
0.00058450211857
0.000410987950101
0.000182132519356
0.000180606834899
0.000404758451093
0.000576117233005
0.000666753041385
0.000730771109884
0.000762310813929
0.000765073830299
0.000749747402692
0.000729472510016
0.000714570610574
0.000712806630345
0.000725410219025
0.000744901154497
0.000760641534644
0.000758918638795
0.000728243968246
0.00066384474122
0.00057339166959
0.000402862010976
0.00017974697613
0.00017861259019
0.000399992759329
0.000569914585282
0.000659972875922
0.000725134813076
0.00075610681427
0.000757220822119
0.00073946082654
0.000715855273632
0.000697869134598
0.000695841715189
0.000711324366173
0.000734131044383
0.000752369946938
0.000752401073747
0.000722392731143
0.000656854377155
0.000567101275008
0.0003980666124
0.000177745048735
0.000178515265643
0.000399854891511
0.000569763747743
0.000659835905251
0.000724998758521
0.000755981262937
0.000757101302729
0.000739334633161
0.00071570063273
0.000697674734042
0.000695639392607
0.000711157081742
0.000733992946867
0.000752238537572
0.000752262378025
0.000722237345369
0.00065667981904
0.000566901991378
0.00039788175858
0.000177617435796
0.000180408116171
0.000404385073944
0.00057568930128
0.000666353089011
0.00073038521873
0.000761956084498
0.000764739439811
0.000749406523671
0.00072909003592
0.000714128050054
0.000712350382797
0.000725003691765
0.000744537099017
0.000760282415718
0.000758534615788
0.000727812995685
0.000663356212626
0.000572851809289
0.000402382975047
0.00017949035823
0.000182755489942
0.000412307792593
0.000586481006228
0.000678888440186
0.000738891604398
0.000770772127966
0.000776024222429
0.000764618578982
0.000748476136872
0.000736991787309
0.000735515100607
0.000745005202859
0.000760375792446
0.00077214911761
0.000767751786992
0.000736527266248
0.000676018256912
0.000583666700091
0.000410284200608
0.000181813365392
0.000184467274891
0.00042081858124
0.000598681907032
0.00069450142835
0.000745469864628
0.000776044483471
0.000783283186361
0.000775647976399
0.000763516194719
0.000754661377474
0.00075344498772
0.000760614783786
0.000772091360218
0.000779970333988
0.000773343797236
0.000743151591335
0.000691479857595
0.000595833112579
0.000418796476383
0.000183527731283
0.000184088520606
0.000424794653415
0.000605012270224
0.000704756892388
0.00074344377797
0.000768945174144
0.000775985592205
0.00077038482934
0.000760847393929
0.000753855602344
0.000752878129193
0.000758475527338
0.000767410224405
0.000773095246101
0.000766389747761
0.000740983997059
0.000701544742157
0.000602155338209
0.000422846604639
0.000183209115843
0.000180373729481
0.000418378740761
0.000595352577047
0.000696371784194
0.000737904408932
0.000743478258865
0.000745412482634
0.000738546173014
0.000729403807197
0.000723136667995
0.000722326715647
0.000727398101851
0.000735936603837
0.000742703218355
0.000740787849442
0.000734559576541
0.000693139514148
0.000592656255637
0.000416617360718
0.000179624664861
0.0001714663297
0.00039297437493
0.000556818802654
0.000652724368615
0.000696304179955
0.000704550318858
0.000694092136692
0.000678101231584
0.00066483421004
0.00065737615163
0.000656557585801
0.00066275203044
0.000675249692854
0.000690918270017
0.000701347152458
0.000693143485907
0.000649821244861
0.000554513499177
0.000391547772702
0.000170901403024
0.000155640379977
0.000339895495024
0.000476058252623
0.000556875356328
0.000595349263322
0.000604840985348
0.00059827580321
0.000585679049681
0.000574269374522
0.000567603202116
0.000566974501416
0.00057263913302
0.000583385695362
0.000595676278604
0.000602171374459
0.000592748810872
0.000554561887466
0.000474286769496
0.000338849113424
0.000155264772052
0.000131248702543
0.000250814306659
0.000339992476807
0.000393118689271
0.000418497149042
0.000424773719049
0.000420626983831
0.000411827348032
0.000403470334561
0.000398417144966
0.00039797488937
0.000402346859153
0.000410244685598
0.000418830895289
0.000422956251691
0.000416751874528
0.000391619370186
0.000338878271213
0.000250180706124
0.000131047539687
0.000102221154504
0.000131209996504
0.000155565885136
0.000171390385606
0.000180288813605
0.000183970011373
0.000184317282149
0.000182544556812
0.000180091639965
0.000178011668003
0.000177737307133
0.000179589524315
0.000181951452492
0.000183706311686
0.000183402773226
0.000179797050936
0.000171022807144
0.000155329551867
0.000131081997287
0.000102178450075
0.0001269547429
0.000218770627572
0.000295906737029
0.000348572146778
0.000380065684302
0.000395437289744
0.000400081972855
0.000398615951333
0.000395170098197
0.000392535679804
0.000392217142304
0.000394366915324
0.000397516535358
0.000398865101245
0.000394247154046
0.000379001927093
0.000347735884045
0.000295350303278
0.000218484224759
0.000126866073756
0.000218918553068
0.000274906651601
0.000339888105718
0.000387189349636
0.00041685998292
0.000432533124836
0.000438641348527
0.000439105977233
0.000437386690941
0.0004358312869
0.000435631634287
0.000436871390788
0.000438386317928
0.000437829077635
0.000431712617488
0.000416066547553
0.000386454346978
0.000339208752065
0.000274246957537
0.000218273266276
0.00029615265349
0.000340050594008
0.00040744004135
0.000458149621319
0.000490315416148
0.000507278153923
0.00051373070961
0.000514125610184
0.000512182809847
0.000510430944349
0.00051020874157
0.000511608143072
0.000513331033652
0.000512837661737
0.000506361777871
0.000489389095414
0.000457208334759
0.000406465618351
0.000339002647755
0.000295073715069
0.000348864337225
0.000387465929846
0.000458266863345
0.000512572056654
0.000547482327873
0.000566386766603
0.000574218321578
0.000575813322371
0.000574684046352
0.000573254084392
0.00057301492974
0.000574068818076
0.000574968536475
0.000573241038353
0.000565392340509
0.000546455018773
0.000511474872928
0.000457059283069
0.000386101978779
0.000347433611827
0.000380385697533
0.000417207072703
0.000490498010446
0.000547534494272
0.00058517391957
0.000607970929274
0.000621184951555
0.000626237992709
0.000626622080019
0.000625652458058
0.000625393242354
0.000625965347666
0.000625360805694
0.000620257599747
0.00060707422879
0.000584148097845
0.000546378237241
0.000489147684429
0.000415612354016
0.000378666535079
0.000395769388193
0.000432910111513
0.000507473849657
0.000566421574962
0.000607944026189
0.000637617514224
0.000655016389141
0.000662282264499
0.000663436786697
0.000662566165268
0.000662267996049
0.000662687732088
0.0006612736741
0.000653963959801
0.000636685542497
0.000607083492983
0.000565306902562
0.000506077802423
0.000431189810273
0.000393869397996
0.000400411630761
0.000439020286045
0.000513910723342
0.0005742096688
0.000621129292041
0.000655002423432
0.000674847537018
0.000682948243786
0.000683930879628
0.000682694269116
0.000682350131823
0.00068307203263
0.000681761845413
0.000673588108522
0.000653931392712
0.000620261704537
0.000573166495974
0.000512531502529
0.000437261832952
0.000398444415814
0.00039896711989
0.000439498374357
0.00051431626238
0.000575802027478
0.000626209806442
0.000662343693411
0.00068306230297
0.000690722528724
0.000690670674605
0.000688807050872
0.0006884260536
0.00068972681087
0.000689351098917
0.000681578681446
0.000661094754168
0.000625277874181
0.000574855088708
0.000512963337235
0.000437750232121
0.000397005884319
0.000395596939645
0.000437829469914
0.000512446055384
0.000574761420959
0.000626711490338
0.000663675978647
0.000684276581177
0.000690928578212
0.000689908130091
0.000686894973215
0.00068643406702
0.000688809905988
0.000689413701159
0.000682593693364
0.000662261805425
0.000625688655776
0.000573794051192
0.000511086261716
0.000436095115805
0.000393659622494
0.000393098605567
0.000436360609254
0.000510818389834
0.000573483179553
0.000625923868403
0.000663040075644
0.000683323874876
0.000689377455277
0.000687244516433
0.000683136603282
0.000682602165473
0.000686001204622
0.000687715368781
0.000681502117457
0.000661516748988
0.000624830580637
0.000572476684789
0.000509432634026
0.00043461831519
0.000391157000807
0.000392966386225
0.00043627049109
0.000510736226351
0.000573406948145
0.000625849761054
0.000662965481065
0.000683243931231
0.000689286447058
0.000687133956399
0.0006830064916
0.000682469636196
0.000685884374099
0.000687615631696
0.000681412555797
0.000661433875588
0.000624748683283
0.000572390201383
0.000509333176306
0.000434502358822
0.000390986722943
0.000395240158383
0.00043757904884
0.000512214897846
0.000574546834539
0.000626506296922
0.000663473981409
0.00068406524254
0.000690695648703
0.000689642564873
0.00068659451562
0.000686127815108
0.000688528159193
0.000689159680229
0.000682359020593
0.000662039699463
0.000625464786968
0.000573554867972
0.000510814371622
0.000435785258174
0.000393219053614
0.000398440436409
0.000439117636795
0.000513955388299
0.000575463306659
0.000625896132045
0.00066204697199
0.000682766556222
0.000690407033241
0.000690334088551
0.000688444036504
0.000688054815928
0.000689371754772
0.000689004837703
0.00068125137783
0.000660771264011
0.000624939109094
0.000574483983889
0.000512551104157
0.000437295498268
0.000396379208934
0.000399792087642
0.000438557436662
0.000513452686329
0.000573763344354
0.00062073185508
0.000654644239817
0.000674511874133
0.00068261176542
0.000683578083171
0.000682321040909
0.000681967247327
0.000682695029538
0.000681393516523
0.000673219491793
0.000653542266263
0.000619833901391
0.000572681133308
0.000512017315287
0.000436720346727
0.000397723168262
0.000395138585693
0.00043241985849
0.000506960552638
0.000565897967063
0.000607472960813
0.000637203856912
0.000654645241207
0.000661931422911
0.000663086057902
0.000662205870767
0.000661899214987
0.000662316340008
0.000660895670346
0.000653560489087
0.000636237260538
0.000606576540642
0.000564737836797
0.000505502836575
0.000430618217237
0.000393138705709
0.00037981670737
0.000416736234074
0.000489973804441
0.000546971781362
0.000584606762028
0.000607479104954
0.000620737552114
0.00062582345313
0.000626216927274
0.000625242909245
0.000624974807539
0.000625538432479
0.00062491662718
0.000619773042554
0.000606541859213
0.0005835340003
0.000545757549799
0.000488551778538
0.000415054981753
0.000377999091852
0.000348423796812
0.000387061607949
0.000457775645223
0.000512015025593
0.000546885629758
0.000565776068647
0.000573614009282
0.000575255907754
0.000574134790558
0.000572698683942
0.000572448451552
0.000573490822535
0.000574368385553
0.000572580977167
0.000564720181737
0.000545790571589
0.000510842556463
0.000456484923986
0.000385607598401
0.000346901787709
0.000295868746552
0.000339731499751
0.000407007867171
0.000457626104372
0.00048972433238
0.000506638971993
0.000513059444458
0.00051343410115
0.000511466409386
0.00050969009826
0.000509451414707
0.000510847401234
0.000512573583701
0.00051208829655
0.000505638520445
0.000488709610615
0.000456594400479
0.000405943032904
0.000338596613673
0.000294714624782
0.000218794698447
0.000274672669709
0.00033952205241
0.000386709631262
0.0004162822494
0.000431874396421
0.000437919500999
0.000438332979981
0.00043656426465
0.000434967877816
0.000434745655659
0.000435989071136
0.000437525016808
0.000437006490266
0.000430949036089
0.000415383301277
0.000385873807743
0.000338751024822
0.000273935781552
0.000218100785106
0.000126946720112
0.000218589330047
0.000295587945949
0.000348141530804
0.000379524660636
0.000394792774235
0.000399351351582
0.000397808405638
0.000394286064511
0.000391587631306
0.000391235858618
0.000393397495551
0.000396587936107
0.000398003242792
0.000393473522472
0.000378338480166
0.000347197318681
0.000294942414509
0.000218240613148
0.000126842503224
0.000148840914165
0.000287791523217
0.000406521871021
0.000489384695503
0.000540745841565
0.000568018126319
0.000579151874838
0.000581182564562
0.000579840615241
0.000578420161774
0.000578053963142
0.000578834491687
0.000579698390075
0.000577398722662
0.000566208767354
0.000539057143239
0.000487985525033
0.000405531778022
0.000287246324623
0.000148702791589
0.000288073221564
0.000337476395122
0.00041090490887
0.000468454427027
0.00050768765184
0.000531278091314
0.000543368053683
0.000548106255976
0.000549154427353
0.000549009478389
0.000548820316736
0.000548636699265
0.000547350330352
0.000542475402881
0.000530339529861
0.000506754557114
0.000467541756822
0.000409978951648
0.000336444067449
0.000286838774701
0.000406973777838
0.000411185572552
0.00046989024432
0.000520062229958
0.000555613062844
0.000577642559452
0.000589379483078
0.000594238068321
0.000595355063638
0.000595169132409
0.000594982216251
0.000594850068855
0.000593516681517
0.000588544091959
0.000576738598006
0.000554638381969
0.000518967913187
0.000468596382287
0.000409571612326
0.000404940697251
0.000489938656251
0.000468930824052
0.000520270414808
0.000567256616682
0.000601811193351
0.000624219014775
0.000637320976608
0.000643519533388
0.000645326881873
0.000645371699191
0.000645172611171
0.000644791294489
0.000642763236279
0.000636491229196
0.000623279711262
0.000600760783419
0.000565993099203
0.000518672050383
0.000466857543385
0.000487306738206
0.000541391246036
0.000508294230025
0.000555957831729
0.000601937139825
0.000637455702144
0.000662609071488
0.00067783175794
0.000685308080129
0.000687770818535
0.000688026272601
0.000687804356546
0.000687155508999
0.000684364359974
0.00067676558532
0.000661589239301
0.000636377910815
0.000600580043974
0.000554150689842
0.000505883922718
0.000538270538104
0.000568741506852
0.000531957797495
0.000578057491282
0.000624391847411
0.00066265798619
0.000690381023796
0.000707779330744
0.000716426605831
0.000719304023166
0.000719625086468
0.000719380325045
0.00071857802354
0.0007151348645
0.0007061575786
0.00068897758191
0.000661494069697
0.000623009086486
0.00057613489611
0.000529338926234
0.000565287670862
0.000579934316426
0.000544079684874
0.000589821118532
0.000637506461314
0.000677943670991
0.000707972347525
0.000726985963678
0.000736256695966
0.000739107253335
0.000739263182169
0.000739022053458
0.000738305899452
0.000734575040116
0.000724633645704
0.000705905864598
0.000676552262098
0.000636162609987
0.000587858359701
0.000541372832608
0.000576323716843
0.00058204411107
0.000548845924325
0.000594715056486
0.000643776952998
0.00068561799331
0.000717090456802
0.000736889015378
0.000746076276342
0.000748354969496
0.000748023842592
0.000747801549018
0.000747545898428
0.000744151835366
0.000733960782236
0.000714391714439
0.000683890714566
0.000642293495791
0.000592723361888
0.000546137230569
0.000578425587383
0.000580817838037
0.00054994245116
0.000595906600355
0.000645709131193
0.000688343291131
0.000720436328002
0.000740348835409
0.000749007706195
0.000750320722518
0.000749268526161
0.000749052657262
0.000749469226747
0.000746930060952
0.000737123456788
0.000717386441747
0.000686379745818
0.000644126016286
0.000593888828173
0.000547261422983
0.000577268196778
0.000579551358748
0.000549870192856
0.000595828769507
0.0006459081906
0.000688821790861
0.000721062130958
0.000740850034248
0.000749031629724
0.00074961578487
0.000747987259039
0.000747774718764
0.000748732635083
0.000746855845404
0.000737501170125
0.00071787769198
0.000686754164302
0.000644263791259
0.000593781722299
0.000547193015847
0.000576037984422
0.000579390161694
0.000549775755648
0.000595755522188
0.000645850580413
0.000688774978928
0.000721020659785
0.000740806285038
0.000748974815075
0.000749538922648
0.000747894020684
0.000747681366117
0.00074865201264
0.000746789409381
0.000737446838263
0.000717828441498
0.00068670029733
0.00064419670789
0.000593690627807
0.000547066699373
0.000575823749493
0.000580343528214
0.000549666402664
0.000595693994755
0.00064554377615
0.00068821236962
0.000720328556812
0.000740244384408
0.000748882673713
0.000750159990902
0.00074907706843
0.000748858580381
0.000749292116183
0.000746775442325
0.000736991908854
0.000717258372466
0.000686231756868
0.000643938423732
0.000593634994351
0.00054691348527
0.000576680463074
0.000581299314141
0.000548418130747
0.000594382104755
0.000643518692834
0.000685423640138
0.000716959030941
0.00073680439716
0.000745996617805
0.000748253665785
0.000747895896871
0.000747664916344
0.00074741499943
0.00074403049689
0.00073383523839
0.000714231157736
0.000683673240615
0.000642007073502
0.000592339988184
0.000545621431786
0.000577549928718
0.000579018138243
0.000543556040446
0.000589400140365
0.000637172526249
0.000677690035428
0.00070782003273
0.000726934682863
0.000736261340053
0.000739119860936
0.000739263091183
0.00073901109425
0.000738286962978
0.000734536741463
0.000724541059687
0.00070572179021
0.00067627065839
0.000635797082765
0.000587383694626
0.000540756383706
0.00057527725246
0.000567775639507
0.000531401759194
0.000577579429208
0.000623972019449
0.00066232087672
0.000690146401901
0.000707656141686
0.000716382931724
0.000719289465065
0.000719610108833
0.000719357568505
0.000718543052516
0.000715063191344
0.000706001773314
0.000688707662411
0.000661126098761
0.000622554854552
0.000575598751482
0.000528685441565
0.000564191148163
0.000540489896482
0.000507759297475
0.00055545258225
0.000601450743699
0.000637012963937
0.000662240103784
0.000677539378806
0.000685068467284
0.00068755530838
0.000687811834019
0.000687581644521
0.000686919999191
0.000684097140605
0.000676436893532
0.000661182906839
0.000635909816098
0.000600048699809
0.00055357731937
0.000505245442458
0.000537235158831
0.000489201009917
0.000468454383235
0.000519758735486
0.000566712692821
0.000601262115992
0.000623690104409
0.000636857275322
0.000643055319285
0.00064486163641
0.000644898706447
0.000644688696997
0.000644297825533
0.000642258547341
0.000635979622611
0.000622698797109
0.000600155667211
0.000565383574975
0.000518077839592
0.000466273239358
0.000486436987244
0.000406456804408
0.000410773834262
0.000469374027974
0.000519458242286
0.000554951151856
0.000576945408389
0.000588663136748
0.000593495750316
0.000594583273074
0.000594370985746
0.000594166847404
0.00059403163846
0.000592704709358
0.000587746575246
0.000575955214111
0.000553887500052
0.000518272193713
0.000467983504622
0.000409054035909
0.000404307446844
0.000287809780236
0.000337109660139
0.000410363996968
0.00046776811691
0.000506882430143
0.000530377238277
0.000542391392511
0.00054706665589
0.000548053494691
0.000547860460125
0.000547644505284
0.000547463742938
0.000546201754418
0.000541374077114
0.000529309372794
0.000505821655051
0.000466734613146
0.000409327723891
0.00033597880351
0.000286492259801
0.000148832162363
0.000287404994187
0.000405877345841
0.00048855976564
0.000539759697602
0.000566886931861
0.000577898652133
0.000579824491935
0.000578380462294
0.000576880890222
0.000576470889876
0.000577258014182
0.000578169226815
0.00057596112596
0.000564898180541
0.000537901638327
0.000487008534709
0.000404760285765
0.000286771680815
0.000148674743896
0.000167644650321
0.000351366407114
0.000507671834715
0.000617414881304
0.000687548762798
0.000727726389056
0.000747870559502
0.000756494904798
0.000760028397886
0.000761417684756
0.000761101321313
0.000759083793187
0.000754995941998
0.000745953220567
0.000725617687229
0.000685500403667
0.000615686123971
0.000506465098859
0.000350721302589
0.000167488645544
0.000351853309819
0.000396751466363
0.000481319373237
0.000549946270424
0.000598724054271
0.000630029652175
0.0006480603333
0.000657121184192
0.000661091137107
0.000662488027213
0.000662322766312
0.000660611771356
0.000656389687676
0.000647161817519
0.000629072237896
0.000597774541462
0.000549008935507
0.000480316772633
0.000395484875005
0.000349980420537
0.00050845014603
0.000481732899024
0.000539625953282
0.00059294107918
0.000632650456642
0.00065888330035
0.00067442984281
0.000682262007265
0.000685445604255
0.00068633361073
0.000686145894156
0.000684925782419
0.000681509585957
0.000673552348465
0.000657948324466
0.000631633471105
0.000591754234639
0.000538133192893
0.00047969066855
0.000505349882618
0.000618395984443
0.000550633970324
0.00059323571392
0.000637930552843
0.000673024404543
0.000697347911592
0.000712939327015
0.000720712624233
0.000723676285808
0.000724334696793
0.000724081698806
0.000722966925602
0.000719596850356
0.000711634216002
0.000696203467396
0.000671855615579
0.000636488774023
0.000591328372109
0.000547983334073
0.000614334081927
0.000688759360377
0.000599595142877
0.000633150508412
0.000673219085153
0.000707244628617
0.000731976300206
0.000747434047243
0.000755117922691
0.000757847008711
0.000758300849486
0.000757973025438
0.000756845257451
0.000753276320815
0.000745006273053
0.000729791648607
0.00070567616044
0.00067158371815
0.000630922646074
0.000596478222354
0.000683845460954
0.000729166486477
0.000631014775102
0.000659508504265
0.000697645195959
0.000732241797677
0.000757743371364
0.000773517970433
0.000781024602724
0.000783394625109
0.000783591519508
0.000783214290677
0.000782095438412
0.000778275773686
0.000769447859109
0.000753755356362
0.000729498531468
0.000695776428322
0.000657046446522
0.000627570099008
0.000723612355101
0.000749487465597
0.000649101467401
0.000675120813099
0.000713457933827
0.000748365370023
0.000774478888957
0.000790386862666
0.000797555472004
0.00079943003006
0.000799346281796
0.000798989556935
0.000797985618967
0.000794008286222
0.000784723652134
0.000768560704861
0.000744087276064
0.00071094390386
0.000672499475772
0.000645489093685
0.000743603535318
0.000758231796007
0.00065819036173
0.000683007395067
0.000721627367912
0.000756972305743
0.000783420266903
0.000799229988274
0.000805830087231
0.000807059641024
0.000806632098141
0.000806352885104
0.000805718452432
0.000801968300445
0.00079254880819
0.00077613157622
0.000751510600993
0.000718494647057
0.000680305067956
0.000654571230735
0.000752365496668
0.000761816343209
0.000662181076915
0.000686280156287
0.000724946192548
0.000760432931657
0.000786886832344
0.000802380220205
0.00080835954888
0.000808836146775
0.00080797310427
0.000807767117217
0.000807605694177
0.000804476476215
0.000795369838716
0.000779018858303
0.000754417246187
0.000721484688537
0.000683527449498
0.00065863641214
0.000756189122041
0.00076325552538
0.000663611986735
0.000687289363152
0.000725864256268
0.000761316596775
0.000787657418399
0.000802879962655
0.000808451775677
0.000808417468557
0.000807239315068
0.000807087150686
0.000807263816483
0.000804559623535
0.000795800057129
0.000779636502386
0.000755134393449
0.000722284545542
0.000684495664965
0.000660108557697
0.00075779843675
0.000763091733088
0.000663522129166
0.000687228342645
0.000725827950096
0.000761302031516
0.000787656525109
0.000802880946507
0.000808436841479
0.000808376076608
0.000807179335154
0.000807029358655
0.000807221470753
0.000804534045004
0.000795789142734
0.000779628511214
0.000755114293678
0.000722239934332
0.000684414160426
0.000659977101516
0.000757557088974
0.000761295186982
0.000661903491105
0.000686094827003
0.000724838891676
0.000760398479162
0.000786909304022
0.000802423638797
0.000808384746882
0.00080881207284
0.000807912279064
0.000807706817944
0.000807565115816
0.000804461306465
0.000795381004874
0.000779019039562
0.000754368995879
0.000721359075243
0.000683296623456
0.00065826702951
0.000755506311107
0.00075738056845
0.000657754772262
0.000682712459521
0.000721466366299
0.00075695717048
0.000783549031429
0.000799460638442
0.000806077843992
0.000807274911645
0.0008068155162
0.00080652452182
0.000805896383456
0.000802159573516
0.000792718407275
0.000776219102545
0.000751474359465
0.000718310030896
0.000679955923561
0.00065402213194
0.000751329121904
0.000748422693913
0.000648574628452
0.000674748031519
0.000713245134092
0.000748361597243
0.000774712325389
0.000790828188677
0.00079810179209
0.000799989157913
0.000799886264121
0.000799514750387
0.000798496790772
0.000794484200989
0.000785093822314
0.000768748082565
0.000744052095361
0.000710700409498
0.000672067750315
0.000644840109152
0.000742354304494
0.000728048319771
0.000630472938319
0.000659088355214
0.000697343048319
0.00073214362786
0.000757917707855
0.000773946673897
0.000781610453787
0.000784029977745
0.000784226255034
0.000783840499304
0.000782703138938
0.000778816466545
0.000769824734547
0.000753879254124
0.000729362757308
0.000695445691855
0.000656560439362
0.000626897058577
0.000722305411549
0.000687731640804
0.000599091966114
0.000632702529901
0.000672817760401
0.000706976988341
0.000731879643876
0.000747551397347
0.000755383952269
0.000758167724244
0.000758627418639
0.000758291009607
0.000757144379633
0.000753506806426
0.000745076271974
0.000729647632222
0.000705353691722
0.00067113615908
0.000630395514683
0.000595837878754
0.000682623527611
0.000617563783285
0.000550192857876
0.000592765941418
0.000637437383874
0.000672544460543
0.00069693277654
0.000712601510803
0.00072044090059
0.000723426735246
0.000724082010194
0.000723817953794
0.000722689156719
0.000719281393582
0.000711240299224
0.000695737871586
0.000671315273639
0.000635924124957
0.000590761904878
0.000547404628303
0.000613312255063
0.000507868068048
0.000481338585203
0.000539117688889
0.000592338369349
0.000631988518067
0.000658186106554
0.000673702608927
0.000681503193969
0.000684652890904
0.000685513007357
0.000685306030932
0.000684081229539
0.000680670602462
0.000672729665394
0.000657149680939
0.000630866953952
0.000591044600261
0.000537510614988
0.000479165312541
0.000504604102118
0.00035155442089
0.000396349362124
0.000480719408651
0.000549179817789
0.000597816941182
0.000629000375443
0.000646927045382
0.00065590467088
0.000659797977747
0.000661140817004
0.000660942691158
0.000659231227841
0.00065503626474
0.000645869926539
0.00062787809673
0.000596706904382
0.00054809420775
0.000479583270736
0.000394962360974
0.000349565290433
0.000167672928391
0.00035083717712
0.000506802116382
0.000616304422115
0.000686207752909
0.000726171394805
0.000746142735892
0.000754641475375
0.000758060765917
0.000759365666594
0.000758988342868
0.000756955159533
0.000752899890888
0.000743963439425
0.000723810651103
0.00068392579283
0.000614369983629
0.000505426669566
0.000350076874071
0.00016749450279
0.000186612319067
0.000420272760017
0.000615935745583
0.000754009714205
0.000845682733537
0.000902746046237
0.000936353813885
0.000955548650274
0.000966724728996
0.000972244270914
0.000972140217576
0.000966347752363
0.000954832625633
0.00093519758893
0.000901231053341
0.000844073241594
0.000752685081308
0.000615217989679
0.000420052744113
0.000186505284936
0.000421079333342
0.0004569591841
0.000552096989995
0.000631157501788
0.000688637237971
0.000727032840024
0.000750748573224
0.000764154087739
0.000771084049004