/*--------------------------------*- C++ -*----------------------------------*\
| =========                 |                                                 |
| \\      /  F ield         | OpenFOAM: The Open Source CFD Toolbox           |
|  \\    /   O peration     | Version:  3.0.1                                 |
|   \\  /    A nd           | Web:      www.OpenFOAM.org                      |
|    \\/     M anipulation  |                                                 |
\*---------------------------------------------------------------------------*/
FoamFile
{
    version     2.0;
    format      ascii;
    class       volScalarField;
    location    "6.7";
    object      k_0;
}
// * * * * * * * * * * * * * * * * * * * * * * * * * * * * * * * * * * * * * //

dimensions      [0 2 -2 0 0 0 0];

internalField   nonuniform List<scalar> 
7968
(
0.000342056315149
0.000404151026146
0.00045285314956
0.000483171509212
0.000499868356772
0.000506756340831
0.000507472828749
0.000504278803718
0.000499811770665
0.000496014223469
0.000495550226695
0.000498978772968
0.000503312890844
0.000506485852329
0.00050584479639
0.000499080377175
0.000482581077901
0.000452475629372
0.000403946315603
0.000341982449088
0.000404233136088
0.000622884644101
0.000763050282067
0.000840701749215
0.000876630790978
0.000885469063755
0.000879761254956
0.000867497461511
0.000855778855898
0.000848678436578
0.000848098858057
0.000854314715299
0.000865455573309
0.000877458381561
0.000883151487112
0.000874406436288
0.000838762144974
0.000761565846176
0.000621970180138
0.000403848009509
0.000453055482727
0.000763066854674
0.000955299705653
0.00106061751911
0.00110898459296
0.00112079939744
0.0011127186272
0.00109706649527
0.001082801716
0.0010744445661
0.00107369596762
0.00108087422346
0.00109438691459
0.00110970746632
0.00111772593393
0.00110599551104
0.00105791722225
0.000953152927592
0.00076168602393
0.000452378661214
0.000483412819333
0.00084075606992
0.00106065479682
0.00117918266263
0.0012311277928
0.00124088171949
0.00122862094918
0.0012096467227
0.00119380629244
0.00118488938122
0.00118394262223
0.00119140276108
0.00120640193284
0.00122504976704
0.00123730119747
0.0012276030996
0.0011759053691
0.00105795031547
0.000838918133526
0.000482426445376
0.000500138120018
0.000876704467092
0.00110907354062
0.00123116428917
0.0012796375735
0.00128579486257
0.00128791317954
0.00127992274544
0.001269305091
0.00126201567944
0.00126109006131
0.00126702127352
0.00127697400523
0.00128487104182
0.00128277656768
0.00127589629926
0.00122752021162
0.0011059198174
0.000874432106378
0.000498845860233
0.000507053682996
0.000885597736394
0.00112091871156
0.00124084721143
0.00128564766444
0.00131471420795
0.0013226215468
0.00131618817768
0.00130526643511
0.00129724193799
0.00129612920022
0.00130257522441
0.00131283082766
0.00131937327541
0.00131184413287
0.00128288388619
0.00123719830736
0.00111755617379
0.000883070137481
0.00050554140586
0.000507772449415
0.000879931604042
0.00111284030498
0.00122845060006
0.00128765360188
0.00132250002307
0.00133062786587
0.00132191513442
0.00130806456797
0.00129792071558
0.0012965306678
0.00130475862135
0.00131788231351
0.00132688765455
0.00131945430997
0.00128503422031
0.00122498952102
0.0011094581285
0.000877284539723
0.000506158918736
0.00050457693733
0.000867780844645
0.00109731621936
0.00120955188959
0.00127971771627
0.00131617534516
0.00132207350497
0.00130903603759
0.00129050231457
0.00127726518209
0.00127556094576
0.00128650885653
0.00130418354623
0.00131766547082
0.00131274444846
0.00127702385586
0.0012062307817
0.00109394086214
0.000865098724751
0.000502952290129
0.000500128035824
0.00085629403089
0.00108340787418
0.00119419521722
0.0012695164324
0.001305783429
0.00130889393936
0.00129127156197
0.00126778636113
0.00125037991266
0.00124830316009
0.00126303556827
0.001285652679
0.00130378554303
0.0013018658485
0.0012665525399
0.00119067163739
0.00107994735046
0.000853588329841
0.000498523451451
0.000496418877628
0.00084951986281
0.00107557069243
0.00118603929126
0.0012629395143
0.00129864952697
0.00129987831661
0.00127938124579
0.00125189269581
0.00123073582296
0.00122832888953
0.00124655844641
0.0012731719649
0.0012942677013
0.00129435803876
0.00125971516936
0.0011822471114
0.00107198534718
0.000846760373723
0.000494793892049
0.000496237652424
0.000849323851882
0.00107538043886
0.00118587510985
0.00126278143917
0.00129850585488
0.00129974186064
0.00127923627735
0.00125171322779
0.00123050820496
0.00122809172803
0.00124636385383
0.00127301293969
0.00129411739536
0.0012941991312
0.00125953444154
0.00118203750347
0.0010717334888
0.000846497057922
0.000494555832194
0.000499759332108
0.000855765336183
0.00108287006347
0.0011937174105
0.00126906923365
0.00130537857551
0.00130851338292
0.00129088159823
0.00126734525099
0.00124986596076
0.00124777282782
0.00126256580982
0.00128523538205
0.00130337620915
0.00130142712253
0.00126605270449
0.00119008724916
0.00107926777722
0.000852908886354
0.000498046512122
0.000504112108015
0.000866974218002
0.00109644470523
0.00120872352788
0.00127897180778
0.00131549064339
0.00132141953688
0.00130836971619
0.00128980523205
0.00127651353781
0.00127479371447
0.0012857824674
0.00130348415622
0.00131697579109
0.00131201658324
0.00127621079709
0.00120527017571
0.00109289590538
0.000864107250961
0.000502361625686
0.000507281263316
0.000878946181929
0.0011117057461
0.00122728672113
0.00128663095239
0.00132154875893
0.00132970896948
0.00132098868063
0.00130710694742
0.00129692772644
0.00129552229494
0.00130376691353
0.00131691350897
0.00132592263452
0.00131845044416
0.00128393327522
0.00122368187943
0.00110814030883
0.000876102287462
0.000505541060595
0.000506604301039
0.000884555205172
0.00111964402547
0.00123946229927
0.00128437926577
0.00131353410824
0.00132148130257
0.00131504618666
0.00130410216139
0.00129605264324
0.00129492262501
0.00130136821727
0.00131163010445
0.00131816803562
0.00131059463908
0.00128151600334
0.00123565288829
0.00111608285632
0.000881824905374
0.000504974175601
0.000499773580782
0.000875701282714
0.00110780626397
0.00122973393853
0.00127804859824
0.00128441988102
0.00128656465182
0.00127857003813
0.00126792330913
0.00126060165194
0.00125965168022
0.00126557763401
0.00127552962841
0.00128341625222
0.00128128950315
0.00127414192415
0.00122588710112
0.00110442757383
0.000873219951432
0.000498374907502
0.000483170534597
0.000839935690495
0.00105956284619
0.00117790085741
0.00122965484286
0.00123921924801
0.00122680083718
0.0012077810366
0.00119188775913
0.00118290086178
0.00118190904708
0.00118937494965
0.00120436044565
0.00122302028724
0.00123542082625
0.00122589135237
0.00117436978111
0.00105660755588
0.000837882168566
0.00048209672132
0.000452927566045
0.000762505573826
0.00095451210532
0.00105963663663
0.00110780469481
0.001119433882
0.00111120154374
0.00109543916454
0.00108107620501
0.00107263955767
0.00107183893364
0.00107900820796
0.00109254800961
0.00110794608967
0.00111610158999
0.00110454078805
0.0010566676166
0.000952116902538
0.000760922691617
0.000452188954522
0.000404207722824
0.000622625723363
0.000762652754229
0.000840145205253
0.000875870873587
0.000884529192364
0.000878680578713
0.000866298237945
0.000854466242593
0.000847271540127
0.00084663682073
0.000852860832675
0.000864051688064
0.000876148512199
0.000881974868503
0.000873404756047
0.000837981652652
0.000760964891593
0.00062156319967
0.000403787993182
0.000342063756302
0.000404127553631
0.000452782192371
0.000483027318211
0.000499616422385
0.0005063862251
0.000507005323599
0.000503722296124
0.000499171030648
0.000495296864796
0.000494780724305
0.000498230265565
0.00050261603782
0.000505869196983
0.000505330449041
0.00049869418031
0.000482325550087
0.000452315403162
0.000403859360848
0.000341965862182
0.000395336280397
0.000568275286014
0.000695078355479
0.000775310429634
0.000821334915943
0.000843312618482
0.000849869255125
0.000847751452836
0.000842821989342
0.000839047811676
0.000838588481836
0.00084166657498
0.000846174433435
0.000848125759816
0.00084160085094
0.000819784576108
0.000774056191877
0.00069419708106
0.000567773107603
0.000395147559452
0.000568534351971
0.0011302943588
0.00143661091333
0.00161435790168
0.00170702186469
0.00174403367258
0.00174855818367
0.00173711501165
0.00172263465833
0.00171306062394
0.00171215457494
0.00172025233328
0.00173372905738
0.00174464488063
0.00173993039956
0.00170285115957
0.00161040658917
0.00143319877877
0.00112789479029
0.000567404417765
0.000695466882072
0.00143663823002
0.00184013982402
0.00207907140327
0.00220876735386
0.00226548432364
0.00227796058905
0.00226879772315
0.00225410378061
0.00224369197931
0.00224250736463
0.00225098231947
0.00226441891216
0.0022729542105
0.00226029091754
0.00220357313209
0.00207410272247
0.00183577044011
0.00143344612288
0.000693759907808
0.000775746666295
0.00161448850413
0.00207918767817
0.00235750141762
0.00251180327355
0.00258303892715
0.0026023671479
0.00259932567863
0.00258905891657
0.00258043912848
0.00257908666246
0.00258551056283
0.00259439802429
0.00259651749178
0.00257713773119
0.00250602509904
0.00235194274474
0.00207418844693
0.00161070288572
0.000773604391523
0.000821798603569
0.00170727973775
0.00220900220466
0.0025118773887
0.00268256769123
0.00276747142165
0.00278877122845
0.00278097814236
0.00276530219375
0.00275362745847
0.00275169908856
0.00276028090709
0.00277426299026
0.00278172049461
0.00276089346499
0.00267648068977
0.00250606084559
0.00220363796508
0.00170307105539
0.000819298169424
0.000843787693205
0.0017443826637
0.0022657654883
0.0025830493128
0.00276737133232
0.00284706417147
0.00286386659031
0.00284995796388
0.00282848760236
0.00281328713343
0.00281074524563
0.00282190999273
0.00284134036463
0.00285528529207
0.00283963077476
0.00276100615251
0.00257726042331
0.00226031619608
0.00173999840352
0.000841060562836
0.000850339816805
0.00174897243614
0.0022782773941
0.00260232493435
0.00278865373711
0.00286393314361
0.00287379694017
0.00285143862666
0.00282235044018
0.00280256442058
0.0027993665782
0.00281407180913
0.00284059994278
0.00286320957141
0.00285522989886
0.0027818432717
0.00259667506015
0.00227288925354
0.00174456149224
0.000847526513809
0.000848254794039
0.00173772697857
0.00226936684378
0.00259951467109
0.00278139366873
0.00285084094406
0.002852474473
0.00282002219361
0.00278206976672
0.00275821892257
0.00275447527354
0.0027723357181
0.00280686900479
0.00283959911561
0.00284048590469
0.00277383904845
0.0025942818106
0.00226398536833
0.00173331008999
0.000845445800059
0.000843437179879
0.00172365460192
0.00225527287415
0.00259001889104
0.00276702140162
0.0028312176721
0.00282572437966
0.00278466726098
0.00274144826689
0.00271214955111
0.00270780265848
0.00273020630052
0.0027698272938
0.0028107857469
0.00281920727234
0.00275846747945
0.00258441087033
0.00224969123843
0.00171916337427
0.000840653712675
0.000839862079611
0.00171464311225
0.00224570675407
0.00258247592755
0.00275712501858
0.00281850332465
0.00280909331111
0.00276440489055
0.00271603402979
0.00268264454437
0.00267792916964
0.00270383594834
0.00274831035311
0.00279286581928
0.00280543148548
0.00274786972044
0.00257652284189
0.00223990794406
0.00171003924252
0.000837066019684
0.0008396730133
0.00171434011392
0.0022453886223
0.00258219175418
0.00275690636246
0.00281834754176
0.0028089874463
0.00276432957143
0.00271594256781
0.0026825204254
0.0026777968481
0.00270372926774
0.00274822508052
0.00279275338598
0.00280527218307
0.00274764408018
0.00257622356252
0.00223955027192
0.0017096828051
0.000836822010925
0.00084292804048
0.00172278484216
0.0022543515771
0.00258919629181
0.00276636645416
0.0028307327944
0.00282538384864
0.0027844313859
0.00274123739438
0.00271189202804
0.00270752816116
0.00272996654158
0.00276958587569
0.00281044043053
0.00281872095073
0.00275780095605
0.00258355775849
0.00224868484352
0.00171818024339
0.000840023810617
0.000847505194383
0.00173633311152
0.00226786687545
0.00259815894334
0.00278023768273
0.0028499029603
0.0028517345438
0.00281941589166
0.00278159779343
0.00275776129196
0.00275400389278
0.00277186331192
0.00280625801012
0.00283886200326
0.00283955345588
0.00277267407254
0.00259289303084
0.00226239292003
0.00173179147634
0.000844552358066
0.00084945892783
0.00174716067119
0.00227627671827
0.00260042938195
0.0027869596909
0.002862444427
0.00287250810861
0.00285030573652
0.00282131986118
0.00280157274069
0.00279836440227
0.00281302463804
0.00283945458837
0.00286191689214
0.00285374328345
0.00278013342603
0.00259473313105
0.00227079810433
0.00174263203304
0.000846499410217
0.000842887088757
0.0017423096152
0.00226341770932
0.00258073440919
0.00276521215356
0.00284505583016
0.00286201265526
0.00284825036045
0.00282688843357
0.00281173922242
0.00280918786481
0.00282028661195
0.00283960122981
0.00285340298142
0.00283759833324
0.00275880708751
0.00257488024631
0.00225786252516
0.00173780347887
0.000840015880543
0.000820975115705
0.00170510290498
0.00220651823703
0.00250936579376
0.00268012463323
0.00276512524413
0.00278654314474
0.00277890539546
0.00276331906946
0.00275167877621
0.00274973600946
0.00275825736363
0.00277212652071
0.00277941262645
0.00275846518388
0.00267395830819
0.00250343000511
0.0022009981671
0.00170073510986
0.000818331045755
0.00077509004408
0.00161245918282
0.00207682423553
0.0023550501608
0.00250935238499
0.0025806272491
0.00260008651071
0.00259745670192
0.00258730442134
0.00257870593696
0.00257733039011
0.00258369535219
0.00259243697867
0.00259410135811
0.00257457964817
0.00250341007982
0.00234929505281
0.0020716070555
0.00160847200248
0.000772811059407
0.000695019522688
0.00143495962495
0.00183814343855
0.00207693623701
0.00220656609157
0.00226325701515
0.00227574646309
0.00226663121438
0.0022519279369
0.00224147688838
0.002240251056
0.00224869459298
0.00226208532096
0.00227054476095
0.00225785502395
0.00220114410974
0.00207171949442
0.0018335193267
0.00143154478044
0.000693193965091
0.000568317999743
0.00112919454023
0.00143524280561
0.00161282800389
0.00170536707715
0.0017422852665
0.00174674694936
0.00173525311177
0.00172069820101
0.00171104809868
0.00171009377206
0.00171818842943
0.0017316799455
0.00174262712982
0.00173796943995
0.00170096862852
0.00160863885574
0.00143159525581
0.00112658899871
0.000567103430372
0.000395319014036
0.000567959141304
0.000694575939089
0.000774668232688
0.000820551519017
0.000842392257336
0.000848830535618
0.000846602381581
0.000841560616025
0.000837692084454
0.000837184705556
0.00084028210033
0.000844851525186
0.000846898990792
0.000840495003459
0.000818823233766
0.000773252746958
0.000693554317854
0.000567348474854
0.000395097781614
0.000439670519624
0.000682377655041
0.000859098671057
0.000972213181459
0.00103908938194
0.00107371112404
0.00108766069874
0.00109016851565
0.00108846736761
0.00108667834471
0.00108621589799
0.00108719748595
0.00108829597203
0.00108544562871
0.00107141028839
0.0010369070719
0.000970344995516
0.000857693639128
0.000681509516793
0.00043939221894
0.000682828102194
0.00139828957601
0.00179166405914
0.00202689127669
0.00215698603898
0.00221718128121
0.00223510467951
0.00223137900146
0.00222116996896
0.00221354662214
0.00221238482506
0.00221801137987
0.00222680256673
0.00222971947226
0.00221141821327
0.00215107665181
0.00202116665486
0.00178654777511
0.00139440633537
0.000680858610804
0.000859741935552
0.00179175151057
0.00229911039476
0.00260800856089
0.00278620841256
0.0028755224582
0.00290912019261
0.00291216175805
0.0029033989447
0.00289523318537
0.00289365813471
0.00289914389959
0.00290613012263
0.00290227077172
0.00286838353961
0.0027790739782
0.00260110657663
0.00229282026623
0.0017867821872
0.00085685201028
0.000972953522665
0.00202720579576
0.00260826511856
0.00296576294622
0.00317737678718
0.00328948303837
0.00333937543164
0.00335146596454
0.00334581288139
0.00333813914536
0.00333613064354
0.00334039197966
0.00334390661646
0.00333131608701
0.00328117845084
0.00316934544252
0.00295803588575
0.0026011010397
0.00202136561389
0.000969436804507
0.00103992347304
0.0021576140148
0.00278678218637
0.00317763657888
0.00341407316404
0.00354524479564
0.00359953665783
0.00361037065622
0.0036024957395
0.0035930028652
0.00359038380203
0.003595340377
0.00360001986321
0.0035883048817
0.00353506608019
0.00340517839238
0.00316924387635
0.00277890001397
0.00215103295595
0.00103588949994
0.0010746316242
0.0022181115589
0.00287638725571
0.00328993487291
0.00354550795196
0.00367934634042
0.00373161524759
0.00373633285955
0.00372224899874
0.00370893737407
0.00370564581703
0.00371303300799
0.00372202629456
0.00371509829795
0.00366523680416
0.00353484162613
0.00328093874322
0.0028679603268
0.00221103267715
0.00107023833518
0.00108865172182
0.00223632642566
0.00291031884022
0.00334019125116
0.00360062733926
0.00373356219669
0.00377917707106
0.00377381322016
0.00375059680798
0.0037319808737
0.00372816137738
0.00373950835478
0.00375528780723
0.00375604558248
0.00371329967051
0.0035872363158
0.00333069075428
0.00290144575624
0.00222892296683
0.00108408662447
0.00109126056997
0.00223304307406
0.00291400150652
0.00335339631629
0.00361368129826
0.00374260386689
0.00377924183173
0.00376216800322
0.00372848597251
0.00370369314402
0.00369944702994
0.00371584180067
0.00374016049151
0.003750451794
0.00371629532102
0.00359674791956
0.00334199473629
0.00290446796678
0.0022253666424
0.00108668891444
0.00108970857643
0.00222349961812
0.00290627436604
0.00334940779129
0.0036087637216
0.00373316678181
0.00376182279733
0.00373465647307
0.0036914275924
0.0036607612115
0.00365610936182
0.00367731213717
0.00370997304335
0.00372926505804
0.00370294997347
0.00358909626214
0.00333656734508
0.00289609019463
0.00221555984081
0.00108521922012
0.0010881167764
0.00221668482033
0.00289938999163
0.00334366015705
0.00360212140827
0.00372372637251
0.00374779403569
0.00371482558893
0.00366589208882
0.00363151701857
0.00362662100408
0.00365090054242
0.00368859431664
0.00371334532215
0.00369168797423
0.00358110108293
0.00332998192157
0.00288875383688
0.00220852360372
0.00108366920762
0.00108791464718
0.00221632921989
0.00289903559388
0.00334338495319
0.00360194514985
0.00372363719423
0.00374775239315
0.00371478523231
0.00366582379374
0.00363141876567
0.00362652037667
0.00365082451432
0.00368854436285
0.00371330394696
0.00369161094233
0.00358093426192
0.0033297010633
0.002888366579
0.00220810991012
0.00108339969747
0.00108911400348
0.00222243146386
0.00290521805348
0.00334858934288
0.0036082367363
0.0037329204347
0.00376176856019
0.00373469047569
0.00369147509988
0.00366078323421
0.00365612540989
0.00367733787101
0.00370998786238
0.00372922883115
0.00370274694778
0.00358860631964
0.00333575053156
0.00289497779018
0.00221438494735
0.00108448039265
0.00109032730083
0.00223128339513
0.00291225579058
0.00335202495591
0.00361278106888
0.00374224500755
0.00377936679112
0.00376259261028
0.00372906833874
0.00370431255773
0.00370005418304
0.00371639068477
0.00374057433083
0.00375060304101
0.00371600101901
0.00359591006444
0.00334064934699
0.00290269063196
0.00222351890597
0.00108558892676
0.00108750214498
0.00223398846549
0.00290797216395
0.0033382983239
0.00359925270422
0.00373292064235
0.00377933998395
0.00377455988307
0.00375165421848
0.00373315359126
0.00372932402786
0.00374054219937
0.0037560246282
0.00375624009945
0.00371273134297
0.00358593295046
0.00332884602053
0.00289909732195
0.00222653140108
0.00108277057623
0.00107341175766
0.00221538284285
0.00287358507438
0.0032874818526
0.00354355992199
0.00367803857855
0.00373110983472
0.00373650280933
0.00372279133683
0.00370962380673
0.00370633142797
0.00371357639003
0.00372220942876
0.00371463052616
0.00366398276532
0.0035329573714
0.00327853640175
0.00286515166694
0.00220824946764
0.00106885051982
0.00103876618601
0.00215471231767
0.0027837567183
0.00317486038624
0.0034116813623
0.00354327051352
0.00359804911651
0.00360928367559
0.00360167380521
0.00359229023829
0.00358966670765
0.00359451124728
0.00359892637009
0.00358681448017
0.00353310599221
0.00340288950825
0.00316645877215
0.00277580442089
0.00214802512148
0.00103455750777
0.000971974298599
0.00202441344641
0.00260527950938
0.00296289441053
0.00317473523271
0.00328712563404
0.00333751999452
0.00334965688535
0.00334410735837
0.00333648073387
0.00333445260648
0.00333863609377
0.0033420274816
0.00332939913453
0.00327876549735
0.00316663340284
0.00295504955145
0.00259795041158
0.00201839471215
0.000968280133276
0.000859011780294
0.00178931775507
0.00229642363874
0.00260530415884
0.00278357385233
0.00287299793333
0.00290673966711
0.00290983168243
0.00290107540938
0.0028928834942
0.00289126758304
0.00289671052872
0.00290364089489
0.00289972422089
0.00286569498751
0.00277625853617
0.00259818944566
0.00228989433465
0.00178411805364
0.000855956189478
0.000682410439182
0.00139651077633
0.00178960035905
0.00202469529088
0.00215470408065
0.00221485878154
0.00223276804803
0.00222902066405
0.00221874816957
0.00221105186882
0.0022098369573
0.00221544991952
0.00222423730227
0.00222716751829
0.00220888435271
0.00214857228853
0.00201872895191
0.0017842296163
0.0013923867595
0.000680308470303
0.000439652943803
0.000681764184823
0.000858187072716
0.000971116698141
0.00103782187803
0.0010722813295
0.00108608727646
0.00108846572781
0.00108663521476
0.00108474522927
0.0010842271349
0.00108521765696
0.00108637627917
0.00108363827699
0.00106975161511
0.00103542022134
0.000969045229946
0.000856601782798
0.000680755823868
0.000439336365023
0.000476100438681
0.000779734434802
0.000996555442423
0.00113543612304
0.00121985034594
0.00126689441758
0.00129014627514
0.00130003909064
0.00130409158842
0.00130569044797
0.00130532760537
0.0013030064921
0.00129831244672
0.00128792705772
0.0012644303865
0.0012174113355
0.00113330414521
0.000994969688402
0.000778777941339
0.000475798142104
0.000780463217037
0.0016299945205
0.00209312119672
0.00237494876316
0.00253789851544
0.00262120944818
0.00265552706206
0.0026637575027
0.00266223492437
0.00265949874488
0.00265821757127
0.00265862537874
0.0026583769144
0.00264902306873
0.00261415523371
0.00253065357793
0.00236789137044
0.00208672357513
0.00162495918288
0.00077766912431
0.000997584820519
0.00209333941899
0.002679086035
0.00303868423311
0.00325267863649
0.00336758026461
0.00341963988468
0.00343525374892
0.00343474907811
0.00343068140711
0.00342871555183
0.00342932895787
0.00342746209067
0.00341071173143
0.00335844274415
0.00324367235218
0.00303000592772
0.00267109872547
0.00208681417076
0.000993493796523
0.0011366508497
0.00237567246172
0.00303923722471
0.00344779354363
0.00369599368591
0.00383509817569
0.00390488302276
0.0039271415118
0.00392748226995
0.00392236925328
0.00391957638456
0.0039197005253
0.00391531452189
0.00389116659833
0.00382286831203
0.00368505591316
0.00343747499668
0.00302964593532
0.00236759340953
0.00113162829922
0.00122129647318
0.00253933314933
0.00325396837395
0.00369662450211
0.00397315100552
0.00412989197669
0.00420280483642
0.00422335657305
0.00422007622644
0.00421215778676
0.00420852094349
0.00420947087226
0.00420571130609
0.00418034050268
0.00410890971781
0.00395800627349
0.00368451731838
0.00324266662882
0.00252964181967
0.00121543254607
0.00126858399305
0.00262342119547
0.00336965830523
0.00383646486316
0.0041321756894
0.00429557325572
0.00436490537596
0.00437726202832
0.00436623717794
0.00435389225685
0.00434967118519
0.00435323096861
0.00435335236737
0.00433102764737
0.0042607521968
0.00410688684547
0.00382160736128
0.00335663578074
0.00261227034197
0.00126207746655
0.00129202881832
0.00265848856195
0.00342260757479
0.00390875368484
0.00421145977332
0.00437325154366
0.00443308462612
0.0044331097753
0.00441196175887
0.00439437135547
0.00439009422474
0.00439792032982
0.0044045256622
0.00438875946799
0.00432374986689
0.00417271089496
0.00388747031937
0.00340782296177
0.00264615955012
0.00128519484599
0.0013020563487
0.00266752262646
0.00343940170305
0.00393534643322
0.0042403168696
0.0043966587647
0.0044451127992
0.00443162879657
0.00439985804722
0.00437675609187
0.00437272238925
0.00438591240914
0.00440081363217
0.00439364159502
0.00433619023716
0.00419061023687
0.00390750069788
0.00342304681596
0.00265440005428
0.00129526587774
0.00130616685612
0.00266688257423
0.00344047039804
0.00393960410855
0.00424363986972
0.00439422362167
0.00443300337769
0.00440840873647
0.00436735795416
0.00433922884248
0.00433530045679
0.00435326069074
0.00437630317075
0.00437776634876
0.00432789967899
0.00418804230518
0.00390786541723
0.00342283301256
0.00265329318578
0.0012996611736
0.00130782289052
0.00266507116181
0.00343819645692
0.00393759827478
0.00424027158903
0.0043873208569
0.0044206614234
0.00438986913937
0.00434344906877
0.00431230098526
0.00430841322386
0.00432919242866
0.00435694286466
0.00436376677311
0.00431868123231
0.00418243205082
0.00390427397948
0.00341977340185
0.00265119381713
0.00130151662964
0.00130763606816
0.00266471166136
0.00343788862538
0.00393742635991
0.00424024517419
0.00438738548841
0.00442071700866
0.00438982906056
0.00434330497788
0.00431209591057
0.0043082152127
0.00432905682734
0.00435690064537
0.00436383157058
0.004318784985
0.0041824572752
0.00390413314018
0.00341944168927
0.00265075032177
0.00130123993634
0.00130557149996
0.00266573034084
0.00343950636412
0.00393907529164
0.00424359613243
0.00439456682364
0.00443347384657
0.00440879699746
0.00436760476491
0.00433938906276
0.00433547430939
0.00435351441906
0.00437667857471
0.00437828838486
0.00432836137268
0.00418815737358
0.00390744655197
0.00342185768814
0.00265200413725
0.00129887778682
0.00130108192814
0.00266556584429
0.00343775151648
0.00393448568728
0.00424040597967
0.00439766822547
0.0044467266991
0.00443343554756
0.00440168433648
0.00437856971598
0.00437452649041
0.00438772071732
0.0044026211049
0.00439530347964
0.00433735466124
0.00419093084171
0.00390681883941
0.00342145524288
0.00265235580516
0.00129407499184
0.00129080517543
0.00265587119902
0.00342034042799
0.00390749567773
0.00421159080984
0.00437495863985
0.00443613722815
0.00443696029282
0.00441614575125
0.00439865753366
0.00439437178443
0.00440206922326
0.00440834791538
0.00439186277819
0.00432564894335
0.00417309084354
0.00388642185119
0.00340566770275
0.00264351706433
0.00128375418003
0.00126728756033
0.00262040300255
0.00336692573989
0.00383458728091
0.00413173719953
0.00429705088958
0.00436825612253
0.00438190180232
0.00437149563278
0.00435936632864
0.004355159714
0.00435851846095
0.00435804206936
0.0043344939063
0.0042624178735
0.00410667309099
0.00381996705295
0.00335400637518
0.00260922300942
0.00126055704518
0.0012200826324
0.00253617871857
0.00325098160968
0.00369419671091
0.00397179282218
0.00412988771603
0.00420454532998
0.00422644085712
0.00422382249676
0.00421614401816
0.0042125251124
0.00421327486434
0.00420887493698
0.00418219889277
0.00410906171773
0.00395671806859
0.00368220375625
0.00323968031546
0.00252638690959
0.00121398452752
0.00113563271102
0.00237263240086
0.00303622092158
0.00344508847114
0.00369372798003
0.00383351298409
0.00390409290907
0.00392713180277
0.00392789489084
0.00392293552521
0.00392014542095
0.00392012845927
0.00391532580973
0.00389041572383
0.00382138435474
0.00368282285647
0.00343472330315
0.00302648602212
0.00236435571253
0.00113037400886
0.000996825555643
0.00209062504261
0.00267625658411
0.00303592406942
0.00325006778769
0.00336516841584
0.00341741340256
0.00343316714321
0.00343273485611
0.00342867955492
0.00342667638784
0.00342721854486
0.00342523418742
0.00340834757593
0.00335590778028
0.00324090889529
0.00302704000058
0.00266801059446
0.00208383108349
0.000992517639534
0.000780023439857
0.00162788065329
0.00209077939953
0.00237245898415
0.0025352852782
0.00261851310256
0.00265277955848
0.00266099199063
0.0026594049843
0.00265659350709
0.00265523906796
0.00265560909523
0.00265532848389
0.00264599494399
0.00261120190253
0.00252778380525
0.0023651270352
0.00208408749701
0.001622558402
0.000777055720804
0.000476154886723
0.000778950800674
0.000995415656747
0.00113407280497
0.00121826194056
0.00126508722176
0.00128815654648
0.00129791299198
0.00130183778699
0.00130334107969
0.00130290773821
0.00130056625469
0.00129590497864
0.00128563227042
0.0012623270383
0.00121554343378
0.00113168610379
0.000993607435167
0.000777822648197
0.000475809933579
0.000511542040127
0.000878930667467
0.00113401908016
0.00129769030961
0.0014008262025
0.00146314295458
0.00149924520594
0.00151969519747
0.00153156001308
0.00153741152677
0.00153730316448
0.00153116548174
0.00151893780373
0.00149800766389
0.00146149763618
0.00139903818061
0.00129616217971
0.00113313544765
0.000878632193011
0.000511341092448
0.000880070041222
0.00186793152545
0.00239533778775
0.002721759816
0.00291858627582
0.00302835279476
0.00308385025253
0.00310897550483
0.00311978137555
0.00312366732944
0.00312247187637
0.0031163794931
0.00310387688436
0.00307757893839
0.00302142277081
0.00291139258296
0.00271480510318
0.00238905505017
0.00186286490835
0.000876793889295
0.00113564097631
0.00239589073716
0.00304722280822
0.00344789436636
0.00369091366864
0.00382767338338
0.00389612837143
0.0039237899773
0.0039319182611
0.00393244687595
0.0039300660354
0.00392530589611
0.00391363255072
0.00388390548204
0.00381623587575
0.00368065235715
0.00343826366825
0.00303847878487
0.00238861901559
0.00113067793089
0.00129960071741
0.00272323662546
0.00344890693119
0.00389061798989
0.00416143937407
0.0043181747058
0.00439536503002
0.00442315561203
0.00442727925308
0.00442386283543
0.00441990792986
0.00441588431223
0.00440445925731
0.00437151912273
0.00429531573913
0.00414389575611
0.00387761637593
0.00343727444956
0.00271341393476
0.00129334567233
0.00140313178204
0.00292125745034
0.00369326984601
0.00416305708244
0.0044573667786
0.00462389067637
0.00469992609542
0.00472085416988
0.00471760871211
0.00470930895052
0.00470395833622
0.0047013447105
0.00469191785544
0.00465905529726
0.00458012159609
0.00442303554618
0.00414224537184
0.00367822592664
0.00290861302565
0.00139565834243
0.00146584477828
0.00303237295558
0.00383186701596
0.00432524757267
0.00463330819696
0.00480038765434
0.00486667749506
0.00487432717245
0.00486076443246