/*--------------------------------*- C++ -*----------------------------------*\
| =========                 |                                                 |
| \\      /  F ield         | OpenFOAM: The Open Source CFD Toolbox           |
|  \\    /   O peration     | Version:  3.0.1                                 |
|   \\  /    A nd           | Web:      www.OpenFOAM.org                      |
|    \\/     M anipulation  |                                                 |
\*---------------------------------------------------------------------------*/
FoamFile
{
    version     2.0;
    format      ascii;
    class       volScalarField;
    location    "4.5";
    object      k_0;
}
// * * * * * * * * * * * * * * * * * * * * * * * * * * * * * * * * * * * * * //

dimensions      [0 2 -2 0 0 0 0];

internalField   nonuniform List<scalar> 
7968
(
0.000681693344233
0.000761859407106
0.000824852464947
0.000863619641366
0.000885233214109
0.000895514868333
0.00089883265078
0.000898424574262
0.000897446229906
0.000896507039928
0.000897042928381
0.000898562203126
0.000900091147075
0.000900179276309
0.000896120104296
0.000885003908147
0.000862736200768
0.000823670122878
0.000760843247121
0.000681240352432
0.000761765475177
0.00109538054079
0.00132278752921
0.0014633034233
0.00154715472957
0.00159313950599
0.00161474287445
0.00162201172639
0.00162288587177
0.00162281367544
0.00162464466447
0.00162765888309
0.00162818907522
0.0016205737463
0.00159731779429
0.00154901370956
0.00146300138004
0.00132110297531
0.0010934464544
0.000760758118309
0.000824757272078
0.0013228721592
0.00165751337121
0.001866475392
0.00199437332923
0.0020676675233
0.00210508529211
0.00212090008074
0.00212611125194
0.00212807003202
0.0021303351924
0.0021321710831
0.00212898758766
0.00211306863312
0.00207368140752
0.00199745444991
0.00186676208869
0.00165596690369
0.00132083412382
0.000823431883094
0.000863714851614
0.00146386468704
0.00186702450617
0.00212039347838
0.00227713962805
0.00236861600925
0.00241732797463
0.00244038848856
0.00245356567335
0.00245920334981
0.00246073396719
0.00245781699704
0.00244934098194
0.0024271507086
0.00237676505437
0.00228204583651
0.0021219999403
0.0018663492859
0.00146237113922
0.000862307677335
0.000885624649917
0.0015483314723
0.00199562242309
0.00227786705501
0.00245327393184
0.00255744570712
0.0026223887988
0.00265783721344
0.0026740649614
0.00268038124101
0.00268175223155
0.00267774600925
0.00266302929407
0.00262834497321
0.00256745426995
0.00246063638485
0.00228157110176
0.00199655048539
0.00154796980555
0.000884342403093
0.000896175510849
0.0015947413538
0.00206939351125
0.00236985509815
0.00255793267111
0.00268169403906
0.00275559679239
0.00279335686856
0.00280976444039
0.00281582325322
0.00281715537681
0.0028133038601
0.00279812170656
0.00276070126406
0.00268731692717
0.00256738658186
0.0023761066482
0.00207246621448
0.00159597694138
0.000895223776478
0.000899640284545
0.00161635951249
0.00210679996489
0.002418555876
0.00262246204897
0.00275570675302
0.00283162469476
0.00286898802155
0.00288429171734
0.00288957610594
0.00289099101691
0.00288799396136
0.00287388771442
0.00283675506065
0.00276089952675
0.00262865378263
0.00242707807998
0.00211216617707
0.00161938453369
0.000899169753056
0.000899146866048
0.00162311707492
0.00212197087276
0.0024408748542
0.0026577340327
0.00279353592291
0.00286911366079
0.00290488866545
0.0029185013163
0.00292284677447
0.00292449156341
0.00292272441329
0.00291033464881
0.0028746727567
0.00279908319096
0.00266424276464
0.00245095913635
0.00212937295361
0.00162790013229
0.000899569083617
0.000897701151413
0.00162286207582
0.00212587301981
0.00245223785395
0.00267359637513
0.00280980975866
0.00288432651532
0.00291836939001
0.00293042770009
0.00293401355709
0.00293601153477
0.00293544162242
0.0029246632927
0.0028905441974
0.0028158812869
0.00268057093261
0.00246140690442
0.00213491114462
0.00162915850839
0.000899015580759
0.000896257191437
0.00162117127723
0.00212605305599
0.00245703475843
0.00267945378421
0.00281559088466
0.00288937186752
0.0029224034683
0.0029336050639
0.0029368008373
0.00293913345395
0.00293931865115
0.00292942751896
0.00289614982688
0.00282206046949
0.00268680652644
0.00246664140863
0.00213611248877
0.00162838707939
0.000898055363405
0.00089602413105
0.00162128187829
0.00212652411389
0.00245788247187
0.00268049603488
0.00281679910994
0.00289076506756
0.00292403258417
0.00293551372262
0.00293893137803
0.00294129988959
0.00294135825794
0.00293122999459
0.00289765738519
0.00282327298055
0.00268776650594
0.00246742147862
0.00213662243933
0.00162849098753
0.000897627137644
0.000897272179741
0.00162314686086
0.00212712115103
0.0024545998147
0.00267654019752
0.00281324183663
0.00288828635288
0.00292297193605
0.00293575504983
0.00293990618978
0.00294204357081
0.00294115773409
0.00292971752872
0.00289475210283
0.00281922473577
0.00268317827913
0.00246353280357
0.00213599480372
0.00162935038867
0.000898389246066
0.000898603026075
0.00162333111516
0.00212351917752
0.00244421217494
0.00266211717468
0.00279873857104
0.00287515937162
0.00291189434
0.00292652291629
0.00293164290261
0.00293350479273
0.00293128741696
0.00291789418232
0.00288089246289
0.00280390955313
0.00266785624553
0.00245340286548
0.00212987613
0.00162741597378
0.000898707474439
0.000898912178836
0.00161614023935
0.0021080210089
0.00242205072788
0.00262763099279
0.00276200639994
0.00283905247003
0.00287762291653
0.00289411957926
0.00290028631973
0.00290194841596
0.00289840541285
0.0028830298363
0.00284415651935
0.00276644841822
0.00263245742639
0.00242804118612
0.00211073237356
0.00161722143104
0.000897427758338
0.000895244391057
0.00159383926185
0.00206974159057
0.0023725807428
0.002563408576
0.00268838443605
0.00276363956141
0.00280282364495
0.00282057629053
0.00282760274357
0.002829208082
0.00282473522976
0.00280809412851
0.0027686399729
0.00269295095493
0.00256987152165
0.00237442584704
0.00206826225744
0.0015915895339
0.000892648356293
0.000884579734674
0.00154674363781
0.00199485584458
0.00227920773623
0.00245741161834
0.00256443139364
0.00263041649295
0.00266747748057
0.00268515689812
0.00269254609545
0.00269422995284
0.00268960863875
0.00267341297997
0.00263650966844
0.00257247570713
0.00246030387635
0.00227686805241
0.00198957127014
0.00154148897865
0.000881110195632
0.000862703989399
0.00146186073332
0.00186531067999
0.00212022852542
0.00227933218636
0.00237358633815
0.00242513015392
0.00245061530057
0.00246434688668
0.00247114362503
0.00247308080249
0.00247020766073
0.00246108435623
0.00243468389795
0.00237900514439
0.00227898794765
0.00211495107125
0.00185752694272
0.00145467225807
0.000858841392566
0.000823891358258
0.00132081059734
0.00165528140512
0.00186514375182
0.00199472451634
0.00207022717958
0.00211012960478
0.00212845584597
0.0021359410726
0.00213952419448
0.00214231833679
0.00214322456809
0.00213754740273
0.00211763132728
0.00207349381406
0.00199271690361
0.00185877092875
0.00164682188901
0.0013131983323
0.000820262520887
0.000761140495421
0.00109367144435
0.00132065619602
0.00146152445554
0.00154635081335
0.00159379052378
0.00161714884231
0.00162632376711
0.00162897571612
0.00163015225342
0.00163230720562
0.00163458135552
0.00163317329006
0.00162258460974
0.00159584792952
0.00154425910867
0.00145602742367
0.00131358281513
0.00108745275328
0.000758415497864
0.00068141610996
0.000761109816488
0.000823774273016
0.000862453768573
0.000884185565158
0.000894777545692
0.000898560116556
0.000898871745004
0.000898492028747
0.000897920476454
0.000898280781863
0.000899498627122
0.000900218952807
0.000899266682154
0.000894115544421
0.000882058831258
0.000859298080997
0.000820365239355
0.000758406800695
0.000680247475231
0.000757777343883
0.00107259250528
0.00129347513804
0.00143407508774
0.00152147578426
0.00157290521036
0.00160034819033
0.00161277918294
0.00161655824415
0.0016177129094
0.00161936948239
0.00162078865165
0.00161794252959
0.00160552581004
0.00157729204017
0.00152466703779
0.00143610008001
0.0012946089816
0.00107300008694
0.000757142130438
0.0010724230563
0.00220931251047
0.00279831778222
0.00317145019508
0.00340909257257
0.00355455070468
0.00363762706584
0.00368076812107
0.00370078336988
0.00370938083075
0.00371220961076
0.00370851510692
0.00369151709249
0.00364937148378
0.00356552832401
0.00341838315394
0.00317903233202
0.00280469972212
0.00221474608746
0.00107275978325
0.00129319791102
0.00279772907526
0.00357754932474
0.00408110293678
0.00440870382086
0.00461357345955
0.00473322374329
0.0047969676485
0.00482674961242
0.00483856777777
0.00484036004846
0.00483145266567
0.00480285686994
0.00473925600029
0.00461861810573
0.00441282531779
0.00408525267218
0.00358286277371
0.00280432152347
0.0012941340004
0.00143380229985
0.00317054513805
0.00408095598794
0.00467613724607
0.00506811968877
0.00531607771711
0.00546237692109
0.0055421245994
0.00557847201804
0.00559159134918
0.00559175238428
0.00557832787358
0.0055395750837
0.00546011881611
0.00531282803148
0.00506525712009
0.00467565479613
0.00408459461267
0.00317824960461
0.00143541667423
0.00152121790839
0.00340800346674
0.00440884368635
0.00506877424471
0.00550646946933
0.00578504584758
0.00594917896563
0.00603435931057
0.00607200948765
0.00608447723188
0.00608321861803
0.00606786393278
0.00602665168465
0.00593847511028
0.00577262009415
0.00549644782734
0.00506391720253
0.00441130285602
0.00341737328013
0.00152380504836
0.00157252721983
0.00355313173162
0.00461418888262
0.00531803745179
0.00578678108495
0.00608375363308
0.00625431494052
0.00634035783154
0.00637623573074
0.00638663208308
0.00638428246091
0.00636886788332
0.00632761746603
0.00623690961184
0.00606435506142
0.00577013358467
0.00530962250479
0.00461628168423
0.00356476960579
0.00157639344999
0.00159963384979
0.00363556610133
0.00473429846843
0.00546611410085
0.00595413381871
0.00625791118635
0.00642925198771
0.00651224539304
0.00654408523211
0.00655160442048
0.00654863539156
0.00653473172326
0.00649608407661
0.00640710988754
0.0062332310269
0.00593290184624
0.00545511635605
0.00473667728693
0.00364974909178
0.00160492869073
0.00161150207895
0.00367770557614
0.0047983585099
0.00554765925672
0.00604296021449
0.00634850978765
0.00651713224915
0.00659510163581
0.00662213217682
0.00662680834675
0.00662373432278
0.00661219197933
0.00657740542375
0.00649227958069
0.00632035937817
0.00601839274384
0.00553376342986
0.0048011949202
0.0036942671765
0.00161788531337
0.00161452862267
0.00369643681888
0.00482841394337
0.00558679684585
0.00608448698114
0.00638923482326
0.00655425951331
0.00662747887245
0.00665058241005
0.00665325706195
0.00665043722949
0.00664110392142
0.00660981861174
0.00652842511015
0.0063592861092
0.00605813858728
0.00557245653571
0.00483208615222
0.00371497335917
0.00162188445068
0.00161443715837
0.00370366478018
0.00484041182535
0.00560213668868
0.00610076681267
0.00640454477394
0.00656722650184
0.00663771495929
0.00665879933351
0.00666059392377
0.00665809232435
0.00665004004122
0.0066206625609
0.00654132019608
0.00637383250688
0.00607343747791
0.00558728773668
0.00484438233853
0.00372325644727
0.00162247030966
0.00161481348577
0.00370546295082
0.00484267926743
0.00560460807213
0.00610340244548
0.0064072499969
0.00657000123851
0.00664066559155
0.00666204188881
0.00666412084917
0.0066617619481
0.00665363177301
0.00662395943775
0.00654418509471
0.00637623023646
0.00607542609074
0.00558902453278
0.00484607525888
0.0037248859008
0.00162260743302
0.00161560551815
0.00370147908521
0.00483478938472
0.00559377614813
0.00609194931593
0.00639692194074
0.0065621482893
0.00663583133165
0.00665971401792
0.00666315406446
0.00666072070211
0.0066511601758
0.00661902678959
0.00653638493393
0.0063658689408
0.00606350528075
0.00557708558508
0.00483655940202
0.00371934344816
0.00162236255963
0.00161296752239
0.00368504874951
0.00480771295291
0.00555800502094
0.0060541170266
0.00636011616141
0.00652911640013
0.006607765709
0.00663586965089
0.00664159234397
0.00663902561412
0.00662709234702
0.00659100086051
0.00650386962492
0.00632971517342
0.00602577308867
0.0055400415275
0.00480705102411
0.00370009690121
0.001618229145
0.00160111896965
0.00364390424802
0.00474506300654
0.00547864321476
0.00596743513673
0.00627195860346
0.0064439526295
0.00652782107076
0.00656084808716
0.00656948547306
0.00656703281342
0.00655261278225
0.00651226497393
0.00642065811467
0.00624377657666
0.00594074935998
0.00546135196042
0.0047422313122
0.00365552418909
0.00160481760053
0.00157371820684
0.00356116053686
0.00462471249547
0.00533071835716
0.00580059901489
0.00609879067376
0.00627046301775
0.00635770901234
0.0063949664718
0.00640655457242
0.00640470713369
0.00638859661115
0.006345283563
0.00625136904761
0.00607511422437
0.00577758216184
0.00531459909231
0.00462026506475
0.00356929226727
0.00157530015087
0.00152197982516
0.00341476574563
0.00441788433127
0.00508022526353
0.00552002127688
0.00579982060624
0.00596588716689
0.0060527720411
0.00609225233486
0.00610613921483
0.00610539452615
0.00608912355319
0.00604547386379
0.00595353495986
0.00578334043604
0.00550287991622
0.00506717608343
0.00441329736218
0.0034202180267
0.0015218271024
0.00143418705494
0.00317561162642
0.00408787766541
0.0046854607737
0.00508006898554
0.00533050306897
0.00547915497807
0.00556057794211
0.00559973582679
0.00561466021919
0.00561540693032
0.00560071756812
0.0055594095764
0.00547582100157
0.0053234197864
0.00507086911083
0.00467760621356
0.00408510440439
0.00317981415916
0.00143306595175
0.00129332547292
0.00280112910382
0.00358228671566
0.00408797500435
0.00441830843041
0.00462616498489
0.00474885859573
0.00481555000988
0.00484819195072
0.00486205999432
0.00486459979286
0.00485462767057
0.00482313995652
0.00475510366078
0.00462912222732
0.00441818248242
0.00408686396543
0.00358302546016
0.00280555994079
0.00129207432185
0.00107234738649
0.00221135363996
0.00280118564005
0.00317595834535
0.00341596655489
0.00356425499128
0.0036503845799
0.00369658905432
0.00371943258527
0.00373011705105
0.00373382623152
0.00372940827385
0.00371000167041
0.00366402101021
0.00357555634199
0.00342398054949
0.00318143122973
0.0028058682451
0.00221672295851
0.00107136406918
0.000757336932061
0.00107224611353
0.00129315524988
0.00143406548663
0.00152211830549
0.00157451218827
0.0016031572503
0.00161679070738
0.00162186706262
0.00162397727931
0.00162579200169
0.00162661329649
0.00162263821788
0.00160840843685
0.00157807694342
0.0015236127348
0.0014339547637
0.00129237549981
0.00107142810327
0.000755603772883
0.000818310475573
0.00128691897535
0.00161611717645
0.00183016389473
0.00196715939408
0.00205074148743
0.0020976106298
0.00212078873677
0.00213048471919
0.00213407766301
0.00213545713647
0.00213400732387
0.00212522844864
0.00210183805935
0.00205413822505
0.00196975482877
0.00183246179195
0.00161856214779
0.00128901021117
0.000817699652746
0.00128679496726
0.00278500013408
0.00357252996472
0.00408511278474
0.0044204151248
0.00463067397811
0.00475334323158
0.00481798766797
0.00484765365751
0.00485842729272
0.00485828026709
0.0048468565279
0.00481561161133
0.00474873806546
0.00462432425003
0.00441416669791
0.00408174404781
0.00357443579696
0.0027922072418
0.0012886503061
0.00161570773777
0.00357159770345
0.00459170802887
0.00526606827939
0.00571579811593
0.00600260152817
0.00617196628004
0.00626131448591
0.00630064316563
0.0063119449154
0.00630643989651
0.0062844342221
0.00623503553926
0.00613771010233
0.00596458356983
0.00568000643904
0.00523923642483
0.0045791185372
0.00357405419272
0.00161791481181
0.00182962734144
0.00408430357956
0.00526689337387
0.00605555020132
0.00658668491949
0.00692787320067
0.00712965276048
0.00723506070594
0.00727790266507
0.0072860840391
0.00727427498198
0.0072432601833
0.00718014898222
0.00706033260722
0.00685316016474
0.00651714279593
0.00600196130507
0.00523739896275
0.00408052819971
0.00183156072897
0.00196660523377
0.00442064666605
0.00571941597686
0.00659065552094
0.00718006712044
0.00755934499943
0.00777887476849
0.00788692683251
0.00792562906342
0.00792749092154
0.00790982830877
0.00787374945049
0.00780450459993
0.00767469640539
0.00744661054572
0.00707689733952
0.0065111721897
0.00567407536226
0.00441148302968
0.00196854324577
0.0020501243392
0.00463250651005
0.00601073267591
0.00693896626187
0.00756811472645
0.00796669189816
0.00819069615672
0.00829194829047
0.00832018213284
0.00831338574724
0.00829100447189
0.00825401532252
0.00818527292545
0.00805425043927
0.00782058888236
0.00743352547543
0.00683653090992
0.00595217187406
0.00461967134504
0.0020526381767
0.00209680104522
0.00475710012367
0.00618602131647
0.00715057633443
0.00780104191352
0.00820640885811
0.00842365506214
0.00851035378106
0.00852431894631
0.00850827296609
0.00848303241341
0.00844889158573
0.00838615807827
0.00826116267193
0.00803105447401
0.00764194294637
0.00702924856449
0.0061172051791
0.00474216312851
0.00210032619057
0.00211963840341
0.00482393076339
0.00628253531072
0.00726878094783
0.00792637068652
0.00832875578341
0.00853294409556
0.00860282325374
0.00860270418521
0.00857876623896
0.008552534316
0.00852336969697
0.00846943121195
0.00835427648567
0.00813248157108
0.0077480455696
0.00713268464984
0.00620615747589
0.00480788581315
0.00212429032906
0.00212885977823
0.00485605512064
0.00632988126955
0.00732572523492
0.00798428507536
0.00837995217085
0.00857156757387
0.00862762711343
0.0086168970438
0.00858756348734
0.00856140555065
0.00853698546992
0.00849104228147
0.0083851850252
0.00817196689994
0.00779357852348
0.00717975718154
0.00624823905157
0.00483926322115
0.00213438107313
0.00213190927469
0.00486969898682
0.00634985362323
0.00734868225698
0.00800593929477
0.0083964081551
0.00858026877686
0.00862854183165
0.00861218750949
0.00858018559421
0.00855430599345
0.00853264331167
0.00849122370047
0.00839073854454
0.00818276424431
0.00780851056295
0.00719674950015
0.00626459388936
0.00485199846944
0.00213767964432
0.00213295167348
0.00487293725894
0.00635329962136
0.00735153221821
0.00800778513639
0.008397058116
0.00857979472284
0.00862736247202
0.00861078214413
0.00857881298106
0.00855300683358
0.00853136587507
0.0084898913685
0.00838941303693
0.00818173180845
0.00780810577327
0.00719714068351
0.00626589337869
0.00485398537968
0.00213814674037
0.00213174517725
0.00486515037509
0.00633954407405
0.00733358675301
0.00798918872134
0.00838128042237
0.0085693969719
0.00862312313413
0.00861152807993
0.00858220412821
0.00855628734368
0.00853204583687
0.00848612322758
0.00838050231724
0.00816833121592
0.0077918950654
0.00718044241499
0.00625157230347
0.00484464296013
0.00213566678674
0.00212376810885
0.00483723172115
0.006296507401
0.00727992302725
0.00793264320026
0.00832895235422
0.00852694041653
0.00859243257475
0.0085904547763
0.00856632889441
0.00854056666307
0.00851204117946
0.00845873044371
0.00834469544938
0.00812523138591
0.00774426114686
0.00713272505058
0.00621024548805
0.00481526517666
0.00212581837439
0.00210134868908
0.00477232487883
0.0062017859924
0.00716312406385
0.00780737188722
0.0082046641767
0.00841332649737
0.00849356532501
0.00850439877492
0.00848769721942
0.0084631049244
0.00843029853559
0.00836929717188
0.00824684548152
0.00802056712214
0.00763606836087
0.00702810917937
0.00612074986398
0.00474992115774
0.00210131789895
0.0020543476944
0.00464744703561
0.00602603299243
0.00695146270556
0.00757443751664
0.00796503866637
0.0081801257322
0.00827403961757
0.00829825693255
0.00829024863943
0.00826846073868
0.0082332050093
0.00816693758285
0.00803927701682
0.00780974434016
0.00742704686656
0.00683423223038
0.00595445291846
0.00462658994448
0.00205259524098
0.00197006732075
0.00443377059657
0.00573287315799
0.00660223490507
0.00718753723251
0.0075605036947
0.00777350075883
0.00787579545193
0.00791087519478
0.00791138916609
0.00789409881638
0.00785945414237
0.00779219946424
0.00766480570111
0.00743916602626
0.00707179717221
0.00650882904015
0.00567536460001
0.00441719525255
0.00196754267349
0.00183222973081
0.00409498193022
0.0052781937101
0.00606635144393
0.00659586898647
0.00693421927496
0.00713217115701
0.00723462396505
0.00727562729129
0.00728319945522
0.00727177945687
0.00724148092244
0.0071786731047
0.00705957567052
0.00685216396015
0.00651590839387
0.00600129344545
0.00523876143201
0.00408548801967
0.0018301704462
0.00161750300542
0.0035797980138
0.0046010621398
0.00527643793823
0.00572700977788
0.0060142336533
0.00618363505159
0.00627309556584
0.00631280699162
0.0063246939462
0.0063197698955
0.00629769733764
0.00624713256295
0.00614768320504
0.00597162709615
0.00568420645644
0.00524172420974
0.00458185988625
0.00357917140738
0.00161686130616
0.0012876940312
0.00279074526624
0.00357983672873
0.00409451344358
0.00443233760247
0.00464522196051
0.00477041940134
0.00483746050616
0.00486926822825
0.00488169304361
0.00488239255245
0.00487051382727
0.00483719487862
0.00476679213366
0.0046379331805
0.00442342858681
0.00408786575479
0.00357946007591
0.00279825282685
0.00128810077616
0.000817816353657
0.00128751004927
0.00161728481011
0.00183210518605
0.00197020373789
0.00205515216224
0.00210355543824
0.00212833037926
0.00213947901354
0.00214406566322
0.00214568699113
0.00214361601301
0.00213327371502
0.00210753886684
0.00205713277981
0.00197033326926
0.00183153824862
0.00161738077391
0.00128830775813
0.000815626682506
0.000860355357573
0.00144135424166
0.00185570144926
0.00213039039348
0.00230874416997
0.00241801984678
0.00247861640101
0.00250742019188
0.00251817826931
0.00252065631937
0.00251981906783
0.00251523652863
0.00250156717482
0.00246947012083
0.00240644636253
0.00229697999026
0.00212144227288
0.00185189810702
0.00144218614187
0.000859695535772
0.00144157128076
0.00322019534319
0.00418470991738
0.00482848662317
0.00525580401086
0.00552345092925
0.00567558492312
0.00574980128121
0.00577702377342
0.00577910993629
0.00576727505234
0.00574222677618
0.00569385901765
0.0056024898923
0.0054409271151
0.00517514642886
0.00476281316734
0.0041449294255
0.00320971896976
0.00144171600486
0.00185578098141
0.00418482920095
0.00543390708899
0.00627873900418
0.00684943676049
0.00721172211743
0.00741851876325
0.007516599717
0.00754718928104
0.0075404519139
0.0075116871609
0.00746415816991
0.0073857983313
0.00725124984234
0.00702652948352
0.00666937067725
0.00612871595284
0.00533441403221
0.00414417778918
0.0018510335295
0.00213107480379
0.0048322996149
0.00628442312219
0.00727165480276
0.00794259019422
0.00836994815078
0.00861327370799
0.00872056433754
0.00874272696496
0.00871970933592
0.00867325987222
0.00860693486792
0.00850573244145
0.00834021462982
0.00807452514346
0.00765817083151
0.00703331207541
0.00612173965179
0.00475851532933
0.00211986369217
0.00231069172925
0.00526641729871
0.00686658350818
0.0079569348981
0.00870013435942
0.00917289150635
0.00942587897289
0.00952000542231
0.00951970683521
0.00947509917319
0.00941247929071
0.00933532947062
0.00922512179277
0.00904822323177
0.00876203919053
0.0083126404656
0.00763598309268
0.00664593514555
0.00516303316246
0.0022938990386
0.00242154940959
0.0055431953289
0.0072456064016
0.00840758191791
0.00920138791967
0.00968737996939
0.00992289710141
0.0099834376509
0.00994947162681
0.0098809316366
0.00980699185464
0.00972939447131
0.00962503872254
0.0094544610402
0.00916984810126
0.0087132888918
0.00801283099016
0.0069762920244
0.00541647598444
0.00240101637697
0.00248388147195
0.00570632464587
0.00747388774705
0.00868378642015
0.00949834882149
0.00997186851309
0.0101698779559
0.0101843054375
0.0101122791953
0.0100221355896
0.00994372704537
0.00987538875435
0.00978883011474
0.00963836347558
0.00937096676732
0.00892452584138
0.00822301837752
0.00716592301392
0.00556245517128
0.00246128310684
0.00251456704641
0.0057932475041
0.00759764711405
0.00883209870123
0.00964681825312
0.0100940769091
0.0102479730826
0.0102161382733
0.0101107856398
0.0100051809138
0.00992794729517
0.00987361913357
0.0098094310099
0.00968423390033
0.00944063828976
0.00901285797546
0.00832219720394
0.00726107037259
0.00563717151266
0.00249089562577
0.00252738406112
0.00583480117676
0.0076572187016
0.00889917283404
0.00970451107722
0.0101253821596
0.0102426635
0.010176396865
0.0100486494522
0.00993431834389
0.00986019430064
0.00981803987254
0.00977227621947
0.00966834263024
0.00944571042493
0.00903597848978
0.00835778906865
0.00730049700163
0.00566999000457
0.00250285901897
0.00253218445235
0.00585261965508
0.0076819928416
0.00892282260414
0.0097188928458
0.010122363002
0.010218624475
0.0101345001808
0.009996174281
0.00987830100574
0.00980643007108
0.00977096951756
0.00973498160039
0.00964257059438
0.00943203266425
0.00903370696928
0.00836462434536
0.00731281877863
0.00568183411111
0.0025065716878
0.00253413423151
0.00585715306898
0.00768475906461
0.00892229580216
0.00971404164355
0.0101129239256
0.010205849455
0.0101204304099
0.00998223138278
0.00986492020504
0.00979357992876
0.00975847732873
0.00972263663355
0.00963060483861
0.00942141300363
0.00902564487054
0.00835991779612
0.00731144394452
0.00568308548406
0.0025070946288
0.00253269911576
0.0058471597128
0.00766462049267
0.0088962491692
0.00968848111855
0.0100950405171
0.0102012296497
0.0101298694423
0.0100017343386
0.00988888533162
0.00981659687643
0.00977609452299
0.00973165388531
0.00962995347378
0.00941236728823
0.00901095869433
0.00834309323049
0.00729583608742
0.00567302973966
0.00250409314824
0.00252201164997
0.00581012161358
0.0076060695602
0.0088229595974
0.0096155314533
0.0100380499227
0.010171218798
0.0101278728122
0.010019582586
0.00991553953101
0.00984180087619
0.0097918365837
0.00973254017621
0.00961435849369
0.00938205200566
0.00896984324504
0.008296827577
0.00725189010525
0.00564033263668
0.00249197327541
0.00249180079824
0.00572344959082
0.00747899373778
0.00866549970745
0.00945044519503
0.00988988595188
0.0100572357374
0.0100516801435
0.00997162368607
0.00988151180426
0.0098081319094
0.00974826573806
0.00967287781242
0.00953726345722
0.00928941960629
0.00886620759229
0.00818859358028
0.00715173564652
0.00556407558033
0.00246120101001
0.00242853685506
0.00555730712526
0.00724534161973
0.00838363750902
0.00914403686678
0.00959152093657
0.00979046128208
0.00982449966908
0.00977719727782
0.00970610162738
0.00963771852763
0.00957205550799
0.00948472933641
0.0093359758081
0.0090772722838
0.00864837387893
0.0079737047186
0.00695844013314
0.00541594599188
0.00239925489823
0.00231612209229
0.00527662168722
0.006862122421
0.0079309947961
0.0086461305047
0.00908421317074
0.00930232953149
0.0093692714164
0.00935357683056
0.00930450580325
0.00924669737584
0.00918211425787
0.00909056789986
0.00893714407758
0.00867696400903
0.00825300201053
0.00759858845647
0.00662775618647
0.00516120396766
0.00229076873331
0.00213508085996
0.00484003144211
0.00628001054255
0.00725066641503
0.00790191107003
0.00830678259141
0.00852539925386
0.00861204296293
0.00862119985926
0.00859358311883
0.00855046086162
0.00849414343533
0.00840781733213
0.0082604626151
0.00801308511681
0.00761381151079
0.00700457740388
0.00610741200279
0.00475722141114
0.00211631662032
0.00185869151958
0.00419214485355
0.00543409843288
0.00626953634968
0.00682961492114
0.00718036683986
0.007375489014
0.00746354956075
0.00748712212587
0.00747756531975
0.00745111162182
0.00740953285269
0.00733891691239
0.00721280944325
0.00699625362594
0.00664683372814
0.00611375440977
0.00532728238411
0.00414528817766
0.00184813541458
0.00144323574978
0.00322749426947
0.00419070332304
0.00483270450159
0.00525817886431
0.00552378483476
0.00567373783562
0.00574607683873
0.00577225635952
0.00577455593497
0.00576423715611
0.00574123906007
0.00569444628153
0.00560358347087
0.00544151948294
0.00517495088188
0.00476250040323
0.00414605266842
0.00321415208109
0.00143979403126
0.0008598653307
0.00144287814713
0.00185805689237
0.00213362093141
0.002313064307
0.00242351577923
0.0024852743148
0.0025151800862
0.00252686555878
0.00252997335392
0.00252932176162
0.00252423187564
0.00250904009626
0.00247444445983
0.0024083985097
0.00229617504658
0.00211892577848
0.00184919064585
0.00144032902374
0.000856514473832
0.000895312853315
0.00158763366971
0.00209365378217
0.00243656971442
0.00266101781672
0.00279607049614
0.00286611470789
0.00289358420272
0.00289760978417
0.00289168760667
0.00288276963543
0.00287077982543
0.00284937189393
0.00280680630753
0.00272738556545
0.00259245649178
0.00237950363848
0.00205753642315
0.00157502271785
0.000893662120455
0.00158882722377
0.00368060557882
0.00487312649574
0.00569548288299
0.00624736304562
0.00658615901939
0.00676432660968
0.0068322963132
0.00683410002056
0.00680139084834
0.00675198948845
0.00668899419096
0.00660166573902
0.00646626492398
0.00624985567073
0.00591278503837
0.0054078055406
0.0046715562548
0.00358451170977
0.00157444181333
0.00209615963808
0.00487822531579
0.00644795114802
0.00754202990974
0.00828652853468
0.00874887688448
0.00899203606248
0.00907626075219
0.00906286943202
0.00899455135052
0.00889862559621
0.0087823382785
0.00863556331818
0.00842812741703
0.0081209898283
0.00766416217436
0.00699987239063
0.00605284336687
0.00466818654638
0.0020560253336
0.00244297522379
0.00571514359868
0.00756119143235
0.00884881764735
0.0097309247105
0.0102787892363
0.0105561442545
0.0106262302789
0.0105703079508
0.0104533431571
0.0103113101622
0.0101534942908
0.00996371924316
0.00970820467502
0.00934449258379
0.00881708036489
0.00805671363136
0.00697440600518
0.00538951425315
0.00237500629408
0.00267347228146
0.00628966546125
0.00833874291322
0.00977082687948
0.010754361528
0.0113434338832
0.0115945427801
0.0116022107342
0.0114768001775
0.0113030388484
0.0111235938259
0.0109457372339
0.0107462097918
0.0104824674619
0.0101038257422
0.00954913107319
0.00874336957297
0.00758156817805
0.00586286530274
0.00258132181609
0.00281578163798
0.00665746859445
0.00884752586713
0.0103841726743
0.0114216517017
0.0119863710771
0.0121527540868
0.0120536283947
0.0118386801506
0.0116102175052
0.0114123293547
0.0112444098932
0.0110720800658
0.0108396853338
0.0104871309847
0.00994782088641
0.00913897818302
0.00794687071089
0.00615062501551
0.00270561583249
0.00289390671063
0.00687034204456
0.00915159504202
0.0107540930207