/*--------------------------------*- C++ -*----------------------------------*\
| =========                 |                                                 |
| \\      /  F ield         | OpenFOAM: The Open Source CFD Toolbox           |
|  \\    /   O peration     | Version:  3.0.1                                 |
|   \\  /    A nd           | Web:      www.OpenFOAM.org                      |
|    \\/     M anipulation  |                                                 |
\*---------------------------------------------------------------------------*/
FoamFile
{
    version     2.0;
    format      ascii;
    class       surfaceScalarField;
    location    "4.5";
    object      meshPhiCN_0;
}
// * * * * * * * * * * * * * * * * * * * * * * * * * * * * * * * * * * * * * //

dimensions      [0 3 -1 0 0 0 0];

internalField   nonuniform List<scalar> 
22672
(
0
0
0
0
0
0
0
0
0
0
0
0
0
0
0
0
0
0
0
0
0
0
0
0
0
0
0
0
0
0
0
0
0
0
0
0
0
0
0
0
0
0
0
0
0
0
0
0
0
0
0
0
0
0
0
0
0
0
0
0
0
0
0
0
0
0
0
0
0
0
0
0
0
0
0
0
0
0
0
0
0
0
0
0
0
0
0
0
0
0
0
0
0
0
0
0
0
0
0
0
0
0
0
0
0
0
0
0
0
0
0
0
0
0
0
0
0
0
0
0
0
0
0
0
0
0
0
0
0
0
0
0
0
0
0
0
0
0
0
0
0
0
0
0
0
0
0
0
0
0
0
0
0
0
0
0
0
0
0
0
0
0
0
0
0
0
0
0
0
0
0
0
0
0
0
0
0
0
0
0
0
0
0
0
0
0
0
0
0
0
0
0
0
0
0
0
0
0
0
0
0
0
0
0
0
0
0
0
0
0
0
0
0
0
0
0
0
0
0
0
0
0
0
0
0
0
0
0
0
0
0
0
0
0
0
0
0
0
0
0
0
0
0
0
0
0
0
0
0
0
0
0
0
0
0
0
0
0
0
0
0
0
0
0
0
0
0
0
0
0
0
0
0
0
0
0
0
0
0
0
0
0
0
0
0
0
0
0
0
0
0
0
0
0
0
0
0
0
0
0
0
0
0
0
0
0
0
0
0
0
0
0
0
0
0
0
0
0
0
0
0
0
0
0
0
0
0
0
0
0
0
0
0
0
0
0
0
0
0
0
0
0
0
0
0
0
0
0
0
0
0
0
0
0
0
0
0
0
0
0
0
0
0
0
0
0
0
0
0
0
0
0
0
0
0
0
0
0
0
0
0
0
0
0
0
0
0
0
0
0
0
0
0
0
0
0
0
0
0
0
0
0
0
0
0
0
0
0
0
0
0
0
0
0
0
0
0
0
0
0
0
0
0
0
0
0
0
0
0
0
0
0
0
0
0
0
0
0
0
0
0
0
0
0
0
0
0
0
0
0
0
0
0
0
0
0
0
0
0
0
0
0
0
0
0
0
0
0
0
0
0
0
0
0
0
0
0
0
0
0
0
0
0
0
0
0
0
0
0
0
0
0
0
0
0
0
0
0
0
0
0
0
0
0
0
0
0
0
0
0
0
0
0
0
0
0
0
0
0
0
0
0
0
0
0
0
0
0
0
0
0
0
0
0
0
0
0
0
0
0
0
0
0
0
0
0
0
0
0
0
0
0
0
0
0
0
0
0
0
0
0
0
0
0
0
0
0
0
0
0
0
0
0
0
0
0
0
0
0
0
0
0
0
0
0
0
0
0
0
0
0
0
0
0
0
0
0
0
0
0
0
0
0
0
0
0
0
0
0
0
0
0
0
0
0
0
0
0
0
0
0
0
0
0
0
0
0
0
0
0
0
0
0
0
0
0
0
0
0
0
0
0
0
0
0
0
0
0
0
0
0
0
0
0
0
0
0
0
0
0
0
0
0
0
0
0
0
0
0
0
0
0
0
0
0
0
0
0
0
0
0
0
0
0
0
0
0
0
0
0
0
0
0
0
0
0
0
0
0
0
0
0
0
0
0
0
0
0
0
0
0
0
0
0
0
0
0
0
0
0
0
0
0
0
0
0
0
0
0
0
0
0
0
0
0
0
0
0
0
0
0
0
0
0
0
0
0
0
0
0
0
0
0
0
0
0
0
0
0
0
0
0
0
0
0
0
0
0
0
0
0
0
0
0
0
0
0
0
0
0
0
0
0
0
0
0
0
0
0
0
0
0
0
0
0
0
0
0
0
0
0
0
0
0
0
0
0
0
0
0
0
0
0
0
0
0
0
0
0
0
0
0
0
0
0
0
0
0
0
0
0
0
0
0
0
0
0
0
0
0
0
0
0
0
0
0
0
0
0
0
0
0
0
0
0
0
0
0
0
0
0
0
0
0
0
0
0
0
0
0
0
0
0
0
0
0
0
0
0
0
0
0
0
0
0
0
0
0
0
0
0
0
0
0
0
0
0
0
0
0
0
0
0
0
0
0
0
0
0
0
0
0
0
0
0
0
0
0
0
0
0
0
0
0
0
0
0
0
0
0
0
0
0
0
0
0
0
0
0
0
0
0
0
0
0
0
0
0
0
0
0
0
0
0
0
0
0
0
0
0
0
0
0
0
0
0
0
0
0
0
0
0
0
0
0
0
0
0
0
0
0
0
0
0
0
0
0
0
0
0
0
0
0
0
0
0
0
0
0
0
0
0
0
0
0
0
0
0
0
0
0
0
0
0
0
0
0
0
0
0
0
0
0
0
0
0
0
0
0
0
0
0
0
0
0
0
0
0
0
0
0
0
0
0
0
0
0
0
0
0
0
0
0
0
0
0
0
0
0
0
0
0
0
0
0
0
0
0
0
0
0
0
0
0
0
0
0
0
0
0
0
0
0
0
0
0
0
0
0
0
0
0
0
0
0
0
0
0
0
0
0
0
0
0
0
0
0
0
0
0
0
0
0
0
0
0
0
0
0
0
0
0
0
0
0
0
0
0
0
0
0
0
0
0
0
0
0
0
0
0
0
0
0
0
0
0
0
0
0
0
0
0
0
0
0
0
0
0
0
0
0
0
0
0
0
0
0
0
0
0
0
0
0
0
0
0
0
0
0
0
0
0
0
0
0
0
0
0
0
0
0
0
0
0
0
0
0
0
0
0
0
0
0
0
0
0
0
0
0
0
0
0
0
0
0
0
0
0
0
0
0
0
0
0
0
0
0
0
0
0
0
0
0
0
0
0
0
0
0
0
0
0
0
0
0
0
0
0
0
0
0
0
0
0
0
0
0
0
0
0
0
0
0
0
0
0
0
0
0
0
0
0
0
0
0
0
0
0
0
0
0
0
0
0
0
0
0
0
0
0
0
0
0
0
0
0
0
0
0
0
0
0
0
0
0
0
0
0
0
0
0
0
0
0
0
0
0
0
0
0
0
0
0
0
0
0
0
0
0
0
0
0
0
0
0
0
0
0
0
0
0
0
0
0
0
0
0
0
0
0
0
0
0
0
0
0
0
0
0
0
0
0
0
0
0
0
0
0
0
0
0
0
0
0
0
0
0
0
0
0
0
0
0
0
0
0
0
0
0
0
0
0
0
0
0
0
0
0
0
0
0
0
0
0
0
0
0
0
0
0
0
0
0
0
0
0
0
0
0
0
0
0
0
0
0
0
0
0
0
0
0
0
0
0
0
0
0
0
0
0
0
0
0
0
0
0
0
0
0
0
0
0
0
0
0
0
0
0
0
0
0
0
0
0
0
0
0
0
0
0
0
0
0
0
0
0
0
0
0
0
0
0
0
0
0
0
0
0
0
0
0
0
0
0
0
0
0
0
0
0
0
0
0
0
0
0
0
0
0
0
0
0
0
0
0
0
0
0
0
0
0
0
0
0
0
0
0
0
0
0
0
0
0
0
0
0
0
0
0
0
0
0
0
0
0
0
0
0
0
0
0
0
0
0
0
0
0
0
0
0
0
0
0
0
0
0
0
0
0
0
0
0
0
0
0
0
0
0
0
0
0
0
0
0
0
0
0
0
0
0
0
0
0
0
0
0
0
0
0
0
0
0
0
0
0
0
0
0
0
0
0
0
0
0
0
0
0
0
0
0
0
0
0
0
0
0
0
0
0
0
0
0
0
0
0
0
0
0
0
0
0
0
0
0
0
0
0
0
0
0
0
0
0
0
0
0
0
0
0
0
0
0
0
0
0
0
0
0
0
0
0
0
0
0
0
0
0
0
0
0
0
0
0
0
0
0
0
0
0
0
0
0
0
0
0
0
0
0
0
0
0
0
0
0
0
0
0
0
0
0
0
0
0
0
0
0
0
0
0
0
0
0
0
0
0
0
0
0
0
0
0
0
0
0
0
0
0
0
0
0
0
0
0
0
0
0
0
0
0
0
0
0
0
0
0
0
0
0
0
0
0
0
0
0
0
0
0
0
0
0
0
0
0
0
0
0
0
0
0
0
0
0
0
0
0
0
0
0
0
0
0
0
0
0
0
0
0
0
0
0
0
0
0
0
0
0
0
0
0
0
0
0
0
0
0
0
0
0
0
0
0
0
0
0
0
0
0
0
0
0
0
0
0
0
0
0
0
0
0
0
0
0
0
0
0
0
0
0
0
0
0
0
0
0
0
0
0
0
0
0
0
0
0
0
0
0
0
0
0
0
0
0
0
0
0
0
0
0
0
0
0
0
0
0
0
0
0
0
0
0
0
0
0
0
0
0
0
0
0
0
0
0
0
0
0
0
0
0
0
0
0
0
0
0
0
0
0
0
0
0
0
0
0
0
0
0
0
0
0
0
0
0
0
0
0
0
0
0
0
0
0
0
0
0
0
0
0
0
0
0
0
0
0
0
0
0
0
0
0
0
0
0
0
0
0
0
0
0
0
0
0
0
0
0
0
0
0
0
0
0
0
0
0
0
0
0
0
0
0
0
0
0
0
0
0
0
0
0
0
0
0
0
0
0
0
0
0
0
0
0
0
0
0
0
0
0
0
0
0
0
0
0
0
0
0
0
0
0
0
0
0
0
0
0
0
0
0
0
0
0
0
0
0
0
0
0
0
0
0
0
0
0
0
0
0
0
0
0
0
0
0
0
0
0
0
0
0
0
0
0
0
0
0
0
0
0
0
0
0
0
0
0
0
0
0
0
0
0
0
0
0
0
0
0
0
0
0
0
0
0
0
0
0
0
0
0
0
0
0
0
0
0
0
0
0
0
0
0
0
0
0
0
0
0
0
0
0
0
0
0
0
0
0
0
0
0
0
0
0
0
0
0
0
0
0
0
0
0
0
0
0
0
0
0
0
0
0
0
0
0
0
0
0
0
0
0
0
0
0
0
0
0
0
0
0
0
0
0
0
0
0
0
0
0
0
0
0
0
0
0
0
0
0
0
0
0
0
0
0
0
0
0
0
0
0
0
0
0
0
0
0
0
0
0
0
0
0
0
0
0
0
0
0
0
0
0
0
0
0
0
0
0
0
0
0
0
0
0
0
0
0
0
0
0
0
0
0
0
0
0
0
0
0
0
0
0
0
0
0
0
0
0
0
0
0
0
0
0
0
0
0
0
0
0
0
0
0
0
0
0
0
0
0
0
0
0
0
0
0
0
0
0
0
0
0
0
0
0
0
0
0
0
0
0
0
0
0
0
0
0
0
0
0
0
0
0
0
0
0
0
0
0
0
0
0
0
0
0
0
0
0
0
0
0
0
0
0
0
0
0
0
0
0
0
0
0
0
0
0
0
0
0
0
0
0
0
0
0
0
0
0
0
0
0
0
0
0
0
0
0
0
0
0
0
0
0
0
0
0
0
0
0
0
0
0
0
0
0
0
0
0
0
0
0
0
0
0
0
0
0
0
0
0
0
0
0
0
0
0
0
0
0
0
0
0
0
0
0
0
0
0
0
0
0
0
0
0
0
0
0
0
0
0
0
0
0
0
0
0
0
0
0
0
0
0
0
0
0
0
0
0
0
0
0
0
0
0
0
0
0
0
0
0
0
0
0
0
0
0
0
0
0
0
0
0
0
0
0
0
0
0
0
0
0
0
0
0
0
0
0
0
0
0
0
0
0
0
0
0
0
0
0
0
0
0
0
0
0
0
0
0
0
0
0
0
0
0
0
0
0
0
0
0
0
0
0
0
0
0
0
0
0
0
0
0
0
0
0
0
0
0
0
0
0
0
0
0
0
0
0
0
0
0
0
0
0
0
0
0
0
0
0
0
0
0
0
0
0
0
0
0
0
0
0
1.71292315857e-08
1.65226512683e-09
5.25414834418e-10
3.07659057679e-08
4.35965147795e-09
1.20460819644e-09
3.0764741593e-08
5.16582092384e-09
1.09347282797e-09
3.07635774713e-08
4.63158536558e-09
5.64202234659e-10
3.07624133267e-08
4.09721114656e-09
3.50702758161e-11
3.07612491633e-08
3.56269840381e-09
-4.93923079023e-10
1.71270650022e-08
2.42629933977e-09
-7.35210599464e-10
0
7.71632261172e-10
-3.57055064026e-10
0
0
0
0
0
0
0
0
0
0
0
0
0
0
0
0
0
0
0
0
0
0
0
0
0
0
0
0
0
0
0
0
4.89973376586e-08
5.05367541091e-09
1.90649080293e-09
1.46499630178e-07
1.71400167094e-08
6.37576587572e-09
1.96157099267e-07
2.66268824897e-08
8.75115205074e-09
1.96131959207e-07
2.75563063618e-08
6.89859280792e-09
1.96106819045e-07
2.47370132481e-08
3.53995067724e-09
1.96081678841e-07
2.19138078776e-08
1.85082188419e-10
1.96056538557e-07
1.90866902966e-08
-3.16601259437e-09
1.46397741617e-07
1.47995834923e-08
-5.42644262069e-09
4.89746082638e-08
7.74631932977e-09
-4.4221665702e-09
0
1.78520912856e-09
-1.42617812729e-09
0
0
0
0
0
0
0
0
0
0
0
0
0
0
0
0
0
0
0
0
0
0
0
0
0
0
1.74279310639e-08
1.94878287775e-09
8.16921816153e-10
1.7936185724e-07
1.49719743366e-08
7.77721526181e-09
3.83004123573e-07
3.63966768972e-08
1.85714015905e-08
4.70082750368e-07
5.00342823455e-08
2.17508060811e-08
4.70096718449e-07
5.05754096459e-08
1.63514049428e-08
4.7011068727e-07
4.54575662105e-08
8.35695566672e-09
4.70124656622e-07
4.0326651204e-08
3.71665706208e-10
4.7013862675e-07
3.5182664575e-08
-7.60446491324e-09
3.83014816418e-07
2.81439179835e-08
-1.35595637603e-08
1.79305258467e-07
1.67106553e-08
-1.28336521284e-08
1.74244633675e-08
5.33148713016e-09
-5.77439494498e-09
0
4.72484563225e-10
-6.54424044144e-10
0
0
0
0
0
0
0
0
0
0
0
0
0
0
0
0
0
0
0
0
0
0
0
4.89790433345e-08
3.48480979351e-09
2.28291175944e-09
2.97829983851e-07
1.99824080299e-08
1.3776297921e-08
5.59747652396e-07
4.45475091365e-08
2.8269327736e-08
6.67380511259e-07
5.96332366535e-08
3.09953865526e-08
6.6758741301e-07
5.99934188307e-08
2.29039184791e-08
6.67794318412e-07
5.39494700782e-08
1.16628561224e-08
6.68001227395e-07
4.78871881736e-08
4.27055477381e-10
6.68208140114e-07
4.18065730415e-08
-1.08034835978e-08
5.60596947509e-07
3.37136008273e-08
-1.94490691076e-08
2.98110069452e-07
2.06304710879e-08
-1.95382829159e-08
4.89813337533e-08
7.14539011858e-09
-1.01862369795e-08
0
8.53794836299e-10
-1.82677204087e-09
0
0
0
0
0
0
0
0
0
0
0
0
0
0
0
0
0
0
0
0
0
0
0
6.33467718928e-08
3.48473334074e-09
2.92731645132e-09
3.36434261346e-07
1.99805558041e-08
1.57878812221e-08
6.14952498891e-07
4.45435421079e-08
3.1066493751e-08
7.28543503038e-07
5.96304631427e-08
3.35225434322e-08
7.28879713461e-07
5.99920828856e-08
2.46415899288e-08
7.29215928755e-07
5.39479752587e-08
1.24864365252e-08
7.29552148839e-07
4.78855344869e-08
3.31283189241e-10
7.29888373739e-07
4.18047605232e-08
-1.1823870225e-08
6.16390905353e-07
3.37135038684e-08
-2.12292210479e-08
3.37008334729e-07
2.06319678023e-08
-2.15760981828e-08
6.33721968305e-08
7.14593262413e-09
-1.17058897222e-08
0
8.53807742527e-10
-2.34784813074e-09
0
0
0
0
0
0
0
0
0
0
0
0
0
0
0
0
0
0
0
0
0
0
0
6.38815779101e-08
3.48465682238e-09
2.92110652736e-09
3.39271629458e-07
1.9978703343e-08
1.57517458764e-08
6.20137332999e-07
4.45395747158e-08
3.0975217046e-08
7.34690515022e-07
5.96276896019e-08
3.33813520087e-08
7.35035892003e-07
5.99907469416e-08
2.44843745828e-08
7.3538127396e-07
5.39464804215e-08
1.23292212301e-08
7.35726660601e-07
4.78838808244e-08
1.74067813246e-10
7.3607205213e-07
4.18029479485e-08
-1.19810855821e-08
6.21614954261e-07
3.37134068884e-08
-2.13638653036e-08
3.39861351792e-07
2.0633464746e-08
-2.16560305364e-08
6.3907695675e-08
7.1464753292e-09
-1.17373815389e-08
0
8.53820681044e-10
-2.35388870697e-09
0
0
0
0
0
0
0
0
0
0
0
0
0
0
0
0
0
0
0
0
0
0
0
6.44163861924e-08
3.48458041471e-09
2.91489430232e-09
3.42109064743e-07
1.9976850642e-08
1.57155459137e-08
6.25322395544e-07
4.45356070165e-08
3.08837813533e-08
7.40837849553e-07
5.96249160064e-08
3.32400684661e-08
7.41192393147e-07
5.99894109773e-08
2.43271592846e-08
7.41546941671e-07
5.39449856132e-08
1.21720058629e-08
7.419014949e-07
4.78822271935e-08
1.68524218315e-11
7.42256053066e-07
4.18011355343e-08
-1.21383009774e-08
6.26839231395e-07
3.37133100048e-08
-2.14984173284e-08
3.42714436095e-07
2.06349619547e-08
-2.1735803922e-08
6.44431969665e-08
7.14701830585e-09
-1.17688087473e-08
0
8.53833651361e-10
-2.35992694144e-09
0
0
0
0
0
0
0
0
0
0
0
0
0
0
0
0
0
0
0
0
0
0
0
6.49511968259e-08
3.48450393145e-09
2.9086797039e-09
3.44946567264e-07
1.99749976262e-08
1.56792812903e-08
6.30507686496e-07
4.45316391365e-08
3.0792186581e-08
7.46985506653e-07
5.96221424989e-08
3.30986926659e-08
7.47349216833e-07
5.99880752089e-08
2.41699439783e-08
7.47712931977e-07
5.39434909078e-08
1.20147905209e-08
7.48076651852e-07
4.78805735349e-08
-1.40362876862e-10
7.48440376556e-07
4.1799322988e-08
-1.22955162306e-08
6.32063737115e-07
3.37132131736e-08
-2.16328770908e-08
3.45567587617e-07
2.06364594888e-08
-2.18154182795e-08
6.49787006447e-08
7.14756155857e-09
-1.18001713324e-08
0
8.53846605147e-10
-2.36596283669e-09
0
0
0
0
0
0
0
0
0
0
0
0
0
0
0
0
0
0
0
0
0
0
0
5.09001978398e-08
1.94864047526e-09
2.25757909516e-09
3.09541749171e-07
1.49648143837e-08
1.35827410423e-08
5.8152222396e-07
3.63791698829e-08
2.7746582628e-08
6.93358636828e-07
5.00217920133e-08
3.02230175793e-08
6.93748231136e-07
5.05696383385e-08
2.21087232553e-08
6.94137829038e-07
4.5451118417e-08
1.09306561911e-08
6.94527430364e-07
4.03195269909e-08
-2.52672393451e-10
6.94917035156e-07
3.5174863937e-08
-1.14412625792e-08
5.83193299909e-07
2.81440691369e-08
-1.99668437227e-08
3.10215273437e-07
1.67174000686e-08
-1.98353626349e-08
5.09307404048e-08
5.33336846459e-09
-1.03061267527e-08
0
4.72508722355e-10
-1.84844295878e-09
0
0
0
0
0
0
0
0
0
0
0
0
0
0
0
0
0
0
0
0
0
0
0
1.83027852602e-08
0
8.05239112071e-10
1.88553191722e-07
5.0521455722e-09
7.60921068078e-09
4.02274160962e-07
1.71324959268e-08
1.80263685328e-08
4.93731282323e-07
2.66209153916e-08
2.0918872401e-08
4.94023421428e-07
2.75539483528e-08
1.55254253657e-08
4.94315560526e-07
2.47343882923e-08
7.64049727302e-09
4.94607699623e-07
2.19109159507e-08
-2.53590076567e-10
4.94899838817e-07
1.9083531506e-08
-8.1568368039e-09
4.03489284355e-07
1.48005473945e-08
-1.39860079365e-08
1.88978635054e-07
7.74916834877e-09
-1.30720895037e-08
1.83115535149e-08
1.78547392952e-09
-5.86780103612e-09
0
0
-6.64577753828e-10
0
0
0
0
0
0
0
0
0
0
0
0
0
0
0
0
0
0
0
0
0
0
0
0
0
0
5.22303023525e-08
0
1.86046826797e-09
1.55972386721e-07
1.65202536949e-09
6.16420490493e-09
2.08842288052e-07
4.35921561143e-09
8.36574476213e-09
2.08927334224e-07
5.16571422447e-09
6.49068613283e-09
2.09012379825e-07
4.6314669618e-09
3.17708580755e-09
2.09097424782e-07
4.09708119341e-09
-1.40288104912e-10
2.09182469245e-07
3.56255661163e-09
-3.46143563791e-09
1.56280798069e-07
2.42647199399e-09
-5.65917946585e-09
5.22870703621e-08
7.71674906654e-10
-4.54894176433e-09
0
0
-1.4619177405e-09
0
0
0
0
0
0
0
0
0
0
0
0
0
0
0
0
0
0
0
0
0
0
0
0
0
0
0
0
0
0
0
0
1.86024907537e-08
0
5.07018329635e-10
3.33912499374e-08
0
1.15207348911e-09
3.33941229331e-08
0
1.02649223917e-09
3.33969959818e-08
0
4.98873776681e-10
3.33998688458e-08
0
-2.88832508495e-11
3.34027418492e-08
0
-5.56778833801e-10
1.86078376856e-08
0
-7.83383150862e-10
0
0
-3.74419047058e-10
0
0
0
0
0
0
0
0
0
0
0
0
0
0
0
0
0
0
0
0
0
0
0
0
0
0
0
0
0
0
0
0
0
0
0
0
0
0
0
0
0
0
0
0
0
0
0
0
0
0
0
0
0
0
0
0
0
0
0
0
0
0
0
0
0
0
0
0
0
0
0
0
0
0
0
0
0
0
0
0
0
0
0
0
0
0
0
0
0
0
0
0
0
0
0
0
0
0
0
0
0
0
0
0
0
0
0
0
0
0
0
0
0
0
0
0
0
0
0
0
0
0
0
0
0
0
0
0
0
0
0
0
0
0
0
0
0
0
0
0
0
0
0
0
0
0
0
0
0
0
0
0
0
0
0
0
0
0
0
0
0
0
0
0
0
0
0
0
0
0
0
0
0
0
0
0
0
0
0
0
0
0
0
0
0
0
0
0
0
0
0
0
0
0
0
0
0
0
0
0
0
0
0
0
0
0
0
0
0
0
0
0
0
0
0
0
0
0
0
0
0
0
0
0
0
0
0
0
0
0
0
0
0
0
0
0
0
0
0
0
0
0
0
0
0
0
0
0
0
0
0
0
0
0
0
0
0
0
0
0
0
0
0
0
0
0
0
0
0
0
0
0
0
0
0
0
0
0
0
0
0
0
0
0
0
0
0
0
0
0
0
0
0
0
0
0
0
0
0
0
0
0
0
0
0
0
0
0
0
0
0
0
0
0
0
0
0
0
0
0
0
0
0
0
0
0
0
0
0
0
0
0
0
0
0
0
0
0
0
0
0
0
0
0
0
0
0
0
0
0
0
0
0
0
0
0
0
0
0
0
0
0
0
0
0
0
0
0
0
0
0
0
0
0
0
0
0
0
0
0
0
0
0
0
0
0
0
0
0
0
0
0
0
0
0
0
0
0
0
0
0
0
0
0
0
0
0
0
0
0
0
0
0
0
0
0
0
0
0
0
0
0
0
0
0
3.07652622653e-08
3.22282005408e-09
1.2127580975e-09
9.71883200021e-08
1.24283348478e-08
4.21558193932e-09
1.28248180241e-07
2.05758678911e-08
5.84972759827e-09
1.28227250128e-07
2.15718104812e-08
4.59355977731e-09
1.28206319952e-07
1.93612529018e-08
2.38174095479e-09
1.28185389863e-07
1.71482987705e-08
1.7231869981e-10
1.28164459781e-07
1.49329480893e-08
-2.03470697245e-09
9.71161032241e-08
1.1418347225e-08
-3.56814090199e-09
3.07555793784e-08
5.62336723256e-09
-2.89239139093e-09
0
1.12647707243e-09
-8.99976462348e-10
0
0
0
0
0
0
0
0
0
0
0
0
0
0
0
0
0
0
0
0
0
0
0
0
0
0
7.1292189802e-08
7.90749974791e-09
3.39701976211e-09
2.83182261737e-07
3.26203262449e-08
1.45927088732e-08
5.35936249583e-07
6.50398288408e-08
2.71935118045e-08
6.47820710182e-07
8.59688089525e-08
2.95863651036e-08
6.47597873484e-07
8.69738276792e-08
2.19286866037e-08
6.47375035537e-07
7.83010806618e-08
1.13062960248e-08
6.47152196607e-07
6.95948017166e-08
7.15179432744e-10
6.46929356668e-07
6.08549908756e-08
-9.84466314232e-09
5.34918581916e-07
4.94177780106e-08
-1.80251148331e-08
2.82634750876e-07
3.09964423641e-08
-1.84104191478e-08
7.12296820258e-08
1.18830045219e-08
-1.06429157293e-08
0
2.00309494531e-09
-2.66229185974e-09
0
0
0
0
0
0
0
0
0
0
0
0
0
0
0
0
0
0
0
0
3.1302616496e-08
3.75295916904e-09
1.73736775333e-09
3.25641294596e-07
3.01866883705e-08
1.73266375586e-08
8.66374353461e-07
8.35757334782e-08
4.80353062153e-08
1.38753774647e-06
1.42346094527e-07
7.03655598447e-08
1.60114929774e-06
1.80625222744e-07
6.85966029895e-08
1.60085634193e-06
1.81854706892e-07
4.93657902529e-08
1.6005633968e-06
1.64224118419e-07
2.53603361113e-08
1.60027046224e-06
1.46481677997e-07
1.43697581693e-09
1.59997753807e-06
1.28627385711e-07
-2.24042905449e-08
1.38605964375e-06
1.07725384313e-07
-4.165911937e-08
8.65264718137e-07
7.34507359325e-08
-4.66425494385e-08
3.25175022225e-07
3.33764024403e-08
-3.38625466413e-08
3.12886465302e-08
8.23895262297e-09
-1.31713980003e-08
0
5.87582194178e-10
-1.43305922845e-09
0
0
0
0
0
0
0
0
0
0
0
0
0
0
0
0
0
1.30977751561e-07
1.1598499862e-08
7.25080187715e-09
6.97643263477e-07
5.55653755226e-08
3.99808855502e-08
1.56457024716e-06
1.29815248325e-07
8.74307994816e-08
2.33059247032e-06
2.0894567236e-07
1.13683675211e-07
2.63016127451e-06
2.60600214095e-07
1.05498933018e-07
2.63093306534e-06
2.62489705178e-07
7.49355314943e-08
2.63170490967e-06
2.37563379397e-07
3.84018456958e-08
2.63247680697e-06
2.12437940539e-07
1.96458095498e-09
2.63324875696e-06
1.87113388522e-07
-3.43762626829e-08
2.33431450917e-06
1.5939362808e-07
-6.40321616168e-08
1.56690882892e-06
1.13709323095e-07
-7.41836868186e-08
6.98113599203e-07
5.6012382119e-08
-6.00387314424e-08
1.30906266954e-07
1.60781832886e-08
-2.94633044542e-08
0
1.92347161983e-09
-5.9002775922e-09
0
0
0
0
0
0
0
0
0
0
0
0
0
0
0
0
0
2.31824716006e-07
1.51482629496e-08
1.27830811823e-08
9.69666470104e-07
6.64085469224e-08
5.69688295698e-08
2.03511842312e-06
1.48233365874e-07
1.12147085421e-07
2.93035588969e-06
2.34576091673e-07
1.3901691568e-07
3.27598374899e-06
2.91431250938e-07
1.26374115471e-07
3.27899370444e-06
2.9374560098e-07
8.92622444049e-08
3.28200375343e-06
2.66060177561e-07
4.56429201526e-08
3.28501389567e-06
2.38137746785e-07
2.06675217512e-09
3.28802413095e-06
2.09978308568e-07
-4.14662597296e-08
2.94543066573e-06
1.79849799632e-07
-7.70502194967e-08
2.04613946357e-06
1.30098719062e-07
-9.02570026107e-08
9.73525531432e-07
6.57320725644e-08
-7.60983124742e-08
2.32054689373e-07
1.97320790371e-08
-4.1362439985e-08
0
2.58006147646e-09
-1.02965337581e-08
0
0
0
0
0
0
0
0
0
0
0
0
0
0
0
0
0
2.65457943958e-07
1.51469604314e-08
1.45223171832e-08
1.05702293038e-06
6.63937013705e-08
6.18261188295e-08
2.17802326415e-06
1.48195557762e-07
1.18587879521e-07
3.10977366127e-06
2.34535500859e-07
1.45177005105e-07
3.46894776722e-06
2.91416838758e-07
1.31152902936e-07
3.47330821124e-06
2.93748057121e-07
9.2377156785e-08
3.47766875376e-06
2.66060402489e-07
4.70153039163e-08
3.48202939484e-06
2.38135740456e-07
1.65345112745e-09
3.48639013444e-06
2.0997407104e-07
-4.37084017418e-08
3.13175108949e-06
1.79860253927e-07
-8.0730684733e-08
2.19447521911e-06
1.30125947694e-07
-9.45833071853e-08
1.06317895982e-06
6.57519326422e-08
-8.04393132009e-08
2.65985460254e-07
1.9737256664e-08
-4.48050568539e-08
0
2.58026717281e-09
-1.16853817519e-08
0
0
0
0
0
0
0
0
0
0
0
0
0
0
0
0
0
2.67677209672e-07
1.5145657712e-08
1.45006507028e-08
1.06583513463e-06
6.63788505047e-08
6.17517593256e-08
2.19617822671e-06
1.48157733277e-07
1.18390036027e-07
3.13573714268e-06
2.34494892842e-07
1.44759274116e-07
3.49798667515e-06
2.91402420507e-07
1.30532880317e-07
3.50246562311e-06
2.93750513919e-07
9.16969604865e-08
3.50694466967e-06
2.66060628075e-07
4.63351076286e-08
3.5114238148e-06
2.38133734844e-07
9.73254773165e-10
3.51590305842e-06
2.09969834131e-07
-4.43885980719e-08
3.15831191186e-06
1.79870714897e-07
-8.12937554324e-08
2.21307759002e-06
1.30153192046e-07
-9.48751987154e-08
1.07215882374e-06
6.5771807671e-08
-8.05320080405e-08
2.68219105433e-07
1.97424392527e-08
-4.4840155747e-08
0
2.58047307089e-09
-1.17040905884e-08
0
0
0
0
0
0
0
0
0
0
0
0
0
0
0
0
0
2.69896516327e-07
1.51443546592e-08
1.4478943224e-08
1.07464793599e-06
6.63639942699e-08
6.16768462296e-08
2.21433525952e-06
1.4811989242e-07
1.18190679285e-07
3.16170441596e-06
2.34454267482e-07
1.44339698476e-07
3.52703014405e-06
2.91387995835e-07
1.29912013997e-07
3.53162759606e-06
2.93752971439e-07
9.10167641464e-08
3.53622514661e-06
2.66060854261e-07
4.56549113117e-08
3.54082279574e-06
2.38131729713e-07
2.93058453953e-10
3.54542054327e-06
2.09965597975e-07
-4.50687943881e-08
3.18487652603e-06
1.79881182724e-07
-8.18559824722e-08
2.23168203131e-06
1.30180452516e-07
-9.51652456405e-08
1.08113928484e-06
6.57916975329e-08
-8.0623189575e-08
2.70452791586e-07
1.97476266805e-08
-4.48747010426e-08
0
2.58067924824e-09
-1.17227584595e-08
0
0
0
0
0
0
0
0
0
0
0
0
0
0
0
0
0
2.72115863984e-07
1.51430515116e-08
1.44571947627e-08
1.08346133448e-06
6.63491326858e-08
6.16013795717e-08
2.23249436256e-06
1.48082035296e-07
1.17989809302e-07
3.18767548132e-06
2.34413624809e-07
1.43918278117e-07
3.55607817392e-06
2.91373565101e-07
1.29290303972e-07
3.56079412993e-06
2.93755429648e-07
9.03365677938e-08
3.56551018452e-06
2.66061081268e-07
4.4974714969e-08
3.5702263375e-06
2.38129725532e-07
-3.87137864715e-10
3.57494258921e-06
2.09961362408e-07
-4.57489907057e-08
3.21144493231e-06
1.79891657063e-07
-8.2417365767e-08
2.25028854293e-06
1.30207728664e-07
-9.54534478175e-08
1.09012034315e-06
6.58116023602e-08
-8.07128578564e-08
2.72686518632e-07
1.97528192731e-08
-4.49086926998e-08
0
2.58088568142e-09
-1.17413853294e-08
0
0
0
0
0
0
0
0
0
0
0
0
0
0
0
0
0
2.40832190476e-07
1.15939979664e-08
1.26555130894e-08
1.00528049181e-06
5.54974813802e-08
5.62916340866e-08
2.10635277834e-06
1.29628153328e-07
1.10279482769e-07
3.03075928491e-06
2.08734137366e-07
1.35706660325e-07
3.38900981808e-06
2.60518811375e-07
1.22256661633e-07
3.3943391424e-06
2.6249535619e-07
8.53670481597e-08
3.39966854352e-06
2.37557897068e-07
4.22711164617e-08
3.40499802184e-06
2.12421324772e-07
-8.67971425911e-10
3.4103275776e-06
1.87085639429e-07
-4.40502155698e-08
3.05754834245e-06
1.59442585155e-07
-7.88888710159e-08
2.12622549371e-06
1.13843375022e-07
-9.09243270971e-08
1.01257498891e-06
5.6106170613e-08
-7.61619402189e-08
2.41455717587e-07
1.61000784155e-08
-4.14318848358e-08
0
1.92418732913e-09
-1.03723460952e-08
0
0
0
0
0
0
0
0
0
0
0
0
0
0
0
0
0
1.37582029049e-07
3.75235373877e-09
7.13368654533e-09
7.29597676137e-07
3.01510011115e-08
3.90389395793e-08
1.62812140035e-06
8.34477096419e-08
8.45063131562e-08
2.41975347078e-06
1.4217382373e-07
1.08599829714e-07
2.73177748019e-06
1.80543600358e-07
9.95898099208e-08
2.73687474078e-06
1.81842364533e-07
6.98101404263e-08
2.7419720151e-06
1.64203661424e-07
3.44424016139e-08
2.74706930346e-06
1.46453106549e-07
-1.02175828594e-09
2.75216660642e-06
1.28590699688e-07
-3.65823393218e-08
2.44500121375e-06
1.07752209694e-07
-6.5225430528e-08
1.64590433914e-06
7.35419534799e-08
-7.42678579273e-08
7.35375474771e-07
3.34319177047e-08
-5.9860159266e-08
1.3794888079e-07
8.24763124011e-09
-2.95219422572e-08
0
5.8767955456e-10
-5.96300191419e-09
0
0
0
0
0
0
0
0
0
0
0
0
0
0
0
0
0
3.33762658884e-08
0
1.70798522818e-09
3.4530139657e-07
7.90350152942e-09
1.68337822607e-08
9.12834935193e-07
3.25817992655e-08
4.60127559116e-08
1.45613768616e-06
6.49693877177e-08
6.63980110672e-08
1.68045617989e-06
8.59235477102e-08
6.38150231657e-08
1.68337748301e-06
8.695676394e-08
4.52162772339e-08
1.68629876218e-06
7.82810805161e-08
2.21986212027e-08
1.68922001749e-06
6.95718652165e-08
-9.01128661802e-10
1.69214124935e-06
6.08291180247e-08
-2.408297249e-08
1.4700499037e-06
4.94207212281e-08
-4.25736117164e-08
9.21349368057e-07
3.10245870832e-08
-4.68380724424e-08
3.47322694454e-07
1.18957801113e-08
-3.39367587549e-08
3.34107417274e-08
2.0037508285e-09
-1.33003953672e-08
0
0
-1.45648080921e-09
0
0
0
0
0
0
0
0
0
0
0
0
0
0
0
0
0
0
0
0
7.71003763382e-08
0
3.30886127092e-09
3.04241207246e-07
3.22190247982e-09
1.40200715056e-08
5.73764358427e-07
1.24213912581e-08
2.56895546733e-08
6.93302026077e-07
2.05700045639e-08
2.7505162601e-08
6.94089384357e-07
2.15696304697e-08
2.0001293162e-08
6.94876730677e-07
1.93588283915e-08
9.75324638685e-09
6.95664065123e-07
1.71456297446e-08
-5.26074296379e-10
6.96451387512e-07
1.49300346093e-08
-1.08366690554e-08
5.77215378686e-07
1.1419572413e-08
-1.87117430563e-08
3.05817458068e-07
5.62584438777e-09
-1.8773983136e-08
7.72528493316e-08
1.12663255134e-09
-1.08384894317e-08
0
0
-2.72326774501e-09
0
0
0
0
0
0
0
0
0
0
0
0
0
0
0
0
0
0
0
0
0
0
0
0
0
0
3.39168683885e-08
0
1.17215551649e-09
1.06768374963e-07
0
4.0311590438e-09
1.4072416887e-07
0
5.51011801901e-09
1.40774647589e-07
0
4.22595962959e-09
1.4082512574e-07
0
2.04272396995e-09
1.40875603526e-07
0
-1.42908235228e-10
1.40926080845e-07
0
-2.33093704528e-09
1.06942545124e-07
0
-3.81345713861e-09
3.39402217929e-08
0
-3.02943096978e-09
0
0
-9.36216930377e-10
0
0
0
0
0
0
0
0
0
0
0
0
0
0
0
0
0
0
0
0
0
0
0
0
0
0
0
0
0
0
0
0
0
0
0
0
0
0
0
0
0
0
0
0
0
0
0
0
0
0
0
0
0
0
0
0
0
0
0
0
0
0
0
0
0
0
0
0
0
0
0
0
0
0
0
0
0
0
0
0
0
0
0
0
0
0
0
0
0
0
0
0
0
0
0
0
0
0
0
0
0
0
0
0
0
0
0
0
0
0
0
0
0
0
0
0
0
0
0
0
0
0
0
0
0
0
0
0
0
0
0
0
0
0
0
0
0
0
0
0
0
0
0
0
0
0
0
0
0
0
0
0
0
0
0
0
0
0
0
0
0
0
0
0
0
0
0
0
0
0
0
0
0
0
0
0
0
0
0
0
0
0
0
0
0
0
0
0
0
0
0
0
0
0
0
0
0
0
0
0
0
0
0
0
0
0
0
0
0
0
0
0
0
0
0
0
0
0
0
0
0
0
0
0
0
0
0
0
0
0
0
0
0
0
0
0
0
0
0
0
0
0
0
0
0
0
0
0
0
0
0
0
0
0
0
0
0
0
0
0
0
0
0
0
0
0
0
0
0
0
0
0
0
0
0
0
0
0
0
0
0
0
0
0
0
0
0
0
0
0
0
0
0
0
0
0
0
0
0
0
0
0
0
0
3.07622915591e-08
3.22579207053e-09
1.21591385121e-09
9.71808286919e-08
1.24396647595e-08
4.22860327916e-09
1.28238748747e-07
2.05980573935e-08
5.87354717096e-09
1.28217019745e-07
2.15989726798e-08
4.62112886142e-09
1.28195290726e-07
1.9388429964e-08
2.40929510241e-09
1.2817356176e-07
1.71754907484e-08
1.9985798701e-10
1.28151832735e-07
1.49601549202e-08
-2.00718260788e-09
9.71058555694e-08
1.14430595641e-08
-3.54449690995e-09
3.07522391124e-08
5.63771656344e-09
-2.87954116084e-09
0
1.12978506442e-09
-8.9683914698e-10
0
0
0
0
0
0
0
0
0
0
0
0
0
0
0
0
0
0
0
0
0
0
0
1.88045266328e-09
2.29792811564e-10
1.05446215581e-10
1.29415634391e-07
1.43205278572e-08
6.30727340577e-09
4.21996417049e-07
5.16287831067e-08
2.17703898586e-08
7.58331659483e-07
9.76059486539e-08
3.60318589646e-08
8.99599834674e-07
1.28108633916e-07
3.75518262839e-08
8.98989307222e-07
1.29481410941e-07
2.75793573063e-08
8.98378776633e-07
1.16691017498e-07
1.42855354696e-08
8.97768242916e-07
1.03845520505e-07
1.04681722174e-09
8.97157706334e-07
9.09449200754e-08
-1.21367975621e-08
7.55569221001e-07
7.48404257313e-08
-2.2561878006e-08
4.20584563908e-07
4.8341763974e-08
-2.40548419869e-08
1.2920233889e-07
1.95490383947e-08
-1.5654116711e-08
1.8803983043e-09
3.77639172768e-09
-4.8625549339e-09
0
3.52419879369e-11
-8.68584235839e-11
0
0
0
0
0
0
0
0
0
0
0
0
0
0
0
0
0
1.32427522274e-07
1.51591887785e-08
7.41562619251e-09
6.94956314763e-07
7.02583060318e-08
3.77347519902e-08
1.56842280971e-06
1.59495696206e-07
8.17137341128e-08
2.3402851908e-06
2.5281411055e-07
1.07417357942e-07
2.64040126239e-06
3.14332877146e-07
1.00434939258e-07
2.63816837598e-06
3.17016295903e-07
7.15962755368e-08
2.63593548681e-06
2.87058462206e-07
3.69470093976e-08
2.63370259457e-06
2.56878958098e-07
2.49558449556e-09
2.63146969902e-06
2.26477783563e-07
-3.17579992343e-08
2.32915969323e-06
1.94375913264e-07
-5.97324730474e-08
1.56040450853e-06
1.41238755107e-07
-6.9230761722e-08
6.92164381133e-07
7.15701694648e-08
-5.56633970365e-08
1.32178931949e-07
2.11867598425e-08
-2.76386339128e-08
0
2.5937920583e-09
-5.95723619642e-09
0
0
0
0
0
0
0
0
0
0
0
0
0
0
3.15683901558e-08
4.0208636353e-09
2.00289816e-09
5.27583966424e-07
4.64516431711e-08
3.00756563952e-08
1.74555531581e-06
1.46670054793e-07
9.79483047278e-08
3.25100165885e-06
2.80929188557e-07
1.66915605146e-07
4.43471740164e-06
4.17033653782e-07
1.94888044224e-07
4.87651443751e-06
5.14090625563e-07
1.72966767706e-07
4.87413314044e-06
5.21621627464e-07
1.21604759195e-07
4.87175188878e-06
4.74323119667e-07
6.26526635416e-08
4.86937068122e-06
4.26557722472e-07
4.02788225885e-09
4.86698951622e-06
3.7832543587e-07
-5.4269584676e-08
4.42229622058e-06
3.33051218619e-07
-1.02006092055e-07
3.24049863299e-06
2.5730198059e-07
-1.21713037169e-07
1.74023169561e-06
1.46019159431e-07
-1.0820276835e-07
5.26434760571e-07
5.27501464094e-08
-6.76446510474e-08
3.15517684939e-08
9.10854816206e-09
-2.30415815922e-08
0
3.21302642976e-10
-1.69639450647e-09
0
0
0
0
0
0
0
0
0
0
0
1.32084685684e-07
1.24239770319e-08
8.36422163142e-09
1.06815673773e-06
7.95737826234e-08
6.19268560131e-08
2.85903157129e-06
2.07663771691e-07
1.61058318763e-07
4.82311680515e-06
3.69941281704e-07
2.44109283562e-07
6.29616787929e-06
5.38069898364e-07
2.68744381344e-07
6.83848358115e-06
6.64426315095e-07
2.32117293116e-07
6.84025582961e-06
6.77522539079e-07
1.62064477197e-07
6.84202824192e-06
6.17803933043e-07
8.34413229362e-08
6.84380081601e-06
5.5740352337e-07
5.12950624536e-09
6.84557354959e-06
4.96321310224e-07
-7.28709727231e-08
6.30541196375e-06
4.43026975937e-07
-1.36491582133e-07
4.83090490377e-06
3.53074659141e-07
-1.64384388424e-07
2.8628414711e-06
2.11613126551e-07
-1.52641282814e-07
1.06872129004e-06
8.42076712902e-08
-1.0634834621e-07
1.31998394612e-07
1.73561245466e-08
-4.53464667133e-08
0
1.07044662085e-09
-6.98531070003e-09
0
0
0
0
0
0
0
0
0
0
0
2.33740847126e-07
1.6224916161e-08
1.47518536803e-08
1.45445292577e-06
9.2630113084e-08
8.47679585247e-08
3.54486269664e-06
2.30051865884e-07
1.98910172223e-07
5.73725862074e-06
4.0204202443e-07
2.86760079565e-07
7.35076626502e-06
5.82275130969e-07
3.07371219922e-07
7.94487541194e-06
7.20011003948e-07
2.62085054686e-07
7.95439985879e-06
7.35505568288e-07
1.82421208397e-07
7.96392455796e-06
6.71316728301e-07
9.38351947633e-08
7.97344950852e-06
6.06361910481e-07
5.37651274935e-09
7.9829747091e-06
5.40641114925e-07
-8.29548375865e-08
7.40147094401e-06
4.84733106718e-07
-1.5475121646e-07
5.78306946e-06
3.90086565899e-07
-1.86701665363e-07
3.57143258122e-06
2.37738022122e-07
-1.76366942159e-07
1.46191608711e-06
9.73873351633e-08
-1.28441259748e-07
2.34006773214e-07
2.11145043874e-08
-6.06808981159e-08
0
1.44697532476e-09
-1.21935699031e-08
0
0
0
0
0
0
0
0
0
0
0
2.6761224974e-07
1.6223627243e-08
1.67632268027e-08
1.57320538204e-06
9.26000656372e-08
9.12148581324e-08
3.74644964033e-06
2.2994845231e-07
2.08573462194e-07
6.00127003682e-06
4.0189891722e-07
2.96694809662e-07
7.65366217035e-06
5.82179553319e-07
3.15453557766e-07
8.26380850935e-06
7.20015335942e-07
2.67694826318e-07
8.27791482553e-06
7.35558370229e-07
1.85880993916e-07
8.29202139291e-06
6.71361390389e-07
9.51630380309e-08
8.30612821148e-06
6.06398432727e-07