/*--------------------------------*- C++ -*----------------------------------*\
| =========                 |                                                 |
| \\      /  F ield         | OpenFOAM: The Open Source CFD Toolbox           |
|  \\    /   O peration     | Version:  3.0.1                                 |
|   \\  /    A nd           | Web:      www.OpenFOAM.org                      |
|    \\/     M anipulation  |                                                 |
\*---------------------------------------------------------------------------*/
FoamFile
{
    version     2.0;
    format      ascii;
    class       volVectorField;
    location    "9.3";
    object      ddt0(U);
}
// * * * * * * * * * * * * * * * * * * * * * * * * * * * * * * * * * * * * * //

dimensions      [0 1 -2 0 0 0 0];

internalField   nonuniform List<vector> 
7968
(
(0.000555467830481 0.00055583661365 -0.00116222564709)
(0.00139961556222 0.000604337953033 -0.00107647336623)
(0.00190368562697 0.000672680155933 -0.00071700301777)
(0.00215954739825 0.000709281710274 -0.000501556854976)
(0.00191943070325 0.000677740096573 -0.000165566665031)
(0.00178413645445 0.000642000074684 -8.95471960487e-05)
(0.00142408049325 0.000599306901307 -1.14705008397e-05)
(0.000936401157972 0.00061485021022 -9.53883998948e-06)
(0.000484376107664 0.000683015112033 -8.11553700392e-05)
(0.000141254946658 0.000765747628779 -0.000154999395582)
(-0.000125850005783 0.000765587645222 -0.00015442861056)
(-0.000469888688868 0.000682774839663 -8.09735893986e-05)
(-0.000923505168238 0.000613839626886 -7.97852985883e-06)
(-0.00141469199954 0.000597673662298 -8.98531724488e-06)
(-0.0017783172435 0.000640069763467 -8.69328703331e-05)
(-0.00191533803213 0.000675634984458 -0.000162981895546)
(-0.00215844582165 0.000707187561278 -0.000498756749084)
(-0.00190321816965 0.000670525473965 -0.000714838996203)
(-0.0013998270892 0.000602043124438 -0.00107408070658)
(-0.000555719824372 0.000553239838446 -0.00116046610353)
(0.00060413993414 0.00139893790381 -0.00107525837765)
(0.00138036193751 0.0013801241647 -0.000781511853299)
(0.0017743067143 0.00144912141302 -0.000498244217533)
(0.00202068370211 0.00155238506276 -0.000392993615262)
(0.00187666232533 0.00156835179561 -0.000111317946692)
(0.00169723020886 0.00149754750116 -2.40231848832e-05)
(0.00140232445645 0.00141346762892 8.04751661012e-05)
(0.000978547434048 0.00136352500488 0.000236114295392)
(0.000537577812263 0.00134684083422 0.000350473592663)
(0.000169010389247 0.00136809816331 0.000348698087738)
(-0.000154210002333 0.00136718479131 0.000349384269255)
(-0.000523604909778 0.00134474988158 0.000352168694592)
(-0.000966667921266 0.001359926474 0.000239046068814)
(-0.00139394226573 0.00140891250632 8.38004686653e-05)
(-0.00169206601929 0.00149267291439 -2.05467331073e-05)
(-0.00187353681315 0.00156312235389 -0.000108361659631)
(-0.00202030354881 0.00154753254924 -0.000390228310723)
(-0.00177429308905 0.00144406232658 -0.000496518225118)
(-0.00138076775194 0.00137483486247 -0.000779720782492)
(-0.000604384845701 0.00139340876138 -0.00107410403187)
(0.000672518246988 0.00190104249354 -0.000715625198551)
(0.00144912784611 0.0017727942685 -0.000498052122543)
(0.00186432882001 0.00186341077439 -0.000250854713813)
(0.00208939690208 0.00195374879704 -0.000174085321532)
(0.00201351355553 0.00189326211962 9.39510200508e-05)
(0.00186442813932 0.00166757929519 0.00018517666705)
(0.00164470190418 0.00142181355458 0.000355955091047)
(0.00127450107531 0.00116756597176 0.000574789860975)
(0.000784410567009 0.000962811703856 0.000781148276891)
(0.000260863468952 0.000829085124219 0.000874069430077)
(-0.000246926645963 0.000827633847908 0.000874696981354)
(-0.00077146097618 0.000958963844228 0.000782770894872)
(-0.00126417024931 0.00116217447154 0.000576906136958)
(-0.00163767276241 0.00141537858341 0.000358352725216)
(-0.0018600728197 0.00166088503188 0.000187376709755)
(-0.00201073637271 0.00188621107105 9.62596110782e-05)
(-0.00208944747791 0.00194709117046 -0.00017259383986)
(-0.00186454837586 0.00185671166006 -0.000250053873953)
(-0.00144967772897 0.00176573950221 -0.000497146473302)
(-0.000672775081695 0.00189386030284 -0.00071543036133)
(0.000709224162165 0.0021554028036 -0.0005002727243)
(0.00155270044013 0.0020181235017 -0.00039189310115)
(0.00195434079188 0.00208782729365 -0.000173301582265)
(0.00213148349514 0.00213056708306 -0.00013719943446)
(0.0020117679928 0.00194123145208 0.000112581891184)
(0.00184548550754 0.00152959949799 0.000139931441775)
(0.00165383760597 0.00109524404297 0.000281525942955)
(0.00135293068488 0.000635206535457 0.000489944981751)
(0.000890345045827 0.000226753595307 0.00070651617972)
(0.000309954441209 -1.25827197816e-05 0.000824027761562)
(-0.000297512431576 -1.4202305866e-05 0.000824482895267)
(-0.000879061614992 0.0002223139492 0.000707831600434)
(-0.00134397060758 0.000628768104096 0.000491575948511)
(-0.00164767752194 0.00108806884877 0.000282787353565)
(-0.00184166969831 0.00152257143814 0.000141048123653)
(-0.00200925239133 0.00193365804485 0.000114134919821)
(-0.00213182764095 0.00212360891506 -0.000136606605458)
(-0.00195474683636 0.00208061071816 -0.000173338867606)
(-0.00155307993267 0.00201034362806 -0.000391944928619)
(-0.000709405629306 0.00214725898005 -0.000500362740562)
(0.00067806649894 0.00191330247114 -0.000165051415909)
(0.00156889616029 0.00187149837289 -0.000110038134599)
(0.00189385243329 0.00200962372797 9.5507040413e-05)
(0.00194175896948 0.00200909628072 0.000113565666881)
(0.00175730479963 0.00175559748926 0.000287184770642)
(0.001544657201 0.001197311303 0.000226396055933)
(0.00135044507491 0.000621104215408 0.000305790422032)
(0.00112505573527 1.29650896707e-05 0.00032955426037)
(0.000763687215609 -0.000510222138228 0.00038246159817)
(0.000272829873395 -0.000811462748586 0.000431601171103)
(-0.000262004619886 -0.000812994048724 0.000431794515401)
(-0.000753887920848 -0.00051434359462 0.000383031825083)
(-0.00111717310899 7.25675985368e-06 0.000329777740677)
(-0.00134463954094 0.000614829357969 0.000306319776016)
(-0.00154108839053 0.00119121415419 0.00022647715568)
(-0.00175459541314 0.00174903234869 0.000288007187642)
(-0.00194204550929 0.00200317956229 0.000113286595939)
(-0.00189415476984 0.00200363082601 9.4699769742e-05)
(-0.00156912138984 0.00186506715406 -0.000110920962137)
(-0.000677958839584 0.001905854594 -0.000165537491932)
(0.000642575264974 0.00177662594134 -8.93244326438e-05)
(0.00149849910851 0.00169032689238 -2.27107801821e-05)
(0.00166853714749 0.00185892253518 0.000186860989839)
(0.00153035401499 0.00184151300142 0.000141189979816)
(0.00119886151709 0.00154202261677 0.000226876516521)
(0.000979031380327 0.000976776851589 5.21170812494e-05)
(0.000839995930052 0.00038607625731 6.0909014771e-05)
(0.000698379118972 -0.000216795402107 0.000135418503121)
(0.000502091390739 -0.000695745752575 -2.59040374482e-05)
(0.000180608784835 -0.000976222758519 -4.73646457343e-05)
(-0.000170934106746 -0.000977556015283 -4.73268720795e-05)
(-0.000493305761543 -0.000699291600064 -2.61463956273e-05)
(-0.000691115585656 -0.000221590398199 0.000136446202)
(-0.000834888634832 0.000380958366095 6.16805557794e-05)
(-0.000976021447862 0.000971957866131 5.25065043758e-05)
(-0.00119663278435 0.00153678822008 0.000227428882237)
(-0.001531114483 0.00183685180482 0.000141048472283)
(-0.00166924509922 0.00185409415139 0.000186344107666)
(-0.0014990614664 0.00168479088958 -2.32567877603e-05)
(-0.000642498067767 0.00176984415961 -8.98127974726e-05)
(0.00060045918132 0.00141462925676 -1.20519452318e-05)
(0.00141511810941 0.00139331793687 8.16441279855e-05)
(0.00142332951984 0.00163714446163 0.000357609564935)
(0.00109655737389 0.00164794933702 0.000283012269305)
(0.000622762043343 0.00134613995463 0.000306893935633)
(0.000388261209658 0.0008363500189 6.14898860368e-05)
(0.000292802303765 0.000289475948986 -1.62548019082e-05)
(0.000247467671469 -0.000281401991534 3.91249713111e-05)
(0.000194153171883 -0.000703571254507 -0.00019489839848)
(7.40267665803e-05 -0.000933702157799 -0.000215394530716)
(-6.49171506971e-05 -0.00093475692651 -0.000215362084302)
(-0.000185711382416 -0.000706416858232 -0.000194694394255)
(-0.000240486266553 -0.00028520214096 4.01435664362e-05)
(-0.000287821423771 0.000285857225538 -1.57672047793e-05)
(-0.000385210731992 0.000833081566918 6.17703971973e-05)
(-0.000620581285396 0.00134253352713 0.000307053296063)
(-0.00109712079945 0.00164491681709 0.000282703175033)
(-0.00142415303333 0.00163379473373 0.000357022126628)
(-0.00141581523988 0.00138902045873 8.08152519103e-05)
(-0.000600273397125 0.00140901627948 -1.26565587463e-05)
(0.000616871110368 0.000926471897025 -1.11343211845e-05)
(0.0013663741121 0.000968511015803 0.000236512389278)
(0.00117009094448 0.00126533185597 0.00057595054469)
(0.000637512653952 0.00134512329169 0.000491298956622)
(1.52661747259e-05 0.001118978176 0.000330411931138)
(-0.000214025560904 0.00069315063876 0.00013602659026)
(-0.000277918059898 0.000242740006879 3.95117303017e-05)
(-0.000202859081504 -0.000207399685046 -0.000211668287189)
(-0.000103828813167 -0.000558404760666 -0.000288089485772)
(-2.8950659015e-05 -0.000737457829028 -0.000305327917565)
(3.77623561162e-05 -0.000738247884054 -0.000305399004751)
(0.00011218111827 -0.000560636764798 -0.000288135920219)
(0.00020992332252 -0.000210215939486 -0.000211087030745)
(0.000283036217286 0.000240550667526 4.02591828471e-05)
(0.000217122427871 0.000691424225071 0.000136439210159)
(-1.32065273443e-05 0.00111722008144 0.000329789782525)
(-0.00063800480022 0.00134353875186 0.000491419496579)
(-0.00117118842125 0.00126320931183 0.000575352339706)
(-0.00136735202264 0.00096518774466 0.000235627120523)
(-0.000616641141888 0.000921735372187 -1.1936873375e-05)
(0.000685696586186 0.00047639077665 -8.33725974024e-05)
(0.00135093514054 0.000528677509213 0.000349783813417)
(0.000966845790035 0.000775179779951 0.000781397835793)
(0.000230598012211 0.000881603709727 0.00070693490547)
(-0.000506420951119 0.000756215343657 0.00038272885122)
(-0.000691636011244 0.000495169106282 -2.45609528458e-05)
(-0.000699086772852 0.000188182657507 -0.000195349925633)
(-0.000553439940176 -0.000109195381762 -0.000288412857396)
(-0.000336250374605 -0.000341175963661 -0.000355584604948)
(-0.000113800355951 -0.000455287681037 -0.000397412126237)
(0.000121918848854 -0.000455808788922 -0.000397528607476)
(0.000343943213293 -0.000342649483347 -0.000355799967635)
(0.000559928932531 -0.000110969695022 -0.000288291122074)
(0.000703702632478 0.000187065044371 -0.000194715696761)
(0.000694252957578 0.000494616143216 -2.43333409604e-05)
(0.000507856822423 0.000755512748106 0.000382922987695)
(-0.000231765992563 0.000880855548237 0.000707466590415)
(-0.000968515888177 0.00077365752964 0.00078116255802)
(-0.00135250957246 0.000525962663034 0.00034896240772)
(-0.000685763232921 0.000472138815229 -8.41720343254e-05)
(0.00076832230446 0.0001360493191 -0.000156748476906)
(0.00137242765256 0.000162120803599 0.000347101141919)
(0.000833451747925 0.000252747225729 0.000873527717917)
(-8.13924404931e-06 0.000301367368289 0.000823606671282)
(-0.00080686846359 0.000264878384972 0.000431077491354)
(-0.000971210691179 0.000173006868666 -4.76610829879e-05)
(-0.00092854171971 6.73582315515e-05 -0.000216421919872)
(-0.000732082974697 -3.42756738407e-05 -0.000306092680553)
(-0.0004501915625 -0.000117727313848 -0.000397733195341)
(-0.000155804350677 -0.000159186762631 -0.000455645326544)
(0.000163065156676 -0.000159373056391 -0.000455743193443)
(0.000456953598447 -0.00011831342392 -0.000397883431899)
(0.000737559488357 -3.49243898236e-05 -0.000305952318469)
(0.000932133357536 6.71683510969e-05 -0.000215719839314)
(0.000972636623458 0.0001731506395 -4.66452801681e-05)
(0.000806905797237 0.000264850350999 0.000431475183835)
(5.45873140432e-06 0.000301100303219 0.000824182181704)
(-0.000836560730309 0.000251841549853 0.00087320999485)
(-0.0013750981743 0.000160279938856 0.000346121831091)
(-0.000769054910148 0.000132843563128 -0.000157805300744)
(0.00076768162105 -0.000128422493034 -0.000157206171122)
(0.00137123776781 -0.000159529306872 0.000346994119991)
(0.000831588096471 -0.000253807431983 0.000873498310787)
(-1.03404269422e-05 -0.000305348407037 0.000823527239219)
(-0.000809212476282 -0.000269625752661 0.000430666370163)
(-0.000973360566557 -0.000178444265837 -4.82374324733e-05)
(-0.000930449578398 -7.14649692085e-05 -0.000216706631204)
(-0.000733797681238 3.31307634771e-05 -0.000306410890968)
(-0.000451479289651 0.00011968073635 -0.000398010148735)
(-0.000156365849337 0.000162492494022 -0.000455827751365)
(0.000163173326957 0.000162626820459 -0.000455875898794)
(0.000457725720252 0.000119979858549 -0.000398073466022)
(0.000738665178453 3.35995665567e-05 -0.000306154052212)
(0.000933238182704 -7.0771047856e-05 -0.000215852804155)
(0.00097371897395 -0.000177693810451 -4.6861072544e-05)
(0.000807988997787 -0.000268936967359 0.000431241554077)
(6.29455977875e-06 -0.000304917027949 0.00082402044374)
(-0.000835923525464 -0.000253695346723 0.000872903220247)
(-0.00137466661918 -0.000159907342257 0.000345869209338)
(-0.000768911867056 -0.000129776345561 -0.000158092089149)
(0.000684024559786 -0.000469999762986 -8.39314650714e-05)
(0.00134778678656 -0.000526697854537 0.000349639330072)
(0.000962003754616 -0.000776352978745 0.000781111031256)
(0.000225038876147 -0.000885321418752 0.000706575519682)
(-0.000512040670553 -0.000760536923016 0.00038142345965)
(-0.000696631108373 -0.000500246211015 -2.71233745067e-05)
(-0.000703580938266 -0.00019197756359 -0.000196079022567)
(-0.000557697590309 0.000107775788831 -0.000289113987658)
(-0.000339580157975 0.000342083661962 -0.000356251840472)
(-0.000115462020222 0.000457093806065 -0.000397924631962)
(0.000122172251643 0.000457451816859 -0.000397968634596)
(0.00034587227233 0.000343014962107 -0.000356199705925)
(0.000562593107811 0.000109070712692 -0.000288665614523)
(0.000706252013131 -0.000190670703444 -0.00019494679377)
(0.000696802291576 -0.000499043009665 -2.5411703007e-05)
(0.000510578902738 -0.000759257805117 0.000382312251072)
(-0.000229441579173 -0.00088388562239 0.000707218867608)
(-0.00096679378184 -0.000774722190841 0.000780582024424)
(-0.0013516181112 -0.000525005317942 0.000348430367446)
(-0.000685621303991 -0.000468833910536 -8.52920678931e-05)
(0.000614758296994 -0.000921508520283 -1.12983992136e-05)
(0.00136229979174 -0.000967453196163 0.000236448178953)
(0.00116434571753 -0.00126688648829 0.000575176053868)
(0.000630677118373 -0.00134835909063 0.000490274204521)
(8.72909896251e-06 -0.00112251277704 0.000327511371968)
(-0.000219583596328 -0.000697243926191 0.00013459349365)
(-0.000282847534687 -0.000246279708301 3.89588057756e-05)
(-0.000207391920244 0.000205367110271 -0.000211988203343)
(-0.000107616465279 0.000557382855493 -0.000288624350928)
(-3.10096720099e-05 0.000736423985384 -0.000305844539673)
(3.81338056306e-05 0.000736804416938 -0.000305810892661)
(0.000114398060741 0.000558437677365 -0.000288407151689)
(0.000212757818457 0.000206881620815 -0.000211064737431)
(0.000285882073979 -0.000244903914507 4.09409471695e-05)
(0.000219990729886 -0.0006960850297 0.000136078268544)
(-9.73563057187e-06 -0.00112115833527 0.000327959266029)
(-0.00063452752536 -0.00134618205747 0.000491317217927)
(-0.00116841709917 -0.00126402519676 0.000575084808009)
(-0.00136563734662 -0.000963879556014 0.000235691064495)
(-0.000616101646404 -0.000917921391904 -1.24136157899e-05)
(0.000598437046527 -0.00141072584767 -1.1633026517e-05)
(0.00141078034109 -0.00139297527047 8.16381184995e-05)
(0.00141711657352 -0.00163867518027 0.000356904477647)
(0.00108958958908 -0.00165045804075 0.000281490963977)
(0.000616130080666 -0.00134832090207 0.000304386447004)
(0.000382956881989 -0.000839701993863 5.96003731552e-05)
(0.000288677221918 -0.000292831963252 -1.76658724784e-05)
(0.00024417317843 0.000278633022247 3.90386313877e-05)
(0.000191423922422 0.000700658575383 -0.000194921227546)
(7.24637153336e-05 0.000929780251954 -0.00021555642212)
(-6.45986177124e-05 0.00093009223955 -0.000215447222761)
(-0.000184083031815 0.000701534759358 -0.000194527859564)
(-0.000238533148475 0.000280144465808 4.08952151513e-05)
(-0.0002855514108 -0.000291323654513 -1.59693786131e-05)
(-0.000382263279767 -0.000838300356686 6.11694579078e-05)
(-0.00061686937214 -0.00134651500753 0.000305915875827)
(-0.00109300910068 -0.00164794549549 0.000282351764671)
(-0.00142048333696 -0.00163525125947 0.000357212074469)
(-0.00141331752402 -0.00138857533753 8.13486202669e-05)
(-0.000599237273141 -0.00140598724206 -1.2286149787e-05)
(0.000640766239491 -0.00177349726419 -8.86230207843e-05)
(0.00149420040359 -0.00169020472839 -2.23238454309e-05)
(0.00166223229579 -0.00186007872358 0.000186179318758)
(0.00152370044802 -0.00184328030078 0.000139939398905)
(0.00119241105865 -0.00154345764603 0.000224759381031)
(0.000973965169743 -0.000979434558275 5.04635391774e-05)
(0.000836105149239 -0.000389054567648 5.96802956963e-05)
(0.000695366014999 0.000213497082424 0.000135249949554)
(0.000499574519333 0.000690831918142 -2.52356034626e-05)
(0.000179170768345 0.000969263019086 -4.71079376838e-05)
(-0.000170690537443 0.0009696219563 -4.69950883678e-05)
(-0.000491904749058 0.000691872972122 -2.5220102089e-05)
(-0.000689614618412 0.000215015711582 0.000136326117511)
(-0.000832865115419 -0.000387084596923 6.11770079078e-05)
(-0.000973156682659 -0.000977508791418 5.16075501481e-05)
(-0.00119279853567 -0.00154113086051 0.000226025910596)
(-0.00152660431395 -0.00184027799548 0.000140697346367)
(-0.00166502921268 -0.00185634725539 0.000186498035991)
(-0.00149619234947 -0.00168560920568 -2.24903962942e-05)
(-0.000641195491054 -0.00176853709988 -8.88161112051e-05)
(0.000676301642318 -0.00191068691602 -0.000163781030935)
(0.00156469267669 -0.00187144976399 -0.00010939578982)
(0.00188755941522 -0.00201046189212 9.52249680728e-05)
(0.00193471870591 -0.00201032308181 0.000112840859402)
(0.00175022049343 -0.00175618977465 0.000286133016623)
(0.00153860430522 -0.00119888890162 0.000225112963675)
(0.0013453792759 -0.000623195550904 0.000304457199003)
(0.00112087106547 -1.62456122217e-05 0.000328567058079)
(0.000760423723159 0.000504736474351 0.000380672154787)
(0.000270979121047 0.00080348729815 0.00042945055278)
(-0.000261748968336 0.000803923479903 0.000429689660271)
(-0.000752174982261 0.000506092298664 0.000381361108871)
(-0.00111503045016 -1.40793946095e-05 0.000328282545714)
(-0.00134191375805 -0.000620788457038 0.000305601123696)
(-0.00153764852195 -0.00119638819278 0.00022563433197)
(-0.00175046318241 -0.00175330042081 0.000287063213621)
(-0.00193736515226 -0.002006912996 0.00011334263735)
(-0.00189010485483 -0.00200650068821 9.54217767014e-05)
(-0.00156644344711 -0.00186672648707 -0.000109211064836)
(-0.000676631282306 -0.00190572630058 -0.000163656955139)
(0.000707621034064 -0.00215415971431 -0.00049848097884)
(0.00154914486099 -0.00201856255903 -0.000390843638442)
(0.00194882595352 -0.00208896064626 -0.000173252819817)
(0.00212512826956 -0.00213217492058 -0.000137593848047)
(0.00200521467618 -0.00194266401048 0.000111782860764)
(0.00183951810057 -0.00153207325858 0.000139271526768)
(0.00164858538763 -0.00109839569839 0.000280920816167)
(0.00134838511698 -0.000639741666251 0.00048954114255)
(0.000886544484698 -0.000233721709491 0.000705783902851)
(0.000307714407028 3.0375564894e-06 0.000822600694094)
(-0.000297478909545 3.53754687977e-06 0.000822857776458)
(-0.000877084161593 -0.00023209091242 0.000706724876758)
(-0.00134114206377 -0.000636915289253 0.000491118561545)
(-0.00164447214769 -0.0010950522497 0.000282183613171)
(-0.00183799773231 -0.00152854312482 0.000140356056915)
(-0.00200521342327 -0.00193878064172 0.000113346825332)
(-0.00212757429959 -0.00212811715063 -0.000136584104924)
(-0.00195102774312 -0.00208469571585 -0.000172723080443)
(-0.00155052494599 -0.00201397349122 -0.000390247571387)
(-0.000707681169822 -0.00214906411489 -0.000497652527306)
(0.000671141098381 -0.00190141609734 -0.000712888512192)
(0.00144602327371 -0.00177377839627 -0.000496783916167)
(0.0018592467524 -0.00186456554761 -0.000250607301544)
(0.00208302575597 -0.00195500687242 -0.000174412988526)
(0.00200668945454 -0.00189440208195 9.32390432026e-05)
(0.00185776474702 -0.00166950473581 0.000184582089412)
(0.00163837261945 -0.00142463819884 0.000355413416776)
(0.0012685881965 -0.00117174889298 0.00057403754624)
(0.000779474798435 -0.000969159426671 0.000779853026017)
(0.000257965297176 -0.000837600613442 0.000871875840238)
(-0.000247245903687 -0.00083708862188 0.00087217507884)
(-0.000769460197928 -0.000967608238414 0.000780900017734)
(-0.00126094687886 -0.00116917422211 0.000575784253552)
(-0.00163405081641 -0.00142130523715 0.000357371048961)
(-0.00185628872583 -0.00166588233229 0.000186251337304)
(-0.00200688517778 -0.00189062753164 9.51636902856e-05)
(-0.00208565599955 -0.00195112254087 -0.000173049196506)
(-0.00186150444088 -0.00186056384555 -0.000249783826254)
(-0.00144736456172 -0.00176954517999 -0.000495829225546)
(-0.000671286436716 -0.00189685066014 -0.000711406880303)
(0.00060294161936 -0.00140017246323 -0.00107179142413)
(0.0013775860517 -0.00138094814284 -0.000779871547997)
(0.001769251366 -0.00144985374335 -0.000497605987364)
(0.00201367972765 -0.00155316719794 -0.000392962576196)
(0.00186879691652 -0.00156917381787 -0.000111920989109)
(0.00168907664175 -0.00149898997567 -2.46663889503e-05)
(0.00139412478075 -0.00141577115596 7.9639941097e-05)
(0.000970737500367 -0.00136707706803 0.000234857115122)
(0.000531281358892 -0.0013519349615 0.000348499138816)
(0.000165387052213 -0.00137446235034 0.000346147682655)
(-0.0001545680049 -0.0013740430161 0.000346483537307)
(-0.000521050423901 -0.00135081936812 0.000349572144157)
(-0.00096254918626 -0.00136504870416 0.000236921237237)
(-0.00138935978495 -0.00141317094483 8.19463289023e-05)
(-0.00168758119671 -0.00149619532933 -2.21779674522e-05)
(-0.00186925415127 -0.00156619716674 -0.000109468307589)
(-0.00201658271009 -0.00155017574589 -0.000390662382224)
(-0.00177166295144 -0.00144661319714 -0.000496134902957)
(-0.00137895061263 -0.00137748937059 -0.000778069208166)
(-0.000603198792665 -0.00139660058693 -0.00106971149637)
(0.000554250302336 -0.000555686075088 -0.00115688046702)
(0.00139765078575 -0.000604331814547 -0.00107343564182)
(0.00189848307615 -0.000672599629736 -0.00071507375286)
(0.0021513340661 -0.000709140143783 -0.000500766882164)
(0.0019097823301 -0.000677645677226 -0.000165754503434)
(0.00177393143744 -0.000642112861003 -9.02298386337e-05)
(0.00141369315233 -0.000599828370981 -1.28476284371e-05)
(0.000926824216816 -0.000616057211039 -1.18446450741e-05)
(0.000477009440155 -0.00068501060939 -8.41959333624e-05)
(0.000137089269955 -0.000768144792024 -0.000158227800845)
(-0.000126051135595 -0.000768115038397 -0.000158039082688)
(-0.00046669471227 -0.00068492080789 -8.40260863838e-05)
(-0.000918443877276 -0.000615448472442 -1.07895304387e-05)
(-0.0014087208209 -0.000598720046332 -1.12358487348e-05)
(-0.00177243429045 -0.000640809291218 -8.84882308451e-05)
(-0.00190986183428 -0.000676286967346 -0.000163658410393)
(-0.00215370429125 -0.000707586295848 -0.00049832875217)
(-0.00190037322392 -0.000671039706443 -0.000713062081225)
(-0.00139871362782 -0.000602748885295 -0.0010712084702)
(-0.000554494430702 -0.000554194689393 -0.00115489031087)
(0.000328067890564 0.000326820882716 -0.00308221699049)
(8.15993315036e-05 0.00015740988642 -0.00261596031378)
(9.41813977307e-05 0.000345107652517 -0.002220284461)
(-0.000399432836427 0.000571830332776 -0.00181991472707)
(-0.001033974393 0.000643028666756 -0.00164107880246)
(-0.00148549443723 0.000695150727767 -0.00140845082848)
(-0.00182409401657 0.000782909338309 -0.00111009717117)
(-0.00186395012368 0.000947925763698 -0.000974693547198)
(-0.00139879886224 0.00109425487497 -0.00113270855069)
(-0.000517603148928 0.00117618794606 -0.0013421943749)
(0.000528494160603 0.00117538271579 -0.0013361476125)
(0.00140878881196 0.00109375873977 -0.00113140178183)
(0.0018742193186 0.000946070028249 -0.000966003836192)
(0.00183172036148 0.000780036097131 -0.00109920236952)
(0.00149034551974 0.00069271381086 -0.0013974166373)
(0.00103681250461 0.000640784028736 -0.00163158692466)
(0.000401596907614 0.000569929191698 -0.00181210914959)
(-9.37451583448e-05 0.000343915790883 -0.00221293229931)
(-8.14309467281e-05 0.000156249627744 -0.00260895427153)
(-0.000328307373563 0.000325125373682 -0.00307652516778)
(0.000158813203828 7.78543934744e-05 -0.00261382049371)
(0.000193788386982 0.000191216383122 -0.00198520722408)
(0.000261917800115 0.000633694952189 -0.00155566543339)
(2.24867376483e-05 0.00111142310286 -0.00119645566356)
(-0.000387184232649 0.00141182922492 -0.000922967816215)
(-0.000792003904786 0.00154474393499 -0.000638543229366)
(-0.00109659912905 0.00154079260155 -0.000292285121009)
(-0.00112469384489 0.00155232535156 0.0001697401981)
(-0.000860507683106 0.00157238927658 0.000523368263499)
(-0.000327976622171 0.00154191310752 0.000665172491387)
(0.000338938311381 0.00154063601232 0.000667550092121)
(0.0008708141529 0.0015708228231 0.000527543950041)
(0.00113403104993 0.00154906181653 0.000177188902246)
(0.0011034758456 0.00153692456019 -0.000283280254167)
(0.00079661511491 0.00154098853781 -0.0006298016915)
(0.000389642197404 0.00140839577106 -0.000915258408838)
(-2.14491325253e-05 0.00110860219931 -0.00119025090215)
(-0.000261886590407 0.000630840850119 -0.0015509075725)
(-0.000193505383163 0.000188707474304 -0.00198100966481)
(-0.000158158352352 7.56697816377e-05 -0.00261026811342)
(0.000346607621104 8.86448825615e-05 -0.00221741079804)
(0.000635300619563 0.000257973769756 -0.00155429208575)
(0.000886926086444 0.000884273705152 -0.000975379912164)
(0.00082255035558 0.0014928189909 -0.000480869147793)
(0.000569239232821 0.0018395687076 -6.30973869066e-05)
(0.000311004653003 0.00190415016069 0.000366323577877)
(4.75252145007e-05 0.00178936602139 0.000835543406517)
(-0.000109497606139 0.00155335080796 0.00129768944509)
(-0.000135076577914 0.00137145730684 0.00170262333234)
(-6.09110849158e-05 0.00129916208145 0.00191210765234)
(7.16576892971e-05 0.00129775407405 0.00191354193499)
(0.000145105711778 0.00136823428061 0.00170630178644)
(0.000118331635499 0.00154806729155 0.00130311389003)
(-4.15432961632e-05 0.00178339541788 0.000841793134741)
(-0.000307199143108 0.00189850035086 0.000371871474148)
(-0.000567263010097 0.00183435762601 -5.83569319421e-05)
(-0.000821881680127 0.00148842745306 -0.00047738495066)
(-0.000887197505212 0.000880207741897 -0.000972962078854)
(-0.000635344405617 0.00025399804456 -0.00155240921558)
(-0.000345510329183 8.4572347926e-05 -0.00221588789368)
(0.00057211973398 -0.000408053428859 -0.0018178127133)
(0.00111262297364 1.63022375124e-05 -0.00119383857226)
(0.00149463291316 0.000818084468659 -0.000479168812254)
(0.00149003021537 0.0014868877001 7.6846482145e-05)
(0.00131463181186 0.00179162014248 0.000441615920896)
(0.00109259301532 0.00172337821459 0.000772065765103)
(0.000857584875461 0.00142727255331 0.00112345769101)
(0.000604497921999 0.00104179993388 0.0015074476342)
(0.00035669083847 0.000664078769287 0.0018553984348)
(0.000122542306057 0.000453246674394 0.00205162434845)
(-0.000112262204936 0.000451689307224 0.00205257000353)
(-0.000347250587017 0.000660064173125 0.00185801407732)
(-0.000596380479881 0.00103586966571 0.00151108332502)
(-0.000851336049395 0.00142085748834 0.00112695537381)
(-0.00108881397504 0.00171735303806 0.000774882374959)
(-0.00131294308949 0.00178650271115 0.000444117509576)
(-0.00148969085275 0.00148244168235 7.84675660738e-05)
(-0.00149532486277 0.000814030521165 -0.00047898557184)
(-0.00111294126398 1.2171929961e-05 -0.00119423176538)
(-0.000572046229034 -0.000412166178839 -0.00181754605302)
(0.000642957381749 -0.00104336792485 -0.00163866817447)
(0.0014122032193 -0.0003957150095 -0.000919456007271)
(0.00184067314091 0.000562504734749 -6.00373366517e-05)
(0.00179387183098 0.00130963823003 0.000443063987512)
(0.00154271388306 0.00153885734674 0.000670152255462)
(0.0012833839295 0.00135827568481 0.00075885684294)
(0.00104758984923 0.000918571268668 0.000858261778738)
(0.000790352787932 0.00040037404233 0.00110162976073)
(0.000507218525558 -4.0880366564e-05 0.00132538837486)
(0.0001805385723 -0.000297865680815 0.00146396901729)
(-0.000170714734527 -0.000299354942852 0.00146460950008)
(-0.000498184084993 -4.48485990723e-05 0.00132715405701)
(-0.000782684087984 0.000395015358979 0.0011039901128)
(-0.00104198796884 0.000912831746327 0.000860052122493)
(-0.00127987909097 0.00135291161117 0.000760228652643)
(-0.00154109716581 0.00153456720941 0.000671295089307)
(-0.00179408256247 0.00130631637106 0.000443437613072)
(-0.00184209085034 0.000559529435031 -6.11446022815e-05)
(-0.00141325362034 -0.000398763618408 -0.000921319955987)
(-0.000643102285837 -0.00104750195961 -0.00163974616663)
(0.000695585952872 -0.00149686074681 -0.00140572285556)
(0.00154461317957 -0.000802743762025 -0.000634767137496)
(0.00190476780783 0.000301854845834 0.000369964806814)
(0.00172523244532 0.00108558581563 0.000774409904376)
(0.00136153125655 0.00127776752432 0.000759819016096)
(0.00105421034423 0.00104935023104 0.000594433069976)
(0.000826917172965 0.000591705484551 0.000472661035595)
(0.000651252529752 4.75021649281e-05 0.000468347132468)
(0.000433292040637 -0.000415227340346 0.000674042553589)
(0.000159234029577 -0.000670485092476 0.00073370310133)
(-0.000149757424839 -0.000671802561356 0.000734097546473)
(-0.000424787855578 -0.000418709307818 0.000675087865277)
(-0.000644103905713 4.28352106637e-05 0.000469596499651)
(-0.000821543176099 0.00058716435785 0.000473531873636)
(-0.00105083986575 0.00104553153692 0.000594958026902)
(-0.00135984845176 0.00127483706259 0.000760250208421)
(-0.00172559424329 0.00108355488107 0.000774156534979)
(-0.0019068297616 0.000300633293658 0.000368569459294)
(-0.00154642560881 -0.000804250129765 -0.000637056193741)
(-0.0006953228095 -0.00149959880156 -0.0014072942293)