/*--------------------------------*- C++ -*----------------------------------*\
| =========                 |                                                 |
| \\      /  F ield         | OpenFOAM: The Open Source CFD Toolbox           |
|  \\    /   O peration     | Version:  3.0.1                                 |
|   \\  /    A nd           | Web:      www.OpenFOAM.org                      |
|    \\/     M anipulation  |                                                 |
\*---------------------------------------------------------------------------*/
FoamFile
{
    version     2.0;
    format      ascii;
    class       volScalarField;
    location    "3.3";
    object      epsilon_0;
}
// * * * * * * * * * * * * * * * * * * * * * * * * * * * * * * * * * * * * * //

dimensions      [0 2 -3 0 0 0 0];

internalField   nonuniform List<scalar> 
7968
(
0.000662005126381
0.000769122396614
0.000854474098711
0.00090718910603
0.000936314735948
0.000949884169019
0.00095402672929
0.000953182415265
0.000950548835087
0.00094820938392
0.000948319586671
0.000950801337217
0.000953530960498
0.000954459450664
0.000950389813411
0.000936877028181
0.000907755082932
0.000854965666636
0.000769458417366
0.00066213289058
0.00076915954786
0.00127699041359
0.00165359586185
0.00188648340977
0.00201562322295
0.00207452524932
0.00209183401067
0.00208914820223
0.00208156419481
0.00207648741308
0.00207650708191
0.00208163818549
0.0020893660085
0.0020923028621
0.00207529828608
0.0020167024766
0.00188770146561
0.00165475914002
0.00127779651401
0.000769416661329
0.000854651018976
0.00165384167786
0.00225797395509
0.00263826557827
0.00285317748691
0.00295407450751
0.00298600003709
0.00298520600087
0.00297611545759
0.00296989918144
0.00296972869761
0.00297569818321
0.00298482014599
0.00298595240635
0.0029545125617
0.00285404399998
0.00263940973675
0.00225914171605
0.00165466088597
0.000854926088455
0.000907422899495
0.00188693175861
0.00263842498955
0.00311145888055
0.00337386114182
0.00348999813247
0.00352067434192
0.00351325212236
0.00349902722964
0.00349052081459
0.00349007047103
0.00349786500741
0.0035119481621
0.00351984522377
0.00348985316746
0.00337425088994
0.00311218593388
0.00263927373842
0.00188752686577
0.000907621102568
0.000936589256864
0.00201596620723
0.00285328220906
0.00337368901516
0.00364813276913
0.00375667763232
0.00381025052446
0.00382848209451
0.00382669372395
0.00382213344498
0.0038217628235
0.00382576211102
0.00382746546808
0.003809599674
0.00375633234622
0.00364838491442
0.00337417971126
0.00285381760517
0.00201630109544
0.000936673862119
0.000950156537405
0.00207477019551
0.00295386880929
0.00348930400447
0.00375599982837
0.00391813526991
0.00399506307575
0.00401462012753
0.00401076142785
0.00400453947612
0.00400404983568
0.00400953332081
0.00401330909046
0.0039943040593
0.00391803436051
0.00375665467595
0.00349004693564
0.00295441239481
0.00207507357147
0.000950171148774
0.000954256070682
0.00209179708218
0.00298523121043
0.00351908994141
0.00380943024451
0.00399456219547
0.00407068531496
0.00408255056144
0.00407150821853
0.00406126349353
0.00406062188413
0.00406991712524
0.00408088126883
0.00406981200488
0.00399459657389
0.00381001065705
0.00352049418484
0.00298610387358
0.00209217069866
0.000954256794934
0.00095333104776
0.00208875390784
0.00298385514763
0.00351085389319
0.0038271759979
0.00401363483895
0.00408205870899
0.00408298067944
0.00406246731351
0.00404667494636
0.0040459059274
0.0040605922465
0.00408099851889
0.00408104469084
0.00401376771552
0.00382802938481
0.00351289760664
0.00298515916365
0.0020893446616
0.000953362609385
0.000950587004352
0.00208084079078
0.00297435658112
0.00349625205122
0.00382514272091
0.0040096244666
0.0040709138052
0.00406233382942
0.00403219494423
0.00400999107767
0.00400913263688
0.00403016730069
0.00406013078211
0.00406969239497
0.00400970792134
0.00382612641842
0.00349861375239
0.00297597448406
0.00208163793445
0.000950661925724
0.000948091582745
0.00207550341317
0.00296793656098
0.003487780196
0.00382060465455
0.00400355793329
0.00406090052654
0.00404669475258
0.00400999697171
0.00398261907788
0.00398174477917
0.00400787862956
0.00404432039037
0.00405945745638
0.00400349851316
0.00382156273211
0.00349014896677
0.00296966674213
0.00207639030958
0.000948180980729
0.000948003968382
0.00207534307274
0.00296769810056
0.00348746714774
0.00382032765081
0.00400325548382
0.00406054489462
0.00404624984467
0.00400942712308
0.00398192674506
0.00398103746877
0.00400727527311
0.00404384025956
0.00405907036094
0.0040031651225
0.00382124448613
0.00348975315579
0.00296933824498
0.00207615654429
0.000948056214901
0.000950401942671
0.0020803877719
0.00297366761415
0.00349533662618
0.00382435533982
0.00400877640744
0.00406994027772
0.00406115734952
0.004030769705
0.00400836407566
0.00400746063033
0.00402865488355
0.00405887129455
0.00406863683279
0.00400877162109
0.00382521881373
0.00349746065614
0.00297504086316
0.00208099104258
0.000950395660909
0.000953109385589
0.00208807309045
0.00298278152805
0.00350938539484
0.00382594699533
0.00401232046304
0.00408057664739
0.00408125026346
0.0040604894539
0.00404452773154
0.00404372136268
0.00405854404082
0.00407919052896
0.00407945762119
0.00401231852802
0.00382661139497
0.00351106974251
0.00298372872989
0.00208838820667
0.000953040029857
0.000954043915274
0.00209101818976
0.00298394259263
0.00351725039207
0.00380784359402
0.003992900098
0.00406883001052
0.00408044995125
0.00406918575907
0.00405880931388
0.0040581421091
0.00406754125134
0.00407870281124
0.00406782566551
0.00399274429009
0.00380815906812
0.00351820263585
0.00298438162743
0.00209106243449
0.000953937348381
0.000949993945894
0.00207407137632
0.00295261517352
0.00348739952345
0.0037535410763
0.00391616444943
0.00399300948903
0.00401233922365
0.00400828652637
0.00400194850522
0.00400143185069
0.00400698943195
0.00401091447469
0.0039920703124
0.00391578738563
0.00375373206127
0.00348762071199
0.00295267296694
0.00207399247833
0.000949905206757
0.000936503974047
0.00201543559067
0.00285229960132
0.00337207003698
0.00364576547701
0.00375382226345
0.00380805423536
0.00382607938961
0.00382408751319
0.0038194009603
0.00381899422701
0.00382304788669
0.00382488252713
0.00380713228581
0.00375296642297
0.00364547166298
0.003372006032
0.0028523475162
0.0020154405475
0.000936498539362
0.000907427224559
0.00188669161875
0.0026378910098
0.00311040362804
0.00337210702173
0.00348757210556
0.00351765921647
0.00350977601718
0.00349524621994
0.00348660834507
0.00348609873902
0.0034938684567
0.00350812069714
0.00351636423931
0.00348689495742
0.00337194474235
0.00311059191063
0.00263827789147
0.00188698068407
0.000907542452711
0.000854708634768
0.00165389083676
0.00225790029427
0.00263784275175
0.00285223737756
0.00295258951762
0.0029840213984
0.00298284008959
0.0029734699648
0.00296707654259
0.00296683119928
0.0029728329464
0.00298210293784
0.00298352892377
0.0029525304681
0.00285259505908
0.00263851044067
0.00225868691252
0.00165445031786
0.000854921782774
0.000769251952503
0.00127719541652
0.00165380424048
0.00188651501465
0.00201534415874
0.00207390016716
0.00209089594571
0.00208794685608
0.00208015983153
0.00207494623229
0.00207490878488
0.00208007146175
0.00208791007041
0.00209104987315
0.00207432883969
0.00201605021363
0.00188742060219
0.00165470566561
0.00127781299773
0.000769464378539
0.000662042295732
0.000769219666458
0.000854597188092
0.000907290845038
0.000936350140427
0.000949831479387
0.000953885856931
0.000952957256608
0.000950248799194
0.000947842889261
0.000947922298061
0.000950430642879
0.00095321109569
0.000954211949042
0.000950231098788
0.000936812600765
0.000907772551058
0.000855022919203
0.000769507480328
0.000662147615274
0.000757995964461
0.00120916909847
0.00155853016388
0.00178402009951
0.00191737471199
0.00198692317635
0.00201586651434
0.00202262012933
0.00202061126859
0.00201780887485
0.0020178486395
0.00202072417623
0.00202282352184
0.00201617631465
0.00198732922729
0.00191783733149
0.00178446050274
0.00155886074499
0.00120935799437
0.000758199487374
0.00120918093777
0.00146304962549
0.00176721470515
0.00198018264785
0.00211199017136
0.00218414303963
0.00221731878079
0.00222848302229
0.00223003371802
0.00222923768199
0.00222924250089
0.00223005380472
0.00222854339891
0.00221743947329
0.00218431927299
0.00211219789063
0.00198038122378
0.00176737275746
0.00146315151103
0.00120923745129
0.00155872457794
0.00176728846217
0.00210041673262
0.00234451306333
0.00249956950336
0.00258594715492
0.00262629575815
0.0026403007851
0.0026426105231
0.00264185820299
0.00264179974941
0.00264246138992
0.00264012876407
0.00262616271503
0.00258586533089
0.00249950928813
0.00234445032228
0.00210035794053
0.00176725311996
0.00155864911832
0.00178438064274
0.00198032555195
0.00234457101939
0.00261784803016
0.00279422530548
0.00289404079716
0.00294230491853
0.00296026728362
0.00296425566245
0.00296402962272
0.00296392897631
0.00296397803606
0.00295992783396
0.0029420009643
0.00289379652019
0.00279399668325
0.00261760897798
0.00234434977639
0.00198016122773
0.00178412629579
0.00191783504343
0.00211214598944
0.00249962358392
0.00279420726521
0.00298644846984
0.0030989383971
0.00316217094397
0.00319145703848
0.00320132166444
0.00320327983285
0.00320320860823
0.00320114654703
0.00319124565247
0.00316196687381
0.00309872223277
0.00298622466591
0.00279394418044
0.00249934708877
0.0021119037781
0.00191740084789
0.00198736420589
0.00218423827385
0.00258590891955
0.00289390343384
0.00309884430888
0.0032329233685
0.00331009273107
0.00334655750901
0.0033595328242
0.00336248011572
0.00336242156432
0.00335940475075
0.00334641301829
0.00330995072126
0.0032327932466
0.00309874714281
0.00289377811541
0.0025857162709
0.0021840223524
0.00198685354847
0.00201617059156
0.00221727754771
0.00262608256709
0.0029419677958
0.00316202596342
0.00331004818159
0.00339513446805
0.00343485892758
0.00344855439304
0.00345137562988
0.00345131726966
0.00344844764093
0.00343475476373
0.00339501209509
0.00330995641795
0.00316200118091
0.00294206464367
0.00262607398328
0.00221718259787
0.00201572095126
0.00202271162771
0.00222826536965
0.00263989492086
0.0029597392915
0.00319121759605
0.0033464693461
0.00343483983
0.00347480132295
0.00348738923563
0.00348915743031
0.00348908308959
0.00348725157486
0.0034746880328
0.00343470956151
0.00334639098624
0.00319127899752
0.00296003287372
0.00264008186194
0.00222833472392
0.00202240800007
0.00202045873445
0.00222964397752
0.00264205226978
0.00296360659398
0.00320100465023
0.00335939309902
0.00344848207205
0.0034873319838
0.00349786515542
0.00349794595202
0.00349784977383
0.00349765344461
0.00348715544592
0.00344831248474
0.00335930145286
0.00320110991271
0.00296401089654
0.00264237606841
0.0022298526327
0.00202030540819
0.00201742017465
0.00222870734532
0.00264120697894
0.00296337498752
0.00320291794327
0.00336229839282
0.00345126068729
0.00348906001873
0.00349792168995
0.00349662657355
0.00349649370673
0.00349764830141
0.00348881304626
0.00345103821922
0.00336218131035
0.00320302589451
0.00296377179491
0.00264158255196
0.00222897919858
0.00201734075474
0.00201728069768
0.00222862000549
0.00264110203019
0.00296326033526
0.00320281718502
0.0033622056846
0.00345117070303
0.00348896858231
0.00349782221947
0.00349652014686
0.00349638036798
0.00349754160946
0.00348871813372
0.00345094435589
0.00336208159329
0.00320291265042
0.00296363387612
0.00264144713731
0.00222885582149
0.00201715164001
0.00202007420406
0.00222939418167
0.00264174867393
0.00296326624846
0.00320071714714
0.00335913538743
0.00344823856612
0.00348708692226
0.00349760005795
0.00349766253121
0.00349756358435
0.00349738593484
0.00348690084464
0.00344805122181
0.00335901905129
0.00320078437123
0.00296360270331
0.00264198820007
0.00222950699034
0.00201979358811
0.0020221540877
0.00222788600371
0.00263942154684
0.00295920066087
0.00319077028466
0.00334607812938
0.00343447649919
0.00347444077318
0.00348701633241
0.00348876133383
0.00348868527845
0.00348687106328
0.00347430806794
0.00343431457122
0.00334595423144
0.0031907664579
0.00295938583203
0.00263948128276
0.00222781790008
0.00202167625929
0.00201554624245
0.00221682964012
0.00262549672387
0.00294127679945
0.00316143906207
0.00330954295228
0.00339467756979
0.00343441421361
0.00344810101867
0.00345090492521
0.00345084323467
0.00344798123585
0.00343428299706
0.00339451012296
0.00330938316498
0.00316131784
0.00294122787104
0.00262532652538
0.002216568652
0.0020148968748
0.00198678463293
0.00218379686123
0.00258528983736
0.00289313375921
0.00309806867419
0.00323227706678
0.00330951718164
0.00334599862807
0.00335896609797
0.0033618998969
0.00336183606664
0.00335881993893
0.00334581719112
0.00330931119221
0.00323204821253
0.00309782814644
0.0028928282826
0.00258490764962
0.00218339560987
0.00198606501665
0.00191739606229
0.0021117742298
0.00249905007978
0.00279344627499
0.00298556236728
0.00309807183899
0.00316141293573
0.00319069956322
0.00320054309632
0.003202482976
0.00320240183093
0.00320033479316
0.00319042887832
0.00316111391944
0.00309770893233
0.00298515211247
0.0027929761598
0.00249856709483
0.00211134046529
0.00191675446124
0.00178413489606
0.00198007118804
0.0023441124664
0.0026171934332
0.00279339849714
0.0028930851257
0.00294124867579
0.00295913846239
0.00296306923717
0.00296286342273
0.00296274809141
0.00296273039544
0.00295869658333
0.00294079783693
0.00289265758626
0.00279296091817
0.00261673405399
0.00234367778527
0.00197971428046
0.00178367999596
0.00155865382087
0.00176715426414
0.00210010444699
0.00234402490036
0.00249890968384
0.00258513124161
0.0026253443331
0.00263924171652
0.0026414689593
0.00264066278275
0.00264057881817
0.00264124291526
0.00263894498225
0.00262504562043
0.00258485424401
0.00249863657048
0.00234374581285
0.00209984042572
0.00176693570742
0.001558403274
0.00120923500885
0.00146299915135
0.0017670342431
0.00197986592925
0.00211152117672
0.00218351922456
0.00221655399004
0.00222759907985
0.00222905454523
0.00222819197825
0.00222816766653
0.00222899092108
0.0022275266154
0.00221650690588
0.00218350675068
0.00211153008601
0.00197986938682
0.00176700878489
0.00146293757074
0.00120915966711
0.000758050172296
0.00120912487781
0.00155842279957
0.00178381629074
0.00191701379441
0.00198636872137
0.00201511890657
0.00202169723472
0.00201954033688
0.0020166310507
0.00201663009962
0.00201954085886
0.00202172973438
0.00201522360217
0.00198655665595
0.00191725964125
0.0017840543663
0.00155857507664
0.00120918131205
0.000758232215306
0.00083281564104
0.0015264289086
0.00207880580751
0.00244601524715
0.00267138614236
0.00279590657645
0.00285428677426
0.00287487156636
0.00287854146284
0.00287767211516
0.00287760035162
0.00287834847531
0.00287462927308
0.00285405415006
0.00279569990674
0.00267118721132
0.00244578244695
0.00207851979489
0.00152621041892
0.000833085528621
0.0015264436208
0.00174630041251
0.00208715777941
0.00234107794562
0.00250804148898
0.00260712833199
0.00265910697439
0.00268222707572
0.00269045492883
0.0026925506347
0.00269254347447
0.00269043649637
0.00268220767102
0.00265907986592
0.00260707053179
0.00250792661964
0.00234089388446
0.00208692381453
0.00174604983673
0.00152602002505
0.00207903738939
0.00208718843702
0.00238188680248
0.00262136083347
0.0027852495262
0.00288510621931
0.00293875180457
0.00296338369213
0.00297261478634
0.00297511030571
0.00297506194219
0.00297248459486
0.00296319747161
0.00293851606567
0.00288480805352
0.00278486130318
0.00262089017979
0.00238140193125
0.00208675505403
0.0020781476611
0.00244649390243
0.00234115831358
0.00262138893586
0.00286248472486
0.00303235263168
0.00313851809355
0.00319720169145
0.00322539162428
0.00323715793036
0.00324068807396
0.00324062651292
0.0032370099099
0.00322517244158
0.0031968795945
0.00313812536039
0.00303184705953
0.00286186969158
0.00262075299278
0.00234058549254
0.00244521103966
0.00267202081197
0.00250814525875
0.00278527552236
0.0030323407794
0.00321055977986
0.00332590497846
0.00339267529058
0.00342614862588
0.00343998471543
0.0034442053216
0.00344413393918
0.00343980229321
0.00342585897767
0.00339234944514
0.00332559345612
0.0032101243967
0.00303175747495
0.00278462600209
0.00250750918601
0.00267042143785
0.00279652396492
0.00260718499733
0.00288506821613
0.00313842803345
0.00332583648023
0.00345066863127
0.00352476185954
0.00356255316374
0.00357819882745
0.00358293787214
0.00358284880851
0.00357796201012
0.00356207288371
0.00352414107368
0.00345026424235
0.00332557549278
0.00313801533828
0.00288453472637
0.00260659590338
0.0027948005553
0.00285470342816
0.00265903624817
0.00293858808319
0.00319698938303
0.00339254224275
0.00352485443777
0.00360417528708
0.00364438398897
0.00366060360469
0.00366525915233
0.00366513672263
0.00366025789782
0.00364359272573
0.00360296051627
0.00352402278116
0.00339232599601
0.00319678681299
0.00293824828294
0.00265860083969
0.0028530920643
0.00287497942423
0.00268198250884
0.00296308452535
0.00322513454141
0.00342604962463
0.00356296193906
0.00364485426571
0.00368542787154
0.00370086562899
0.00370472136848
0.00370455706477
0.00370036608418
0.00368434306182
0.00364317949268
0.00356164846602
0.00342574113882
0.00322504832143
0.00296292667562
0.00268174562533
0.00287362602415
0.00287832200664
0.00269003212735
0.00297219721783
0.00323684154402
0.00343993493697
0.00357882922603
0.0036614081092
0.00370125901285
0.00371524734274
0.0037179879486
0.00371780258252
0.00371463321735
0.00369999137232
0.00365950044027
0.00357727737122
0.00343954710681
0.00323681501675
0.00297216215954
0.00268996342793
0.002877233994
0.00287718416625
0.00269198161462
0.00297460905155
0.00324030044401
0.00344416381446
0.00358364106673
0.00366620167202
0.00370531427266
0.00371823085911
0.00372013218257
0.00371990741838
0.00371755289868
0.00370395185294
0.00366419046067
0.00358200816197
0.00344374609331
0.00324031609629
0.00297462416602
0.00269199065944
0.00287623368407
0.00287696914336
0.00269189026197
0.00297452242408
0.0032402228502
0.00344410031749
0.00358359568947
0.00366618012742
0.00370531226732
0.00371824155757
0.00372015322995
0.00371992079717
0.00371755745293
0.00370395033449
0.00366417156902
0.00358196313519
0.00344367450438
0.0032402239148
0.00297451203997
0.00269186049162
0.00287595372699
0.00287769712908
0.00268976308356
0.00297194172176
0.00323661767093
0.00343974856762
0.00357870427808
0.00366135334126
0.00370125689228
0.00371527161868
0.00371802605355
0.00371784033216
0.00371466159999
0.00369999012139
0.0036594403361
0.00357714019742
0.00343933290032
0.00323654826544
0.00297183647461
0.00268959290375
0.00287644359549
0.00287402028171
0.00268156432747
0.00296267493308
0.00322476368286
0.00342574398825
0.00356277000114
0.00364477952772
0.00368544492357
0.00370092584809
0.00370479091927
0.0037046281577
0.00370042702325
0.00368435544948
0.00364308868075
0.00356142182183
0.00342538331464
0.00322460487555
0.00296241118001
0.00268118378029
0.00287243912711
0.00285355692735
0.00265852504526
0.00293805243413
0.00319644511335
0.0033920957509
0.00352455679705
0.00360404283511
0.00364436862037
0.0036606453033
0.00366530993699
0.00366518937173
0.00366029330336
0.00364356163703
0.0036027963954
0.00352366847882
0.00339179948943
0.00319613363226
0.00293757559136
0.00265791619776
0.00285167707961
0.00279537078882
0.00260665163323
0.00288445703854
0.00313776138413
0.0033252237412
0.00345017626863
0.00352441504017
0.00356232368446
0.00357802110169
0.00358276936053
0.00358267855222
0.00357777220233
0.00356181358527
0.00352374045565
0.00344969080669
0.00332485262308
0.00313720831014
0.00288375818004
0.00260586669275
0.00279335064868
0.0026710268348
0.00250765370177
0.00278464339289
0.00303159708581
0.00320978184708
0.00332518705438
0.00339202766887
0.00342556551261
0.00343942651057
0.00344364177159
0.00344356227351
0.00343921899426
0.00342522894499
0.00339162333073
0.00332476321571
0.0032092019806
0.00303084341317
0.00278380479406
0.0025068071429
0.00266911594678
0.00244576948211
0.00234075284187
0.00262079183647
0.00286173048412
0.00303150143778
0.00313762042554
0.00319629088118
0.00322456348524
0.00323633071729
0.00323979885246
0.00323972153707
0.00323614313978
0.00322427572402
0.00319585554101
0.00313707994148
0.00303082013729
0.0028609198015
0.00261994946426
0.00233996308047
0.0024441750572
0.00207861267861
0.00208687835273
0.00238136598141
0.00262066179809
0.00278441362461
0.00288416631427
0.00293773209028
0.00296231066182
0.00297148909637
0.00297393808498
0.00297386661063
0.00297129231443
0.00296201490557
0.00293734690365
0.00288368839227
0.00278382492454
0.00261997983173
0.00238066888243
0.00208623445462
0.00207744154506
0.00152630327047
0.00174605696556
0.0020867166639
0.00234046271055
0.00250726256242
0.0026061948911
0.00265803536723
0.00268103963502
0.0026891703372
0.00269119695086
0.00269115771655
0.00268905966419
0.00268087163751
0.00265782011571
0.00260592500578
0.00250692470875
0.00234005580006
0.00208627077273
0.0017456107555
0.00152566923439
0.000832879716684
0.00152612693503
0.00207825277168
0.00244522993507
0.00267031923098
0.00279452662964
0.00285260828171
0.00287293886406
0.00287640376659
0.00287539430063
0.00287526718595
0.00287605502437
0.00287245129925
0.00285207557279
0.00279399272766
0.00266978683037
0.00244467704846
0.00207768241537
0.00152569716702
0.000833135676477
0.000880855880117
0.00174172758033
0.00243866359043
0.00291102140403
0.00320870208309
0.00338003794664
0.00346675092634
0.00350329696031
0.00351521369671
0.00351779549006
0.00351759485615
0.00351465301563
0.00350249970117
0.00346580074158
0.00337897195138
0.00320756446872
0.00290987194725
0.00243760596719
0.00174104206228
0.000881219638769
0.00174177550228
0.00195427898694
0.00233598719171
0.00262925435574
0.00282849683772
0.0029518484423
0.00302066423599
0.00305442611194
0.00306856030519
0.00307321111527
0.0030732048509
0.00306854484208
0.00305440532593
0.00302059553628
0.00295166287452
0.00282813995682
0.00262872161497
0.00233534899664
0.00195362370662
0.00174077732726
0.00243897010659
0.00233600465819
0.00262813353512
0.00287951360543
0.00305867264198
0.00317309137716
0.00323871961901
0.00327203319478
0.00328640539115
0.00329122215979
0.00329117896196
0.00328629251964
0.0032718726305
0.00323848731586
0.00317271804432
0.00305809271491
0.00287872944199
0.00262725448837
0.00233512713321
0.00243705710682
0.00291163815879
0.00262931571932
0.00287952995474
0.00311500629393
0.00328916202481
0.00340351669295
0.0034707005615
0.0035061773657
0.0035215208404
0.00352666503719
0.00352658187753
0.00352130213195
0.00350578316142
0.00347016379063
0.0034030024392
0.00328854255097
0.00311414649743
0.00287854955664
0.00262831177038
0.00290899072341
0.00320952857899
0.00282858367601
0.00305868463301
0.00328914280406
0.00346453056572
0.00358291723368
0.00365318134719
0.00368971939453
0.00370559199202
0.00371081771937
0.00371066434838
0.00370514076461
0.00368877804648
0.00365183935109
0.00358175222896
0.00346380751562
0.00328842511837
0.00305777891167
0.00282757353814
0.00320632313506
0.00338085084728
0.00295188346058
0.0031730375971
0.00340341699236
0.00358301342693
0.00370486987985
0.00377773198985
0.00381524940478
0.0038311585339
0.00383611946811
0.00383585613721
0.00383031060613
0.00381339414441
0.00377491689269
0.00370220580251
0.00358158450432
0.00340284720597
0.00317234177832
0.00295099606591
0.0033774160132
0.0034672796217
0.00302054404497
0.00323852548947
0.00347060865289
0.00365385562976
0.00377865460352
0.00385302635232
0.00389050807702
0.00390561055455
0.00390986878404
0.00390950531443
0.00390436810963
0.00388767913518
0.00384851517241
0.00377414952924
0.00365115196824
0.00346991318511
0.00323810704285
0.00301989509376
0.00346401583417
0.00350337506936
0.00305408392832
0.00327167070693
0.00350626204371
0.0036911590113
0.00381745048838
0.00389203140211
0.00392837856774
0.00394201531243
0.00394522715353
0.00394482349097
0.00394055456433
0.00392496132719
0.0038864529213
0.00381157695699
0.00368741930345
0.00350529170923
0.00327149697835
0.00305371774641
0.00350054173341
0.00351482392832
0.00306798507398
0.00328589553247
0.00352168821901
0.0037074797465
0.00383417210683
0.00390818894519
0.00394316970053
0.00395519227903
0.00395724669097
0.00395685860958
0.00395371554039
0.00393960823774
0.00390225512165
0.00382778647163
0.00370334414147
0.00352062044679
0.00328587739426
0.00306785481415
0.00351244647735
0.00351706205189
0.00307244940339
0.00329061648876
0.00352683155799
0.00371286561417
0.00383948764191
0.00391295478813
0.00394695036721
0.00395781147674
0.00395902665199
0.00395863463359
0.00395634243096
0.00394336240137
0.00390693206817
0.00383298568529
0.00370864791513
0.00352575881817
0.00329065623126
0.00307242979525
0.00351492853498
0.00351674779357
0.00307234847055
0.00329053532908
0.00352676920268
0.00371283225439
0.00383948908181
0.00391299351248
0.00394701080959
0.0039578813028
0.00395910281153
0.00395870190969
0.00395640283671
0.00394342020585
0.00390697307269
0.00383299195288
0.00370860968203
0.00352568265013
0.00329054847354
0.00307228389889
0.00351452621541
0.0035138832389
0.00306767860443
0.00328564966181
0.00352150021881
0.00370738228348
0.00383419432339
0.00390832519308
0.00394337384728
0.0039554220217
0.00395748511938
0.00395708852025
0.0039539352589
0.00393980702524
0.0039023876356
0.00382780496239
0.00370322868008
0.00352039244712
0.00328556076194
0.00306743424266
0.003511288516
0.00350189217204
0.00305359739152
0.00327126701778
0.00350595268441
0.00369101302758
0.0038175299907
0.00389231777502
0.00392879847904
0.00394248856546
0.00394571082976
0.00394530200315
0.00394102077341
0.0039253778769
0.00388672930463
0.00381163128081
0.00368723513747
0.00350491571529
0.0032709892768
0.00305307182339
0.00349876455653
0.00346545087637
0.00301993080124
0.00323797812662
0.00347014890802
0.00365361688521
0.00377873248161
0.0038534147917
0.00389109077957
0.00390626981167
0.00391053799797
0.00391017234579
0.00390501381479
0.00388824282425
0.00384887190191
0.00377417573209
0.0036508431773
0.00346935500322
0.00323742406641
0.00301908780343
0.00346183448574
0.00337894124615
0.00295121062823
0.00317236997147
0.00340277118413
0.00358255815144
0.00370473385808
0.00377792948206
0.00381567571142
0.00383166708105
0.00383663692105
0.00383636856919
0.00383079460806
0.00381377405264
0.00377504922496
0.00370198742739
0.00358102549462
0.00340206849608
0.00317150478714
0.00295009913552
0.00337510247672
0.00320779359257
0.00282791246042
0.0030579334103
0.0032883345588
0.00346377790685
0.00358236970972
0.00365288368135
0.00368959507185
0.00370552073848
0.00371074411899
0.0037105791783
0.00370503112936
0.00368858819659
0.00365145172109
0.00358109270698
0.00346291739613
0.00328744815481
0.00305682626542
0.00282665509867
0.00320415035409
0.00291026090991
0.00262869148207
0.0028787442462
0.0031140979162
0.00328820850898
0.00340258227552
0.00346984159898
0.00350539139847
0.00352073273502
0.00352585132928
0.00352575244142
0.00352046488136
0.00350491222452
0.00346918828219
0.00340191974363
0.00328741013189
0.00311303171625
0.00287753380675
0.00262742594376
0.00290716895392
0.00243803510165
0.00233544973317
0.00262736454987
0.0028785751414
0.0030576278147
0.00317197988052
0.0032375579296
0.00327081849203
0.00328512903554
0.00328989707508
0.00328982958541
0.00328494346519
0.00327053523914
0.00323716205415
0.00317140944159
0.00305682572063
0.00287755188217
0.00262623874563
0.00233431587408
0.0024357282925
0.00174132200751
0.00195377858674
0.00233524472446
0.00262831315896
0.00282738594335
0.00295058140009
0.00301925377078
0.00305288732705
0.00306690547504
0.00307147521593
0.00307143116162
0.00306678132692
0.00305268662721
0.00301895777903
0.00295013911542
0.00282675752728
0.00262750614479
0.0023343466016
0.00195288697245
0.00174006307647
0.000880937893533
0.00174107282722
0.00243751868148
0.00290943760522
0.00320663306302
0.00337745993122
0.00346370687986
0.00349987521048
0.00351149485812
0.00351388197547
0.00351360163287
0.00351071035069
0.00349871862395
0.00346231765476
0.00337591404728
0.00320500553878
0.00290781895026
0.00243606021946
0.00174012420191
0.000881296940284
0.000913469391268
0.0019038009849
0.00271136691614
0.00326579737812
0.00362277317066
0.00383510829655
0.00394870651597
0.00400167702326
0.00402279877126
0.00402947411795
0.00402920148293
0.00402204048958
0.00400062038386
0.00394738661022
0.00383345816755
0.00362088911892
0.00326389496864
0.00270969506328
0.00190278732903
0.000913979788092
0.00190392368861
0.00210744650692
0.00252303503721
0.00284846954029
0.00307375510886
0.00321654883699
0.0032988024424
0.00334095625677
0.00335971226932
0.00336635182099
0.00336639374163
0.00335985065378
0.00334120306627
0.00329906625788
0.00321665284122
0.0030735357291
0.00284787226753
0.00252216082329
0.00210646377766
0.00190241127147
0.0027118189453
0.00252306604744
0.00282090754563
0.003086438697
0.00327978661666
0.0034062635941
0.00348115813993
0.00352056407108
0.00353844450826
0.00354482476505
0.00354481040861
0.00353842140416
0.00352047807836
0.0034809813078
0.00340606886974
0.00327938235953
0.00308564622307
0.00281984780795
0.00252187649027
0.0027088930608
0.00326663845293
0.00284855048658
0.00308646165664
0.00332434663033
0.00350495135834
0.0036263339809
0.00369957846408
0.00373851294418
0.00375594155031
0.0037620048901
0.00376187012802
0.00375553534167
0.00373761760219
0.0036982640193
0.00362505814275
0.00350407971671
0.00332360149338
0.00308543290841
0.00284735907386
0.00326257296575
0.00362388380812
0.00307385675683
0.00327980687282
0.00350496553209
0.00368122040927
0.00380173105567
0.00387363548879
0.00391109639406
0.00392753055694
0.0039329255294
0.00393260783136
0.00392644549374
0.00390870617867
0.00386989485937
0.00379789072681
0.00367880751152
0.00350393546586
0.00327902462894
0.00307284367999
0.00361896689302
0.00383619711393
0.00321656467223
0.00340621852281
0.00362668859666
0.00380258415168
0.0039220176198
0.00399245299802
0.00402790804887
0.00404277004812
0.00404718319233
0.00404670131647
0.00404097691306
0.00402384129516
0.00398571504992
0.00391436130995
0.00379713969389
0.00362455729595
0.00340565544528