/*--------------------------------*- C++ -*----------------------------------*\
| =========                 |                                                 |
| \\      /  F ield         | OpenFOAM: The Open Source CFD Toolbox           |
|  \\    /   O peration     | Version:  3.0.1                                 |
|   \\  /    A nd           | Web:      www.OpenFOAM.org                      |
|    \\/     M anipulation  |                                                 |
\*---------------------------------------------------------------------------*/
FoamFile
{
    version     2.0;
    format      ascii;
    class       volScalarField;
    location    "3.3";
    object      nut;
}
// * * * * * * * * * * * * * * * * * * * * * * * * * * * * * * * * * * * * * //

dimensions      [0 2 -1 0 0 0 0];

internalField   nonuniform List<scalar> 
7968
(
0.000189048137858
0.000198984780009
0.000206274606703
0.000210554451345
0.000212859722959
0.000213921856713
0.000214244355842
0.000214175484969
0.000213965236086
0.000213777583745
0.000213785592231
0.00021398354681
0.00021420089228
0.00021427624261
0.000213959704564
0.000212902808904
0.000210599292762
0.000206315624165
0.000199015128646
0.00018906108735
0.000198988224492
0.000236158901828
0.000257650906925
0.000269349284188
0.000275424632021
0.000278100123227
0.000278861175853
0.000278715905106
0.000278352280921
0.00027810982414
0.000278109860205
0.000278353288542
0.000278722476109
0.000278878790384
0.000278131904733
0.000275471938581
0.000269406459727
0.000257711605649
0.000236209528284
0.000199011309337
0.000206289622642
0.000257664119676
0.00028605364421
0.000301384000691
0.000309393990956
0.000312999171005
0.000314099660551
0.000314039161315
0.000313691399828
0.000313456187468
0.00031344887631
0.000313673200328
0.00031402091331
0.000314093165527
0.000313010355346
0.000309421967445
0.000301425287578
0.000286101788352
0.000257706541605
0.000206312259106
0.000210573512231
0.000269371349504
0.000301390408267
0.000318483253785
0.000327203697448
0.000330890525525
0.000331815301104
0.000331537151893
0.000331054002405
0.000330766509686
0.000330750585731
0.000331012309184
0.000331489768982
0.00033178306397
0.000330880628077
0.000327211826591
0.000318504293946
0.000301419900628
0.000269398027149
0.000210588437529
0.000212881619619
0.000275440943207
0.000309398034327
0.000327198072406
0.000335813761049
0.000339057210686
0.000340643175827
0.000341164723985
0.000341091129934
0.00034094219084
0.000340929410364
0.000341058921832
0.000341128840591
0.00034061827574
0.00033904123449
0.00033581663583
0.000327209253283
0.000309413191945
0.000275453071509
0.000212886574089
0.000213943440973
0.000278111536528
0.000312991753634
0.000330867683118
0.000339035717873
0.000343836612467
0.00034606241614
0.000346608249127
0.000346476398433
0.000346282603975
0.000346266339026
0.000346435629821
0.000346563892191
0.000346034501657
0.000343828822192
0.00033905129648
0.000330886594774
0.000313006164051
0.000278121096525
0.000213942255571
0.000214262537865
0.000278859605291
0.0003140717963
0.000331763282276
0.000340617297124
0.000346047218609
0.000348222169229
0.000348537035443
0.000348195062053
0.000347883538445
0.000347862533311
0.000348142977191
0.000348481361492
0.000348190210565
0.000346043134289
0.000340630895039
0.000331803611212
0.000314097750672
0.000278871922285
0.000214259904433
0.000214187392711
0.000278698026905
0.000313990313407
0.000331458574509
0.000341124067302
0.000346578877194
0.000348522898971
0.000348515989555
0.000347893178736
0.000347415339716
0.000347390063882
0.000347831406136
0.000348449556471
0.00034848556193
0.000346576916834
0.00034114566221
0.000331519657295
0.000314031734124
0.000278720170007
0.000214186992768
0.00021396862132
0.000278319523216
0.000313628086155
0.000330963373715
0.000341043495822
0.000346443311063
0.000348179026379
0.000347890724541
0.000346977603825
0.000346303142912
0.000346274699238
0.000346909923614
0.000347816256312
0.000348134399495
0.000346439063468
0.00034106862121
0.000331034787552
0.000313680837413
0.000278351163749
0.000213971539908
0.000213769014883
0.000278065487605
0.000313386204113
0.000330679214133
0.000340896352887
0.000346255439476
0.000347876060031
0.000347419758704
0.000346306102544
0.000345471378099
0.000345441977487
0.000346234920541
0.000347339402719
0.000347824287403
0.000346246500801
0.000340920285975
0.000330749640516
0.000313442919978
0.000278101255068
0.000213772976507
0.00021376182225
0.000278057726992
0.000313377206953
0.000330668782701
0.000340887568769
0.000346246183524
0.000347865334505
0.000347406354462
0.000346288840297
0.000345450296761
0.000345420439572
0.000346216640049
0.00034732494017
0.000347812615679
0.000346236296418
0.000340910193913
0.000330736475872
0.000313430596049
0.000278090035404
0.000213762802235
0.000213953475276
0.000278297660074
0.000313602128365
0.00033093271885
0.000341018521752
0.000346417371479
0.000348149695347
0.000347855388562
0.000346934626529
0.000346253866782
0.000346224084859
0.000346864348132
0.00034777845256
0.000348102626544
0.000346410445401
0.00034103987119
0.000330996304626
0.000313645882809
0.000278320219774
0.00021394991474
0.000214169243827
0.000278665231128
0.000313949917517
0.000331409514312
0.0003410850517
0.000346538606447
0.000348478182917
0.000348464016435
0.000347833697649
0.000347350570793
0.000347324186565
0.000347769816835
0.000348395247064
0.000348437714793
0.000346532569798
0.000341100741796
0.000331458850304
0.000313978294216
0.00027867454756
0.000214160821223
0.000214245092545
0.000278822004437
0.00031402318035
0.000331701729886
0.000340566675522
0.000345995978194
0.000348165907093
0.000348473667816
0.000348124978947
0.000347809340502
0.000347787568315
0.000348071250716
0.000348415599407
0.000348130014483
0.000345986165514
0.000340572024238
0.000331727356889
0.000314033334961
0.000278819048699
0.000214233949141
0.000213929918942
0.000278077276626
0.000312943852385
0.000330803330637
0.000338957147638
0.000343774950165
0.000345999120692
0.000346538339839
0.000346400575537
0.000346203175032
0.000346186081801
0.000346357663965
0.00034649047402
0.00034596572377
0.000343758738377
0.000338958336512
0.000330805199186
0.000312940465855
0.000278069086608
0.000213920516509
0.000212874298179
0.00027541419547
0.000309359198864
0.000327141698937
0.000335736258434
0.000338965731142
0.000340573007979
0.000341088360282
0.000341008330779
0.000340855548608
0.000340841645987
0.000340972704698
0.000341046805669
0.000340539632133
0.000338933988325
0.000335721828902
0.000327134311968
0.000309356020513
0.000275410558521
0.000212872025272
0.000210573520892
0.000269358139115
0.000301367543443
0.000318443865398
0.000327142631591
0.000330808499534
0.000331714284298
0.000331420855802
0.000330927186507
0.000330636763139
0.00033061887916
0.000330878313475
0.000331361889918
0.000331666818723
0.000330781141537
0.00032713217473
0.000318445776642
0.000301378683093
0.000269369535712
0.000210581685042
0.000206294385901
0.00025766585675
0.000286049084908
0.000301365567099
0.000309356627046
0.000312942331066
0.000314025015183
0.000313950267769
0.000313591989738
0.000313350188588
0.000313340120866
0.000313565672355
0.000313919107213
0.000314002218616
0.000312935216239
0.000309365386493
0.000301387888513
0.000286080363507
0.000257694122389
0.000206311780153
0.000198996624523
0.000236171625566
0.000257661445424
0.000269349752492
0.000275409911745
0.000278069233555
0.000278815741816
0.000278658081149
0.000278284762212
0.000278035739121
0.000278033076133
0.00027827811227
0.000278652700784
0.000278818636461
0.000278084854555
0.000275439361525
0.000269391312707
0.00025770785691
0.00023621012172
0.000199015712287
0.000189051947991
0.000198993612489
0.00020628493613
0.000210562486924
0.00021286211121
0.00021391705359
0.000214232463748
0.000214156817423
0.000213940518471
0.000213747491233
0.000213753023806
0.000213953172371
0.000214174659533
0.000214255857126
0.000213946437914
0.000212897164363
0.00021060042859
0.000206320353037
0.000199019625001
0.000189062691587
0.000197970736004
0.000231690443453
0.000252379620598
0.000264164444118
0.000270692343505
0.000273986691072
0.000275337234978
0.000275647630986
0.000275548966086
0.00027541416072
0.000275415302813
0.000275552288427
0.000275654355184
0.000275348602189
0.000274002790235
0.000270712041565
0.000264184770257
0.000252396773937
0.00023170248368
0.000197989525365
0.000231691552303
0.000757723473838
0.000976033364632
0.00108430153921
0.00113864691697
0.00116256719562
0.00116962644177
0.00116857587307
0.00116525708231
0.00116287387553
0.00116277466681
0.00116498586401
0.0011681967663
0.00116920969876
0.0011621558316
0.00113825872463
0.0010839288729
0.000975649444396
0.000757316100229
0.000231693987482
0.00025239080735
0.000976185609481
0.00130562348409
0.00147718375843
0.00156922872372
0.00161526624739
0.00163445510284
0.00163959065411
0.00163918841332
0.00163791561234
0.00163777006649
0.00163879224276
0.00163904922525
0.00163388042395
0.00161472279911
0.00156871989867
0.00147668453458
0.00130509621973
0.000975631440804
0.000252384516624
0.000264183127616
0.0010845421684
0.00147729776024
0.0016859274029
0.00179967326273
0.00185767286206
0.00188234648414
0.0018895056966
0.00189002419843
0.0018891911045
0.00188899868908
0.00188945606565
0.00188875869972
0.0018815999011
0.00185702003514
0.00179906307243
0.00168530432654
0.00147662215316
0.00108385822401
0.000264167371993
0.000270714971069
0.00113891267886
0.00156937625338
0.00179970163593
0.00192437391214
0.00198539051296
0.00200577211152
0.00200583073139
0.00200173727019
0.0019989218612
0.00199856473765
0.00200078396762
0.00200464727615
0.00200475588607
0.00198470057097
0.00192372581381
0.00179901152628
0.00156860184492
0.00113814869623
0.000270690431553
0.000274007837868
0.00116278857358
0.00161536174133
0.00185762115563
0.00198531688398
0.00203444566354
0.00204094785282
0.00203251263081
0.00202354419262
0.00201862419231
0.0020181225253
0.00202220841956
0.00203089434501
0.00203968591292
0.00203370195719
0.00198470482065
0.00185696337426
0.00161458015603
0.00116201931891
0.000273979677384
0.000275351705459
0.00116977066897
0.00163443911379
0.0018821142497
0.00200528280148
0.00204058532351
0.00203638674869
0.00202051744003
0.00200715180162
0.00200028895102
0.00199964979422
0.002005445845
0.00201844580612
0.00203485865764
0.0020398658364
0.00200494030555
0.00188157613876
0.00163372652175
0.0011690562719
0.00027532639605
0.000275652122641
0.00116864745434
0.00163947796304
0.00188915752369
0.00200511823024
0.00203192038625
0.00202030462291
0.00199864714092
0.0019819593978
0.00197363417089
0.00197288861618
0.00197997154879
0.00199616422067
0.00201846177261
0.00203110474319
0.00200485151068
0.0018886889299
0.00163883962544
0.00116799957382
0.000275633623365
0.000275542170006
0.00116529073501
0.0016390368395
0.00188966745281
0.00200105646156
0.00202308516357
0.00200716904441
0.00198220921043
0.00196325683772
0.00195379831412
0.00195298804086
0.00196112334379
0.00197946581666
0.00200501733882
0.00202207865654
0.00200074122009
0.00188920636723
0.00163844164758
0.00116469023583
0.00027553069945
0.000275396565105
0.00116290793758
0.00163779030404
0.00188902704498
0.00199846722879
0.00201853604799
0.00200078235532
0.00197435930482
0.00195421170059
0.00194430235323
0.00194349556101
0.00195201696675
0.00197147123835
0.00199841853094
0.00201735823617
0.0019980606601
0.00188844777867
0.00163719880469
0.0011623249665
0.000275388527449
0.000275389652316
0.00116283097108
0.00163769340063
0.0018889282649
0.00199833956322
0.00201839100932
0.00200061694164
0.00197416309985
0.00195397607562
0.00194403538599
0.00194322528584
0.00195176796228
0.00197125859978
0.00199823891628
0.00201720045125
0.00199791876091
0.00188833669649
0.0016370878702
0.00116223772177
0.000275379208677
0.000275523142971
0.00116506510109
0.00163875186839
0.00188935642595
0.00200067568705
0.00202265627011
0.00200669028626
0.00198166280571
0.00196263309823
0.0019531170515
0.0019522838274
0.00196045025017
0.00197887856366
0.00200450396703
0.00202161476541
0.00200031875022
0.0018888566605
0.0016381174522
0.00116443680039
0.000275505530029
0.000275624533101
0.00116828674715
0.00163902457499
0.00188865708104
0.00200449382561
0.00203120693484
0.00201951580954
0.0019977659434
0.00198101046215
0.00197263918739
0.00197187409065
0.00197898801491
0.0019952550244
0.00201763620578
0.00203034157278
0.00200416147858
0.00188812692993
0.00163832581518
0.00116759723208
0.000275597656291
0.000275320654475
0.00116930710466
0.00163386010481
0.00188146528194
0.00200448489753
0.00203962510744
0.00203529711223
0.00201932040351
0.00200587589233
0.00199897424289
0.00199832498605
0.00200415133108
0.00201722711064
0.00203372512307
0.00203883721699
0.00200405758
0.00188084444438
0.001633067886
0.00116853791251
0.000275285744889
0.000273978584731
0.00116227115461
0.00161472782068
0.00185692515275
0.00198462193139
0.00203340233467
0.00203966989983
0.00203109865953
0.00202205107488
0.00201709314182
0.00201658064857
0.00202068917287
0.00202943933588
0.00203834302831
0.00203257761575
0.00198393556493
0.0018561689981
0.0016138482333
0.0011614327233
0.00027394028992
0.000270692049861
0.00113839683921
0.0015687575748
0.00179900513124
0.00192359932684
0.00198459301205
0.00200452790031
0.00200441932051
0.00200024190356
0.00199739746199
0.00199702909718
0.00199925171251
0.00200317319481
0.0020034252017
0.00198382813686
0.00192284777602
0.00179819744101
0.00156786811553
0.00113754620329
0.000270657221824
0.000264169327031
0.00108408604124
0.00147676366878
0.00168530875918
0.00179894607019
0.0018568315148
0.00188135000067
0.00188843225933
0.00188890205947
0.00188819591725
0.00188799898349
0.00188829660557
0.00188762344358
0.00188051534171
0.00185607408843
0.00179821396737
0.00168455538943
0.00147596221143
0.00108330341674
0.000264143173301
0.000252386022744
0.00097583267437
0.0013052257768
0.00147670715264
0.00156864197789
0.00161456390528
0.001633645926
0.00163870800035
0.00163825503846
0.00163696010746
0.00163680224738
0.00163781847457
0.00163810050117
0.0016329811602
0.00161391205186
0.00156801076471
0.00147607943125
0.00130457372238
0.000975175903257
0.000252369837879
0.000231694760138
0.000757521941143
0.000975816050992
0.00108402635183
0.00113828925546
0.00116212668503
0.00116911717441
0.00116801553596
0.00116466075935
0.00116225482224
0.00116214609642
0.00116436082927
0.00116758885804
0.00116863603479
0.00116163645083
0.0011378097462
0.00108355337454
0.000975329886412
0.000757021374401
0.000231688457062
0.000197975776631
0.000231686979448
0.000252372735438
0.00026415282718
0.000270673238856
0.000273958485453
0.000275299931433
0.000275601954322
0.00027549610246
0.000275356066215
0.000275355225641
0.000275493966123
0.000275600403008
0.000275301373711
0.000273963950904
0.000270682142993
0.000264162625458
0.000252379781676
0.000231690209972
0.000197992623908
0.00020443286312
0.000250563488415
0.000277955812368
0.000293594329047
0.000302450586531
0.000307143056238
0.000309300161442
0.000310054516162
0.000310187820078
0.000310154792172
0.000310151246751
0.000310178198677
0.000310041879303
0.000309287142019
0.000307130671375
0.000302438479255
0.000293580961274
0.00027793986298
0.000250549659069
0.0002044562399
0.00025056481453
0.00095317349489
0.00126739869119
0.0014268912063
0.00150884056633
0.00154677906246
0.00156006133192
0.00156120121207
0.00155831424323
0.00155583095208
0.00155563078748
0.00155775604301
0.00156038912137
0.00155910895043
0.001545761854
0.00150779892631
0.00142584441931
0.00126635248751
0.000952190067256
0.000250538027337
0.000277966960201
0.00126764034047
0.0017776189964
0.00205567073614
0.00221009051539
0.00229108503185
0.00232824654824
0.00234160606629
0.00234440308897
0.00234399120849
0.00234371108333
0.0023436381813
0.00234052491645
0.00232702154978
0.00228982687239
0.00220880948325
0.00205433595432
0.00177621172097
0.00126630281123
0.000277921957623
0.000293614521131
0.0014272935445
0.00205588639651
0.00241043660917
0.00261283260548
0.00272246827169
0.00277495854858
0.0027961881465
0.00280347272526
0.00280478550694
0.00280441478547
0.00280251709669
0.00279487894845
0.002773494734
0.00272105546598
0.00261141969405
0.00240891327548
0.00205420657521
0.00142569112608
0.000293556679021
0.000302475686126
0.00150930820431
0.00221040808773
0.00261293292354
0.00284411454488
0.00296870289333
0.00302417896706
0.00304338164473
0.00304736784951
0.00304692768751
0.00304636032576
0.00304584505204
0.00304131767251
0.00302217108783
0.00296709457539
0.00284260667095
0.00261128931834
0.00220854586358
0.00150754195675
0.000302407897902
0.00030716673695
0.00154721589804
0.00229137360043
0.0027225103214
0.00296860449223
0.00309138417626
0.00314093929544
0.00315334824585
0.00315202139227
0.0031488371961
0.00314802947478
0.003149823439
0.0031502142915
0.00313777460294
0.00308914480731
0.00296704444057
0.00272084482347
0.00228945899512
0.00154541663242
0.000307095707003
0.000309316022699
0.00156041105999
0.00232841782709
0.00277485177278
0.00302387809531
0.00314097461125
0.00318171542237
0.00318542132715
0.00317771883333
0.00317129843133
0.00317025495861
0.00317483504438
0.00318108840732
0.00317700844782
0.00313754503551
0.00302207539622
0.0027732040357
0.00232654859205
0.00155867278159
0.000309249902904
0.00031005891434
0.001561468864
0.0023416833065
0.00279609175361
0.0030431621414
0.00315389974224
0.00318616995171
0.00318169571361
0.00316797066249
0.00315847884881
0.00315724800315
0.0031645257745
0.00317636256208
0.00318017227461
0.00314927002684
0.0030408752651
0.00279434955159
0.00233986205816
0.00155981016379
0.000310002671755
0.000310180289766
0.00155854963081
0.00234445530875
0.00280343702736
0.00304745679148
0.00315326572022
0.00317946601549
0.00316907473431
0.0031509009803
0.00313914564172
0.00313779476281
0.00314709724827
0.00316309788763
0.00317263983825
0.00314790095178
0.00304477171545
0.00280159483621
0.00234265723572
0.00155694738603
0.000310134033143
0.000310137672136
0.00155609212092
0.00234409386133
0.00280481580449
0.00304740112989
0.00315075630773
0.00317394167598
0.00316056391609
0.00314012181186
0.00312723241447
0.00312583817842
0.00313614845196
0.00315427642157
0.00316671426004
0.0031450472061
0.00304452224677
0.00280298130522
0.00234230195495
0.00155451092172
0.000310096559549
0.000310129293751
0.00155595487033
0.00234392177458
0.00280464595189
0.00304722458581
0.00315057069621
0.00317373500586
0.00316031902795
0.00313983272643
0.00312690938094
0.00312551040959
0.00313584457476
0.00315401484683
0.00316649397344
0.00314484925924
0.00304433122405
0.00280279670843
0.00234211320853
0.0015543611744
0.000310085694349
0.000310155957868
0.0015581440571
0.00234395141262
0.00280295382677
0.00304693648524
0.00315272104602
0.00317887558475
0.00316840241411
0.00315013958915
0.00313831698209
0.00313694527793
0.00314628874492
0.00316238434282
0.00317201729596
0.00314732331247
0.00304420872926
0.0028010711445
0.00234210617868
0.00155650894932
0.000310103387334
0.000310021515888
0.00156081413986
0.00234087565386
0.00279530765952
0.0030423184483
0.00315303557111
0.00318527497249
0.00318072616624
0.00316691197453
0.00315735912492
0.00315610734874
0.0031634241412
0.00317535458609
0.00317923734403
0.00314835362277
0.00303995996533
0.0027934965769
0.0023389802051
0.00155910712944
0.000309956604836
0.000309271017656
0.00155955700332
0.00232736668692
0.00277377167545
0.00302274914682
0.003139819285
0.00318055285449
0.00318421341372
0.00317643845223
0.00316996394469
0.00316890566262
0.0031735185274
0.00317983613978
0.00317578680373
0.00313630951577
0.00302084348237
0.00277201591183
0.00232539390304
0.00155775229009
0.000309194656248
0.000307120679552
0.00154624354099
0.00229019170644
0.00272128047199
0.00296730761475
0.00308998190329
0.00313947861024
0.00315184715611
0.00315045681392
0.00314721922911
0.00314639451725
0.00314821482063
0.00314864816127
0.00313622651116
0.00308763291442
0.00296561804621
0.00271947451408
0.00228814133399
0.00154435285353
0.000307038188957
0.000302434533866
0.00150831516571
0.00220921880067
0.00261167436984
0.00284276393674
0.00296721298221
0.00302252023832
0.00304163993489
0.00304555340086
0.00304504382124
0.00304445800141
0.00304398123871
0.0030394959087
0.00302040043084
0.00296546796542
0.00284109956167
0.00260985906208
0.00220718919528
0.0015064277664
0.000302354356176
0.00029358243761
0.00142638278653
0.00205480597186
0.00240926104574
0.00261153172956
0.00272101818252
0.00277337468598
0.00279463579247
0.00280185565908
0.00280298389224
0.00280259090521
0.00280084946581
0.00279324411841
0.00277178423255
0.00271944834639
0.00260993769383
0.00240754239412
0.00205293577592
0.00142463524624
0.000293511487329
0.00027794572487
0.00126689676311
0.00177674540846
0.00205468162314
0.00220895021452
0.00228978274402
0.00232680263821
0.00234007244449
0.00234279240807
0.00234231340109
0.00234201162925
0.00234196785128
0.00233889504282
0.00232544548052
0.00228836286555
0.00220748444651
0.00205314964728
0.00177514546233
0.00126540596981
0.000277887587584
0.000250555876642
0.000952697706186
0.00126684810234
0.00142623692503
0.00150805568482
0.00154586806347
0.00155904894857
0.00156011549476
0.00155717389236
0.00155465316103
0.00155443845364
0.00155657350683
0.00155923405468
0.00155800279076
0.00154473431092
0.00150687637927
0.00142503777351
0.00126564698901
0.000951578688858
0.000250517140671
0.000204438427216
0.000250545133002
0.000277928497727
0.000293559623637
0.000302406402259
0.000307087974508
0.00030923442526
0.000309979457261
0.000310105033547
0.000310066645499
0.000310060967864
0.000310089429186
0.000309957415094
0.000309209881228
0.000307062882668
0.000302380982417
0.000293532750773
0.000277899247756
0.000250519271124
0.000204460593199
0.000208413333725
0.000262009074169
0.000293328550193
0.000311303176608
0.000321671935051
0.000327365987709
0.000330184022729
0.000331363579416
0.000331750488814
0.000331836202307
0.000331828702967
0.000331729471656
0.000331333343228
0.000330147552002
0.000327324553002
0.000321626729812
0.000311255422575
0.000293280362581
0.000261970897707
0.000208443738547
0.000262012271689
0.00106673335013
0.00143591478178
0.00162630855818
0.00172643578902
0.00177513369312
0.00179479420366
0.00179978136869
0.00179908156199
0.00179757631679
0.00179725776451
0.00179817982023
0.00179843867632
0.00179316274303
0.00177332608304
0.00172454379148
0.00162442112847
0.0014341006096
0.00106511344587
0.000261955916149
0.000293341969614
0.00143622325967
0.00205249396727
0.00239674681175
0.00259268372487
0.00269927929685
0.00275172676472
0.00277374361455
0.0027806698603
0.00278180454724
0.00278136210253
0.00277944933983
0.00277200499772
0.00274973406812
0.00269717514284
0.00259049522463
0.00239445247822
0.00205009810598
0.0014339983052
0.000293256397604
0.000311326561847
0.00162684491067
0.00239705125782
0.00284440873955
0.00310697137078
0.00325464493296
0.00333027958395
0.00336461182953
0.00337653222555
0.00337930033297
0.00337869886971
0.00337488970556
0.00336217823138
0.00332750723506
0.00325214245396
0.00310463473367
0.00284186939232
0.00239422245499
0.00162413081129
0.000311221766099
0.000321701161126
0.00172709359364
0.00259316794767
0.00310715255758
0.00341215140853
0.00358396214704
0.00366884258841
0.0037040575729
0.00371496644456
0.00371667807272
0.00371577500789
0.00371243121402
0.00370009587212
0.00366408150843
0.00357971482351
0.00340908003759
0.0031043879661
0.00259000740681
0.00172403841418
0.000321582458913
0.000327393867994
0.0017757990529
0.00269978541548
0.00325487414723
0.00358438739799
0.00376341745027
0.00384700100228
0.00387689368619
0.00388256719714
0.00388116732338
0.00387989039268
0.0038788475787
0.00387079743348
0.00383916068679
0.00375582032795
0.00357917216302
0.00325164930768
0.00269644757139
0.00177260727192
0.000327270841183
0.000330202205062
0.00179537859696
0.00275213167914
0.00333078961858
0.00367059498422
0.00384878502214
0.00392524579504
0.00394598517857
0.00394395499587
0.00393830312904
0.0039367184866
0.00393917928604
0.00393786279887
0.00391429453593
0.00383742746655
0.00366216924272
0.00332646972684
0.00274874984535
0.00179221566402
0.000330086637467
0.000331367081283
0.00180027285925
0.00277404400053
0.003365765499
0.00370747242276
0.00388095826028
0.00394852313486
0.00395931493827
0.00394923256975
0.00393927439939
0.00393749441511
0.00394376078479
0.00394977594253
0.0039353052119
0.00386676130447
0.00369642080899
0.00336017972001
0.00277065239157
0.00179719663318
0.000331266514844
0.000331739012972
0.00179953430838
0.00278096423486
0.00337817043767
0.00371956321631
0.00388841030495
0.00394864143711
0.00395148680155
0.00393498272453
0.00392163482363
0.00391971823724
0.00392905782438
0.00394109741165
0.00393415247649
0.00387275209077
0.00370724814632
0.00337195396052
0.00277755659561
0.00179653591389
0.000331653835687
0.000331813958506
0.00179807213313
0.00278222009821
0.00338129588359
0.00372208319205
0.00388829879927
0.00394459903765
0.00394323582187
0.00392336283884
0.00390824725093
0.00390627773076
0.00391722417691
0.00393246843523
0.00392957727384
0.00387208196887
0.00370934549816
0.00337489140614
0.00277879015513
0.00179510647477
0.000331736974461
0.000331803327573
0.00179786339037
0.00278197828431
0.00338108003391
0.00372189945513
0.00388813553529
0.00394442340549
0.00394301569207
0.00392309417795
0.0039079440533
0.00390597388058
0.00391694907993
0.00393223993341
0.00392939534282
0.00387191565747
0.00370915704204
0.00337466259182
0.00277852848643
0.00179487816738
0.000331723391973
0.000331707169614
0.00179891014063
0.00278024909249
0.00337753354509
0.00371902236914
0.00388794734753
0.00394817796781
0.00395094129162
0.00393434175686
0.00392092378015
0.00391899382718
0.00392838559492
0.00394052846439
0.00393367645398
0.00387228164532
0.00370669233397
0.00337127787368
0.00277678663138
0.00179586382099
0.000331614738616
0.000331316729091
0.00179925874817
0.00277289174337
0.00336475035993
0.0037066319611
0.00388028967028
0.00394793099909
0.00395867277393
0.00394849142901
0.00393846015794
0.00393666297619
0.00394298355314
0.00394910295136
0.00393468928276
0.00386607106864
0.00369554355958
0.00335909445005
0.00276941622089
0.00179611827671
0.000331206344072
0.000330139582353
0.0017940527021
0.0027506316249
0.00332945246607
0.00366949789639
0.00384796783221
0.00392463103088
0.0039454172212
0.00394332581471
0.00393760893761
0.00393600516944
0.00393850374357
0.00393723839215
0.00391362104045
0.00383654962681
0.00366099353243
0.00332502364648
0.00274713113785
0.00179080372957
0.000330012192691
0.000327327188176
0.00177428771231
0.0026980788083
0.00325327306831
0.00358300128436
0.00376233287341
0.00384620067314
0.00387622942243
0.0038818857369
0.00388042833431
0.00387912656794
0.00387809847076
0.0038700379688
0.00383825445008
0.00375462516931
0.00357765471911
0.00324989159088
0.00269457571758
0.00177097380548
0.000327190409777
0.000321638196164
0.00172555222141
0.00259142241829
0.00310543225995
0.00341048028752
0.0035824299942
0.00366752453494
0.0037028683467
0.00371376144087
0.00371541138423
0.00371448075791
0.00371114783246
0.00369878730751
0.00366262224895
0.00357802687129
0.0034072320508
0.00310246269104
0.00258804754597
0.00172233099266
0.00032150408075
0.000311272960347
0.00162542615234
0.00239541873834
0.0028427123575
0.00310517045886
0.00325272737483
0.00332832503291
0.00336264099723
0.00337448858261
0.00337716931825
0.00337653819522
0.00337276238579
0.00336007814227
0.00332539331554
0.00325003441599
0.00310261131715
0.00283992487323
0.00239233554492
0.00162250734691
0.000311151475316
0.000293300793948
0.00143504745592
0.00205110156066
0.00239519237368
0.00259092366255
0.00269729595409
0.00274954155031
0.00277139131217
0.00277818811266
0.00277923569786
0.00277876234344
0.00277687897413
0.00276951329723
0.00274736853635
0.00269497517188
0.00258848807571
0.00239263097243
0.0020484389928
0.00143260562181
0.000293198606647
0.000261987102875
0.00106593086479
0.00143494478682
0.0016251393608
0.00172503623437
0.00177351625897
0.00179300007306
0.00179785443402
0.00179705414577
0.001795482292
0.00179513860028
0.00179608067787
0.0017963970683
0.00179122287255
0.00177153357829
0.00172294231372
0.00162303096067
0.00143290967954
0.00106412478583
0.000261917040812
0.000208420229227
0.000261973082906
0.000293278356679
0.000311241663545
0.000321596977513
0.000327276230367
0.000330080264238
0.00033124810645
0.000331625524716
0.000331704893459
0.000331694715864
0.000331596999099
0.000331205819843
0.000330029014616
0.00032721841552
0.000321534494561
0.000311176269189
0.000293213240386
0.000261921060758
0.000208450153914
0.000211072858859
0.000270122280688
0.00030412479269
0.000323721084808
0.000335214118819
0.00034171682282
0.000345114171381
0.000346688815501
0.000347322308188
0.000347526488174
0.00034751750471
0.000347297164378
0.000346653148856
0.0003450689933
0.000341659809891
0.000335147355044
0.000323649893873
0.000304054756768
0.000270068854
0.000211114400215
0.000270129346771
0.0011526893088
0.00156024067468
0.00177338661743
0.00188861831238
0.00194785670552
0.00197506316542
0.00198531051342
0.00198799723813
0.00198814187552
0.00198770861815
0.00198675024301
0.00198341697371
0.001972682642
0.00194512392894
0.00188571682698
0.00177054808944
0.00155764355827
0.00115041518393
0.00027004859772
0.000304143392032
0.00156061787729
0.00224948054278
0.00263898186618
0.00286462634095
0.00299098549266
0.00305632802224
0.00308584034209
0.00309675579245
0.00309954488863
0.00309892697143
0.00309504634211
0.00308321532466
0.00305314620769
0.00298789518717
0.00286162456293
0.00263585048716
0.00224620644627
0.00155745656888
0.000304021892095
0.000323750900272
0.00177408366421
0.0026393855076
0.00314765393436
0.00345051860243
0.00362423780539
0.00371560572779
0.00375708495914
0.00377203298597
0.00377561472698
0.00377466546686
0.0037693548152
0.00375277762389
0.00371021516424
0.00361899705595
0.00344639430836
0.00314422348861
0.00263547182209
0.00177002883358
0.000323602798165
0.00033525080168
0.00188952414934
0.00286531123989
0.00345098584501
0.00380350549551