/*--------------------------------*- C++ -*----------------------------------*\
| =========                 |                                                 |
| \\      /  F ield         | OpenFOAM: The Open Source CFD Toolbox           |
|  \\    /   O peration     | Version:  3.0.1                                 |
|   \\  /    A nd           | Web:      www.OpenFOAM.org                      |
|    \\/     M anipulation  |                                                 |
\*---------------------------------------------------------------------------*/
FoamFile
{
    version     2.0;
    format      ascii;
    class       volScalarField;
    location    "3.3";
    object      p_rgh;
}
// * * * * * * * * * * * * * * * * * * * * * * * * * * * * * * * * * * * * * //

dimensions      [1 -1 -2 0 0 0 0];

internalField   nonuniform List<scalar> 
7968
(
4891.9178226
4891.91383729
4891.87086415
4891.80238645
4891.71619691
4891.6239203
4891.53924994
4891.47031986
4891.42130334
4891.3943069
4891.39009644
4891.40883234
4891.44995639
4891.51158834
4891.58976228
4891.67646382
4891.75803636
4891.82293818
4891.86357314
4891.86618672
4891.91464436
4891.93890948
4891.90960047
4891.84907951
4891.76521529
4891.67229234
4891.58493926
4891.51390276
4891.46371366
4891.43616591
4891.43194912
4891.45123216
4891.49356217
4891.55737417
4891.63829252
4891.72581159
4891.80495556
4891.86187385
4891.88862817
4891.8625517
4891.87340245
4891.91084088
4891.882688
4891.81420816
4891.71390866
4891.60154226
4891.49527595
4891.40818505
4891.34669688
4891.31335316
4891.30903591
4891.33397383
4891.3875517
4891.46745824
4891.56735191
4891.67421759
4891.7698494
4891.83441043
4891.85986116
4891.82046013
4891.80614816
4891.85204001
4891.81578798
4891.72723436
4891.59906716
4891.45732349
4891.32559406
4891.21869305
4891.14372551
4891.10354276
4891.09909943
4891.13068807
4891.19766226
4891.29741231
4891.42281139
4891.558963
4891.6822324
4891.76679747
4891.80014354
4891.75203843
4891.72184718
4891.7695082
4891.71730577
4891.60077755
4891.44037618
4891.26999204
4891.11655321
4890.99471593
4890.91035606
4890.86537753
4890.86087741
4890.89710518
4890.97337864
4891.08809066
4891.23524281
4891.39995867
4891.55521492
4891.66746754
4891.71653933
4891.6666412
4891.63178943
4891.67913262
4891.60705422
4891.46110388
4891.27191787
4891.07923642
4890.91110922
4890.78107283
4890.69231252
4890.64511641
4890.64058693
4890.6789373
4890.75953579
4890.88247575
4891.0443674
4891.23136183
4891.41524024
4891.5565672
4891.62555425
4891.57561759
4891.54963652
4891.59423463
4891.5031058
4891.33161157
4891.1206754
4890.91332245
4890.73789978
4890.60667861
4890.51867404
4890.47195247
4890.46742458
4890.50526401
4890.58502674
4890.70916945
4890.87837673
4891.08006311
4891.28558597
4891.45225238
4891.53976068
4891.49279994
4891.48346977
4891.5259194
4891.41867955
4891.22736999
4891.001535
4890.78602406
4890.60947534
4890.48370148
4890.40384066
4890.36283416
4890.35837492
4890.39055636
4890.46200333
4890.5806463
4890.75101338
4890.96084571
4891.18122106
4891.36760124
4891.47107866
4891.4262083
4891.43742034
4891.47870522
4891.36019037
4891.15549325
4890.92038482
4890.70058376
4890.52495813
4890.40744502
4890.33801882
4890.30227007
4890.29782086
4890.3247349
4890.38568204
4890.49598903
4890.66550189
4890.87960498
4891.10922786
4891.30895908
4891.42364428
4891.37990199
4891.41348284
4891.45425645
4891.33002929
4891.1186745
4890.87884774
4890.65691297
4890.48190014
4890.37022677
4890.3061873
4890.27254026
4890.26804525
4890.29283219
4890.34841212
4890.45292117
4890.6218636
4890.83805302
4891.07231219
4891.27873054
4891.39910196
4891.35586186
4891.41232801
4891.45313309
4891.32890229
4891.11755363
4890.8777583
4890.65587674
4890.48092466
4890.36937312
4890.30545928
4890.27190104
4890.26742731
4890.29217084
4890.34764878
4890.4520332
4890.62090499
4890.83704137
4891.07125931
4891.27765872
4891.39802275
4891.35475302
4891.43396844
4891.47534256
4891.35680715
4891.15211012
4890.9170806
4890.69741204
4890.52195289
4890.40474368
4890.3356554
4890.30011112
4890.29573154
4890.32254954
4890.38320571
4890.49322802
4890.66256896
4890.87653254
4891.10604664
4891.30573958
4891.42041426
4891.37658465
4891.47777197
4891.52034882
4891.41304835
4891.22169668
4890.99592164
4890.78055693
4890.60422385
4890.47876841
4890.39932133
4890.358577
4890.35420467
4890.38625375
4890.4573631
4890.57575623
4890.74592435
4890.95559448
4891.17586054
4891.36222785
4891.46572427
4891.42072679
4891.5418016
4891.58653716
4891.4952817
4891.32364491
4891.11266574
4890.90537071
4890.73010339
4890.59913425
4890.51139832
4890.46489304
4890.46044769
4890.49821541
4890.57782235
4890.70179951
4890.87088393
4891.0724917
4891.27800094
4891.44475103
4891.53233669
4891.48524426
4891.62204948
4891.66953984
4891.59722043
4891.45097832
4891.26157583
4891.06877719
4890.90065741
4890.77073456
4890.68212628
4890.63507087
4890.6306236
4890.66898487
4890.7495571
4890.87247669
4891.03439457
4891.22147775
4891.4055205
4891.54708501
4891.61611477
4891.56620283
4891.71047893
4891.75826112
4891.70576476
4891.58877854
4891.42792497
4891.2572858
4891.10358711
4890.98169573
4890.89736405
4890.85246308
4890.84805391
4890.88434903
4890.96072102
4891.0755684
4891.22294187
4891.38795196
4891.54361595
4891.6562149
4891.70558318
4891.65562488
4891.79349775
4891.83948746
4891.80290586
4891.71376091
4891.58489101
4891.44265887
4891.31053788
4891.2034129
4891.12834423
4891.08822458
4891.08388022
4891.11550923
4891.18270795
4891.28275699
4891.40857081
4891.54514858
4891.66907509
4891.75419667
4891.78790346
4891.7397658
4891.85975297
4891.89739817
4891.86885136
4891.79970839
4891.69860588
4891.58556676
4891.4787483
4891.3912929
4891.32960249
4891.29621199
4891.2919434
4891.31705946
4891.37094453
4891.45128412
4891.55175711
4891.65920737
4891.75556065
4891.82090455
4891.84677668
4891.80724481
4891.90067032
4891.92489653
4891.89518326
4891.83394683
4891.74922804
4891.6555647
4891.56763256
4891.49618555
4891.44575856
4891.41813347
4891.41396063
4891.433444
4891.47611067
4891.54040337
4891.62194342
4891.70995446
4891.79017934
4891.84780953
4891.87504947
4891.84907687
4891.9036241
4891.89959243
4891.85612763
4891.78697323
4891.70000407
4891.60698137
4891.52172805
4891.45239781
4891.4031456
4891.37607249
4891.37190694
4891.39085418
4891.4323249
4891.49443484
4891.57321902
4891.66067829
4891.74305465
4891.80866285
4891.84977526
4891.85248269
4891.91349059
4891.89589617
4891.83980348
4891.75951778
4891.66550004
4891.56887036
4891.48118405
4891.41062508
4891.36082971
4891.33343338
4891.32912313
4891.3480367
4891.38970809
4891.45273302
4891.5336817
4891.6245477
4891.71382948
4891.79059292
4891.84414124
4891.86068718
4891.8967711
4891.90373701
4891.85728542
4891.78416254
4891.69860155
4891.61158472
4891.53204509
4891.46807684
4891.42273966
4891.39749488
4891.3932287
4891.4100641
4891.44733956
4891.50380589
4891.57663818
4891.65778798
4891.73853334
4891.80801637
4891.85200453
4891.84321047
4891.84190052
4891.85845047
4891.80527926
4891.72080732
4891.62333667
4891.52477956
4891.43529706
4891.36262783
4891.31063394
4891.28173286
4891.27741721
4891.29782763
4891.34175572
4891.40697796
4891.48973875
4891.58232896
4891.6747763
4891.75537756
4891.80591347
4891.78746244
4891.76340465
4891.78699353
4891.72246105
4891.61939583
4891.50319735
4891.38838861
4891.28599942
4891.20276106
4891.14244615
4891.10914133
4891.10476249
4891.12939325
4891.18166652
4891.25753211
4891.35320273
4891.4619398
4891.57278368
4891.67164151
4891.73323362
4891.70748442
4891.67151185
4891.70357782
4891.62703601
4891.50524662
4891.37380875
4891.24963946
4891.14419856
4891.06056182
4891.00038336
4890.96643671
4890.96209581
4890.98744644
4891.03948481
4891.11572432
4891.21441964
4891.33237427
4891.45820448
4891.57536733
4891.64866316
4891.61423658
4891.5772473
4891.61889264
4891.53079448
4891.39270842
4891.25192148
4891.12870916
4891.02911498
4890.95306901
4890.89789796
4890.86561427
4890.86138619
4890.88523784
4890.93230842
4891.00092274
4891.09352672
4891.21036206
4891.34532542
4891.47852012
4891.56306119
4891.51899798
4891.49218646
4891.54196531
4891.44391546
4891.29288988
4891.14910019
4891.03170215
4890.94333551
4890.87956294
4890.83198201
4890.80250311
4890.79842333
4890.81981329
4890.85936914
4890.91577095
4890.9966916
4891.10733852
4891.24522541
4891.39119184
4891.48557218
4891.43326934
4891.4245067
4891.48092577
4891.37419608
4891.21259929
4891.06854666
4890.95859547
4890.88246637
4890.83227933
4890.78950804
4890.76006302
4890.75605869
4890.77750489
4890.81249245
4890.85527578
4890.92379972
4891.02655228
4891.16466288
4891.32109774
4891.42411575
4891.36517416
4891.37778703
4891.43874503
4891.32543267
4891.15550414
4891.01188841
4890.90688707
4890.83846056
4890.7931258
4890.75184939
4890.72436038
4890.72032599
4890.73970305
4890.77307165
4890.81123645
4890.87206726
4890.96962183
4891.10739889
4891.27204045
4891.38164161
4891.31820327
4891.35354372
4891.41672195
4891.2998852
4891.12582164
4890.98153121
4890.87805366
4890.81245023
4890.76735421
4890.72827217
4890.70237478
4890.69821343
4890.71596514
4890.7471675
4890.7852414
4890.84335212
4890.93916941
4891.07752135
4891.24634252
4891.35948933
4891.29385798
4891.35235787
4891.41561362
4891.29881352
4891.12479927
4890.9806101
4890.87725277
4890.81173558
4890.76671744
4890.72778225
4890.70201889
4890.6978932
4890.71556344
4890.74663371
4890.7846301
4890.84264182
4890.93835999
4891.07660775
4891.24536298
4891.35844903
4891.29272629
4891.3742389
4891.43542093
4891.3222116
4891.15239244
4891.0090786
4890.90438761
4890.8362218
4890.79111131
4890.75015378
4890.72294851
4890.71900236
4890.73822431
4890.77132217
4890.80930751
4890.86987519
4890.96714882
4891.10460725
4891.26908827
4891.37852328
4891.31482081
4891.41864608
4891.47540731
4891.36881935
4891.20740765
4891.0637226
4890.95416905
4890.87842797
4890.82867276
4890.7861259
4890.7569757
4890.7530743
4890.77437706
4890.80923614
4890.85171065
4890.91989013
4891.02225709
4891.15996342
4891.31614187
4891.41892823
4891.35958579
4891.48411793
4891.53430137
4891.43638205
4891.28551875
4891.14206354
4891.02504911
4890.93706212
4890.87372302
4890.82655927
4890.79737106
4890.79339812
4890.81466162
4890.85394715
4890.91006447
4890.99068587
4891.100957
4891.23846499
4891.38418857
4891.47834396
4891.42555736
4891.56720451
4891.60923998
4891.52120511
4891.38315669
4891.24256408
4891.11962545
4891.0203476
4890.94461505
4890.88975488
4890.85770627
4890.85357517
4890.87738462
4890.92431954
4890.99277626
4891.08515986
4891.20173242
4891.33644111
4891.46952647
4891.55392812
4891.50937337
4891.65982712
4891.69225859
4891.6156232
4891.49365844
4891.36217247
4891.23806722
4891.13279048
4891.04936592
4890.98939346
4890.95567041
4890.95144736
4890.97677946
4891.02881485
4891.10498946
4891.20360997
4891.32146158
4891.44727507
4891.56456005
4891.63784318
4891.60300129
4891.75047473
4891.77431826
4891.70953391
4891.60607299
4891.48956934
4891.37454015
4891.27203377
4891.18872808
4891.12827115
4891.09528629
4891.09101153
4891.11542305
4891.16811958
4891.24419863
4891.34004647
4891.4489706
4891.56007342
4891.65918195
4891.72096329
4891.69500268
4891.82810423
4891.84481339
4891.79124681
4891.70618415
4891.60816655
4891.50914337
4891.41932173
4891.34645181
4891.2943574
4891.26550094
4891.2612727
4891.28181975
4891.32601862
4891.3915588
4891.47470851
4891.56776713
4891.6606663
4891.74173334
4891.79264731
4891.77410513
4891.88239905
4891.88948219
4891.84260463
4891.76877954
4891.68251434
4891.59486595
4891.51482832
4891.45055075
4891.40505295
4891.37977866
4891.37558905
4891.39261944
4891.43019205
4891.48707377
4891.56043603
4891.64224384
4891.72361746
4891.79372835
4891.8382634
4891.82962012
4891.89912461
4891.88138204
4891.82486464
4891.74386953
4891.64907206
4891.55171558
4891.46346168
4891.39253255
4891.34252926
4891.31507861
4891.31083416
4891.32996281
4891.37197425
4891.43545618
4891.51702325
4891.60861248
4891.69867363
4891.77609933
4891.83039296
4891.84688497
4891.9723394
4891.94707023
4891.8844683
4891.79699173
4891.69744959
4891.59696343
4891.50643349
4891.43368941
4891.38251999
4891.35439817
4891.34991686
4891.36920517
4891.41189439
4891.47674122
4891.56021638
4891.6546468
4891.74928539
4891.83342147
4891.89387147
4891.91772451
4891.9480179
4891.95764901
4891.91036583
4891.83462124
4891.7509658
4891.66856627
4891.59441495
4891.53470588
4891.49222462
4891.46834633
4891.46399412
4891.47924893
4891.51340686
4891.56531194
4891.63242092
4891.70865702
4891.7872153
4891.85931294
4891.90432578
4891.89241432
4891.88684199
4891.9116224
4891.85659373
4891.76334069
4891.66307433
4891.56633869
4891.48102238
4891.41318183
4891.36568009
4891.33927336
4891.33480512
4891.35241981
4891.39155059
4891.45169832
4891.53003754
4891.6205059
4891.7154347
4891.80463932
4891.85696324
4891.82958975
4891.80133018
4891.83769816
4891.76510783
4891.64133768
4891.51133292
4891.38977809
4891.28571606
4891.20554493
4891.15212323
4891.12274483
4891.11809958
4891.13856845
4891.18357212
4891.25623675
4891.35334905
4891.46836716
4891.59263295
4891.71199406
4891.78140751
4891.74227991
4891.70408986
4891.7563222
4891.66706725
4891.51351916
4891.3562581
4891.21456128
4891.09828564
4891.01295197
4890.95796951
4890.92855073
4890.92386319
4890.94406689
4890.99119274
4891.06993623
4891.17924526
4891.31369326
4891.46436155
4891.61299141
4891.69873235
4891.64344277
4891.60617952
4891.6765311
4891.57285098
4891.39420308
4891.21633369
4891.06382969
4890.94753379
4890.87082451
4890.82210332
4890.79513739
4890.79042584
4890.80800798
4890.84885277
4890.92087665
4891.03120369
4891.1755028
4891.34518499
4891.51805004
4891.61782832
4891.54429479
4891.51847036
4891.60524968
4891.49027772
4891.29234459
4891.10146177
4890.94867793
4890.84579399
4890.77446245
4890.7310919
4890.70974822
4890.70469907
4890.71837651
4890.75356551
4890.81893101
4890.91809138
4891.06291281
4891.24391863
4891.43501231
4891.54575522
4891.45575495
4891.44879437
4891.54872745
4891.42561396
4891.21504925
4891.01838374
4890.8735428
4890.77759783
4890.72235886
4890.69134697
4890.67314852
4890.66791927
4890.67547442
4890.69822572
4890.75174329
4890.84329206
4890.98083649
4891.1668779
4891.36990723
4891.4886694
4891.38556573
4891.40087211
4891.50963049
4891.3816773
4891.16536504
4890.96707439
4890.828507
4890.7393338
4890.6965202
4890.67459413
4890.66032826
4890.65478891
4890.65795768
4890.67057894
4890.71202347
4890.79821343
4890.92917551
4891.11684795
4891.32551614
4891.44917461
4891.33732879
4891.37603793
4891.48912841
4891.35885456
4891.13951942
4890.94183681
4890.80532304
4890.72064835
4890.68380938
4890.6659402
4890.65356922
4890.64788382
4890.64884279
4890.65714217
4890.69261443
4890.77529024
4890.90357244
4891.09103871
4891.30247276
4891.42847962
4891.31236004
4891.37478879
4891.48802059
4891.35782338
4891.13857738
4890.94103592
4890.80471803
4890.72015452
4890.68343197
4890.665701
4890.65342007
4890.64777858
4890.64869544
4890.65687504
4890.6922181
4890.77477142
4890.9029134
4891.0902262
4891.30154467
4891.4274384
4891.31116155
4891.39713096
4891.50629113
4891.37856504
4891.16256853
4890.96457212
4890.82645214
4890.7376897
4890.69533692
4890.67390108
4890.65993408
4890.65440722
4890.65736794
4890.6696673
4890.7107631
4890.79652721
4890.92711828
4891.11443683
4891.32272046
4891.44605598
4891.33375198
4891.44262549
4891.54317292
4891.42036179
4891.21014167
4891.01385169
4890.86963275
4890.77369181
4890.72003119
4890.68931379
4890.67158071
4890.66641805
4890.6736964
4890.69598703
4890.74904978
4890.84005451
4890.97704892
4891.16261261
4891.36517223
4891.48349138
4891.37966895
4891.51000301
4891.5975308
4891.48284457
4891.2851609
4891.09458849
4890.94227379
4890.83989618
4890.7687585
4890.72603858
4890.7045232
4890.70032509
4890.71375921
4890.74858742
4890.81388873
4890.91251778
4891.05691901
4891.23752711
4891.42824358
4891.53853992
4891.4476431
4891.59569247
4891.66681564
4891.5633147
4891.38473894
4891.20697292
4891.05465488
4890.93869739
4890.86235067
4890.81394852
4890.78726487
4890.78267573
4890.80021172
4890.8409444
4890.9128171
4891.02301761
4891.16707751
4891.33658395
4891.50924791
4891.60869186
4891.53422054
4891.69195977
4891.744906
4891.65563099
4891.50190834
4891.34457167
4891.20281191
4891.08668044
4891.0015565
4890.94690043
4890.91770539
4890.91319485
4890.93347284
4890.98048255
4891.05920032
4891.16846945
4891.30295268
4891.45362852
4891.60230674
4891.68792524
4891.63175827
4891.7879929
4891.82489464
4891.75208903
4891.62787823
4891.49757569
4891.37583933
4891.27173451
4891.19174276
4891.13861523
4891.1089022
4891.10443031
4891.12563114
4891.17043668
4891.24304527
4891.34028639
4891.45548887
4891.57998239
4891.69970897
4891.76922473
4891.72941844
4891.87277014
4891.89785691
4891.84243134
4891.74850431
4891.64767491
4891.55052977
4891.46495269
4891.39702567
4891.34953538
4891.32314842
4891.31881044
4891.3366528
4891.37593612
4891.43629791
4891.51497477
4891.60588214
4891.70134997
4891.79117095
4891.843645
4891.81603597
4891.93350513
4891.94330126
4891.89548436
4891.81892739
4891.73451345
4891.65148042
4891.5768621
4891.51689289
4891.47428501
4891.45040496
4891.44615315
4891.4616129
4891.49604625
4891.54833486
4891.6159914
4891.6929087
4891.77221421
4891.84492848
4891.89011059
4891.87835557
4891.95725628
4891.93231771
4891.86922639
4891.78083917
4891.68037544
4891.57908518
4891.48793924
4891.41481219
4891.36343278
4891.33526053
4891.33086406
4891.35039164
4891.39343797
4891.45877799
4891.54292698
4891.63820436
4891.73377219
4891.81854156
4891.87934614
4891.90346962
4892.08296594
4892.04925918
4891.98340196
4891.89239691
4891.78996532
4891.68707725
4891.59454329
4891.51994422
4891.46751827
4891.43870188
4891.43396066
4891.45342251
4891.49687899
4891.56312742
4891.64820428
4891.74471601
4891.84206821
4891.92937916
4891.99300426
4892.02629272
4892.05040521
4892.05882236
4892.01372132
4891.93932442
4891.85681692
4891.77521536
4891.70158947
4891.64142022
4891.5984477
4891.57428858
4891.56977981
4891.58497222
4891.61928488
4891.67129114
4891.73755524
4891.81271914
4891.88984143
4891.96018112
4892.00236112
4891.99148649
4891.98622367
4892.01519658
4891.96318237
4891.86461704
4891.75521767
4891.64751728
4891.55237938
4891.47804033
4891.42808291
4891.40137438
4891.39662228
4891.4139815
4891.45528806
4891.52175824
4891.60955644
4891.71054751
4891.81426067
4891.90860818
4891.95740915
4891.92513786
4891.8974519
4891.94287824
4891.86666086
4891.72239285
4891.56079454
4891.40376175
4891.25003615
4891.12212521
4891.06282151
4891.0391953
4891.03208478
4891.04729648
4891.0962381
4891.21831441
4891.36641169
4891.51580035
4891.67065275
4891.81028283
4891.88306224
4891.83375799
4891.79760553
4891.86292368
4891.75980228
4891.56319776
4891.33207049
4891.04864095
4890.80749497
4890.61217801
4890.5587541
4890.5539872
4890.5486968
4890.54151352
4890.59179701
4890.78338324
4891.01533534
4891.2902921
4891.5113304
4891.70195652
4891.80130322
4891.73165648
4891.69761118
4891.78422606
4891.65485364
4891.40789002
4891.04943789
4890.67335765
4890.33038733
4890.38854803
4890.45686463
4890.47109302
4890.46832284
4890.4531674
4890.35424501
4890.30711131
4890.65415336
4891.01214484
4891.35807478
4891.59622201
4891.72109733
4891.62998623
4891.60820698
4891.71374757
4891.56233449
4891.25131959
4890.80391473
4890.35264393
4890.47833261
4890.37143287
4890.31966346
4890.29939209
4890.29138185
4890.29131191
4890.33125007
4890.34547667
4890.29213126
4890.7781251
4891.20529342
4891.50375556
4891.64956829
4891.53946776
4891.53696148
4891.65708563
4891.49109782
4891.12391429
4890.61588686
4890.4430337
4890.36764591
4890.27068201
4890.23276492
4890.2187597
4890.21044515
4890.20455879
4890.22355269
4890.33499557
4890.29993458
4890.58924666
4891.08145969
4891.43243387
4891.59220507
4891.46746469
4891.48801982
4891.61783657
4891.44495199
4891.07079385
4890.56914147
4890.52711597
4890.32802212
4890.24537322
4890.21872385
4890.20963909
4890.19923989
4890.18990337
4890.19510495
4890.28801763
4890.38443416
4890.53425695
4891.02637565
4891.38574651
4891.55241057
4891.41805163
4891.46267908
4891.5973249
4891.42225705
4891.05167244
4890.57604211
4890.51111632
4890.31932461
4890.24181345
4890.21807473
4890.21273947
4890.2036446
4890.18794125
4890.18995214
4890.27689276
4890.39138021
4890.53308913
4891.00773853
4891.36258512
4891.53157308
4891.39249562
4891.4613191
4891.59622096
4891.42122956
4891.05039017
4890.57569473
4890.51127218
4890.31932551
4890.24160097
4890.21774925
4890.21197396
4890.20337503
4890.18798626
4890.18973366
4890.27673839
4890.39244934
4890.53345141
4891.00696064
4891.36165204
4891.53051781
4891.39117324
4891.48394699
4891.6144708
4891.44181721
4891.06864571
4890.56850736
4890.52632719
4890.32763169
4890.24521597
4890.21941626
4890.2104734
4890.19950504
4890.18978571
4890.1949935
4890.28822788
4890.3830877
4890.53461905
4891.02448922
4891.38294668
4891.5492658
4891.41411788
4891.53027782
4891.65147704
4891.48575267
4891.11962196
4890.61262315
4890.44651877
4890.36618908
4890.26994227
4890.23291868
4890.22004831
4890.21151298
4890.20476203
4890.22351477
4890.33467367
4890.29878617
4890.58811844
4891.07766796
4891.42770452
4891.58701542
4891.46101251
4891.59910682
4891.70595098
4891.55473091
4891.24406024
4890.79938235
4890.35619613
4890.48954836
4890.3663264
4890.31542461
4890.29653367
4890.28836191
4890.28766705
4890.32713098
4890.35833071
4890.29018149
4890.77409805
4891.1985125
4891.49699035
4891.64236362
4891.53065311
4891.68645696
4891.77442229
4891.64509033
4891.39783942
4891.04166114
4890.66726668
4890.33325217
4890.40044487
4890.46676518
4890.47753721
4890.4765623
4890.46354339
4890.36338933
4890.30568781
4890.64939059
4891.00473949
4891.34911708
4891.58734937
4891.71195107
4891.61917095
4891.78485786
4891.85138247
4891.74810068
4891.55099023
4891.31964818
4891.03860681
4890.79910836
4890.60427689
4890.55212181
4890.5478953
4890.54260993
4890.53534267
4890.58311967
4890.77487219
4891.00575921
4891.27837336
4891.50018188
4891.69114326
4891.79042872
4891.71927122
4891.88359969
4891.92994491
4891.853381
4891.70840825
4891.54621984
4891.3886478
4891.23534765
4891.10817401
4891.04874672
4891.02538867
4891.01893702
4891.03395123
4891.08324076
4891.20387847
4891.35240065
4891.50226543
4891.65757835
4891.79779355
4891.87075655
4891.82026443
4891.97177459
4892.00130537
4891.9488003
4891.849355
4891.73924241
4891.6310351
4891.53558773
4891.46115478
4891.41120073
4891.38456015
4891.37996932
4891.39752885
4891.43901428
4891.50571949
4891.59392297
4891.69542163
4891.79979091
4891.89491038
4891.94412192
4891.91109003
4892.0357255
4892.04432284
4891.99856994
4891.92317516
4891.83979
4891.75749993
4891.68342466
4891.62305544
4891.57998953
4891.55586755
4891.55148724
4891.56690166
4891.60146138
4891.65380793
4891.72060274
4891.79644728
4891.87440689
4891.94569713
4891.98849064
4891.97731645
4892.06620347
4892.03436933
4891.96760416
4891.87537535
4891.77177273
4891.66793191
4891.57468507
4891.49963648
4891.44696671
4891.41810446
4891.41347534
4891.43322826
4891.47711132
4891.54391647
4891.62970797
4891.7271793
4891.82567367
4891.91418777
4891.97856272
4892.01039346
4892.24654307
4892.21510616
4892.15199443
4892.06518486
4891.96688053
4891.86773006
4891.77870695
4891.70695012
4891.65660542
4891.62873212
4891.62359403
4891.64137752
4891.68217523
4891.74517356
4891.82638646
4891.9187884
4892.01190502
4892.09494607
4892.15556856
4892.18567003
4892.21649262
4892.21120382
4892.16404172
4892.08742821
4892.00119642
4891.91409944
4891.83505051
4891.76927827
4891.72296671
4891.69771956
4891.69303248
4891.70883371
4891.74611992
4891.80318314
4891.87455439
4891.95498926
4892.03549164
4892.10772222
4892.15147428
4892.15367929
4892.15539749
4892.16584647
4892.10728886
4892.00062514
4891.87600216
4891.74755691
4891.59763027
4891.44881335
4891.37220325
4891.34776522
4891.34165509
4891.3548437
4891.42196261
4891.56460368
4891.70772514
4891.82893736
4891.94707115
4892.04931964
4892.10423057
4892.08939337
4892.07111812
4892.09175826
4892.00314245
4891.83111133
4891.55237398
4891.08930075
4890.50203071
4890.21680218
4890.15819152
4890.16647754
4890.15645855
4890.13512995
4890.19243347
4890.4873668
4891.06221928
4891.51093819
4891.77607905
4891.94224774
4892.02720757
4892.00145801
4891.97566738
4892.00855021
4891.88126285
4891.55141979
4890.76955523
4889.72405579
4889.0056815
4889.11060524
4889.25067544
4889.30921625
4889.30807417
4889.2488014
4889.06263876
4888.94338808
4889.75817028
4890.7652961
4891.50501555
4891.81868761
4891.9413525
4891.90285884
4891.8798736
4891.92470353
4891.75674605
4891.07274695
4889.68589242
4888.5755025
4888.39959622
4886.69079684
4886.49912574
4886.66419813
4886.62943373
4886.28224074
4886.72320887
4888.46734823
4888.46773283
4889.78518913
4891.05850624
4891.692149
4891.85534819
4891.80478577
4891.79444746
4891.84913965
4891.60217932
4890.46552675
4888.96803894
4888.12259288
4884.20972715
4882.73204981
4882.77767685
4882.97562227
4882.9454629
4882.44899358
4882.37055213
4885.26550316
4888.65858506
4888.9614167
4890.50628929
4891.54520751
4891.77821798
4891.71776832
4891.72643107
4891.7873323
4891.45092087
4890.17908936
4889.00410624
4885.99713929
4882.30473035
4881.77809745
4881.77249999
4882.00697785
4881.99870641
4881.6039435
4881.28667233
4882.78724149
4887.39753786
4889.11343777
4890.21209389
4891.40105305
4891.71554372
4891.64825876
4891.6798672
4891.74524317
4891.3789119
4890.13043452
4889.16828148
4885.66956865
4882.60110651
4881.99141771
4882.0836603
4882.29380631
4882.15644602
4881.97514699
4881.51424803
4882.90707581
4887.12178917
4889.28100297
4890.14877771
4891.32902678
4891.67267062
4891.60072056
4891.65571269
4891.72397486
4891.36098855
4890.1485376
4889.26026641
4886.02867901
4882.93464183
4882.28876197
4882.22493682
4882.49342389
4882.47910955
4882.07461302
4881.82973897
4883.25095907
4887.38469662
4889.3355351
4890.16119774
4891.30907777
4891.65078216
4891.57608112
4891.65414832
4891.72287703
4891.36056553
4890.14782835
4889.262331
4886.07456627
4882.95739947
4882.2942531
4882.21695981
4882.45210354
4882.47884319
4882.09240577
4881.82906006
4883.25920731
4887.39628698
4889.33248503
4890.16298724
4891.30784031
4891.64962095
4891.57451779
4891.67521453
4891.74168383
4891.37798241
4890.13214271
4889.17786239
4885.73878266
4882.65002279
4882.02655003
4882.14904463
4882.35232217
4882.17374932
4881.98811208
4881.54284771
4882.97196452
4887.1633007
4889.28102944
4890.15294659
4891.32667816
4891.66921681
4891.59611821
4891.71890863
4891.78139666
4891.4477388
4890.18262917
4889.0204091
4886.00800288
4882.40647175
4881.85072951
4881.85632724
4882.12874317
4882.10437078
4881.68251362
4881.37482047
4882.89374914
4887.45597009
4889.1243711
4890.21498232
4891.3976694
4891.71003885
4891.64082915
4891.78440466
4891.84097105
4891.59549542
4890.46482927
4888.98789354
4888.11379131
4884.12443479
4882.73847346
4882.76431363
4883.00720402
4882.96121234
4882.4569272
4882.38242918
4885.18639863
4888.69276454
4888.97642193
4890.50578449
4891.53982459
4891.7708079
4891.70778688
4891.86784152
4891.91459858
4891.74632565
4891.06649993
4889.68382899
4888.60505441
4888.36246957
4886.55244912
4886.37186513
4886.55389219
4886.50420361
4886.12502854
4886.5854022
4888.46450874
4888.50173122
4889.78224928
4891.05166152
4891.68286385
4891.84602324
4891.79290453
4891.9623473
4891.99671245
4891.86899712
4891.54008537
4890.75735022
4889.71290026
4889.01275878
4889.09956887
4889.2422242
4889.30021592
4889.29781008
4889.23322565
4889.05528628
4888.95480611
4889.7485923
4890.75500487
4891.49377831
4891.80747283
4891.93029181
4891.88959471
4892.05690851
4892.07864448
4891.9893744
4891.81608988
4891.53696619
4891.07108669
4890.48699727
4890.20895112
4890.15006857
4890.15905836
4890.15236096
4890.13189698
4890.18700688
4890.47317393
4891.04616722
4891.49616255
4891.76170306
4891.92934556
4892.01470835
4891.98730227
4892.14073523
4892.15185396
4892.09260571
4891.98466847
4891.85899339
4891.72996043
4891.58079091
4891.43313276
4891.35574176
4891.3302871
4891.32507636
4891.33802196
4891.40594636
4891.54700527
4891.69102006
4891.8129073
4891.93191908
4892.03528911
4892.09072097
4892.07486585
4892.20173829
4892.19655468
4892.14855052
4892.07067328
4891.98332855
4891.89531718
4891.81575056
4891.74985889
4891.70333165
4891.67809395
4891.67355234
4891.68971216
4891.72721452
4891.78461935
4891.85668396
4891.93790874
4892.01940929
4892.09277889
4892.13726226
4892.13920012
4892.2320427
4892.19992425
4892.13549732
4892.04699334
4891.94707875
4891.84676729
4891.75670236
4891.68419674
4891.63342642
4891.60543301
4891.60044382
4891.61869429
4891.66023493
4891.72412821
4891.80612063
4891.89968998
4891.99430097
4892.0789107
4892.14081551
4892.17162867
4892.48798484
4892.45530464
4892.40078322
4892.32452764
4892.23902495
4892.15320285
4892.07888453
4892.02151663
4891.98240083
4891.96031022
4891.95460472
4891.96565367
4891.99466403
4892.04326282
4892.10962663
4892.18792086
4892.26869454
4892.34128046
4892.39301949
4892.424527
4892.45710713
4892.42458347
4892.3685336
4892.28700956
4892.19578662
4892.10499667
4892.02447517
4891.88324816
4891.81880078
4891.83584547
4891.84139109
4891.81834286
4891.8762907
4891.98996978
4892.06264504
4892.14763631
4892.23301217
4892.30979519
4892.3615994
4892.39009647
4892.40489809
4892.37093174
4892.29932058
4892.18838007
4891.94082001
4891.33562244
4890.79253223
4890.46576427
4890.37980623
4890.39202561
4890.39187108
4890.37337693
4890.45787566
4890.77698683
4891.31188699
4891.90927057
4892.13043946
4892.23760993
4892.30519835
4892.33358664
4892.33126988
4892.29272599
4892.19168455
4891.73359841
4890.68951244
4889.41199199
4888.45048178
4887.9775564
4887.84864887
4887.84624786
4887.84143199
4887.8351513
4887.95227847
4888.47192387
4889.43834468
4890.67590581
4891.69194046
4892.12441599
4892.22247928
4892.25489486
4892.24843791
4892.20554203
4891.93915566
4890.68167841
4888.72397786
4886.74369253
4884.96073525
4883.44420817
4882.99151708
4883.02502843
4882.95478365
4882.73247232
4883.29443961
4885.15877039
4887.05194993
4888.88014052
4890.68069009