/*--------------------------------*- C++ -*----------------------------------*\
| =========                 |                                                 |
| \\      /  F ield         | OpenFOAM: The Open Source CFD Toolbox           |
|  \\    /   O peration     | Version:  3.0.1                                 |
|   \\  /    A nd           | Web:      www.OpenFOAM.org                      |
|    \\/     M anipulation  |                                                 |
\*---------------------------------------------------------------------------*/
FoamFile
{
    version     2.0;
    format      ascii;
    class       volScalarField;
    location    "3.3";
    object      rAU;
}
// * * * * * * * * * * * * * * * * * * * * * * * * * * * * * * * * * * * * * //

dimensions      [-1 3 1 0 0 0 0];

internalField   nonuniform List<scalar> 
7968
(
1.05130575015e-05
1.05033874836e-05
1.05022143746e-05
1.05027722492e-05
1.05033698562e-05
1.04955580089e-05
1.04913637945e-05
1.04965607423e-05
1.04982515147e-05
1.0498825217e-05
1.04988243307e-05
1.04982463418e-05
1.04965392922e-05
1.04912642826e-05
1.04954994787e-05
1.05034072824e-05
1.05027910293e-05
1.05022152199e-05
1.05033698388e-05
1.05130466143e-05
1.05033840959e-05
1.04776883159e-05
1.04689299011e-05
1.04651328438e-05
1.04621544441e-05
1.04585319624e-05
1.04562616707e-05
1.04568341323e-05
1.04577506915e-05
1.04581967861e-05
1.04581997444e-05
1.04577547881e-05
1.04568232805e-05
1.04562157233e-05
1.04585121653e-05
1.04621850584e-05
1.04651659627e-05
1.04689337344e-05
1.04776721709e-05
1.05033761888e-05
1.05021904963e-05
1.04689343775e-05
1.04555604235e-05
1.04492412614e-05
1.04451018657e-05
1.04422321231e-05
1.04408877041e-05
1.0441206026e-05
1.04419477702e-05
1.04423404507e-05
1.04423483189e-05
1.04419604213e-05
1.04412008128e-05
1.04408581563e-05
1.04422190616e-05
1.0445127317e-05
1.04492745181e-05
1.04555788498e-05
1.04689369798e-05
1.05021977245e-05
1.0502774832e-05
1.04651453513e-05
1.04492541533e-05
1.04421429837e-05
1.04377995713e-05
1.04352799531e-05
1.04350401431e-05
1.0436658811e-05
1.04383984084e-05
1.04393584741e-05
1.0439374875e-05
1.04384289737e-05
1.04366691077e-05
1.04350153215e-05
1.04352569955e-05
1.04378256589e-05
1.04421916963e-05
1.04492887919e-05
1.0465171077e-05
1.05028088199e-05
1.05034625766e-05
1.04622243118e-05
1.04451226917e-05
1.04378063014e-05
1.04330709665e-05
1.04300430986e-05
1.04277540427e-05
1.04276893919e-05
1.04283181685e-05
1.04285735238e-05
1.04285796423e-05
1.04283168829e-05
1.04276476173e-05
1.04276796061e-05
1.04300132418e-05
1.04330806432e-05
1.04378345555e-05
1.04451388801e-05
1.04622204299e-05
1.05034631843e-05
1.04954770946e-05
1.0458580281e-05
1.04422438202e-05
1.04352672056e-05
1.0430011963e-05
1.04221858718e-05
1.04168442755e-05
1.04151759025e-05
1.04143253837e-05
1.04135715299e-05
1.04135695606e-05
1.04143029013e-05
1.04151080416e-05
1.04167437056e-05
1.04221370048e-05
1.04300203014e-05
1.04352624762e-05
1.04422214242e-05
1.0458492257e-05
1.04954652338e-05
1.0491161083e-05
1.04562623207e-05
1.04408831874e-05
1.04350178408e-05
1.04276499459e-05
1.04167812779e-05
1.04107119964e-05
1.04098561457e-05
1.04097085911e-05
1.04093417215e-05
1.04093434683e-05
1.04096843669e-05
1.04097660157e-05
1.04105917939e-05
1.0416758193e-05
1.04277063655e-05
1.04350126652e-05
1.04408535687e-05
1.04561892512e-05
1.04911681506e-05
1.0496514392e-05
1.04568271545e-05
1.04412034825e-05
1.04366499163e-05
1.04275714948e-05
1.04151188886e-05
1.04099044078e-05
1.04115064544e-05
1.04173081387e-05
1.04210595353e-05
1.04211175598e-05
1.04175116993e-05
1.0411401164e-05
1.04097435831e-05
1.04151088685e-05
1.04276678968e-05
1.04366583587e-05
1.04411880318e-05
1.04567948863e-05
1.04964977242e-05
1.04982443998e-05
1.04577635986e-05
1.04419604864e-05
1.04384148275e-05
1.04282084398e-05
1.04142948464e-05
1.04098280428e-05
1.04174036891e-05
1.04270702448e-05
1.0429761146e-05
1.04298033069e-05
1.04271539676e-05
1.04175033256e-05
1.04096339834e-05
1.04142888985e-05
1.04283294231e-05
1.04384179078e-05
1.04419494188e-05
1.04577349309e-05
1.04982188824e-05
1.04988325854e-05
1.04582207564e-05
1.04423610173e-05
1.0439382193e-05
1.04284635201e-05
1.04135483382e-05
1.04094886036e-05
1.04211403167e-05
1.04297664921e-05
1.04324680612e-05
1.04325091875e-05
1.04298466825e-05
1.04211667795e-05
1.04092835902e-05
1.04135538074e-05
1.04285995077e-05
1.04393801916e-05
1.04423482194e-05
1.04581884932e-05
1.04988038692e-05
1.04988419367e-05
1.04582301906e-05
1.0442371951e-05
1.04393963493e-05
1.04284722173e-05
1.04135469575e-05
1.04094866595e-05
1.04211711439e-05
1.04297911107e-05
1.04324942987e-05
1.04325366418e-05
1.04298738873e-05
1.04212023413e-05
1.04092827281e-05
1.04135545254e-05
1.04286093512e-05
1.04393957519e-05
1.04423602107e-05
1.04582008001e-05
1.04988161098e-05
1.04982762837e-05
1.04577920923e-05
1.04419910268e-05
1.04384565649e-05
1.04282355837e-05
1.04142965198e-05
1.0409830501e-05
1.04175497208e-05
1.04271621104e-05
1.04298534645e-05
1.04298980052e-05
1.04272503281e-05
1.04176628515e-05
1.04096410686e-05
1.04142963778e-05
1.04283590568e-05
1.04384634408e-05
1.04419834913e-05
1.04577717368e-05
1.04982601524e-05
1.04965942774e-05
1.04568690474e-05
1.04412418316e-05
1.04367073882e-05
1.04276087038e-05
1.04151279108e-05
1.04099210203e-05
1.04115573445e-05
1.04176356065e-05
1.04213312435e-05
1.04213918131e-05
1.04178464446e-05
1.04114561309e-05
1.04097675274e-05
1.0415124189e-05
1.04277073141e-05
1.0436721198e-05
1.04412324755e-05
1.04568513467e-05
1.04965988947e-05
1.04914200428e-05
1.0456267181e-05
1.04408996794e-05
1.04350575411e-05
1.04276676641e-05
1.04167623959e-05
1.04107001383e-05
1.04098942842e-05
1.04097924024e-05
1.04094543341e-05
1.04094583265e-05
1.04097754762e-05
1.04098155653e-05
1.04105909372e-05
1.04167426446e-05
1.04277220948e-05
1.04350554756e-05
1.04408725167e-05
1.04562039982e-05
1.04914902461e-05
1.04955854316e-05
1.04585284171e-05
1.04422383606e-05
1.04352747304e-05
1.04300233954e-05
1.04221151599e-05
1.04167419197e-05
1.04150761688e-05
1.04142230392e-05
1.04134638784e-05
1.04134647666e-05
1.04142062995e-05
1.04150166833e-05
1.04166467155e-05
1.04220655754e-05
1.04300310236e-05
1.04352693856e-05
1.04422149501e-05
1.04584432283e-05
1.04955892341e-05
1.05033774684e-05
1.04621980671e-05
1.04451291107e-05
1.04378277113e-05
1.04330817039e-05
1.04300179954e-05
1.04276552814e-05
1.04275691349e-05
1.04281756066e-05
1.04284083291e-05
1.04284151847e-05
1.04281758489e-05
1.0427529223e-05
1.04275800132e-05
1.04299901654e-05
1.04330914981e-05
1.04378589614e-05
1.04451523506e-05
1.04621952718e-05
1.05033472478e-05
1.05027886625e-05
1.04651586079e-05
1.04492768794e-05
1.04421831274e-05
1.04378341313e-05
1.04352788645e-05
1.04350468411e-05
1.04366873718e-05
1.04384416254e-05
1.04394038443e-05
1.04394209692e-05
1.04384764648e-05
1.04367036395e-05
1.04350262116e-05
1.04352537583e-05
1.04378636897e-05
1.04422425991e-05
1.04493248304e-05
1.04651963985e-05
1.0502829314e-05
1.0502205147e-05
1.04689438373e-05
1.04555817668e-05
1.04492825763e-05
1.04451438554e-05
1.04422474453e-05
1.04408919451e-05
1.04412261936e-05
1.04419792553e-05
1.04423763414e-05
1.04423858019e-05
1.04419964077e-05
1.04412276766e-05
1.04408657821e-05
1.04422329267e-05
1.04451758449e-05
1.04493332336e-05
1.04556130967e-05
1.04689589385e-05
1.05022172191e-05
1.05033824141e-05
1.04776930858e-05
1.04689455033e-05
1.04651737585e-05
1.04622006176e-05
1.04585305783e-05
1.04562389191e-05
1.04568416948e-05
1.04577742761e-05
1.04582273058e-05
1.04582332076e-05
1.0457787398e-05
1.04568448007e-05
1.04562026571e-05
1.04585071015e-05
1.04622424307e-05
1.04652200982e-05
1.04689626215e-05
1.04776899715e-05
1.05033830564e-05
1.05130567962e-05
1.05033908106e-05
1.05022252121e-05
1.05028031329e-05
1.05034146236e-05
1.04955240891e-05
1.04912916269e-05
1.04965422963e-05
1.0498246521e-05
1.04988253402e-05
1.04988273298e-05
1.04982511743e-05
1.04965432187e-05
1.04912584216e-05
1.04954987338e-05
1.0503437615e-05
1.05028290427e-05
1.05022314146e-05
1.05033843639e-05
1.05130589511e-05
1.0505814869e-05
1.04819543839e-05
1.04729478399e-05
1.04698317844e-05
1.04676416721e-05
1.04618828525e-05
1.0459201695e-05
1.04621937118e-05
1.04640155639e-05
1.0464795201e-05
1.04647985441e-05
1.04640210659e-05
1.04621863494e-05
1.04591382036e-05
1.04618437669e-05
1.04676916764e-05
1.04698935252e-05
1.04729891695e-05
1.04820008406e-05
1.05058429565e-05
1.04819448105e-05
1.03683949605e-05
1.03111009257e-05
1.02842151787e-05
1.02701567683e-05
1.02624854417e-05
1.02594452398e-05
1.0259862521e-05
1.0261246746e-05
1.02621697334e-05
1.02621930347e-05
1.02613059999e-05
1.02599312061e-05
1.02594970683e-05
1.02625474657e-05
1.02702683091e-05
1.02843571454e-05
1.03112463175e-05
1.03685455365e-05
1.04819994909e-05
1.04729334199e-05
1.03110713127e-05
1.02242049349e-05
1.01803812421e-05
1.0156708183e-05
1.01442298494e-05
1.01386603291e-05
1.01371423177e-05
1.01372348452e-05
1.01374179898e-05
1.01374279455e-05
1.01372794962e-05
1.01372046619e-05
1.0138716464e-05
1.01442869472e-05
1.01567940368e-05
1.01805051832e-05
1.02243658039e-05
1.03112492492e-05
1.0472998796e-05
1.04698248534e-05
1.02841776499e-05
1.01803580114e-05
1.01268736132e-05
1.00983244911e-05
1.00841723128e-05
1.00778243137e-05
1.00758980055e-05
1.0075951451e-05
1.00763804644e-05
1.00764293768e-05
1.00760742002e-05
1.00760447818e-05
1.00779535682e-05
1.00842688871e-05
1.00983779796e-05
1.01269724509e-05
1.0180522741e-05
1.02843745604e-05
1.04699072911e-05
1.04677135113e-05
1.02701303414e-05
1.01566768209e-05
1.00983143773e-05
1.00681849589e-05
1.00528403496e-05
1.00464554172e-05
1.0044959065e-05
1.00454120887e-05
1.0046039425e-05
1.0046108435e-05
1.0045580009e-05
1.00451405346e-05
1.00466030163e-05
1.00529826376e-05
1.00683247124e-05
1.00983899649e-05
1.01568276678e-05
1.02703005316e-05
1.04677076777e-05
1.04618879756e-05
1.02624490108e-05
1.01441976286e-05
1.00841667372e-05
1.00528586496e-05
1.00384226732e-05
1.00338227962e-05
1.00337447594e-05
1.00350200514e-05
1.00360334892e-05
1.00361289512e-05
1.00352506472e-05
1.00339605702e-05
1.0033934547e-05
1.00384947152e-05
1.00529816666e-05
1.00842895034e-05
1.01443192298e-05
1.02625742095e-05
1.04618304454e-05
1.04590892379e-05
1.02593830765e-05
1.01386360812e-05
1.00778325268e-05
1.00465191288e-05
1.00339075801e-05
1.00311177823e-05
1.00322160276e-05
1.00342353266e-05
1.00355922557e-05
1.00357146623e-05
1.00345239122e-05
1.00324705647e-05
1.00311972133e-05
1.00338808397e-05
1.00465797162e-05
1.00779724664e-05
1.01387387537e-05
1.02595194792e-05
1.04591079362e-05
1.04621305343e-05
1.02598092165e-05
1.01371408605e-05
1.00759322828e-05
1.00450793813e-05
1.00339202305e-05
1.00323168961e-05
1.00344400539e-05
1.00414213104e-05
1.00464415596e-05
1.00466356026e-05
1.00419810592e-05
1.00347483935e-05
1.00324085293e-05
1.00338567066e-05
1.00451000163e-05
1.00760738188e-05
1.01372196851e-05
1.02599695165e-05
1.04621712732e-05
1.04639881441e-05
1.02612155194e-05
1.01372589481e-05
1.00759972384e-05
1.00455494131e-05
1.00352200313e-05
1.00343642885e-05
1.00414803921e-05
1.00522193627e-05
1.00562409376e-05
1.00564259562e-05
1.00526916039e-05
1.00420332295e-05
1.00344896709e-05
1.00351751198e-05
1.00455728592e-05
1.00761419649e-05
1.01372736691e-05
1.02613731858e-05
1.04640199038e-05
1.04647840938e-05
1.02621489345e-05
1.01374483678e-05
1.0076413874e-05
1.00461484115e-05
1.00361775495e-05
1.00356522711e-05
1.00463986548e-05
1.00561672329e-05
1.00601290167e-05
1.0060316082e-05
1.0056639173e-05
1.00469066786e-05
1.003581445e-05
1.0036162055e-05
1.00461851476e-05
1.00765637926e-05
1.01373675872e-05
1.02623013739e-05
1.04648106596e-05
1.04647980772e-05
1.02621760966e-05
1.01374655118e-05
1.00764442223e-05
1.00461795624e-05
1.00362114927e-05
1.00356879558e-05
1.00464669773e-05
1.00562334275e-05
1.00601995894e-05
1.00603890048e-05
1.00567106571e-05
1.00469824454e-05
1.00358517008e-05
1.00361971696e-05
1.00462190539e-05
1.0076598277e-05
1.01373836956e-05
1.02623312201e-05
1.04648267798e-05
1.04640328314e-05
1.02612927854e-05
1.01373216708e-05
1.00760840463e-05
1.00456385152e-05
1.00353161958e-05
1.00344659423e-05
1.00417196061e-05
1.00524192081e-05
1.00564442274e-05
1.00566349311e-05
1.00529036349e-05
1.00422915023e-05
1.00345965992e-05
1.0035276664e-05
1.00456700676e-05
1.00762401428e-05
1.01373411849e-05
1.02614588277e-05
1.04640713838e-05
1.04622170122e-05
1.02599234992e-05
1.01372424371e-05
1.00760612803e-05
1.00452151725e-05
1.00340713119e-05
1.00324832866e-05
1.00346241591e-05
1.00418724818e-05
1.00468404484e-05
1.0047039697e-05
1.00424434382e-05
1.00349359852e-05
1.00325805371e-05
1.00340174312e-05
1.00452486822e-05
1.00762193657e-05
1.01373343645e-05
1.02600967006e-05
1.04622711659e-05
1.04591973993e-05
1.02594891118e-05
1.01387495547e-05
1.00779778335e-05
1.00466783398e-05
1.00340976233e-05
1.00313341342e-05
1.00324561017e-05
1.00344934687e-05
1.00358638588e-05
1.00359870533e-05
1.003478554e-05
1.00327146166e-05
1.0031419981e-05
1.00340820385e-05
1.00467543277e-05
1.00781371713e-05
1.01388694833e-05
1.0259638322e-05
1.04592384324e-05
1.04618459445e-05
1.0262525342e-05
1.01443076376e-05
1.00843040974e-05
1.00530329187e-05
1.00386129146e-05
1.0034062027e-05
1.00340138226e-05
1.00353079831e-05
1.00363282275e-05
1.00364257501e-05
1.00355425962e-05
1.00342359817e-05
1.00341834579e-05
1.00386982149e-05
1.00531749843e-05
1.00844499936e-05
1.01444485079e-05
1.02626592638e-05
1.04617764511e-05
1.04676401996e-05
1.02702220211e-05
1.01567914264e-05
1.00984233429e-05
1.00683395163e-05
1.00530345819e-05
1.00466696066e-05
1.00452059768e-05
1.00456770477e-05
1.00463120737e-05
1.004638319e-05
1.00458518716e-05
1.00453983843e-05
1.00468315743e-05
1.00531964242e-05
1.00685032956e-05
1.00985233568e-05
1.01569662875e-05
1.02704054525e-05
1.04676119627e-05
1.04698654355e-05
1.02842945056e-05
1.01804773651e-05
1.01269845045e-05
1.009843293e-05
1.00843236284e-05
1.00780047818e-05
1.00761044135e-05
1.00761747158e-05
1.00766064598e-05
1.00766581727e-05
1.00763086134e-05
1.00762688172e-05
1.00781551254e-05
1.00844451989e-05
1.00985116098e-05
1.01271137635e-05
1.01806737309e-05
1.0284516719e-05
1.0469955732e-05
1.0472971028e-05
1.03111796798e-05
1.02243158828e-05
1.01804957269e-05
1.0156822297e-05
1.01443403294e-05
1.0138777659e-05
1.01372637176e-05
1.01373202974e-05
1.01373952737e-05
1.01374042077e-05
1.01373709928e-05
1.01373384908e-05
1.01388494541e-05
1.01444166249e-05
1.01569345262e-05
1.01806517878e-05
1.02245115584e-05
1.03113878299e-05
1.04730450161e-05
1.04819779615e-05
1.03684712675e-05
1.03111815815e-05
1.02843142088e-05
1.02702567085e-05
1.02625624641e-05
1.02595243401e-05
1.02599727791e-05
1.02613776629e-05
1.02623111231e-05
1.02623381612e-05
1.02614481759e-05
1.02600571211e-05
1.02595893792e-05
1.02626345146e-05
1.02703848234e-05
1.02844816727e-05
1.03113568846e-05
1.03686481868e-05
1.0482039552e-05
1.05058316534e-05
1.04819753112e-05
1.04729753937e-05
1.04698806807e-05
1.04676831922e-05
1.04618509358e-05
1.04591527888e-05
1.04621950272e-05
1.04640327548e-05
1.04648189558e-05
1.04648248874e-05
1.04640468083e-05
1.04622038537e-05
1.04591127699e-05
1.04618031337e-05
1.0467714656e-05
1.04699508176e-05
1.04730265174e-05
1.0482028415e-05
1.05058685173e-05
1.05037779612e-05
1.0473758637e-05
1.04609551555e-05
1.04557859713e-05
1.04518864577e-05
1.0446029002e-05
1.04430989643e-05
1.04445554848e-05
1.04457434551e-05
1.04462581085e-05
1.04462668416e-05
1.04457652077e-05
1.04445723835e-05
1.04430513446e-05
1.04459686073e-05
1.04519457185e-05
1.04559183532e-05
1.04610699606e-05
1.04738843123e-05
1.05038755673e-05
1.04737410249e-05
1.03166199474e-05
1.02334286027e-05
1.01928098682e-05
1.01713326927e-05
1.0159945374e-05
1.01549059653e-05
1.01539312412e-05
1.01546187913e-05
1.01553147448e-05
1.01553561889e-05
1.01547270897e-05
1.01540750239e-05
1.01550497804e-05
1.01600994771e-05
1.01715331446e-05
1.01930666579e-05
1.02337318511e-05
1.03169553347e-05
1.04738953397e-05
1.04609286757e-05
1.02333686603e-05
1.01017667675e-05
1.00326172745e-05
9.9952191565e-06
9.97588842929e-06
9.96710430996e-06
9.96399155596e-06
9.96344147275e-06
9.96355094328e-06
9.96358954773e-06
9.96356609324e-06
9.96417609455e-06
9.96730509371e-06
9.9760692339e-06
9.99539305371e-06
1.00328237859e-05
1.01020632786e-05
1.02337452181e-05
1.04610913203e-05
1.04557694883e-05
1.0192718215e-05
1.00325637998e-05
9.94622111578e-06
9.89918757577e-06
9.87405486101e-06
9.86089061576e-06
9.85487217272e-06
9.85283231939e-06
9.85247357506e-06
9.85255306778e-06
9.85303216205e-06
9.85510855887e-06
9.86111751609e-06
9.8743329749e-06
9.89945393074e-06
9.94644068721e-06
1.00328507465e-05
1.01931087633e-05
1.04559479334e-05
1.04519251164e-05
1.01712198392e-05
9.99514416287e-06
9.89916238433e-06
9.84535649885e-06
9.81562793938e-06
9.80283151909e-06
9.79805842818e-06
9.79675793788e-06
9.79676810358e-06
9.79688519857e-06
9.79702989334e-06
9.79819632041e-06
9.8028217647e-06
9.81576644065e-06
9.84566436456e-06
9.89948494912e-06
9.99544688526e-06
1.01716086626e-05
1.04519827087e-05
1.0445985945e-05
1.01598075311e-05
9.97582433593e-06
9.87402618702e-06
9.81568669592e-06
9.78842424284e-06
9.77774494669e-06
9.77429028564e-06
9.77386052765e-06
9.77442756165e-06
9.77459437134e-06
9.77419780543e-06
9.7740721836e-06
9.77682257397e-06
9.78779066941e-06
9.81575252067e-06
9.87439634018e-06
9.97614154453e-06
1.01602073642e-05
1.04460038669e-05
1.04429256419e-05
1.01547469546e-05
9.96706184706e-06
9.86089508601e-06
9.80313180007e-06
9.77831699501e-06
9.76965529253e-06
9.76779937342e-06
9.76857793856e-06
9.76984767004e-06
9.77008623794e-06
9.76902571858e-06
9.76724573566e-06
9.76768889966e-06
9.77641174693e-06
9.80267091892e-06
9.86118910635e-06
9.96739416651e-06
1.01551859251e-05
1.04431083169e-05
1.04444109042e-05
1.015378526e-05
9.96396309063e-06
9.85496616986e-06
9.79873210345e-06
9.77574130749e-06
9.76893324187e-06
9.76879652863e-06
9.77102279576e-06
9.77318159586e-06
9.77348633756e-06
9.77166916988e-06
9.76821197547e-06
9.7663819668e-06
9.77302592948e-06
9.79781008446e-06
9.85517197928e-06
9.96429709301e-06
1.01542533361e-05
1.04446694987e-05
1.0445640876e-05
1.01545028578e-05
9.96342035486e-06
9.85296242243e-06
9.7976161488e-06
9.7757529158e-06
9.77035037192e-06
9.77170272433e-06
9.77512950434e-06
9.77786158142e-06
9.77818855011e-06
9.77588440791e-06
9.77122439269e-06
9.76775277865e-06
9.77288851555e-06
9.79657565736e-06
9.85314752963e-06
9.9637169424e-06
1.01549639742e-05
1.04458927441e-05
1.04461826775e-05
1.01552161542e-05
9.9635251369e-06
9.85259277108e-06
9.7975742023e-06
9.77624219158e-06
9.7715252207e-06
9.77370853254e-06
9.77767894011e-06
9.78074314016e-06
9.78110632059e-06
9.77847755187e-06
9.77330625423e-06
9.76902450042e-06
9.77345146402e-06
9.7965670089e-06
9.85277690828e-06
9.96374241356e-06
1.01556625188e-05
1.04464236414e-05
1.04462066015e-05
1.01552608998e-05
9.9635568518e-06
9.8526328384e-06
9.79761396679e-06
9.77628277962e-06
9.77156277252e-06
9.77375054827e-06
9.77772385331e-06
9.78078475662e-06
9.78115542759e-06
9.77852982543e-06
9.77335250789e-06
9.76906629718e-06
9.77349426798e-06
9.79661072754e-06
9.85282045365e-06
9.96377469629e-06
1.01557089056e-05
1.04464499777e-05
1.04457134995e-05
1.01546262502e-05
9.96352272781e-06
9.85307381571e-06
9.79773119923e-06
9.77587220031e-06
9.77047119063e-06
9.77183938691e-06
9.775279674e-06
9.77801544238e-06
9.77834269495e-06
9.77603537143e-06
9.77136851585e-06
9.76789004877e-06
9.77302305852e-06
9.79670361619e-06
9.85326867386e-06
9.96382716729e-06
1.01550962082e-05
1.04459729386e-05
1.0444531303e-05
1.01539675415e-05
9.96412607213e-06
9.85514020858e-06
9.79894203202e-06
9.77600703857e-06
9.769272975e-06
9.76916978909e-06
9.77143104596e-06
9.7735982611e-06
9.77390165787e-06
9.77207394798e-06
9.76858979635e-06
9.76673315005e-06
9.77331935796e-06
9.79803961939e-06
9.85536110888e-06
9.96447661615e-06
1.01544510824e-05
1.04448023979e-05
1.0443032317e-05
1.01549431451e-05
9.96726340873e-06
9.86112232438e-06
9.80342411772e-06
9.77873943992e-06
9.77023405368e-06
9.76849089274e-06
9.76930884112e-06
9.7705961647e-06
9.77082335009e-06
9.76974982307e-06
9.76793495881e-06
9.76828178268e-06
9.77686067492e-06
9.80298759206e-06
9.861437044e-06
9.96761916252e-06
1.01554009548e-05
1.04432317771e-05
1.04459467536e-05
1.01599931753e-05
9.97604115166e-06
9.87429865095e-06
9.81599721771e-06
9.78886349207e-06
9.77837008123e-06
9.77504575836e-06
9.77466633504e-06
9.77524464032e-06
9.77540834635e-06
9.77499742747e-06
9.77482990738e-06
9.77746340396e-06
9.7882529148e-06
9.81609220416e-06
9.87469966808e-06
9.97638729864e-06
1.01604099823e-05
1.04459488921e-05
1.0451885194e-05
1.01714115353e-05
9.9953566976e-06
9.8994195592e-06
9.84565276254e-06
9.81599355673e-06
9.80330102614e-06
9.79861039997e-06
9.79734951222e-06
9.79737721294e-06
9.79749602112e-06
9.79762541682e-06
9.7987588137e-06
9.80331161719e-06
9.81616100039e-06
9.84599444518e-06
9.8997813167e-06
9.99569520269e-06
1.01718221098e-05
1.04519213702e-05
1.04558451191e-05
1.0192925479e-05
1.00327619437e-05
9.94642387159e-06
9.89944846287e-06
9.87437047445e-06
9.86121016767e-06
9.85522171542e-06
9.85321356809e-06
9.8528895523e-06
9.85297344396e-06
9.85342557951e-06
9.85547613502e-06
9.8614616468e-06
9.87468436665e-06
9.89975674107e-06
9.94668599226e-06
1.00330902545e-05
1.01933483858e-05
1.04560325892e-05
1.04610069742e-05
1.02335713081e-05
1.01019524752e-05
1.00327891248e-05
9.99540705307e-06
9.97611148132e-06
9.96736261459e-06
9.96426486664e-06
9.9636944334e-06
9.96372021935e-06
9.96376011441e-06
9.96382955864e-06
9.96446864083e-06
9.96759058051e-06
9.97632509776e-06
9.99561916327e-06
1.00330379226e-05
1.01022945394e-05
1.02339893918e-05
1.04611790501e-05
1.04738132499e-05
1.03167804666e-05
1.02335865099e-05
1.01929720886e-05
1.01714950094e-05
1.01601093015e-05
1.0155092464e-05
1.0154155982e-05
1.01548682441e-05
1.01555793557e-05
1.01556262075e-05
1.01549939414e-05
1.01543207531e-05
1.01552594797e-05
1.01602856331e-05
1.01717209547e-05
1.01932630001e-05
1.02339315994e-05
1.03171574518e-05
1.04739810331e-05
1.05038401564e-05
1.04738189106e-05
1.04610194955e-05
1.04558763012e-05
1.04519449022e-05
1.04460034973e-05
1.04430864175e-05
1.04446172043e-05
1.04458341603e-05
1.0446362583e-05
1.04463755355e-05
1.04458687706e-05
1.04446539153e-05
1.04430579238e-05
1.04459330221e-05
1.04519902443e-05
1.0456018758e-05
1.04611463424e-05
1.04739605229e-05
1.05039380119e-05
1.04989300691e-05
1.04658153213e-05
1.04508077023e-05
1.04394472432e-05
1.0434452152e-05
1.04291307423e-05
1.04256716497e-05
1.04251691244e-05
1.04252665669e-05
1.04252802254e-05
1.04252899142e-05
1.04252925591e-05
1.04251876173e-05
1.04255924838e-05
1.04290148243e-05
1.04344842918e-05
1.04395759398e-05
1.04509528209e-05
1.04661049451e-05
1.0499238174e-05
1.04657941213e-05
1.0285605181e-05
1.01882290088e-05
1.01356394872e-05
1.0109716229e-05
1.00962054639e-05
1.00898604985e-05
1.00876319102e-05
1.00874226664e-05
1.00877046771e-05
1.00877543095e-05
1.00875582859e-05
1.00878183583e-05
1.00900611314e-05
1.00964053908e-05
1.01099363355e-05
1.01358901322e-05
1.01885541453e-05
1.02861021193e-05
1.04661136766e-05
1.04507650894e-05
1.01881368268e-05
1.00336384226e-05
9.95090065004e-06
9.90538849385e-06
9.88111845968e-06
9.86917997576e-06
9.86394075995e-06
9.86220256822e-06
9.86197310011e-06
9.86206761615e-06
9.86246384666e-06
9.86428007824e-06
9.86953532382e-06
9.88152509757e-06
9.90581229879e-06
9.95128702448e-06
1.00340274441e-05
1.01886169144e-05
1.04510054387e-05
1.04394603376e-05
1.01355400595e-05
9.9508278667e-06
9.84525007402e-06
9.78484752447e-06
9.75044976786e-06
9.73214111696e-06
9.72309320151e-06
9.71926452803e-06
9.7181872065e-06
9.71832121829e-06
9.71954224275e-06
9.72302307398e-06
9.73160748511e-06
9.750284124e-06
9.78524622124e-06
9.84580797125e-06
9.95134027102e-06
1.01359754984e-05
1.04396253699e-05
1.04344987413e-05
1.01095933306e-05
9.9052755508e-06
9.78482282986e-06
9.713926787e-06
9.67497049844e-06
9.65599597772e-06
9.64681086963e-06
9.64271689958e-06
9.64172591663e-06
9.64194082395e-06
9.64308185921e-06
9.64561288378e-06
9.65276319074e-06
9.67213070705e-06
9.71300374112e-06
9.78529246171e-06
9.90592753933e-06
1.01100689631e-05
1.04345325211e-05
1.04291090245e-05
1.00960738048e-05
9.88101393188e-06
9.75062733323e-06
9.67572564482e-06
9.63805365876e-06
9.61996416892e-06
9.60962928065e-06
9.60538380276e-06
9.60496411614e-06
9.60533304663e-06
9.60591265642e-06
9.60706469761e-06
9.61283155609e-06
9.63034201421e-06
9.67156457871e-06
9.75021066775e-06
9.88168493108e-06
1.00965761745e-05
1.04290725709e-05
1.04255415495e-05
1.00897361955e-05
9.86918783978e-06
9.73303959137e-06
9.65871868319e-06
9.62287568435e-06
9.60397218274e-06
9.59640506173e-06
9.59430606962e-06
9.59519469767e-06
9.5957558847e-06
9.59526307359e-06
9.59256877843e-06
9.59347763141e-06
9.61050018469e-06
9.65068681087e-06
9.73104730634e-06
9.86968176068e-06
1.00902550385e-05
1.04257018952e-05
1.04250443198e-05
1.00875301077e-05
9.86409465697e-06
9.72501763595e-06
9.65202473917e-06
9.61665459608e-06
9.6016952473e-06
9.59654551809e-06
9.59636439634e-06
9.598428978e-06
9.59900677731e-06
9.59734717927e-06
9.59214918334e-06
9.58833108959e-06
9.60154716098e-06
9.64157493567e-06
9.72173881067e-06
9.86440927892e-06
1.00880555864e-05
1.0425346319e-05
1.0425170581e-05
1.00873377334e-05
9.86239162262e-06
9.72165251844e-06
9.64921294068e-06
9.61464018305e-06
9.60255199656e-06
9.59945416052e-06
9.60118034298e-06
9.60448016463e-06
9.6050144474e-06
9.6021289114e-06
9.59488920024e-06
9.58870292031e-06
9.59872404349e-06
9.63813023921e-06
9.71799996455e-06
9.86268099479e-06
1.00878497234e-05
1.04254892771e-05
1.04252020348e-05
1.00876223256e-05
9.86212660061e-06
9.7205462254e-06
9.6481449702e-06
9.61432328163e-06
9.60324242966e-06
9.6013445943e-06
9.60432195994e-06
9.60853761913e-06
9.60905781061e-06
9.60523028089e-06
9.59678571272e-06
9.58943849255e-06
9.59834656198e-06
9.63715851116e-06
9.71690886651e-06
9.86244094968e-06
1.00881163828e-05
1.04255189547e-05
1.04252221246e-05
1.00876620825e-05
9.86218106274e-06
9.72058832953e-06
9.64817042511e-06
9.61430685876e-06
9.60322107206e-06
9.60132663034e-06
9.60430489926e-06
9.60852238359e-06
9.60904931703e-06
9.60522803877e-06
9.59678845104e-06
9.58944177868e-06
9.59836176861e-06
9.63719399591e-06
9.71695625291e-06
9.86250004019e-06
1.00881607405e-05
1.04255421072e-05
1.04252314038e-05
1.00874511257e-05
9.86254758021e-06
9.72176843893e-06
9.64930159733e-06
9.61469884592e-06
9.60256951486e-06
9.59948858746e-06
9.60121569267e-06
9.60452171854e-06
9.60507344697e-06
9.6022056473e-06
9.59496586004e-06
9.58878598618e-06
9.59885031325e-06
9.63826309039e-06
9.71813870849e-06
9.86284892716e-06
1.00879786611e-05
1.04255597863e-05
1.0425135148e-05
1.00877021241e-05
9.86434224676e-06
9.72526207948e-06
9.65238242735e-06
9.61713921454e-06
9.60238485827e-06
9.59733983041e-06
9.5972052428e-06
9.59927042241e-06
9.5998581434e-06
9.59819781067e-06
9.5929820842e-06
9.58910945073e-06
9.60216415646e-06
9.64199749744e-06
9.72201321324e-06
9.86467458408e-06
1.00882477824e-05
1.04254501956e-05
1.04255768187e-05
1.00899420792e-05
9.86951361701e-06
9.7334229645e-06
9.65939499952e-06
9.62397320169e-06
9.60552824771e-06
9.59839030888e-06
9.59640452969e-06
9.59729754885e-06
9.59784557245e-06
9.59733136389e-06
9.59457011772e-06
9.59510291972e-06
9.61172510229e-06
9.65143000273e-06
9.73146345504e-06
9.87003179647e-06
1.00904871726e-05
1.04257441736e-05
1.04290444162e-05
1.0096293333e-05
9.88138072798e-06
9.75105162289e-06
9.67642052128e-06
9.63933469969e-06
9.62181802253e-06
9.61187460169e-06
9.60779114913e-06
9.6073999456e-06
9.60773826491e-06
9.60827176106e-06
9.60930791583e-06
9.61474869654e-06
9.63168201354e-06
9.67230745388e-06
9.75066784293e-06
9.88208626902e-06
1.00968257177e-05
1.04289882629e-05
1.04344759999e-05
1.01098204604e-05
9.90563560883e-06
9.78524604091e-06
9.71445382496e-06
9.67588572162e-06
9.65740975614e-06
9.64856509769e-06
9.64458868785e-06
9.64360538222e-06
9.64380809851e-06
9.64492215961e-06
9.64736101112e-06
9.65420423195e-06
9.67308255253e-06
9.7135730896e-06
9.785762593e-06
9.90633522885e-06
1.01103308643e-05
1.04344933379e-05
1.04395189057e-05
1.01357639488e-05
9.95113988476e-06
9.84562049271e-06
9.78529186654e-06
9.7509912045e-06
9.73286760307e-06
9.7240017046e-06
9.72025841319e-06
9.71920104277e-06
9.71933291231e-06
9.7205361046e-06
9.72393921971e-06
9.7323635845e-06
9.75086235846e-06
9.78574308415e-06
9.8462370406e-06
9.95170887115e-06
1.01362424593e-05
1.04396981041e-05
1.04508479628e-05
1.01883596091e-05
1.00338895682e-05
9.9511902351e-06
9.90574438723e-06
9.88154509068e-06
9.86968008766e-06
9.86450194044e-06
9.86280070612e-06
9.86259231122e-06
9.86269248206e-06
9.86307722007e-06
9.8648667741e-06
9.87007328522e-06
9.88200074e-06
9.90622520815e-06
9.95163625463e-06
1.00343377658e-05
1.01888853396e-05
1.0451093541e-05
1.04659394686e-05
1.02858440982e-05
1.01884255484e-05
1.0135853298e-05
1.01099580596e-05
1.00964759694e-05
1.00901657213e-05
1.00879657733e-05
1.00877769915e-05
1.00880728298e-05
1.00881287063e-05
1.00879312268e-05
1.00881795232e-05
1.00903985346e-05
1.00967147244e-05
1.01102176769e-05
1.01361495842e-05
1.0188797708e-05
1.02863932834e-05
1.04662807165e-05
1.04991024278e-05
1.04659485695e-05
1.04509018776e-05
1.04395669244e-05
1.04345390998e-05
1.04291351666e-05
1.04257069804e-05
1.0425298721e-05
1.04254377297e-05
1.04254726018e-05
1.04254875796e-05
1.04254793219e-05
1.04253393355e-05
1.04256396524e-05
1.04290045238e-05
1.04345675712e-05
1.0439715232e-05
1.045105315e-05
1.04662625842e-05
1.04994245995e-05
1.04861105489e-05
1.04553707341e-05
1.04395549422e-05
1.04318918036e-05
1.04266831167e-05
1.0422224224e-05
1.04181650333e-05
1.04153418751e-05
1.04135920875e-05
1.04125308617e-05
1.04125060101e-05
1.04135366429e-05
1.04152489849e-05
1.04179787989e-05
1.04220593765e-05
1.04266452858e-05
1.04318958827e-05
1.04395618673e-05
1.04558598628e-05
1.04878511886e-05
1.045535978e-05
1.02610146759e-05
1.01543276839e-05
1.0101630164e-05
1.00730950549e-05
1.00579854968e-05
1.00506020764e-05
1.00474703336e-05