/*--------------------------------*- C++ -*----------------------------------*\
| =========                 |                                                 |
| \\      /  F ield         | OpenFOAM: The Open Source CFD Toolbox           |
|  \\    /   O peration     | Version:  3.0.1                                 |
|   \\  /    A nd           | Web:      www.OpenFOAM.org                      |
|    \\/     M anipulation  |                                                 |
\*---------------------------------------------------------------------------*/
FoamFile
{
    version     2.0;
    format      ascii;
    class       surfaceScalarField;
    location    "2.5";
    object      phi;
}
// * * * * * * * * * * * * * * * * * * * * * * * * * * * * * * * * * * * * * //

dimensions      [0 3 -1 0 0 0 0];

internalField   nonuniform List<scalar> 
22672
(
2.42765563056e-06
2.44051082303e-06
-4.86815237862e-06
5.76243066447e-06
1.86520189883e-06
-5.19995996649e-06
9.06593811414e-06
1.93743924805e-06
-5.24092673334e-06
1.15508791765e-05
2.61871889494e-06
-5.10363677412e-06
1.27152474313e-05
3.7940016695e-06
-4.95834347526e-06
1.23513989555e-05
5.21642487085e-06
-4.85254683734e-06
1.05697978386e-05
6.57423938534e-06
-4.79260591772e-06
7.63418311989e-06
7.71911350441e-06
-4.78346410024e-06
3.94505415281e-06
8.50641688858e-06
-4.81725146828e-06
-1.0363770608e-07
8.90083570692e-06
-4.8521062009e-06
-4.15484655854e-06
8.90454884901e-06
-4.85330166491e-06
-7.8497919926e-06
8.51622593218e-06
-4.82124189756e-06
-1.07899751229e-05
7.73167566237e-06
-4.79145401452e-06
-1.25687610028e-05
6.58571122347e-06
-4.80688726215e-06
-1.29189003046e-05
5.22594205121e-06
-4.87576551521e-06
-1.17243994694e-05
3.80009289958e-06
-4.9945578657e-06
-9.19559138803e-06
2.62552927616e-06
-5.15430337693e-06
-5.84066242226e-06
1.94787735043e-06
-5.30277399605e-06
-2.45670428125e-06
1.8841310911e-06
-5.26805687924e-06
2.47613243296e-06
-4.93281533129e-06
1.84471915937e-06
5.8040336983e-06
-5.20822553383e-06
5.64932273074e-06
5.70500267014e-06
-7.64438464235e-06
9.60447387115e-06
6.6000728872e-06
-8.61776173607e-06
1.25499603009e-05
8.56640661512e-06
-8.89314749481e-06
1.39340163278e-05
1.13443243736e-05
-8.93434837329e-06
1.35645355305e-05
1.44583866142e-05
-8.87244701606e-06
1.15648441385e-05
1.7388668689e-05
-8.81470076181e-06
8.31731472454e-06
1.97834735325e-05
-8.81679079891e-06
4.28360309808e-06
2.14223991071e-05
-8.88222880231e-06
-1.11028911048e-07
2.22431001769e-05
-8.94758941438e-06
-4.50908746207e-06
2.22521983146e-05
-8.94954725825e-06
-8.55147647668e-06
2.14471720011e-05
-8.88851332153e-06
-1.18072879713e-05
1.98168018504e-05
-8.82927133711e-06
-1.38072848757e-05
1.74224846394e-05
-8.83673398948e-06
-1.4161839835e-05
1.44885511607e-05
-8.90801300523e-06
-1.27444089914e-05
1.1370888457e-05
-8.98818725726e-06
-9.74874081594e-06
8.59314899432e-06
-8.96325132252e-06
-5.73118678073e-06
6.63209994272e-06
-8.70174254158e-06
-1.86843803692e-06
5.74875290256e-06
-7.7273378305e-06
5.8664216231e-06
-5.25870656847e-06
1.9174587316e-06
9.15265399398e-06
-5.26606089377e-06
6.53997229151e-06
9.7043205366e-06
-8.62180998904e-06
1.13963438015e-05
1.15041804266e-05
-9.76045403755e-06
1.49693330547e-05
1.47184539503e-05
-9.72500758755e-06
1.6588206636e-05
1.89384381915e-05
-9.21295419155e-06
1.60607643098e-05
2.35220703964e-05
-8.53620409454e-06
1.35969384036e-05
2.77765832625e-05
-7.924047519e-06
9.70801324531e-06
3.12082726012e-05
-7.53582965009e-06
4.98167311018e-06
3.35392090398e-05
-7.39042331893e-06
-1.03605326675e-07
3.47016075687e-05
-7.37318121769e-06
-5.19481971184e-06
3.47147552853e-05
-7.37129446571e-06
-9.93683103131e-06
3.35755017742e-05
-7.38627066702e-06
-1.38424036737e-05
3.12570648684e-05
-7.53464350862e-06
-1.631187876e-05
2.78252561344e-05
-7.93325103042e-06
-1.68254863578e-05
2.3565148014e-05
-8.56294602259e-06
-1.5172989336e-05
1.89773085391e-05
-9.25887675223e-06
-1.15468182173e-05
1.47585437199e-05
-9.79152901555e-06
-6.62299562203e-06
1.15508534925e-05
-9.84254276452e-06
-1.93822082223e-06
9.76331460058e-06
-8.69930547984e-06
9.22907432418e-06
-5.30085460589e-06
2.59802596645e-06
1.16767233317e-05
-5.12207615782e-06
8.50533388005e-06
1.26947676056e-05
-8.89773249764e-06
1.46071826814e-05
1.51221172237e-05
-9.71975924836e-06
1.90071656297e-05
1.91674226111e-05
-8.84892074201e-06
2.08782714686e-05
2.43112531935e-05
-7.24388505289e-06
2.00229050231e-05
2.97960447176e-05
-5.41856712985e-06
1.67881074378e-05
3.48263352912e-05
-3.81490916102e-06
1.18805471667e-05
3.88480110017e-05
-2.73212919025e-06
6.06964700362e-06
4.15633296637e-05
-2.21316907355e-06
-8.90948686644e-08
4.29113228862e-05
-2.0509209184e-06
-6.25760193265e-06
4.29259833295e-05
-2.04266849013e-06
-1.20948257726e-05
4.16039246076e-05
-2.19114746314e-06
-1.70317580216e-05
3.89013095681e-05
-2.70726258551e-06
-2.02794745691e-05
3.48755585958e-05
-3.8025383642e-06
-2.11224820891e-05
2.98352751867e-05
-5.42707517393e-06
-1.92158540196e-05
2.43449235542e-05
-7.27420253964e-06
-1.47595515115e-05
1.92044728091e-05
-8.90219572272e-06
-8.58601791561e-06
1.51684348236e-05
-9.79108365394e-06
-2.61405139346e-06
1.27539024259e-05
-8.96252645074e-06
1.17526758021e-05
-5.13763647607e-06
3.7771691966e-06
1.28750029783e-05
-4.97542940077e-06
1.12853152154e-05
1.41111049896e-05
-8.92446059473e-06
1.88293437386e-05
1.67777783728e-05
-9.19966260314e-06
2.41490812636e-05
2.10779598438e-05
-7.2302424667e-06
2.62441152042e-05
2.64508525957e-05
-4.23459521614e-06
2.49342185391e-05
3.21016528214e-05
-9.95667385273e-07
2.0724169686e-05
3.72130760894e-05
1.82335747601e-06
1.45592035083e-05
4.12781306198e-05
3.73490015765e-06
7.41333144144e-06
4.40035175504e-05
4.70574033049e-06
-7.21696196356e-08
4.53468391525e-05
5.05004177699e-06
-7.57195372996e-06
4.53611989539e-05
5.06462481574e-06
-1.47577789688e-05
4.40421943475e-05
4.74761009609e-06
-2.09682243384e-05
4.13274323723e-05
3.78437468397e-06
-2.51988511877e-05
3.72533766512e-05
1.85285777164e-06
-2.6494763485e-05
3.21266428348e-05
-9.95410343356e-07
-2.43588450592e-05
2.64686125158e-05
-4.25956735559e-06
-1.8978794377e-05
2.11002994255e-05
-7.27584311792e-06
-1.13611493831e-05
1.68112308299e-05
-9.26041262564e-06
-3.78806275962e-06
1.41575047635e-05
-8.97666497014e-06
1.29384301412e-05
-4.97380361612e-06
5.20397933903e-06
1.25347220772e-05
-4.86367944114e-06
1.44073914873e-05
1.3767368977e-05
-8.85965371508e-06
2.34207942223e-05
1.62757431391e-05
-8.5113403257e-06
2.96397902844e-05
2.02489236495e-05
-5.38992663733e-06
3.18962293557e-05
2.51694605435e-05
-9.75006933598e-07
3.00336954207e-05
3.02699492002e-05
3.69428456747e-06
2.47730810416e-05
3.48367260801e-05
7.63701753622e-06
1.72871735383e-05
3.84704072773e-05
1.02936885322e-05
8.767874561e-06
4.08983953949e-05
1.16244812515e-05
-5.64899054169e-08
4.20858479298e-05
1.2085416102e-05
-8.8997084124e-06
4.20988822687e-05
1.21055941656e-05
-1.74725931412e-05
4.09295688723e-05
1.16855666036e-05
-2.50218361406e-05
3.85094993543e-05
1.0367229174e-05
-3.03106893045e-05
3.48659151068e-05
7.67636403452e-06
-3.21529665842e-05
3.02824727385e-05
3.68649201911e-06
-2.98482184862e-05
2.51706449378e-05
-1.0067417254e-06
-2.35641624382e-05
2.02554991874e-05
-5.43922390622e-06
-1.44767770963e-05
1.62940315941e-05
-8.57016109967e-06
-5.20892498953e-06
1.38001631117e-05
-8.91049071984e-06
1.25828774448e-05
-4.85336182164e-06
6.56591111005e-06
1.07670330095e-05
-4.7982040847e-06
1.73460590764e-05
1.17800475075e-05
-8.79280501972e-06
2.76854405577e-05
1.38211660476e-05
-7.88477760854e-06
3.46792605328e-05
1.70194599686e-05
-3.76432258515e-06
3.70115153533e-05
2.09609097508e-05
1.87633753533e-06
3.46009573029e-05
2.50090973715e-05
7.67145926254e-06
2.83569330848e-05
2.85932813083e-05
1.24875250837e-05
1.96728472273e-05
3.14574076245e-05
1.56971462489e-05
9.9395614901e-06
3.33627945646e-05
1.72689493643e-05
-4.26905298992e-08
3.42774970466e-05
1.77906652522e-05
-1.00496766076e-05
3.42885136643e-05
1.78174147007e-05
-1.98497097698e-05
3.33809336852e-05
1.73487249676e-05
-2.86140105729e-05
3.14820624883e-05
1.57917903957e-05
-3.48933252881e-05
2.86147395328e-05
1.25305386988e-05
-3.72781057739e-05
2.5018162854e-05
7.64913361815e-06
-3.48851503191e-05
2.09587083891e-05
1.81901787807e-06
-2.78210999845e-05
1.70196628289e-05
-3.82818486963e-06
-1.74074665183e-05
1.38299185692e-05
-7.94949907745e-06
-6.56649035846e-06
1.18008614372e-05
-8.84165905648e-06
1.08023251247e-05
-4.78593046786e-06
7.71451927647e-06
7.83538177889e-06
-4.78285147549e-06
1.97466202705e-05
8.53356588445e-06
-8.7855991509e-06
3.11238926869e-05
9.92817366555e-06
-7.48425396205e-06
3.87074950853e-05
1.21007238283e-05
-2.6648324469e-06
4.10811352669e-05
1.47782610648e-05
3.80905102589e-06
3.82371981941e-05
1.74998000251e-05
1.03532854294e-05
3.12210361664e-05
1.9883410404e-05
1.57260909454e-05
2.15725662608e-05
2.17877124995e-05
1.93182275293e-05
1.08893695052e-05
2.30794152478e-05
2.0966640055e-05
-3.49693411467e-08
2.37022834443e-05
2.14996151418e-05
-1.09865179317e-05
2.37099534229e-05
2.15301683129e-05
-2.17412187789e-05
2.30884318302e-05
2.10472580617e-05
-3.1479862592e-05
2.18028324168e-05
1.94179248732e-05
-3.85387803037e-05
1.99034083352e-05
1.57702952928e-05
-4.13549332856e-05
1.75123418105e-05
1.03220149942e-05
-3.89134140249e-05
1.47806774898e-05
3.73654577968e-06
-3.12553302261e-05
1.21038484228e-05
-2.74224342338e-06
-1.98029561839e-05
9.93559504819e-06
-7.55803283315e-06
-7.71200606459e-06
8.54945219603e-06
-8.8395295108e-06
7.86312025959e-06
-4.77279621755e-06
8.50323561465e-06
4.14279628782e-06
-4.81063502088e-06
2.13868678894e-05
4.49325386988e-06
-8.8433013461e-06
3.3455305922e-05
5.19109431174e-06
-7.33133342851e-06
4.142256568e-05
6.27458074782e-06
-2.14108303233e-06
4.3804617382e-05
7.61275746106e-06
4.78349487777e-06
4.06651993355e-05
8.96032912122e-06
1.16789407964e-05
3.3130277932e-05
1.01304548325e-05
1.72879358428e-05
2.28637447867e-05
1.1089769173e-05
2.09645394656e-05
1.15287692415e-05
1.17368673382e-05
2.26775872556e-05
-2.87841948122e-08
1.20467091349e-05
2.32131894656e-05
-1.16191935948e-05
1.20462655125e-05
2.32541551179e-05
-2.30244008775e-05
1.17444497478e-05
2.27492425625e-05
-3.33835911334e-05
1.11010893183e-05
2.10609819171e-05
-4.09702581231e-05
1.01491305865e-05
1.73409885669e-05
-4.40838428635e-05
8.97607651132e-06
1.1649888363e-05
-4.1629766026e-05
7.62241056253e-06
4.70422142285e-06
-3.35858967273e-05
6.28416851249e-06
-2.22416646252e-06
-2.14411467328e-05
5.20292271473e-06
-7.41206325711e-06
-8.49923215194e-06
4.51041825113e-06
-8.90287266471e-06
4.16812964185e-06
-4.80423855163e-06
8.89714264032e-06
8.58035256098e-08
-4.84013607017e-06
2.2205447791e-05
8.79963755188e-08
-8.90302986817e-06
3.46139336774e-05
9.37744631256e-08
-7.31114154845e-06
4.27662837498e-05
1.03607648969e-07
-1.98134365235e-06
4.51456538188e-05
1.16177797093e-07
5.11725259365e-06
4.18571452959e-05
1.29344368632e-07
1.21195452589e-05
3.4059785479e-05
1.41937532783e-07
1.77859359448e-05
2.35029334244e-05
1.54305591784e-07
2.14923781643e-05
1.18417215195e-05
1.64240401213e-07
2.32339016081e-05
-2.68657774761e-08
1.70551636362e-07
2.37448049397e-05
-1.19230087592e-05
1.72440696034e-07
2.3770023634e-05
-2.36532744631e-05
1.69101107961e-07
2.33056653623e-05
-3.43064582689e-05
1.61179749034e-07
2.15931396964e-05
-4.21624400713e-05
1.50654174104e-07
1.78544998007e-05
-4.54285467385e-05
1.39582464674e-07
1.21026367914e-05
-4.29764548003e-05
1.28509868419e-07
5.04183780421e-06
-3.47459281648e-05
1.18355748816e-07
-2.06469327044e-06
-2.22597564604e-05
1.11229791473e-07
-7.39446669869e-06
-8.89293717468e-06
1.08961050559e-07
-8.96535631141e-06
1.11263721022e-07
-4.83606935412e-06
8.90031963709e-06
-3.97564997305e-06
-4.83885327465e-06
2.22126920211e-05
-4.3219393633e-06
-8.90241965371e-06
3.46247492219e-05
-5.0086225623e-06
-7.30963627639e-06
4.2779355225e-05
-6.07300342087e-06
-1.9779620122e-06
4.51595607691e-05
-7.38676596719e-06
5.12278090669e-06
4.18711261059e-05
-8.70915598589e-06
1.21269866121e-05
3.4073191788e-05
-9.85562432324e-06
1.77955543763e-05
2.35145284291e-05
-1.07925017706e-05
2.15055322974e-05
1.18491407859e-05
-1.14224780777e-05
2.32521676413e-05
-2.57881247119e-08
-1.17222857233e-05
2.37678249895e-05
-1.19278332015e-05
-1.17178320038e-05
2.37923721556e-05
-2.36622596866e-05
-1.14206196032e-05
2.33241968299e-05
-3.43178175275e-05
-1.07910633095e-05
2.16078459368e-05
-4.21749248069e-05
-9.85771436688e-06
1.78655161968e-05
-4.54409766019e-05
-8.70504114078e-06
1.21107103005e-05
-4.29880721418e-05
-7.37253880781e-06
5.04817211921e-06
-3.47556557835e-05
-6.05404224695e-06
-2.05999880608e-06
-2.22665165732e-05
-4.98688651104e-06
-7.39101167638e-06
-8.89610017694e-06
-4.29863116391e-06
-8.96281894986e-06
-3.95123244701e-06
-4.83360203226e-06
8.51248819337e-06
-7.681575857e-06
-4.80654996227e-06
2.14081177629e-05
-8.37644186422e-06
-8.84111049818e-06
3.34870363817e-05
-9.76095323813e-06
-7.32656444105e-06
4.14608712245e-05
-1.19158098587e-05
-2.1309959379e-06
4.38450733811e-05
-1.45711106382e-05
4.80018461435e-06
4.07051446706e-05
-1.72700056206e-05
1.17008291656e-05
3.31670956143e-05
-1.96328513862e-05
1.73153333546e-05
2.28930247446e-05
-2.15186088972e-05
2.10002384795e-05
1.15471592341e-05
-2.27980301289e-05
2.27214780253e-05
-2.32082247709e-08
-2.34144716385e-05
2.32626112344e-05
-1.16284739002e-05
-2.34200038317e-05
2.33074913171e-05
-2.30481385974e-05
-2.28016966105e-05
2.28007910668e-05
-3.34158134574e-05
-2.15250635886e-05
2.11017201215e-05
-4.10059041378e-05
-1.96392926839e-05
1.7371709443e-05
-4.41199731162e-05
-1.72648436885e-05
1.16739065532e-05
-4.16641370654e-05
-1.45521041634e-05
4.72375743672e-06
-3.3614971788e-05
-1.18935281818e-05
-2.20965932611e-06
-2.14613092906e-05
-9.73851846425e-06
-7.40201849268e-06
-8.50866649021e-06
-8.3557352229e-06
-8.89553223545e-06
-7.66287921523e-06
-4.79701648111e-06
7.7293745739e-06
-1.06345912851e-05
-4.7763469135e-06
1.97808889907e-05
-1.16458718227e-05
-8.78206798706e-06
3.11751034934e-05
-1.36788791554e-05
-7.47626535496e-06
3.87688547856e-05
-1.68622332799e-05
-2.64729597293e-06
4.11449411768e-05
-2.07847977268e-05
3.83764189964e-06
3.82987068119e-05
-2.48135435317e-05
1.03898219321e-05
3.127695247e-05
-2.83790036001e-05
1.57679624991e-05
2.1615161986e-05
-3.12298548655e-05
1.93730957158e-05
1.09147338477e-05
-3.31256012115e-05
2.10280587738e-05
-2.81362160146e-08
-3.40347344853e-05
2.15631903329e-05
-1.10001171996e-05
-3.40446206488e-05
2.15966516944e-05
-2.17744522924e-05
-3.31399135297e-05
2.11126018953e-05
-3.15265022549e-05
-3.1246957771e-05
1.94739899514e-05
-3.85920117582e-05
-2.83885544098e-05
1.58148126725e-05
-4.14112169664e-05
-2.48064417313e-05
1.03608393999e-05
-3.8968609887e-05
-2.07641199748e-05
3.76943820746e-06
-3.13027793231e-05
-1.68412382101e-05
-2.71809877889e-06
-1.98359193178e-05
-1.36628902726e-05
-7.54247386719e-06
-7.72742422319e-06
-1.16355442591e-05
-8.82867670143e-06
-1.06283530484e-05
-4.76194492335e-06
6.58542858591e-06
-1.24288735229e-05
-4.79113392963e-06
1.73913855469e-05
-1.36620432733e-05
-8.78976894217e-06
2.77533674537e-05
-1.61653104626e-05
-7.87552764783e-06
3.47605308159e-05
-2.01279295972e-05
-3.74143596542e-06
3.70957331069e-05
-2.50347535434e-05
1.9147933752e-06
3.46809263441e-05
-3.01198038255e-05
7.72111498146e-06
2.84262460931e-05
-3.46719305959e-05
1.25476613411e-05
1.9724549534e-05
-3.82959158949e-05
1.57678151838e-05
9.96920129843e-06
-4.07171077162e-05
1.73469130617e-05
-3.48225755395e-08
-4.18993513204e-05
1.78686975094e-05
-1.00651085509e-05
-4.19111656855e-05
1.78968849169e-05
-1.98884225313e-05
-4.07434859345e-05
1.74269368134e-05
-2.86695021528e-05
-3.83261512567e-05
1.58603198352e-05
-3.49608317609e-05
-3.46896622923e-05
1.25924801059e-05
-3.7352911558e-05
-3.01187183992e-05
7.70439405144e-06
-3.49595204667e-05
-2.50212114717e-05
1.86373173617e-06
-2.78852900416e-05
-2.01185301191e-05
-3.79691428928e-06
-1.74518710648e-05
-1.61650490975e-05
-7.93124261558e-06
-6.58719330711e-06
-1.36701389612e-05
-8.83006981485e-06
-1.24415433263e-05
-4.7739947595e-06
5.2264481736e-06
-1.27969995552e-05
-4.85830936662e-06
1.44613597695e-05
-1.40350318475e-05
-8.86190630736e-06
2.35017397569e-05
-1.6700990925e-05
-8.50467700342e-06
2.97368520456e-05
-2.0995837212e-05
-5.36717480625e-06
3.19973263382e-05
-2.63608455401e-05
-9.3434442869e-07
3.01281603447e-05
-3.20035340897e-05
3.75294164045e-06
2.48527007978e-05
-3.71048230723e-05
7.70840334901e-06
1.73458010215e-05
-4.11629688726e-05
1.03740077241e-05
8.80232958684e-06
-4.38834045632e-05
1.17098244343e-05
-4.68495754225e-08
-4.5222646723e-05
1.21725298336e-05
-8.91603002712e-06
-4.52356812377e-05
1.21937490404e-05
-1.75143008995e-05
-4.39169558145e-05
1.1771790888e-05
-2.50850911223e-05
-4.12033298789e-05
1.04480157406e-05
-3.03911667519e-05
-3.71345589842e-05
7.75101551393e-06
-3.22438763753e-05
-3.20170988278e-05
3.75112870156e-06
-2.99386860923e-05
-2.63680229835e-05
-9.58345702638e-07
-2.3642333844e-05
-2.10079704851e-05
-5.40688505312e-06
-1.45308093044e-05
-1.67230691982e-05
-8.55348336868e-06
-5.23359701414e-06
-1.40658612938e-05
-8.90147241586e-06
-1.28314488838e-05
-4.84368019492e-06
3.80244723749e-06
-1.16249189624e-05
-4.9745146615e-06
1.13439129626e-05
-1.26459384873e-05
-8.93054229465e-06
1.89176617707e-05
-1.50750197126e-05
-9.19969816987e-06
2.4255444633e-05
-1.91197426236e-05
-7.21384925402e-06
2.6354596637e-05
-2.42611427018e-05
-4.1988196603e-06
2.50399298248e-05
-2.97420989846e-05
-9.4672639314e-07
2.08132405657e-05
-3.47691904184e-05
1.89110401654e-06
1.46256467292e-05
-3.87878508967e-05
3.81252690091e-06
7.45339166179e-06
-4.15004552281e-05
4.78935830209e-06
-6.03057487004e-08
-4.28459314276e-05
5.13703438161e-06
-7.58915515799e-06
-4.28592794672e-05
5.15249834189e-06
-1.48029445448e-05
-4.15366542158e-05
4.83353624391e-06
-2.10381882125e-05
-3.88341714908e-05
3.86613110915e-06
-2.52891971826e-05
-3.481083622e-05
1.92732896372e-06
-2.65959868529e-05
-2.97747851972e-05
-9.35484996849e-07
-2.4460539234e-05
-2.4289332491e-05
-4.21410378992e-06
-1.90668027976e-05
-1.91523700628e-05
-7.24930769672e-06
-1.14223092682e-05
-1.51164401846e-05
-9.25109806921e-06
-3.81603576993e-06
-1.26958860848e-05
-8.97622694743e-06
-1.16782420341e-05
-4.96922848612e-06
2.62427289301e-06
-9.12054835561e-06
-5.12862999288e-06
8.56553777968e-06
-9.67505888097e-06
-8.91212776253e-06
1.46980278061e-05
-1.14776703245e-05
-9.72981848056e-06
1.91171688375e-05
-1.46943534241e-05
-8.8445040909e-06
2.09929398519e-05
-1.8916179335e-05
-7.22070244806e-06
2.01311241857e-05
-2.35002066418e-05
-5.38003903431e-06
1.68800464323e-05
-2.77544865998e-05
-3.763583557e-06
1.19496418613e-05
-3.11856452074e-05
-2.67175518999e-06
6.11236115987e-06
-3.3515387354e-05
-2.14773951595e-06
-7.47899988969e-08
-3.46765008256e-05
-1.98223158689e-06
-6.27259662971e-06
-3.46887166386e-05
-1.9727092272e-06
-1.21385716048e-05
-3.35488488345e-05
-2.12178493183e-06
-1.71022519331e-05
-3.12302878519e-05
-2.64015967775e-06
-2.03718019774e-05
-2.77990438294e-05
-3.74220094099e-06
-2.12276732229e-05
-2.35402438414e-05
-5.3786315349e-06
-1.93220201564e-05
-1.8953378296e-05
-7.24157221895e-06
-1.48516016596e-05
-1.47346234577e-05
-8.88813404386e-06
-8.6501785848e-06
-1.15249992438e-05
-9.79283655106e-06
-2.64344551304e-06
-9.731269418e-06
-8.9713242119e-06
-9.1818812971e-06
-5.13978960969e-06
1.94358147141e-06
-5.78786969174e-06
-5.27624614857e-06
6.60017151179e-06
-5.68679883839e-06
-8.64483339854e-06
1.14869251612e-05
-6.58403150741e-06
-9.78037243658e-06
1.50791168885e-05
-8.55318548399e-06
-9.73333554758e-06
1.67035483016e-05
-1.13341017866e-05
-9.20648022237e-06
1.61699484192e-05
-1.44503139999e-05
-8.51625933054e-06
1.36904248873e-05
-1.73818529135e-05
-7.89307255365e-06
9.77948048446e-06
-1.97775512882e-05
-7.49710877731e-06
5.02704689951e-06
-2.14166254172e-05
-7.34628576098e-06
-8.67282254777e-08
-2.22370192272e-05
-7.32566323293e-06
-5.20750263795e-06
-2.22457261431e-05
-7.32217306121e-06
-9.97848227291e-06
-2.14402915601e-05
-7.33753532561e-06
-1.39109029479e-05
-1.98094151369e-05
-7.48841071292e-06
-1.64023525693e-05
-1.74145825859e-05
-7.89297160804e-06
-1.69293038413e-05
-1.44805041257e-05
-8.53275026506e-06
-1.52782818682e-05
-1.1361871486e-05
-9.24249306683e-06
-1.16389283903e-05
-8.58313115126e-06
-9.7908129853e-06
-6.68759174321e-06
-6.61968406566e-06
-9.85662167812e-06
-1.96814618747e-06
-5.73231030157e-06
-8.7183758492e-06
-5.84165231446e-06
-5.30835604761e-06
1.87201462287e-06
-2.43164944365e-06
-5.22821983865e-06
5.71007462893e-06
-1.85346307951e-06
-7.67137879501e-06
9.69478260012e-06
-1.92669535311e-06
-8.6420245272e-06
1.26591952502e-05
-2.6097010574e-06
-8.90787419698e-06
1.40491023009e-05
-3.78696345092e-06
-8.9370187085e-06
1.36738178115e-05
-5.21104704275e-06
-8.86395180605e-06
1.16592805435e-05
-6.56986370694e-06
-8.79741757849e-06
8.39063227308e-06
-7.71586808108e-06
-8.79299761504e-06
4.33156314731e-06
-8.50365971856e-06
-8.85385728642e-06
-9.09876839757e-08
-8.89817920575e-06
-8.91624889639e-06
-4.51799182918e-06
-8.90185762375e-06
-8.91682376616e-06
-8.58869640397e-06
-8.51338808999e-06
-8.85615836091e-06
-1.18706019702e-05
-7.72839633907e-06
-8.79907300603e-06
-1.38918352509e-05
-6.58174853424e-06
-8.81156116461e-06
-1.42593099547e-05
-5.2216293915e-06
-8.89136153922e-06
-1.28446655717e-05
-3.79518839717e-06
-8.98129070394e-06
-9.8366419324e-06
-2.61923659536e-06
-8.97188363992e-06
-5.7941002563e-06
-1.94042259342e-06
-8.72177064038e-06
-1.89929343121e-06
-1.87554747537e-06
-7.75153755071e-06
-2.46399026735e-06
-5.27693542093e-06
2.45655491641e-06
-4.88819408698e-06
5.82524550277e-06
-5.22214240597e-06
9.15694022537e-06
-5.25837726361e-06
1.16596407025e-05
-5.1123867423e-06
1.28294721976e-05
-4.9567778561e-06
1.24601720243e-05
-4.84172738037e-06
1.06649506338e-05
-4.77462061046e-06
7.70921108653e-06
-4.76010505878e-06
3.99593477752e-06
-4.79035875117e-06
-7.92977277535e-08
-4.82292138863e-06
-4.15780930759e-06
-4.82332043653e-06
-7.87922649195e-06
-4.79194519708e-06
-1.08434724352e-05
-4.76412473539e-06
-1.26413756758e-05
-4.78381990745e-06
-1.30031730455e-05
-4.85980724382e-06
-1.18103157823e-05
-4.98802187488e-06
-9.2709198611e-06
-5.15861001001e-06
-5.89441457054e-06
-5.31690611488e-06
-2.48223551031e-06
-5.28770587062e-06
-4.94621706383e-06
3.44924401585e-06
3.46238755555e-06
-1.17797706784e-05
7.17328996589e-06
3.99199689591e-06
-1.29159881284e-05
1.05831688456e-05
4.88325429832e-06
-1.35340427232e-05
1.30421986382e-05
6.3179996443e-06
-1.38806461591e-05
1.40987780454e-05
8.10153294235e-06
-1.411643288e-05
1.35569873783e-05
9.98796511669e-06
-1.42986955616e-05
1.15188456274e-05
1.1709250489e-05
-1.44636863987e-05
8.2823116783e-06
1.31105871989e-05
-1.46574869723e-05
4.26854301243e-06
1.40691998655e-05
-1.48726507074e-05
-1.1092914796e-07
1.45515260994e-05
-1.50241271508e-05
-4.49340906975e-06
1.45584347064e-05
-1.50292229054e-05
-8.5147644455e-06
1.40882164426e-05
-1.48880692231e-05
-1.17587917572e-05
1.31373148669e-05
-1.4684707915e-05
-1.37981095195e-05
1.17386326162e-05
-1.45061688446e-05
-1.43288731746e-05
1.0017649797e-05
-1.43626191492e-05
-1.32444010504e-05
8.12930187476e-06
-1.42083005911e-05
-1.07402662084e-05
6.34521329723e-06
-1.40036219208e-05
-7.27120738421e-06
4.91215869991e-06
-1.36839634537e-05
-3.48833067841e-06
4.0277920103e-06
-1.3078698293e-05
3.51457901953e-06
-1.19357085979e-05
3.9576914464e-06
7.22210375383e-06
-1.29256191872e-05
7.869087499e-06
7.94058305177e-06
-1.55043512949e-05
1.12438019584e-05
9.45998037316e-06
-1.65691840898e-05
1.36270988323e-05
1.19005329456e-05
-1.68589564491e-05
1.4600270301e-05
1.49320143721e-05
-1.67379768885e-05
1.39829930076e-05
1.81365925913e-05
-1.64037696979e-05
1.18450836579e-05
2.10864481942e-05
-1.60539587631e-05
8.50592525978e-06
2.34728404982e-05
-1.58398529942e-05
4.38420272699e-06
2.51092378711e-05
-1.58005098862e-05
-1.0947678958e-07
2.59358886061e-05
-1.58382370269e-05
-4.60722971908e-06
2.59488139639e-05
-1.5842137811e-05
-8.73995718874e-06
2.51450040638e-05
-1.58125377387e-05
-1.2091605819e-05
2.35230342125e-05
-1.58633066957e-05
-1.42358596853e-05
2.11410880826e-05
-1.60949009574e-05
-1.4845972138e-05
1.81901804754e-05
-1.64703977671e-05
-1.38501472675e-05
1.49831583081e-05
-1.68378367861e-05
-1.14255795602e-05
1.19515834933e-05
-1.69941595919e-05
-7.99473523495e-06
9.51372689391e-06
-1.67341275247e-05
-4.01920358557e-06
8.00307139067e-06
-1.56781229566e-05
7.30337441202e-06
-1.30666905894e-05
4.84052976342e-06
1.06717574949e-05
-1.35562294695e-05
9.37781015474e-06
1.13545468563e-05
-1.65730377176e-05
1.31398278419e-05
1.32608383948e-05
-1.73233105115e-05
1.56995542925e-05
1.63590040204e-05
-1.67431825338e-05
1.664085793e-05
2.0197212898e-05
-1.54194301759e-05
1.57904054723e-05
2.42340059707e-05
-1.37831352236e-05
1.32748348078e-05
2.79398634057e-05
-1.22618589746e-05
9.47692470371e-06
3.09225368924e-05
-1.11875802141e-05
4.87583262172e-06
3.29619462943e-05
-1.0642002201e-05
-9.61867692317e-08
3.39920675263e-05
-1.04573024882e-05
-5.07518067847e-06
3.40086979727e-05
-1.04521462867e-05
-9.69497972794e-06
3.30081101286e-05
-1.06295399338e-05
-1.35151855854e-05
3.09863813957e-05
-1.11777480002e-05
-1.60448134093e-05
2.80067466901e-05
-1.22692462666e-05
-1.68937427068e-05
2.42965074711e-05
-1.38203099467e-05
-1.5932761435e-05
2.02568827779e-05
-1.54935510755e-05
-1.33348320592e-05
1.64200029692e-05
-1.68578492979e-05
-9.51717589439e-06
1.33264573735e-05
-1.74729036581e-05
-4.91145581217e-06
1.14292548925e-05
-1.67311856195e-05
1.07629768477e-05
-1.36718998911e-05
6.27460834191e-06
1.31744627683e-05
-1.38993743751e-05
1.18144839813e-05
1.37751698549e-05
-1.68582142358e-05
1.62328706949e-05
1.58588137515e-05
-1.67361013877e-05
1.91085324744e-05
1.92736698599e-05
-1.46392245858e-05
2.00026808684e-05
2.34869055969e-05
-1.1427698116e-05
1.87675738193e-05
2.78960828309e-05
-7.84550461608e-06
1.56243302998e-05
3.19050147088e-05
-4.6367807721e-06
1.10689450088e-05
3.51123862704e-05
-2.36655419437e-06
5.67945904661e-06
3.72899438742e-05
-1.15163993794e-06
-7.69534888461e-08
3.83834013838e-05
-6.85801067356e-07
-5.8444929892e-06
3.8401043429e-05
-6.67433849517e-07
-1.1263833855e-05
3.73396236915e-05
-1.10328077439e-06
-1.58553471017e-05
3.51797450752e-05
-2.30907521145e-06
-1.902246965e-05
3.19708498616e-05
-4.59948309454e-06
-2.02598780975e-05
2.79520968284e-05
-7.84522260679e-06
-1.93475702293e-05
2.35382473441e-05
-1.14678445772e-05
-1.64350853664e-05
1.93276192887e-05
-1.47222701655e-05
-1.19609699581e-05
1.59193269854e-05
-1.68580455748e-05
-6.34936176372e-06
1.38453658041e-05
-1.69902254262e-05
1.32592676445e-05
-1.39832784648e-05
8.05805873544e-06
1.42692563143e-05
-1.41282665382e-05
1.48478374639e-05
1.47846868722e-05
-1.67237396611e-05
2.00706186017e-05
1.68334354449e-05
-1.53970453224e-05
2.3319929097e-05
2.02027862277e-05
-1.14086447015e-05
2.41398291656e-05
2.43433022487e-05
-5.91086224576e-06
2.23991834795e-05
2.86307604785e-05
1.03353972196e-08
1.84801209234e-05
3.25404087141e-05
5.107065144e-06
1.29979553223e-05
3.56484105063e-05
8.68108370414e-06
6.64943558593e-06
3.77547428284e-05
1.05895047068e-05
-5.63602055078e-08
3.88111156778e-05
1.13281666919e-05
-6.77778695288e-06
3.8828089195e-05
1.13590478658e-05
-1.31699223441e-05
3.78025223066e-05
1.0676886964e-05
-1.87052606472e-05
3.57121233589e-05
8.78737257366e-06
-2.26583384655e-05
3.25964711653e-05
5.18034972403e-06
-2.44016794347e-05
2.86711355259e-05
2.89244539674e-08
-2.35613751001e-05
2.43758995024e-05
-5.93749500315e-06
-2.0274818834e-05
2.02379195418e-05
-1.1472675186e-05
-1.49960802785e-05
1.68769797453e-05
-1.54967839133e-05
-8.13343978812e-06
1.48389905367e-05
-1.68329137234e-05
1.43358097883e-05
-1.41837774283e-05
9.94947568393e-06
1.37550227334e-05
-1.42989073131e-05
1.80575495928e-05
1.41913633473e-05
-1.63743882101e-05
2.41134399009e-05
1.6005209e-05
-1.37389843611e-05
2.77323215358e-05
1.89890033085e-05
-7.79500024554e-06
2.84285586189e-05
2.26264914427e-05
4.55977951735e-08
2.61870299722e-05
2.64150273946e-05
8.15158305361e-06
2.14477819234e-05
2.98379649439e-05
1.5078750848e-05
1.5004312021e-05
3.25718168956e-05
1.9813796533e-05
7.6593107278e-06
3.44136595881e-05
2.23106111897e-05
-3.74699584636e-08
3.5333033037e-05
2.32603238687e-05
-7.75477632596e-06
3.53469457239e-05
2.3304086224e-05
-1.51581403466e-05
3.4450192066e-05
2.24413003573e-05
-2.16740469865e-05
3.26219520604e-05
1.99733438673e-05
-2.64564986196e-05
2.98804174961e-05
1.51749033456e-05
-2.86973336927e-05
2.64399537339e-05
8.15853971267e-06
-2.79745379391e-05
2.26414683558e-05
4.92043737352e-09
-2.43149659243e-05
1.90053255085e-05
-7.86618005348e-06
-1.82028906691e-05
1.60288663456e-05
-1.38341061607e-05
-1.00233613965e-05
1.42237514432e-05
-1.64747680943e-05
1.3799265501e-05
-1.43401731125e-05
1.16742543038e-05
1.1731176494e-05
-1.44485992806e-05
2.10139538626e-05
1.20645532425e-05
-1.60056797568e-05
2.78283844944e-05
1.34968297367e-05
-1.21908097738e-05
3.17506494792e-05
1.58483054216e-05
-4.54586444947e-06
3.23436871209e-05
1.87051274548e-05
5.20469575227e-06
2.96124448206e-05
2.16725182961e-05
1.51452487852e-05
2.41372272178e-05
2.43597301708e-05
2.34410204353e-05
1.68224994363e-05
2.65002600198e-05
2.90834765528e-05
8.57422932082e-06
2.79553129359e-05
3.19756120083e-05
-2.15554114879e-08
2.86798514769e-05
3.3039675573e-05
-8.64329815603e-06
2.86896096144e-05
3.30965345033e-05
-1.6962670285e-05
2.79768013075e-05
3.21415254213e-05
-2.43678338627e-05
2.65317265915e-05
2.92872139096e-05
-2.9895421327e-05
2.43884962557e-05
2.3550078999e-05
-3.26210045035e-05
2.16882307074e-05
1.5126468176e-05
-3.19932715545e-05
1.87123825987e-05
5.12039482086e-06
-2.80260242467e-05
1.58543331791e-05
-4.64442095274e-06
-2.11557151763e-05
1.35074825665e-05
-1.22984108857e-05
-1.17452252756e-05
1.20819767218e-05
-1.61103649535e-05
1.17580826128e-05
-1.44899691182e-05
1.30775890133e-05
8.49790319211e-06
-1.46271558766e-05
2.34045553631e-05
8.72523939316e-06
-1.57732382646e-05
3.0817209521e-05
9.6937431311e-06
-1.10938031248e-05