/*--------------------------------*- C++ -*----------------------------------*\
| =========                 |                                                 |
| \\      /  F ield         | OpenFOAM: The Open Source CFD Toolbox           |
|  \\    /   O peration     | Version:  3.0.1                                 |
|   \\  /    A nd           | Web:      www.OpenFOAM.org                      |
|    \\/     M anipulation  |                                                 |
\*---------------------------------------------------------------------------*/
FoamFile
{
    version     2.0;
    format      ascii;
    class       volScalarField;
    location    "3.4";
    object      epsilon;
}
// * * * * * * * * * * * * * * * * * * * * * * * * * * * * * * * * * * * * * //

dimensions      [0 2 -3 0 0 0 0];

internalField   nonuniform List<scalar> 
7968
(
0.000598331965426
0.000686839793935
0.000757264927885
0.00079996643071
0.000822956585621
0.000833396216276
0.000836476861875
0.000835790850105
0.000834245857147
0.000833131922987
0.00083351340537
0.00083493272108
0.000836710020543
0.000837005753989
0.000833320257724
0.000822295212892
0.000798936219462
0.000756171111016
0.000686021717231
0.0005980211573
0.000686783326093
0.0011158556587
0.00144083643514
0.00164935453232
0.00177427745146
0.00184181185003
0.00187246895813
0.00188204083477
0.00188248110627
0.0018817519351
0.00188382157514
0.00188782923592
0.00188887224908
0.00187878691949
0.00184614562467
0.00177598719288
0.00164872781846
0.00143880521404
0.00111376313156
0.000685952655342
0.00075721832437
0.00144092578513
0.00197234965267
0.00232407926661
0.00254337198369
0.00266880766138
0.00273170709258
0.00275738847101
0.00276523510906
0.00276795866838
0.00277156641363
0.00277496568798
0.00277054120763
0.00274498796337
0.00267928172849
0.00254947952435
0.00232583469842
0.00197097900354
0.00143850651555
0.000755973970184
0.000800118185979
0.00165007808609
0.00232479026754
0.00277966691228
0.0030689921621
0.0032389856355
0.00332883053678
0.00337179022915
0.00339562778074
0.00340575383929
0.00340954067406
0.00340622431777
0.00339055904556
0.00335088320823
0.0032582392873
0.00308215225185
0.00278600118085
0.0023255991605
0.00164817331224
0.000798599096292
0.000823437339723
0.00177583935391
0.00254485222448
0.00306956524273
0.00340709950241
0.00360994954319
0.00373523167906
0.00380212772051
0.00383286365374
0.00384576529106
0.00385045165853
0.00384594702287
0.00382130117516
0.00375766198104
0.00363909094956
0.00342951287566
0.00308245439616
0.00254927888525
0.00177528965206
0.000821817066312
0.000834224492954
0.00184398327897
0.00267052122063
0.0032392486685
0.00360917190692
0.0038538140797
0.00399900765359
0.00407351954884
0.00410675217998
0.0041206223761
0.00412626826187
0.00412257274804
0.00409672527792
0.00402603287149
0.00388175401995
0.00364101456169
0.00325992300379
0.00267968127862
0.00184554744531
0.000832719715866
0.000837556830867
0.00187468804859
0.00273270353594
0.00332734849216
0.00373104855656
0.00399619355605
0.00414878173848
0.0042250610829
0.00425783775624
0.00427136287456
0.00427798830792
0.00427640512275
0.00425238311142
0.0041807605221
0.00402891648577
0.00376166224757
0.00335553427003
0.00274702900411
0.001878821889
0.000836366748435
0.000836926467924
0.00188357453942
0.0027564751789
0.003365860304
0.00379445895927
0.0040670049666
0.00422115475144
0.00429599377375
0.00432664397439
0.00433915453969
0.00434679637871
0.00434795158418
0.00432724702045
0.0042577037159
0.00410451494349
0.00382959672679
0.00339994804309
0.00277563452735
0.00189037565054
0.000836233988041
0.000834996110378
0.00188245063749
0.00276130704487
0.00338528086658
0.00382126482637
0.00409585462735
0.00424913823871
0.00432160308108
0.00434997594934
0.00436156811519
0.00437027417909
0.00437395824772
0.00435642916173
0.00428960403536
0.00413732508231
0.00386009099802
0.00341861784446
0.00278455049291
0.00189176107417
0.000835310601706
0.000833376825101
0.00187940739435
0.00276018956213
0.00339189792566
0.00383012947947
0.00410510161936
0.0042575589819
0.00432863560809
0.00435583628292
0.00436713488923
0.00437676317336
0.00438197378346
0.00436618463475
0.00430089053366
0.00414935550548
0.00387156516183
0.00342757790596
0.00278646154833
0.00189064435682
0.000834331364966
0.000832984945888
0.00187892225475
0.00275997567678
0.00339260777388
0.00383125400599
0.00410668158697
0.00425973792034
0.00433157574837
0.00435964989924
0.00437167533408
0.004381541162
0.00438660114797
0.00437036766927
0.00430442414271
0.0041521684898
0.00387371338017
0.00342920259251
0.00278764739816
0.00189111362585
0.000834073628793
0.000834130822536
0.00188107292184
0.00276056423174
0.00338717977245
0.00382441892507
0.0041003126308
0.00425529167107
0.00432986466658
0.00436054309718
0.00437402761145
0.00438354907277
0.00438692822083
0.00436816508019
0.00429946670479
0.00414508747101
0.00386592065124
0.00342306134271
0.00278731574695
0.0018928232347
0.000834989975825
0.000835753238818
0.00188135709462
0.00275492302293
0.00336736222101
0.00379899734282
0.0040736487899
0.00423038599896
0.00430836543137
0.00434232123585
0.004357517727
0.00436645032832
0.00436723434178
0.00434464133851
0.0042721466299
0.0041156192511
0.00383766627548
0.00340602531587
0.00277804565052
0.00189084840418
0.000835629364132
0.0008361669245
0.00187164830641
0.00273000799805
0.00332752268669
0.00373595595368
0.00400398320804
0.0041597782688
0.00423985797574
0.00427653383112
0.00429319951742
0.00430137951618
0.00429935366631
0.00427295350099
0.00419754543069
0.00404139600302
0.00377018549859
0.00335963494888
0.00274689300013
0.00187737942257
0.000835161177115
0.000832738641366
0.00184031357658
0.00266673121929
0.00323796434836
0.00361273554333
0.00386147347403
0.00401034021199
0.00408895341156
0.00412633287833
0.00414352764913
0.00415082787062
0.00414662109754
0.0041180997679
0.0040431455092
0.00389403654637
0.00364857764779
0.00326005439198
0.00267575328598
0.00184151688329
0.000830835035968
0.000822029899988
0.00177198886899
0.00254037138478
0.00306685822756
0.00340838607464
0.00361689658314
0.00374557177854
0.00381664577233
0.00385144682001
0.00386762676643
0.00387394761343
0.00386893980169
0.00384181057147
0.00377452418395
0.00365157291576
0.00343249369006
0.00307814477243
0.00254176094392
0.00176896938999
0.000819404426662
0.000798952339746
0.0016466008698
0.00232032048058
0.00277610406904
0.00306818909417
0.00324266037124
0.00333808366634
0.00338549199252
0.00341180665148
0.00342497753328
0.0034303418999
0.00342782689885
0.00341342209371
0.00336701040421
0.0032655131119
0.00308073772601
0.00277854094704
0.0023160404771
0.0016407326336
0.000796006788261
0.00075636217776
0.00143817087356
0.00196848474281
0.00232040141633
0.00254124051953
0.00266959719077
0.00273653509905
0.00276683127328
0.00277915997023
0.00278538782946
0.00279081765203
0.0027936705896
0.00278602358454
0.00275466479943
0.00268186940296
0.00254546895547
0.00231748429206
0.00196155456296
0.00143145571511
0.000753618909174
0.000686249750783
0.00111399833226
0.00143804151951
0.00164638299422
0.00177195972137
0.00184102250877
0.0018739430866
0.00188624832248
0.0018894315592
0.00189087440436
0.00189403844712
0.00189769296494
0.00189664206303
0.00188296447456
0.00184601091908
0.00177188674328
0.00164213535825
0.00143183129691
0.00110864131431
0.000684268509561
0.000598132828977
0.000686225464676
0.000756275766656
0.000798762580216
0.000821729000948
0.000832366264193
0.000835841674838
0.000835698786301
0.000834829097048
0.000834136894981
0.000834606722741
0.00083589971475
0.000837141837905
0.000836606308344
0.000831977189963
0.000820145217353
0.000796370616997
0.000753724956406
0.000684272276147
0.000597357587304
0.000683255914693
0.001093540558
0.00140954072345
0.00161655880732
0.00174472229747
0.0018183778006
0.00185607305698
0.00187207632291
0.00187658085576
0.00187736001636
0.00187930084513
0.0018814608816
0.0018780763423
0.00186210769557
0.00182341473851
0.00174824425461
0.00161854639396
0.00141030651251
0.00109352001472
0.000682754394892
0.00109345888864
0.00133325674323
0.0016171592872
0.00181953796757
0.00195052627444
0.00202876671428
0.00207108804995
0.00209117476853
0.0020993211733
0.00210242524622
0.00210388849409
0.0021033142124
0.00209675043458
0.00207716272327
0.00203438397872
0.00195507669256
0.00182276278879
0.00161904322025
0.00133395912835
0.00109342005231
0.00140928736294
0.00161704461172
0.00193752276908
0.00217808585443
0.0023399023355
0.00244025612828
0.00249713751225
0.00252616001381
0.00253937831437
0.00254491627409
0.00254674996155
0.00254451350745
0.00253364683175
0.00250578350616
0.00244876953876
0.00234732374312
0.00218383547768
0.00194132306227
0.00161889682869
0.00140995586114
0.00161621012393
0.00181926158654
0.00217780228044
0.00245446881735
0.00264514305431
0.002766558041
0.00283792327681
0.00287670646245
0.00289620133342
0.00290459250728
0.00290650173374
0.00290168346221
0.00288537669048
0.0028489851109
0.00277810806949
0.00265571023364
0.00246303981203
0.00218379389714
0.00182252667087
0.00161796912077
0.00174425950381
0.00194992722235
0.00233903126973
0.00264440328661
0.00285840269438
0.00299793840037
0.00308388369996
0.00313153923254
0.00315500142703
0.00316492796727
0.00316697265519
0.00316088538134
0.00314063944608
0.00309546314982
0.00301182272513
0.00287208658797
0.00265598497432
0.00234746760682
0.00195488832534
0.00174756581015
0.00181763430438
0.00202761221857
0.00243844696913
0.00276458097209
0.00299651779407
0.00315224554362
0.00324774811468
0.00329999979377
0.00332510051543
0.0033354590663
0.0033376492545
0.00333140631031
0.00330974052778
0.00326015220028
0.00316668800251
0.00301263693018
0.00277914194256
0.00244947839205
0.00203450102442
0.00182289383591
0.00185478674564
0.00206912293068
0.00249405433308
0.00283424775389
0.00308047877403
0.00324578971231
0.00334595283709
0.00339956920684
0.00342442324044
0.00343435827715
0.00343674094443
0.00343126171051
0.00341009614278
0.00335934547339
0.00326134469799
0.00309743346214
0.00285138051965
0.00250760973116
0.00207801295257
0.00186221136494
0.00186993746874
0.0020881502466
0.00252151401927
0.0028709125967
0.00312608154766
0.00329596647186
0.00339744881904
0.00345035695
0.00347382703685
0.00348287701364
0.00348551322314
0.00348134273998
0.0034618269285
0.00341194391188
0.00331277126345
0.00314446894134
0.00288976045688
0.00253726108713
0.00209890929451
0.00187946617141
0.00187335435337
0.00209503515396
0.00253304847892
0.00288847250382
0.00314764274618
0.00331910577783
0.00342024164803
0.003471693966
0.0034935719209
0.00350174567664
0.00350466317732
0.00350182193001
0.00348414934706
0.0034358235908
0.00333705703418
0.00316725226936
0.00290834589131
0.00255056953759
0.00210734320687
0.00188433278232
0.00187246378712
0.00209674351433
0.00253693109692
0.00289529854422
0.00315599841249
0.0033278218627
0.00342841916893
0.00347887317547
0.00349980827473
0.00350753153881
0.00351069604423
0.00350869369879
0.00349216696303
0.0034448915077
0.00334665077369
0.00317649844656
0.00291612799512
0.00255567697496
0.00211017278966
0.00188474439053
0.00187238790836
0.00209691335663
0.0025373945164
0.00289608837604
0.00315697576504
0.00332892746473
0.00342966041551
0.00348029668282
0.0035014570192
0.00350939590227
0.00351269063428
0.00351070654381
0.00349409324871
0.00344665414953
0.00334821203105
0.00317785416638
0.0029172816474
0.00255661456965
0.00211082320568
0.00188516639732
0.00187335862712
0.0020955157848
0.00253432738655
0.00289067737963
0.00315041580589
0.00332226565156
0.0034238025522
0.00347578001117
0.00349829275432
0.00350706992434
0.00351036749248
0.00350758651736
0.00348966168171
0.00344084915654
0.00334147790278
0.00317105235942
0.0029115402371
0.00255304134957
0.0021090015074
0.00188550563722
0.00186994931865
0.00208878377768
0.0025232942456
0.0028740005337
0.00313020381949
0.00330076595074
0.00340291413589
0.00345665834795
0.00348110705727
0.00349107315343
0.00349429377113
0.00349021224848
0.00347028085702
0.00341959231211
0.00331941208066
0.00315006422527
0.00289434812958
0.00254043422065
0.0021008255791
0.00188069904794
0.00185464041376
0.00206968115442
0.00249591466029
0.00283761407424
0.00308530221459
0.00325163170491
0.00335274413389
0.00340748674968
0.00343360822721
0.00344470279695
0.00344781646472
0.00344242417438
0.00342067238756
0.0033688051794
0.00326939665152
0.00310396262567
0.00285615756792
0.00251048304068
0.00207935917778
0.00186265770988
0.00181723475067
0.00202794659948
0.00244007277739
0.00276771968113
0.00300129420722
0.00315842361197
0.00325520171754
0.00330885924268
0.00333546966212
0.00334717074293
0.00335018700935
0.003344005242
0.00332160022958
0.00327061923814
0.00317538164056
0.00301929022641
0.00278317170474
0.00245133815933
0.00203478211537
0.00182207875084
0.00174369166981
0.00195002377741
0.00234023727064
0.00264693780609
0.00286255067824
0.00300379066558
0.00309128731829
0.00314061628085
0.00316577725067
0.00317717625544
0.00318010739382
0.00317407275871
0.003153040607
0.00310629229882
0.00302059666552
0.00287772263625
0.00265873133573
0.0023481160448
0.00195414694991
0.00174568475195
0.00161564363579
0.00181919512157
0.00217853975671
0.00245621008187
0.00264821095925
0.00277134219341
0.00284470080774
0.00288528308359
0.00290652689692
0.00291647953308
0.00291932807909
0.00291468691675
0.00289800577711
0.00285944388594
0.00278547281643
0.00265979786744
0.00246446284589
0.00218349668888
0.0018212350833
0.00161570806042
0.00140881652764
0.00161686451147
0.0019377859696
0.00217896469006
0.00234171336023
0.00244343942398
0.00250212731679
0.00253321417593
0.00254850313516
0.00255575068438
0.00255857430826
0.00255628163511
0.00254420508453
0.0025140111919
0.0024540414038
0.00234974231506
0.00218414595033
0.00194050048173
0.0016176170712
0.00140808569955
0.00109307762906
0.00133294885312
0.00161693519929
0.00181955413018
0.00195108225452
0.00203029022245
0.00207402764526
0.00209585144384
0.00210577491097
0.00211037993546
0.00211269715886
0.00211202539682
0.00210430142138
0.00208265918432
0.00203740623019
0.00195586075339
0.00182210045292
0.00161789737556
0.00133295738164
0.00109228353977
0.000682910331541
0.00109306245517
0.00140878738652
0.00161575595477
0.00174429316686
0.00181887318736
0.00185804938498
0.00187593079254
0.00188231314109
0.00188479637545
0.00188753826091
0.00188935350491
0.00188454532762
0.001866252448
0.00182489348284
0.00174746883571
0.00161655988277
0.00140834872534
0.00109232718672
0.000681700466403
0.000750783323705
0.00139999322144
0.00191815649864
0.00227161951143
0.00250068701423
0.00263966617016
0.00271626325515
0.00275320205217
0.00276829274604
0.0027740888021
0.00277723422518
0.00277666744043
0.0027647718237
0.00272888178941
0.00265160932551
0.00251088784566
0.0022795384272
0.00192348201339
0.00140241962661
0.000750298576216
0.00139997662529
0.00161289818548
0.00193888965324
0.00218591502139
0.00235397763079
0.00245941741798
0.00251973837401
0.00255055875502
0.00256441574524
0.00257001687091
0.00257166767189
0.00256901542733
0.00255723882077
0.00252747675443
0.00246735458378
0.00236150776919
0.0021925609488
0.0019441323725
0.00161629031947
0.00140229187957
0.00191742168672
0.0019385635652
0.00223402758054
0.00247824487015
0.00265226001258
0.00276550966408
0.00283284658396
0.00286898199726
0.00288623838259
0.00289346353104
0.00289498049095
0.00289067054683
0.00287571637323
0.00284111993204
0.00277459505169
0.00266148161867
0.00248693355934
0.00224141356443
0.00194399715523
0.00192301062096
0.00226976000694
0.00218479842968
0.00247738027613
0.00273229548342
0.00291940115304
0.00304434447931
0.00312077238272
0.00316313775394
0.00318382646662
0.00319233150752
0.00319363955846
0.00318765322947
0.00316922509031
0.00312886291603
0.00305408875859
0.00293000267361
0.00274286063571
0.00248686259934
0.00219231673727
0.00227882507506
0.0024973047089
0.00235160825688
0.00265001568046
0.00291798965268
0.00311837478266
0.00325478167034
0.00333915956216
0.00338571925985
0.00340804426182
0.00341686362584
0.00341792252625
0.00341115208224
0.00339069929237
0.00334610458056
0.00326387087832
0.00312966223311
0.00293008922091
0.00266146111554
0.00236123569662
0.00251020802832
0.00263434761041
0.00245545903653
0.00276156401793
0.00304124483658
0.00325318250583
0.00339829115446
0.00348759431908
0.00353559865238
0.00355752248232
0.00356563991947
0.00356646829158
0.00355988869394
0.00353919946389
0.00349279229858
0.00340621995652
0.00326415040191
0.00305449423965
0.00277485701323
0.00246725533287
0.00265143472663
0.00270868103524
0.00251402685288
0.00282710819051
0.00311599047574
0.00333616192121
0.00348645901997
0.00357722476971
0.00362395284482
0.00364378155972
0.00365049630459
0.00365127966894
0.00364584528197
0.00362658880723
0.00358074377523
0.00349287477895
0.00334681857746
0.00312993430688
0.00284207596122
0.00252796737366
0.00272999540441
0.00274314796532
0.00254308925688
0.00286157691052
0.00315702664293
0.00338179753805
0.00353396193728
0.0036235846988
0.00366742771274
0.00368441001862
0.00368954532624
0.00369053243799
0.00368685977655
0.00367008126908
0.00362637188043
0.00353934775597
0.00339210089379
0.00317136817693
0.00287794543189
0.00255895481813
0.00276827805998
0.00275562190626
0.00255530049213
0.00287743941313
0.00317677393669
0.00340366746203
0.00355578073043
0.00364335310882
0.0036842223629
0.00369864279661
0.00370247509884
0.00370376782931
0.00370182153432
0.00368753858581
0.00364628330743
0.00356089399621
0.00341384006714
0.00319148383921
0.00289481910954
0.00257264593262
0.00278369481644
0.00275874754865
0.00255950997069
0.0028837253271
0.00318485111054
0.00341252567931
0.00356422346168
0.00365035766107
0.00368938725299
0.00370230191686
0.00370541007356
0.00370692939075
0.00370603974316
0.00369327951634
0.0036535635779
0.00356930361154
0.00342261822734
0.00319966779639
0.00290151226099
0.00257769082461
0.00278854230729
0.00275957323025
0.00256022748888
0.00288480194713
0.00318625726374
0.00341415690652
0.0035659794072
0.0036521448166
0.00369118607606
0.00370415974085
0.00370736006592
0.00370895430351
0.00370808023772
0.00369524490391
0.00365537424259
0.00357092507189
0.00342403040359
0.00320083662305
0.00290245756635
0.00257843193879
0.00278959834136
0.00275794570155
0.00255728893659
0.00288050146576
0.00318075316273
0.00340831558059
0.00356080570904
0.00364847660787
0.00368939373377
0.00370400897189
0.00370812678368
0.00370964373459
0.00370773587601
0.00369321481896
0.00365148329658
0.00356551015617
0.00341780275819
0.00319468398593
0.00289730496813
0.00257448966282
0.00278644323915
0.00274648482874
0.0025459215699
0.0028660592526
0.00316291737558
0.00338874106149
0.00354149645964
0.0036312888327
0.00367526399469
0.00369263513567
0.00369828607251
0.00369965308947
0.00369602679288
0.00367883360165
0.00363432674101
0.00354631249905
0.00339791581926
0.00317579893995
0.00288109163544
0.00256096847641
0.00277145525885
0.0027123087427
0.00251714403114
0.00283224542619
0.00312286673105
0.00334445290941
0.00349555340384
0.00358664634057
0.00363369431181
0.00365416578241
0.0036616480179
0.00366295926239
0.0036575572305
0.00363769989091
0.00359073175531
0.0035014127467
0.00335359661824
0.00313470405325
0.00284484837074
0.00252913051668
0.00273215279592
0.00263763474215
0.00245837220311
0.00276661371376
0.0030483127999
0.00326181430743
0.00340808798871
0.00349814349125
0.00354685237207
0.00356973825811
0.0035788502665
0.00358029886194
0.00357367416702
0.00355213952118
0.00350419348427
0.00341554706016
0.00327098238081
0.00305854239337
0.00277645355229
0.00246697035671
0.00265176292617
0.00249996449759
0.00235404686693
0.0026544065401
0.00292428897079
0.00312639689395
0.00326420310171
0.0033499186154
0.00339777425721
0.00342143348963
0.00343144027047
0.00343316685215
0.00342623356395
0.00340463846759
0.00335802140946
0.00327307639921
0.00313554952994
0.00293280372176
0.00266164184981
0.00235962172539
0.00250894489458
0.00227174099542
0.00218667714498
0.00248078936082
0.00273723400902
0.0029258507199
0.00305233428422
0.00313022457497
0.00317433197454
0.0031966928066
0.00320658362008
0.00320865328778
0.00320246440442
0.00318263293257
0.0031400690132
0.00306198132238
0.00293433069666
0.00274410385509
0.00248593711545
0.00219009735358
0.00227699834623
0.00191866563577
0.00193985778862
0.00223632633789
0.00248154358842
0.00265663448222
0.00277118944807
0.00284013407187
0.00287814547966
0.00289729339067
0.00290605370455
0.00290848537869
0.00290399809652
0.00288755261782
0.00285033100049
0.0027804385166
0.00266399769811
0.00248689418549
0.00223995700931
0.00194207545864
0.0019217669524
0.00140035721352
0.00161360112612
0.00194010851337
0.00218760691878
0.00235627766875
0.00246269252931
0.00252447945774
0.00255717632783
0.00257301966196
0.00258030300878
0.00258290676027
0.00258007564203
0.00256677887065
0.00253435617868
0.00247102222931
0.0023622739117
0.00219149066335
0.00194257838567
0.001615220084
0.00140187653466
0.000750383163473
0.00140034242052
0.00191886714222
0.00227273322427
0.00250264164033
0.00264318615918
0.00272216740653
0.00276211065198
0.00278030999424
0.00278867016302
0.00279312586832
0.00279216342744
0.0027779488241
0.00273819312859
0.00265642634773
0.00251186426854
0.00227839395474
0.00192224944738
0.00140203739463
0.000748892473102
0.000794338593746
0.00161272123676
0.00228785370323
0.00276264667219
0.00307861764505
0.00327449789906
0.00338431935066
0.00343804671875
0.00346040615186
0.00346899550067
0.00347277567903
0.00347057822302
0.00345226919545
0.003400117128
0.00329017687016
0.00309339296544
0.00277604884588
0.00229878980311
0.0016190214899
0.00079418801261
0.00161304954412
0.00182875328668
0.00220655899943
0.00250385179518
0.00271255369083
0.00284681261346
0.00292497531688
0.00296517067604
0.0029830276489
0.00298976668228
0.00299105119999
0.00298662344113
0.00297046892649
0.0029313775136
0.00285415410969
0.00272094640555
0.0025131556745
0.0022157893461
0.00183625599596
0.00161891427592
0.00228665754139
0.00220603645088
0.00251301939259
0.00278229771331
0.00298095575153
0.0031132570606
0.00319277438229
0.00323498470471
0.00325438215222
0.00326150201748
0.00326161757536
0.00325499697776
0.00323634469089
0.00319496616234
0.00311697558835
0.00298681097681
0.00279049280634
0.00252274316484
0.00221563642036
0.00229828986526
0.00275898760654
0.00250190101775
0.00278111017082
0.00304590769016
0.00324787986981
0.00338576219652
0.00347072801999
0.00351578662058
0.00353551209503
0.00354158612473
0.00354029556561
0.003531892676
0.00351048038758
0.00346523554915
0.00338323317183
0.00324923583291
0.00305150171721
0.00279026447267
0.00251277537417
0.00277534644037
0.0030718115392
0.00270856815173
0.00297833690754
0.0032469384364
0.00345649837854
0.00360223254443
0.00369046695692
0.00373508535748
0.00375240381617
0.00375596024695
0.00375301639463
0.00374378004317
0.0037215020598
0.00367457051294
0.00358908473403
0.00345077560576
0.0032487649892
0.00298617463988
0.00272021433109
0.00309279164599
0.00326398304982
0.00284054925906
0.00310941364687
0.00338481549093
0.00360332224377
0.00375340087235
0.00384073569356
0.00388080402793
0.0038928822614
0.00389276803092
0.00388858518725
0.00388016505559
0.00385953624139
0.00381373047485
0.00372797830897
0.0035875092965
0.00338188730519
0.00311576282189
0.00285300743146
0.00329009073322
0.00336984373489
0.00291654086037
0.00318824903094
0.0034712940898
0.00369530697659
0.00384559196138
0.00392772717403
0.0039598801699
0.00396486711003
0.00396085398433
0.0039564514585
0.00395074707616
0.00393423314121
0.00389236807901
0.0038093027344
0.00366962925584
0.00346239844129
0.00319322433596
0.00293004758895
0.00340134452037
0.00341971616953
0.00295495997911
0.00323050513539
0.00351921217953
0.00374546739472
0.00389273720673
0.00396725940635
0.00399018979617
0.00398816465527
0.00398097316351
0.00397735662533
0.00397553204156
0.00396441540734
0.00392800806341
0.00384941648336
0.00371242218053
0.0035057493429
0.00323442460943
0.00296956338236
0.00345608468817
0.00343854780735
0.00297161617125
0.00325078413513
0.00354252836441
0.00376889446776
0.00391227352194
0.00397964505316
0.00399487836668
0.00398761291586
0.00397832603247
0.0039757214638
0.00397741027796
0.00397105026633
0.00393965060406
0.00386543148544
0.00373142055214
0.00352582679853
0.00325344587686
0.00298692461864
0.00347837262552
0.00344424405295
0.00297787822822
0.0032595338505
0.00355261311016
0.00377870484758
0.00391956734311
0.00398268059062
0.00399348807868
0.00398323212604
0.00397272008335
0.0039706481864
0.00397432140719
0.00397072068969
0.00394225453511
0.0038706398762
0.00373846655103
0.00353362019618
0.00326079301178
0.00299318089237
0.00348556514727
0.00344626846365
0.0029794888539
0.00326174113184
0.00355538635708
0.00378186496303
0.0039228015097
0.00398574054963
0.00399630760815
0.00398590152112
0.00397530176657
0.00397316793283
0.00397675685233
0.00397296770185
0.00394421472166
0.00387231636387
0.00373990070654
0.00353482327643
0.00326174732982
0.00299392410476
0.00348702640976
0.00344409574325
0.00297607437795
0.00325697672899
0.0035503925922
0.00377785812559
0.00392138340619
0.00398819260868
0.00400275614003
0.00399518326189
0.00398575973364
0.00398303579739
0.00398448158678
0.00397753249751
0.00394526246041
0.00387018385899
0.00373541334895
0.00352907368313
0.00325588359656
0.00298861227633
0.003481902905
0.00342763036962
0.00296137044439
0.00323981305766
0.0035308124157
0.00375859674563
0.00390594217371
0.00397950778597
0.00400146399677
0.00399918470329
0.00399204212304
0.00398841672816
0.00398626711706
0.00397421868971
0.00393644871118
0.00385647597093
0.00371815897128
0.00351009877563
0.0032371981523
0.00297087365902
0.00345966584117
0.00337857146804
0.00292372420738
0.0031990694744
0.00348489708501
0.00371063916859
0.00386093305427
0.00394190489372
0.0039729612373
0.00397778593851
0.00397410010352
0.00396993085014
0.00396396128015
0.00394637317678
0.00390284020719
0.00381789747772
0.00367620333029
0.00346674205025
0.00319490351544
0.00292950616744
0.00340278271741
0.00327212804854
0.00284744731342
0.00312022451574
0.00339908467021
0.00361941822321
0.00376981852616
0.00385633490397
0.00389566732604
0.00390788609576
0.00390838679488
0.00390459544002
0.00389587398161
0.00387394943714
0.00382602755614
0.00373763831865
0.00359406312255
0.00338498148772
0.00311522042466
0.0028497521473
0.0032882027282
0.00307865171181
0.00271455629576
0.00298794459366
0.00326003530746
0.003472115854
0.00361888065414
0.00370723257768
0.00375197173971
0.00377001054769
0.00377446796411
0.00377193571012
0.00376216680266
0.00373812391829
0.00368834857824
0.00359908575465
0.00345645234619
0.0032497028843
0.0029830893998
0.00271450007381
0.00308806379307
0.00276431047004
0.00250674338635
0.0027888085825
0.00305645285607
0.00326095455221
0.00340084973889
0.00348701789546
0.0035333595427
0.00355445423766
0.00356168309663
0.00356082138813
0.00355166333409
0.00352795701226
0.00347919476645
0.00339229280125
0.00325279681499
0.00305003103277
0.0027852190849
0.00250590064681
0.00276959833679
0.00229024255138
0.00220965490423
0.00251854373917
0.00278965010481
0.00299003194057
0.00312407891987
0.00320546916383
0.00324971379252
0.00327093952446
0.00327942955616
0.00328030689489
0.00327317533724
0.00325207925592
0.00320654064593
0.00312324310967
0.00298769203418
0.00278706906943
0.00251691795443
0.00220937405167
0.00229369926285
0.00161452026241
0.00183116185499
0.00221008134713
0.00250817035822
0.00271763192314
0.00285298341968
0.00293280912533
0.00297519533461
0.00299539051438
0.00300408161105
0.00300639272482
0.00300149714362
0.00298295975431
0.00293973261647
0.00285743328591
0.00271948962103
0.00250856945145
0.00221039010749
0.00183206645035
0.00161657458741
0.000794015562882
0.00161445486468
0.00229076395609
0.00276644368166
0.00308371140396
0.00328178064944
0.00339487660264
0.00345269729623
0.00347923056032
0.00349120078192
0.00349672500103
0.00349392649471
0.00347207251258
0.0034137839941
0.00329650503628
0.00309324387842
0.00277214269468
0.00229469767656
0.00161702176884
0.000792031590646
0.000824832025405
0.00178470883164
0.0026018086371
0.00319063738349
0.00358816844958
0.00383436054913
0.00396898398562
0.00403054108053
0.00405235379857
0.00405814248969
0.00406009214008
0.0040569773738
0.00403584095897
0.00397331340756
0.00383802422961
0.00359354275612
0.00320006116677
0.00261461751863
0.00179546509974
0.00082560632007
0.00178596887007
0.00201350966874
0.00245090417268
0.00280597830078
0.00306056474318
0.00322538934481
0.00331975365189
0.00336551860639
0.00338294648708
0.00338687545146
0.00338524413458
0.00337802988631
0.00335777635753
0.00331032877032
0.00321685259823
0.00305635692186
0.00280863859568
0.00245994477326
0.00202493766658
0.00179556129258
0.00260113566298
0.00245079702003
0.00279273339368
0.00310588168509
0.00334180763428
0.00349928764749
0.00359148053816
0.00363617283778
0.00365230628881
0.00365318812111
0.00364703466856
0.00363457087278
0.00361001694533
0.00356029713457
0.00346896467385
0.00331820476336
0.00309359351133
0.0027929610505
0.0024597688468
0.00261441280174
0.00318743194863
0.00280532254535
0.00310679737551
0.00340982180051
0.00364672597212
0.00380855567311
0.0039039405627
0.00394652861715
0.00395634059847
0.00395027128797
0.00393790015159
0.00392048670165
0.0038911368719
0.00383697774611
0.00374321583338
0.00359342763434
0.00337542992565
0.00309283945538
0.00280785987425
0.00319965099326
0.00358229379397
0.00305982447028
0.00334604150091
0.00365255476482
0.00389931693089
0.00406785416367
0.00415967921391
0.00419213516978
0.00418977992611
0.00417369710278
0.00415507029389
0.00413490404294
0.00410479374192
0.00405043165941
0.00395603123256
0.00380635164629
0.00359092341255
0.00331550921004
0.00305412884763
0.00359268724142
0.00382546950658
0.00322530261972
0.00350956393471
0.0038265841932
0.00408429313987
0.00425180467031
0.00433057722301
0.00434363768792
0.00432375661485
0.00429666490972
0.00427447760189
0.00425663282802
0.0042319713199
0.00418342186881
0.00409377364115
0.00394757522132
0.00373464104266
0.00346272779488
0.00321215473009