/*--------------------------------*- C++ -*----------------------------------*\
| =========                 |                                                 |
| \\      /  F ield         | OpenFOAM: The Open Source CFD Toolbox           |
|  \\    /   O peration     | Version:  3.0.1                                 |
|   \\  /    A nd           | Web:      www.OpenFOAM.org                      |
|    \\/     M anipulation  |                                                 |
\*---------------------------------------------------------------------------*/
FoamFile
{
    version     2.0;
    format      ascii;
    class       surfaceVectorField;
    location    "3.4";
    object      Uf;
}
// * * * * * * * * * * * * * * * * * * * * * * * * * * * * * * * * * * * * * //

dimensions      [0 1 -1 0 0 0 0];

internalField   nonuniform List<vector> 
22672
(
(0.000295028915255 7.03204225875e-05 -0.000268912819453)
(4.95266858663e-05 0.000329633149841 -0.000265125475942)
(0.000182195387085 0.000206836812479 -0.000624663703057)
(0.000803265339816 -1.92743578621e-05 -0.000272755912546)
(0.000446692954833 0.000207725366865 -0.000489425959991)
(0.000646309891382 0.000180642439682 -0.000715963602107)
(0.00133284684087 -5.75422632343e-05 -0.000219510734846)
(0.00111274671339 0.000168107915027 -0.000546666585366)
(0.00125085388158 0.000185494863493 -0.000697691250582)
(0.00173377648101 -5.39262281283e-05 -0.000133929333175)
(0.00165068651313 0.000186143455759 -0.000496778607915)
(0.00173107982922 0.000215075206815 -0.000587074872488)
(0.00191305348413 -1.55136979145e-05 -4.15968163229e-05)
(0.00199577687315 0.000257664228657 -0.0004062478113)
(0.00202241486283 0.000264713499419 -0.000436942896079)
(0.00183161246336 3.79992500079e-05 4.34814272891e-05)
(0.00206089561992 0.000355781005637 -0.00029849663667)
(0.00205101732226 0.000320531352588 -0.000274341504885)
(0.00150677598611 9.12675333372e-05 0.000113922964634)
(0.00184622735488 0.000449529826593 -0.000195772712663)
(0.00181592946825 0.000367583685752 -0.000124694716297)
(0.000985067322561 0.000133635768608 0.000162981723053)
(0.00138397799663 0.000526321428861 -0.000106431840817)
(0.00134657132235 0.00040212789704 -4.61399197001e-06)
(0.000331198319273 0.000157437221816 0.000185588209546)
(0.000740362662958 0.000571935601754 -4.77785364168e-05)
(0.000707946620174 0.000420559883442 8.19322859864e-05)
(-0.00036765085642 0.000160796103166 0.000185387123406)
(4.92325289795e-08 0.000585949954548 -2.38115269402e-05)
(-1.84572043725e-05 0.000423629166674 0.000112898178435)
(-0.00102971796902 0.000143767733491 0.000165990164429)
(-0.00074379844318 0.000569490814882 -3.33479182333e-05)
(-0.000744885309813 0.000412701744883 9.25752893869e-05)
(-0.00158079364777 0.000108270046955 0.000127309680953)
(-0.00140473347221 0.000524647207789 -7.27064638967e-05)
(-0.00139105624033 0.000388754286735 2.64274669668e-05)
(-0.00196389305839 5.93614481151e-05 7.07805261881e-05)
(-0.00191433000299 0.000454453004098 -0.000139232698806)
(-0.00189273854033 0.000353655963572 -7.13546085545e-05)
(-0.0021383050965 6.11812113118e-06 3.064327741e-06)
(-0.00221609236903 0.000367218636783 -0.000223408483614)
(-0.00219619691325 0.000309772576102 -0.000192807624992)
(-0.00208680980815 -4.21917312984e-05 -7.2608427017e-05)
(-0.00228036598155 0.00027514871211 -0.000313756974601)
(-0.00227416632473 0.000261502592954 -0.000326645028982)
(-0.0018130725511 -7.26973963658e-05 -0.000151474595613)
(-0.0020960324224 0.000189999814632 -0.000404551426126)
(-0.00211957299626 0.000212413429088 -0.00046373809423)
(-0.00136260548668 -7.05498707413e-05 -0.000222662042521)
(-0.00168492872151 0.000135110268083 -0.000479160813188)
(-0.00175458031057 0.000173637122533 -0.000585578349137)
(-0.000819173214842 -3.26270028442e-05 -0.000264581100786)
(-0.00112394927757 0.00012788917391 -0.000517278667422)
(-0.00124592276578 0.000152961168113 -0.000671322482654)
(-0.000310209538062 4.76071735712e-05 -0.000255151317436)
(-0.000470338334076 0.000167364813467 -0.000460654624965)
(-0.000649163364263 0.000150086255104 -0.000676329612123)
(-6.47864768251e-05 0.000273030897151 -0.000252404838709)
(-0.000184404713919 0.000169934801592 -0.000583241232899)
(0.000181871394893 0.000486585229904 -0.000485638616479)
(-3.88769928198e-05 0.000853017295248 -0.000264140110115)
(0.000166518670972 0.000694033777145 -0.000705257282645)
(0.000776507968535 0.00041686470849 -0.00076333663281)
(0.000386019333835 0.000808403821432 -0.000765411466355)
(0.000656813199225 0.000682499572191 -0.00119531687533)
(0.00143580392926 0.00043541654523 -0.000823934458435)
(0.00119244377228 0.000849351330733 -0.000933503961126)
(0.00134533860886 0.000735024316228 -0.0013405412116)
(0.00193371124545 0.00052553617273 -0.000769097086041)
(0.0018288157953 0.000970141389993 -0.000902852433876)
(0.0018837081302 0.000845770618171 -0.00128190700021)
(0.00216513962513 0.000662185636411 -0.000663147631648)
(0.0022308682428 0.00115172868035 -0.000791371452613)
(0.00220717949158 0.000993399479117 -0.00112549444551)
(0.00209214362794 0.00080537379979 -0.000537750776623)
(0.00230942089817 0.00134916350795 -0.000642417576733)
(0.00224409940274 0.00114384692213 -0.00092038795727)
(0.00173378187496 0.000926095894653 -0.000416127518114)
(0.0020680694429 0.00151715726851 -0.000491473667907)
(0.00199146239516 0.00126605312636 -0.000709266977082)
(0.00114482750742 0.00100847105023 -0.000317192100286)
(0.00155016872795 0.00163902423095 -0.00035869782479)
(0.0014838394885 0.00134929837031 -0.000523749578186)
(0.000407950660945 0.00104538523732 -0.000257178272903)
(0.000833075279002 0.00170298421098 -0.000265651808711)
(0.000790920205071 0.00138888758192 -0.000394172797147)
(-0.000381085314087 0.00103925935756 -0.00024254656858)
(1.37593388083e-05 0.00171169916537 -0.000223625473114)
(2.12492679631e-06 0.00138966853593 -0.000336714204318)
(-0.00112888147758 0.000993531940784 -0.00027204454656)
(-0.000807116704798 0.00167172136022 -0.000234627080037)
(-0.000787613644168 0.0013581600466 -0.000354435326868)
(-0.00175235851355 0.0009115054919 -0.000339248843656)
(-0.00153721142107 0.00158803849272 -0.000293401106816)
(-0.00149063314976 0.00129761816979 -0.000439915203023)
(-0.00218405355716 0.000799554525581 -0.000433421708609)
(-0.00210057399089 0.00146516902689 -0.000390141611761)
(-0.00203505273253 0.00120988846878 -0.000579021959395)
(-0.00237749491606 0.000669208030614 -0.000540229785956)
(-0.00243509880735 0.00131167501528 -0.000511147069531)
(-0.0023641352196 0.00109828394785 -0.000751016027947)
(-0.00230988898361 0.000535238186153 -0.00064569997371)
(-0.00250660435412 0.00113951521178 -0.000640114048597)
(-0.00244842656424 0.000969736494869 -0.000931973462777)
(-0.0019852959089 0.000420672463332 -0.000732237643701)
(-0.00229858963014 0.000964228820548 -0.000761716305461)
(-0.00228010638644 0.0008342818165 -0.00109882313003)
(-0.00144782697547 0.000353053086611 -0.000773777438089)
(-0.00183169738054 0.000817825111802 -0.000849919882534)
(-0.00188322765979 0.000713666954047 -0.00122018484974)
(-0.000791137025729 0.000346242050831 -0.000713352191601)
(-0.00118475983115 0.00072758856369 -0.000867847029782)
(-0.00132356309844 0.000628136974733 -0.00125639045693)
(-0.000207458886373 0.000409680310974 -0.000457908146238)
(-0.000411666786043 0.000699988071617 -0.000712452492712)
(-0.000655043886793 0.0005876128875 -0.00111630260042)
(1.36864821165e-05 0.000733967996739 -0.000257346423883)
(-0.000171664027183 0.000592682883417 -0.00066839682998)
(0.000144271127896 0.00115456099653 -0.000543912959991)
(-7.95601260463e-05 0.00139648329206 -0.00021048801239)
(0.00017544398075 0.00130256641625 -0.000687738695491)
(0.000825604234626 0.00121748263444 -0.000935578794671)
(0.000406744416141 0.00147531723179 -0.000834709028583)
(0.000719755930715 0.00137227501264 -0.00134824812576)
(0.0015865969168 0.00135807870335 -0.00101242193657)
(0.00134098887464 0.00161446634204 -0.00102105844891)
(0.0014911081212 0.00150602334929 -0.00152610925995)
(0.00214846251866 0.00156741827585 -0.000925126800448)
(0.00205783570983 0.00183407821832 -0.000946055854725)
(0.00207341584344 0.00170891942526 -0.00142580389676)
(0.00239744463068 0.00180678576458 -0.000770641397698)
(0.00248952439146 0.00210255094922 -0.000771091905533)
(0.00240551931663 0.00194674891733 -0.00119980570721)
(0.00230310759167 0.00202639600869 -0.000596140468018)
(0.0025505085444 0.00236547626956 -0.000560929701141)
(0.00242219462684 0.00217346526985 -0.000921976890524)
(0.00189561310243 0.0021935782057 -0.000434043974583)
(0.00225849427704 0.00257356295237 -0.000361555716347)
(0.00212900914596 0.00235051126798 -0.000648912207695)
(0.00124282661553 0.00229557952711 -0.000307157533215)
(0.00167287574668 0.0027119383327 -0.00019827370467)
(0.00157180811047 0.00246467894825 -0.000420128495241)
(0.000437792138411 0.00233074278555 -0.000232099008922)
(0.000884156723313 0.00277397939709 -8.94373458135e-05)
(0.000827596238051 0.00251393471613 -0.000265961492935)
(-0.000417368549039 0.00230619002194 -0.000215705984571)
(-2.53386958453e-06 0.0027687790009 -4.46670247577e-05)
(-9.65345391636e-06 0.00250659897908 -0.000201919879813)
(-0.00122522327764 0.00222972737091 -0.000255983640294)
(-0.000884053492182 0.00270733207127 -6.35523814674e-05)
(-0.000843417387962 0.00245267609363 -0.000227756706422)
(-0.00189949716939 0.00210730702652 -0.000344293874921)
(-0.00166759935613 0.00259768043687 -0.00013933874702)
(-0.00158531032878 0.00235869545274 -0.000335368805135)
(-0.00236936633262 0.00194540932346 -0.000467866972683)
(-0.00227550863542 0.00244395592321 -0.000260764853662)
(-0.00216238154851 0.0022280547366 -0.000508918537292)
(-0.00258457120665 0.00175280788167 -0.000611031332172)
(-0.00264365088491 0.00225324944738 -0.000416067619735)
(-0.00251711922148 0.00206384759814 -0.000726370422175)
(-0.00251627723913 0.00154209876237 -0.000756130380348)
(-0.00273269735668 0.00203286486833 -0.00058769185172)
(-0.00261690460225 0.00187235600093 -0.000961644548444)
(-0.00216343570155 0.00133765902408 -0.000879398544294)
(-0.00251825169593 0.00179705174491 -0.00075738280532)
(-0.00244977091159 0.00166545472883 -0.00118566544804)
(-0.00156603966553 0.00117096408354 -0.000943989474227)
(-0.00201386013423 0.00157890848986 -0.000892979941892)
(-0.00203553842512 0.00146883248921 -0.00135848046886)
(-0.000823989156887 0.0010620144848 -0.000866947330893)
(-0.0012966319552 0.0014087849456 -0.000943072440997)
(-0.00143641271743 0.00130881771653 -0.00142324803369)
(-0.000170756526978 0.00100779193369 -0.000511890770357)
(-0.000420389462179 0.00129922239522 -0.000770631153819)
(-0.000701358136294 0.0012016624272 -0.00125246821289)
(5.05276979533e-05 0.00122125691191 -0.00021185855445)
(-0.000178442724753 0.00113285501081 -0.000658046334635)
(0.000160252808043 0.00170941978315 -0.000501284080982)
(-7.99603678962e-05 0.00182102810233 -0.000126632223206)
(0.000205747809138 0.0018018446511 -0.000584798844088)
(0.000948552798843 0.00186849757878 -0.00092018868282)
(0.000495540044142 0.00199639438627 -0.000794199928774)
(0.000834906456857 0.00193141708824 -0.00130937834334)
(0.00181120014599 0.00208886212135 -0.000954692367067)
(0.00155421968175 0.00220088510114 -0.000952200149661)
(0.00170013614301 0.00211179620231 -0.00144906724114)
(0.00242353294863 0.00236762687646 -0.000792020959811)
(0.002340921252 0.00247292701448 -0.000801910713989)
(0.00232680275964 0.00236151779603 -0.00125118263608)
(0.00266692656185 0.00265806168242 -0.000561380208976)
(0.00278218544665 0.0027746612362 -0.000544082472535)
(0.00265494785882 0.00263925925846 -0.000915504815259)
(0.00252523566298 0.00290757800585 -0.00032634494947)
(0.00280165880207 0.00305055128919 -0.0002654117297)
(0.00263019883882 0.00289395322878 -0.000543384905708)
(0.00204780506133 0.00308510498045 -0.000125785446434)
(0.00243937227001 0.00325579120185 -2.16886732692e-05)
(0.00227531058605 0.0030862227946 -0.000204798310009)
(0.00131852631693 0.0031822779937 1.94464827311e-05)
(0.00177306407897 0.00337931748924 0.000164624564771)
(0.00165144851009 0.00320388631529 6.18990284666e-05)
(0.000442698093784 0.00320362878141 9.79946383506e-05)
(0.000909293153937 0.00342195647473 0.000278445958793)
(0.000846721419864 0.00324700107362 0.000227850657893)
(-0.000474576662462 0.00316181796588 0.000107486578346)
(-4.05376797197e-05 0.003398373169 0.000316820317123)
(-4.10945248821e-05 0.00322775835461 0.000287680132796)
(-0.00133628228673 0.00306811556114 5.30925118064e-05)
(-0.000974458095051 0.00332376537576 0.00028562964716)
(-0.000917055236436 0.00315914134995 0.000245271853243)
(-0.00205847479579 0.00292922531969 -5.58097257605e-05)
(-0.00180361960505 0.00320777195427 0.000193081857403)
(-0.00169623954524 0.00304955862838 0.000112100473374)
(-0.00256829578799 0.00274912289067 -0.000208965500714)
(-0.00245321417673 0.0030539082008 4.88348834308e-05)
(-0.00230809771511 0.00290221969721 -0.000100131886479)
(-0.00281380244029 0.00253284507821 -0.000392728139283)
(-0.00285834440226 0.00286244325652 -0.000137636400701)
(-0.00269487192483 0.00271910182912 -0.000363687858842)
(-0.00275747775202 0.00228969940684 -0.000588944276692)
(-0.0029736492687 0.00263796538928 -0.000350575145386)
(-0.00281957435331 0.00250501538149 -0.000661426020136)
(-0.00238860025338 0.00204166893379 -0.000770964202918)
(-0.00276541812143 0.0023897634447 -0.000574110881627)
(-0.00266303067715 0.00227071081094 -0.000961590123798)
(-0.00173939068885 0.00181983178562 -0.000892062908662)
(-0.00223580449063 0.00214653210907 -0.000770564887736)
(-0.00223621296027 0.00204194875194 -0.00121683423053)
(-0.00091359037018 0.00164675421797 -0.000846756263923)
(-0.00145646670919 0.0019362555622 -0.000875587187468)
(-0.00159483827493 0.00184645066361 -0.00135327211822)
(-0.000177860028704 0.00150935196209 -0.000470598937912)
(-0.000483603759693 0.00177353313932 -0.000724999735291)
(-0.000785681654497 0.00170313513438 -0.00121004242146)
(5.32522239236e-05 0.0016093424125 -0.000137268644694)
(-0.000199798792991 0.00158089524596 -0.00056594648803)
(0.000228463363195 0.00208516181472 -0.000419548070998)
(-4.5538245974e-05 0.00203613832894 -3.5619097155e-05)
(0.000255707497567 0.00212528068377 -0.00044357436767)
(0.00113072059695 0.0023046729651 -0.000826211395614)
(0.00063120303963 0.0022688909641 -0.000702198891549)
(0.000986000415661 0.0022931205616 -0.00117475450627)
(0.00208300332291 0.00255892806437 -0.000799418496583)
(0.0017983879597 0.00249656951799 -0.000815228383078)
(0.00194378435972 0.00248815326629 -0.00124796776931)
(0.00272663811755 0.00285175863448 -0.000553972226714)
(0.0026373139894 0.00276920813834 -0.000588250092291)
(0.00260853836532 0.00273984110359 -0.000939916472231)
(0.00294349675603 0.00313712462463 -0.00024811399326)
(0.00306952158557 0.00305072041431 -0.000254143027229)
(0.00292094703071 0.00300751778923 -0.000492918293082)
(0.00273673604068 0.00336745014434 3.92445465005e-05)
(0.00303153207086 0.00329194217181 7.88029004857e-05)
(0.00284145823237 0.00324371291087 -3.46305693692e-05)
(0.00217727501938 0.00351794229727 0.000268721337935)
(0.00258987281896 0.00345755441556 0.000352318567353)
(0.00241462017594 0.00341355373935 0.000357697472568)
(0.00136822242993 0.00358653746525 0.000423624040833)
(0.00184098362998 0.0035433761424 0.00054833254128)
(0.00171720654143 0.00350844340955 0.000644993657301)
(0.000424801309744 0.00358409994365 0.000497271637566)
(0.000907962202215 0.00355509409664 0.000654735658654)
(0.000849590230612 0.00353140742145 0.000810283257544)
(-0.000546092061269 0.00352810602613 0.000494963385937)
(-9.35218627413e-05 0.00351311704745 0.000679457970819)
(-8.66091540464e-05 0.00349811263153 0.000856149262073)
(-0.00145184333524 0.00343211279535 0.000425618992756)
(-0.00106600998723 0.00343517115398 0.000635386043609)
(-0.000999956584501 0.0034235622875 0.000794345236954)
(-0.00221369073228 0.00330215742803 0.000297726466594)
(-0.00192816943666 0.00333129851673 0.000531321562952)
(-0.00181170934606 0.00331696358813 0.000638320503023)
(-0.00276279923717 0.00313838921378 0.000120163983444)
(-0.00261169160935 0.00320197554455 0.000372484452935)
(-0.00245601825179 0.00318027219042 0.000401040715165)
(-0.00304200159268 0.00294086911514 -9.54834068043e-05)
(-0.00305188249766 0.00304378128315 0.000166836628473)
(-0.00287566778576 0.00301303500926 9.78637385181e-05)
(-0.00300647006373 0.00271348775524 -0.000335741750321)
(-0.00319753852991 0.0028558078527 -7.47162662578e-05)
(-0.00302938413118 0.00281692308789 -0.000253374742635)
(-0.00263422234559 0.00247217465271 -0.000573711566444)
(-0.00300539998702 0.00263977395789 -0.000340101941067)
(-0.0028897352831 0.00259939442926 -0.000622259148162)
(-0.00194708419016 0.00224257599264 -0.000754089166542)
(-0.00246415700739 0.00241771944692 -0.00058917317166)
(-0.00245636650667 0.00238188852796 -0.000958326581199)
(-0.00104896787045 0.00204437277285 -0.000753830658837)
(-0.00163750011057 0.00221085907105 -0.000747258770384)
(-0.00177635646792 0.00218826629667 -0.00117272109545)
(-0.000228281927025 0.0018559627301 -0.000391669442074)
(-0.000584310363884 0.00203101304481 -0.000631173831018)
(-0.000895528802727 0.00203515735098 -0.00107816730052)
(2.59988779371e-05 0.00181765115343 -5.55482344482e-05)
(-0.000235560414117 0.00187923604915 -0.00043659171805)
(0.000324642656991 0.0021960758755 -0.000318269917706)
(5.59121332038e-06 0.00199698338612 5.0192978926e-05)
(0.000312649449493 0.00219880408401 -0.000285488006708)
(0.00133160791579 0.00243648840179 -0.000691215879013)
(0.000776730702407 0.00224775631721 -0.000586350544599)
(0.00114210329326 0.0023829539149 -0.000985830784236)
(0.00235354343243 0.00268069901757 -0.000604059978786)
(0.00202767415881 0.00246243633576 -0.00065226434599)
(0.00218037553011 0.00256499625858 -0.000987802453435)
(0.00300933281318 0.00293999990715 -0.000288420892805)
(0.00289901654481 0.00269634754215 -0.000362869676748)
(0.00287296123272 0.00278293378151 -0.000582928879233)
(0.00318609412382 0.00317561341824 7.27738665166e-05)
(0.00330873284507 0.00292188536081 2.59516820517e-05)
(0.00316227655929 0.00300390499684 -4.7926344806e-05)
(0.00290681673017 0.00335074053183 0.000391876921338)
(0.00320845415874 0.00309916094759 0.000391145453864)
(0.00302394644101 0.00318891111591 0.0004720585258)
(0.00226650257822 0.00345066741868 0.000631929770697)
(0.00269097291897 0.00320684214894 0.000676324747592)
(0.00252502275049 0.00331191711458 0.000891026320429)
(0.0013850546498 0.00347904342244 0.000779444159101)
(0.00186927867882 0.00324543217397 0.000864383002293)
(0.00175765729579 0.00336899539286 0.00117939179843)
(0.000388096537651 0.00345134662392 0.000836921991906)
(0.000881391441314 0.00322448618616 0.000951609711161)
(0.000834822919011 0.00336566702658 0.0013275659274)
(-0.000619355429201 0.00338788153902 0.000819880628491)
(-0.000153778242454 0.00316864406438 0.000958676278124)
(-0.000139024566197 0.00332041751144 0.0013519248475)
(-0.00155254807781 0.00330268138726 0.000741088613805)
(-0.00114601930698 0.0030963798877 0.000903309252983)
(-0.00107806637364 0.00324888054086 0.00127198377433)
(-0.00234143654453 0.00320047883316 0.000606079549293)
(-0.00202441097546 0.00301726370692 0.000795410443433)
(-0.00191182367742 0.00316016094293 0.00110292304872)
(-0.00292137010331 0.00307807965509 0.000419157097964)
(-0.00272881428829 0.00292904627603 0.000636100604156)
(-0.0025809598018 0.00305438944779 0.0008528624576)
(-0.00323247962428 0.00293071545555 0.000187603769019)
(-0.00319641800402 0.00282393461958 0.00042633452803)
(-0.00302940395659 0.00292806143972 0.00053095562978)
(-0.00322324528125 0.0027557722808 -7.90764570035e-05)
(-0.00337070032244 0.00269548340237 0.000173277437273)
(-0.00321154204785 0.00277917663968 0.00015108934644)
(-0.00285842650526 0.00256112874069 -0.000355563546282)
(-0.00320010663629 0.00254026829201 -0.000115507379412)
(-0.00309164939227 0.00261016403637 -0.000265314084065)
(-0.00214949199153 0.0023639899414 -0.000582342775502)
(-0.00265918749703 0.00237024610963 -0.000398602410759)
(-0.00265791162075 0.00243617996428 -0.000661462362097)
(-0.00119731212681 0.00217735363511 -0.000624601942566)
(-0.00180306962827 0.00219909920007 -0.000597012177611)
(-0.00194790232793 0.00227363918596 -0.000940421391552)
(-0.000301873269484 0.0019733081493 -0.000295052623393)
(-0.000692475883413 0.00203266642412 -0.00051661873675)
(-0.00100694442464 0.00213324502084 -0.000897093842608)
(-1.57541053846e-05 0.00180723310664 2.16471521709e-05)
(-0.000276362369002 0.00196435184122 -0.000291456385356)
(0.00041987721358 0.00202890117356 -0.000217887647967)
(5.89435680846e-05 0.00171196897283 0.000123627114926)
(0.000362270212472 0.00200885117878 -0.000134862629493)
(0.00150845430574 0.00225300494403 -0.000547399011576)
(0.000904379648934 0.00194107976743 -0.000468413602344)
(0.00127353391226 0.00218488458053 -0.000781900235358)
(0.00257611054206 0.00245593423053 -0.000411074043951)
(0.00221070727312 0.00211582938876 -0.000493931808685)
(0.00237320888392 0.00233402057375 -0.000721048961459)
(0.0032291904772 0.00265451836305 -4.84971018906e-05)
(0.00309647626565 0.00228897494377 -0.000162421032821)
(0.00308272070959 0.00249815075651 -0.000245707049801)
(0.00336107624926 0.00282056777783 0.000344323269399)
(0.00347667565645 0.00244184577969 0.000258776469071)
(0.00334605374164 0.00265580183576 0.000348154017991)
(0.00301563669753 0.00292961484099 0.000675593280118)
(0.0033194239024 0.00254823178965 0.000636478861655)
(0.00315382400105 0.00277789087909 0.000896368824998)
(0.00230684303308 0.00297552997464 0.000908777979188)
(0.00273831576926 0.00259695948346 0.000915710184302)
(0.00259272023563 0.00284794023049 0.00131867636189)
(0.00136954684129 0.00296506058374 0.00103654855435)
(0.00185976905052 0.00259298288347 0.00108361729592)
(0.00176794160428 0.00286589357445 0.00158974546004)
(0.000337815083963 0.00291640564106 0.00107336399738)
(0.000834720766697 0.00254650843012 0.00114547231856)
(0.000803592001199 0.00283800874752 0.00170970946694)
(-0.000686604821438 0.0028521154964 0.00104210490262)
(-0.000214747357734 0.00248425389065 0.00113313131364)
(-0.000192784397041 0.00278532703095 0.00170881001863)
(-0.00162811440478 0.00278618503735 0.000957631082611)
(-0.00120757695587 0.00242442345319 0.00106841120662)
(-0.00114219115878 0.00272368724603 0.00161346591966)
(-0.00242702807005 0.00272121622986 0.000825431498296)
(-0.00208471231726 0.00237543365786 0.000962579733204)
(-0.00198383439693 0.00266141897559 0.00144074352241)
(-0.0030249831364 0.00265067651857 0.000643278034222)
(-0.00279546717035 0.0023328094384 0.000813488763165)
(-0.0026659286143 0.00259631418032 0.00119419154831)
(-0.00336062590362 0.00256531037345 0.000412008196283)
(-0.00327997661497 0.00228580534247 0.000613970997164)
(-0.00313457493761 0.00252191340725 0.000873771468915)
(-0.00337563761496 0.00245751351798 0.000136846514865)
(-0.00347703544286 0.00222350814178 0.000365327972929)
(-0.00333980069203 0.0024323731526 0.000486986149051)
(-0.0030253528379 0.00232819360877 -0.000158546243888)
(-0.00332884040189 0.00213825821972 7.03082943644e-05)
(-0.00323913910149 0.00232574096317 5.17242208573e-05)
(-0.00230917452581 0.00218595037214 -0.000413271812868)
(-0.00279685684792 0.00203413541517 -0.000228214755406)
(-0.00280971117397 0.00221017533479 -0.000380068937358)
(-0.00132446383646 0.00203662754438 -0.000489028971796)
(-0.00192856350077 0.00191678230151 -0.000452030669555)
(-0.00208104062255 0.00209465338384 -0.000702395346513)
(-0.000374582543059 0.00184969076499 -0.000199918961186)
(-0.000785447805494 0.00178626050086 -0.000402133968762)
(-0.00109743384983 0.00198298064766 -0.000703477148791)
(-5.90793240887e-05 0.00158501358499 8.79210138733e-05)
(-0.00031129430871 0.00182359766803 -0.000152364301935)
(0.000501709559738 0.00161016432065 -0.000126898839451)
(0.000104202559399 0.00121845485859 0.000178419301426)
(0.00040075459459 0.00157845894035 -8.19487644609e-06)
(0.00164460879331 0.00178918274191 -0.000414946399453)
(0.000998602689344 0.00139218671601 -0.000366531668464)
(0.00136957369783 0.00172465356283 -0.000594005478223)
(0.00273599557233 0.00193316855447 -0.000245278797555)
(0.0023349264932 0.00151119167485 -0.000362460646818)
(0.00250879053523 0.00183029894094 -0.00048674838174)
(0.00337584577033 0.00206003868604 0.000144852538141)
(0.00322158823038 0.00161534910725 -7.5430924764e-06)
(0.00322569381212 0.00193437283036 3.3776212442e-05)
(0.00346614139707 0.00215318472648 0.000550932061327)
(0.00357209580833 0.00169656869264 0.000428856173573)
(0.00346419901405 0.00202621609232 0.000654981873287)
(0.00306556183399 0.0021993083191 0.000876595765839)
(0.00336915893529 0.00173981900978 0.0008033669859)
(0.00322797001321 0.00208739707105 0.00120899258082)
(0.00230439481372 0.00219839009521 0.00109054950103)
(0.00274018959735 0.00174190712625 0.00106487987527)
(0.00261856435639 0.00210950847165 0.00161621946685)
(0.00132874160797 0.00215839465423 0.00119254106012)
(0.0018218667669 0.00170961578183 0.00120843687518)
(0.00175137692423 0.00209537900033 0.00185902030326)
(0.000280661110035 0.00209812243951 0.00120523963482)
(0.000776796748462 0.00165175795667 0.00124091161883)
(0.000760714591803 0.00205056705467 0.00194283093028)
(-0.000742172087101 0.00204024799744 0.00115943761764)
(-0.000269763446894 0.00159373206867 0.00120701081155)
(-0.000242485943468 0.00199737529097 0.00191335496899)
(-0.00167462833162 0.00199747758699 0.00107335985722)
(-0.00124719089744 0.00155130721364 0.00113473872732)
(-0.00118735964529 0.00195051670102 0.00180557240477)
(-0.00246840430981 0.00197101670959 0.000950636998073)
(-0.00210832067542 0.00153142895979 0.00103593539211)
(-0.00202307839138 0.00191729833991 0.00163778050143)
(-0.00307162525218 0.00195198761132 0.000784181726108)
(-0.00281279373498 0.00152915703692 0.000903451203722)
(-0.00270633004797 0.00189417837353 0.00140687298725)
(-0.00342316066867 0.00192811761442 0.000567290773809)
(-0.00330385323812 0.00153255839093 0.000724384373056)
(-0.00318548496948 0.00187195480335 0.00110478175988)
(-0.00345909759087 0.00188875905712 0.000298789752428)
(-0.00351677609451 0.00152920722403 0.000491404568198)
(-0.00340723245137 0.00184203218041 0.000730236948522)
(-0.00312601036639 0.00182955572996 6.39782846945e-07)
(-0.0033885754831 0.00150994092306 0.000203181766453)
(-0.00332347998309 0.0017990592111 0.00029522889355)
(-0.00241410174328 0.00175104122257 -0.000266973612092)
(-0.00287107451048 0.00147220493523 -9.86421603221e-05)
(-0.00290215063368 0.00174441805565 -0.000149979594667)
(-0.00141717081188 0.0016529346438 -0.000365135666522)
(-0.00200497278558 0.00141287356204 -0.000333154413018)
(-0.00216618989524 0.00168084159239 -0.000493023895884)
(-0.000435555311842 0.0015084181983 -0.000114293993703)
(-0.00085060235765 0.00133095544432 -0.000305045471141)
(-0.00115913205011 0.00160653274918 -0.000526312378224)
(-9.47436645986e-05 0.00118311576004 0.000137414714655)
(-0.000337239061344 0.00147683300716 -3.36588662685e-05)
(0.000556410025513 0.000991503836367 -6.12135275869e-05)
(0.000133671466678 0.000571566380663 0.000208417593036)
(0.000424443012629 0.000959465884452 9.04793335752e-05)
(0.00172886835003 0.00110654005986 -0.000314045915828)
(0.0010516256933 0.000671651810777 -0.000297374429953)
(0.00142524543399 0.0010585645527 -0.000451922413939)
(0.002826850636 0.00118586038711 -0.000124724941739)
(0.00239760965455 0.000728210150655 -0.000274977695252)
(0.00258464616546 0.00111713500776 -0.000314999815086)
(0.0034505868747 0.00124420884991 0.000276460542956)
(0.00327709395812 0.000766328661987 8.94288378434e-05)
(0.00330120719252 0.00116492314322 0.000225284988224)
(0.00350710205082 0.00127529339792 0.000681291098146)
(0.00360383775978 0.000784438987421 0.000527975646019)
(0.00351930608246 0.00119908357991 0.000855615087621)
(0.00306691466214 0.00127465846003 0.00099165109533)
(0.0033710137948 0.000779864503497 0.00089134683987)
(0.00325201323339 0.0012120256042 0.00140014222223)
(0.00227124473242 0.00124537475159 0.00118276724942)
(0.00271283339522 0.0007537090124 0.00113514724073)
(0.00261013126061 0.00120086202251 0.0017838681831)
(0.00127391535515 0.00119498373945 0.00125680743389)
(0.00177323479676 0.000712420974433 0.00125712130451)
(0.00171604931719 0.00116993332122 0.00199452421339)
(0.000225275626326 0.00113926255674 0.00124268279556)
(0.000723008495093 0.000662898413426 0.00126285844063)
(0.000713300185851 0.00112367638125 0.00203749926568)
(-0.000781505843849 0.00109675917828 0.00118231192122)
(-0.000310083930976 0.000622663206538 0.00121023870123)
(-0.000283296665539 0.00108093118427 0.0019778503283)
(-0.00169165723482 0.00107744526658 0.00109731426221)
(-0.0012642815501 0.000602357207523 0.00113202020091)
(-0.00121138648062 0.00105343072489 0.00185910137218)
(-0.00246818478523 0.00108198232175 0.000988749597756)
(-0.00210195641238 0.000606759645706 0.00104078944436)
(-0.00202959913711 0.00104680379669 0.00170119673932)
(-0.00306596590639 0.00110216588006 0.000843653850671)
(-0.00279162782534 0.000632733918867 0.000924926473352)
(-0.00270346508581 0.00105776301754 0.00149420391185)
(-0.00342450173022 0.00112582619669 0.000648498167444)
(-0.00328012238956 0.000671169599812 0.000765884625882)
(-0.00318431395225 0.00107714681403 0.00121992400517)
(-0.00347583597808 0.00114223614844 0.000395796582222)
(-0.00350046467585 0.0007110390063 0.000551506143421)
(-0.00341580435613 0.00109541308315 0.000869501538069)
(-0.00315943083817 0.00114387573117 0.000103899823283)
(-0.00338677501899 0.000744330818706 0.000275782758709)
(-0.00334565347079 0.00110604204191 0.000449203718786)
(-0.0024617979494 0.00112539125868 -0.000164822961248)
(-0.00288507594395 0.000762151853258 -2.16650383201e-05)
(-0.00293494117776 0.00110472617535 1.24186531517e-05)
(-0.00146689785096 0.00108286954961 -0.000273064217637)
(-0.00203070637074 0.000759495200702 -0.00025651420647)
(-0.00220169869766 0.00108939413477 -0.000341523540074)
(-0.000473898649093 0.000997322765446 -5.33367627831e-05)