/*--------------------------------*- C++ -*----------------------------------*\
| =========                 |                                                 |
| \\      /  F ield         | OpenFOAM: The Open Source CFD Toolbox           |
|  \\    /   O peration     | Version:  3.0.1                                 |
|   \\  /    A nd           | Web:      www.OpenFOAM.org                      |
|    \\/     M anipulation  |                                                 |
\*---------------------------------------------------------------------------*/
FoamFile
{
    version     2.0;
    format      ascii;
    class       volScalarField;
    location    "1.2";
    object      ddt0(epsilon);
}
// * * * * * * * * * * * * * * * * * * * * * * * * * * * * * * * * * * * * * //

dimensions      [0 2 -4 0 0 0 0];

internalField   nonuniform List<scalar> 
15984
(
-0.0109710605646
-0.0112972720835
-0.01131146661
-0.0113010715035
-0.0112955984443
-0.011287855529
-0.0112844714137
-0.0112832074098
-0.0112841048201
-0.0112875037831
-0.0112922580111
-0.0112959982219
-0.0113001597761
-0.011304230752
-0.0113083504692
-0.0113115432211
-0.0113111646577
-0.0113104018975
-0.0113096219583
-0.0113089670426
-0.0113085215126
-0.0113081675297
-0.011307381688
-0.0113067236394
-0.0113062087666
-0.0113058338021
-0.0113055871497
-0.0113054525634
-0.0113054119131
-0.0113054474691
-0.0113055434683
-0.011305686813
-0.011305866314
-0.011306078862
-0.0113063600062
-0.0113070653425
-0.0113101810717
-0.0113202716413
-0.0113032643479
-0.0109746278483
-0.0140235064922
-0.0167461012754
-0.0170905314613
-0.017060141125
-0.0170430810511
-0.0170306466066
-0.0170066035102
-0.0169738435436
-0.0169511606884
-0.0169498784614
-0.0169635747266
-0.0169798181427
-0.0169915995061
-0.0169995232819
-0.0170048288008
-0.0170068636854
-0.0170046283494
-0.0170023620843
-0.017001061576
-0.0170009255052
-0.0170020050137
-0.0170041585127
-0.0170046769178
-0.0170041427061
-0.0170037121218
-0.0170033945662
-0.0170031867321
-0.0170030799965
-0.017003062053
-0.0170031203044
-0.0170032429666
-0.017003421452
-0.0170036535682
-0.0170040086853
-0.0170050810494
-0.017010724339
-0.0170364781733
-0.0170845757644
-0.0167457579093
-0.0140191629064
-0.0147219951783
-0.0198726484906
-0.0206882707419
-0.0206663653104
-0.0206374183553
-0.0206166635596
-0.0205694668155
-0.0204994228446
-0.0204439712819
-0.0204316163297
-0.0204512982696
-0.0204767240664
-0.0204968510507
-0.0205094293726
-0.0205168594709
-0.0205190395912
-0.0205159690189
-0.0205127648379
-0.0205107796021
-0.020510435561
-0.020511589567
-0.0205140658747
-0.0205175112807
-0.0205180720974
-0.0205177552485
-0.020517521698
-0.0205173760344
-0.020517315933
-0.0205173351749
-0.0205174256363
-0.0205175805529
-0.020517796592
-0.020518093581
-0.020518698877
-0.0205212734767
-0.0205350177495
-0.0205899491709
-0.020656534759
-0.0198689376042
-0.014724084601
-0.0148153558893
-0.021015003218
-0.0221060508969
-0.0220855547953
-0.0220477253043
-0.0220170884966
-0.021942110508
-0.0218269359081
-0.0217246858093
-0.0216887534539
-0.0217091099754
-0.0217429585906
-0.0217697040051
-0.0217871253727
-0.0217972311728
-0.0218004140562
-0.0217972138952
-0.0217936335216
-0.0217912952653
-0.0217907441554
-0.0217918046538
-0.021794123882
-0.0217974346455
-0.0218011905557
-0.0218012560166
-0.0218010916867
-0.0218009992593
-0.0218009787989
-0.0218010300128
-0.0218011480136
-0.0218013323228
-0.02180158788
-0.0218019688087
-0.0218029177971
-0.0218074233237
-0.0218306552645
-0.021917932824
-0.022019798642
-0.0209957380013
-0.0148255045284
-0.0148010967024
-0.0212480888984
-0.0224121622908
-0.0223365973346
-0.0222758459895
-0.0222402626859
-0.0221566329915
-0.0220199158671
-0.0218649288388
-0.0217957023068
-0.0218121905898
-0.0218535230809
-0.0218872300313
-0.021908865033
-0.0219217651795
-0.0219264179495
-0.0219236263759
-0.0219201429709
-0.0219178445802
-0.0219173125061
-0.0219184221399
-0.021920771433
-0.0219239850894
-0.0219277952324
-0.0219297386706
-0.0219296153755
-0.0219295468779
-0.0219295424757
-0.0219296037708
-0.0219297316277
-0.0219299284647
-0.0219302105535
-0.0219306660463
-0.0219319548989
-0.0219383633717
-0.0219708422645
-0.0220907353368
-0.0222518461878
-0.021200308196
-0.0148165509472
-0.0147833452876
-0.021213555771
-0.0223185962072
-0.022210320195
-0.0221385993136
-0.0220945974944
-0.0219869523171
-0.0218182761886
-0.021642845227
-0.0215348678628
-0.0215435274136
-0.0215905802032
-0.021630409741
-0.0216559626746
-0.0216715079486
-0.0216777597248
-0.0216755645311
-0.0216724150636
-0.0216703176389
-0.0216699449451
-0.0216711895915
-0.0216736860341
-0.0216770092062
-0.0216809743086
-0.0216833919816
-0.0216832815568
-0.0216832148254
-0.0216832049068
-0.0216832559681
-0.02168337254
-0.0216835581174
-0.0216838344644
-0.0216843173636
-0.0216858396133
-0.0216937305025
-0.0217337227597
-0.021881506715
-0.0221072125362
-0.0211264310052
-0.0148007106651
-0.0147748697426
-0.0211639976883
-0.0222065303395
-0.0220722150984
-0.0220004386899
-0.0219502682205
-0.0218168386003
-0.0216125072861
-0.0214247827533
-0.02127726442
-0.0212752913462
-0.0213257780206
-0.0213703547421
-0.0213992418115
-0.0214167941501
-0.0214245417276
-0.0214229406911
-0.0214201615154
-0.0214183343933
-0.0214181358178
-0.0214195880297
-0.0214222387989
-0.0214257124111
-0.0214297624679
-0.0214320452554
-0.0214319363543
-0.0214318638171
-0.0214318403843
-0.0214318746442
-0.0214319688511
-0.0214321312818
-0.021432384521
-0.0214328603971
-0.02143450693
-0.0214433591292
-0.0214884620871
-0.0216559943416
-0.0219329376168
-0.0210321085345
-0.0147918913084
-0.0147722282467
-0.0211491057569
-0.0221548718121
-0.022016121803
-0.0219523990816
-0.0218978508605
-0.0217406234867
-0.021502360311
-0.0213025427397
-0.0211200819711
-0.0211074472131
-0.0211594215013
-0.0212071516504
-0.0212384356944
-0.0212576527885
-0.0212663918065
-0.0212653372303
-0.0212628621389
-0.0212612999437
-0.0212612602155
-0.0212628403796
-0.0212656691945
-0.0212693452137
-0.0212735077308
-0.0212752887887
-0.021275177997
-0.0212750998217
-0.0212750666177
-0.0212750855433
-0.0212751612006
-0.0212753020693
-0.0212755325868
-0.0212759904609
-0.021277693311
-0.0212870749937
-0.0213351093263
-0.0215142760807
-0.0218230486719
-0.020976177594
-0.0147881897435
-0.0147716674108
-0.0211540558009
-0.0221470676827
-0.0220148644256
-0.0219612029515
-0.0219029998212
-0.0217280897548
-0.0214643195701
-0.0212534944827
-0.0210460714905
-0.0210253996866
-0.0210777047463
-0.0211273320105
-0.0211601367225
-0.0211805343975
-0.021189696434
-0.0211891391379
-0.0211869093893
-0.021185501477
-0.0211856080805
-0.0211872636118
-0.0211902206445
-0.0211940189351
-0.0211982998777
-0.0211996091231
-0.0211994961709
-0.0211994152871
-0.0211993765667
-0.021199386598
-0.0211994506477
-0.0211995770797
-0.0211997902372
-0.0212002345122
-0.0212019575357
-0.0212115873502
-0.0212610444446
-0.0214459542045
-0.0217708111225
-0.0209514983917
-0.0147868846514
-0.0147715124266
-0.0211604838439
-0.0221513508909
-0.0220255065637
-0.0219786136847
-0.0219173971081
-0.0217337662082
-0.0214565229804
-0.0212387615356
-0.0210192711887
-0.020994521334
-0.021046838666
-0.0210973559039
-0.0211308340773
-0.0211518519578
-0.0211612850625
-0.0211609440361
-0.0211588265546
-0.0211574891481
-0.0211576610659
-0.0211593820997
-0.0211623810058
-0.0211662139515
-0.0211706147609
-0.0211716390486
-0.0211715266276
-0.0211714446275
-0.021171403931
-0.0211714102819
-0.0211714694344
-0.0211715888857
-0.0211717934325
-0.021172230481
-0.0211739584304
-0.0211836803148
-0.0212336793857
-0.0214207932311
-0.021751879108
-0.020943121888
-0.0147865079171
-0.0147714667279
-0.0211601947692
-0.0221510785593
-0.0220251087126
-0.0219779592172
-0.0219168599805
-0.0217333272877
-0.0214562723396
-0.0212385221813
-0.0210192044262
-0.0209945244567
-0.0210468583952
-0.0210973700825
-0.0211308506089
-0.0211518710922
-0.0211612886532
-0.0211609461425
-0.0211588313388
-0.0211574942874
-0.02115766584
-0.0211593861792
-0.0211623917463
-0.0211662276074
-0.0211706327941
-0.0211716399371
-0.0211715280072
-0.0211714464005
-0.0211714060664
-0.0211714129782
-0.0211714724254
-0.0211715919904
-0.0211717964777
-0.0211722332601
-0.0211739610638
-0.0211836826612
-0.0212336808938
-0.0214207904043
-0.0217518737801
-0.0209431142322
-0.0147865164232
-0.0147715012169
-0.0211532288934
-0.0221462824928
-0.0220137772795
-0.0219595991664
-0.0219014894118
-0.0217269456115
-0.0214636520739
-0.0212526329301
-0.021045885575
-0.0210254252613
-0.0210777610786
-0.0211273705469
-0.0211601775729
-0.0211805652058
-0.0211897137435
-0.0211891532449
-0.0211869278653
-0.0211855164918
-0.021185625581
-0.0211872841482
-0.0211902506574
-0.0211940576737
-0.021198358462
-0.0211996145006
-0.0211995027221
-0.0211994231752
-0.0211993855923
-0.0211993965094
-0.0211994612451
-0.0211995878185
-0.0211998006878
-0.0212002444686
-0.0212019668749
-0.0212115948781
-0.0212610490335
-0.0214459449988
-0.0217707924538
-0.0209514728746
-0.0147869088035
-0.0147720277281
-0.0211479340069
-0.0221536959869
-0.0220145024575
-0.0219502749409
-0.0218958060454
-0.0217390481075
-0.0215014367009
-0.0213012447278
-0.0211198525317
-0.02110753502
-0.0211595541686
-0.0212072435174
-0.0212385067296
-0.0212577140697
-0.0212664242652
-0.0212653655607
-0.0212628989779
-0.0212613321639
-0.0212612997361
-0.0212628851165
-0.021265738541
-0.0212694302495
-0.021273623086
-0.0212753074597
-0.0212751980874
-0.0212751216938
-0.0212750901707
-0.0212751088645
-0.0212751852811
-0.0212753254048
-0.0212755541543
-0.0212760122106
-0.0212777123408
-0.0212870908262
-0.0213351197553
-0.021514262936
-0.0218230177541
-0.0209761284279
-0.0147882275797
-0.0147746671307
-0.0211627067245
-0.0222051626236
-0.0220703364628
-0.0219981744186
-0.0219481030916
-0.0218151412085
-0.0216115098387
-0.021423408262
-0.0212771041457
-0.0212754697147
-0.0213259650645
-0.0213704839182
-0.0213993521809
-0.0214168904368
-0.021424590281
-0.0214229971081
-0.0214202075667
-0.0214183915994
-0.0214182062737
-0.0214196764731
-0.0214223552391
-0.0214258649952
-0.0214299230065
-0.0214320892144
-0.0214319815789
-0.0214319103454
-0.0214318881726
-0.0214319209435
-0.0214320150839
-0.0214321756266
-0.0214324265459
-0.0214328992392
-0.0214345423034
-0.0214433862322
-0.0214884804252
-0.0216559762911
-0.021932889143
-0.0210320302102
-0.0147919380701
-0.0147831940343
-0.0212124249171
-0.022317210626
-0.0222085166157
-0.0221364947327
-0.0220926026807
-0.0219853887413
-0.0218172736807
-0.0216417410924
-0.0215348998258
-0.0215438097678
-0.0215908292673
-0.0216306040549
-0.0216561343202
-0.0216716153361
-0.0216778175676
-0.0216756334096
-0.0216724953446
-0.0216704066166
-0.0216700441489
-0.0216713264769
-0.0216738421899
-0.0216771944877
-0.0216811921792
-0.0216834630466
-0.0216833533102
-0.02168328701
-0.021683277297
-0.0216833269665
-0.0216834403416
-0.0216836230042
-0.0216838962575
-0.021684374106
-0.0216858893183
-0.0216937691399
-0.0217337486239
-0.0218814775974
-0.0221071367354
-0.0211263147886
-0.0148007601624
-0.0148010380462
-0.0212472544993
-0.0224098406001
-0.0223350195646
-0.0222739637005
-0.0222384475129
-0.0221551833536
-0.0220178158229
-0.0218642623449
-0.0217959240557
-0.0218125552815
-0.0218537983611
-0.0218874656736
-0.0219090184035
-0.0219218323567
-0.0219264754591
-0.0219236748712
-0.0219201966192
-0.0219179332579
-0.0219174194692
-0.0219185594278
-0.0219209366153
-0.0219242038374
-0.0219280494265
-0.0219298105479
-0.0219296874014
-0.0219296189152
-0.0219296134648
-0.0219296732277
-0.0219297989469
-0.021929993387
-0.02193027022
-0.0219307219392
-0.0219320021202
-0.0219383959868
-0.0219708562784
-0.0220906821681
-0.0222517403414
-0.0212001498409
-0.0148165939508
-0.0148153712702
-0.0210146289543
-0.022104466188
-0.0220831603416
-0.0220446552624
-0.0220142080706
-0.0219397612898
-0.0218256118418
-0.0217245108434
-0.0216890902963
-0.0217094529089
-0.0217432160933
-0.0217698587691
-0.0217872007023
-0.021797262018
-0.0218003860118
-0.021797202343
-0.0217936395984
-0.0217913331281
-0.0217908041028
-0.0217919064062
-0.0217942833407
-0.0217976416901
-0.0218014101655
-0.0218012831825
-0.0218011196878
-0.0218010275983
-0.0218010067237
-0.021801056016
-0.0218011734364
-0.0218013559401
-0.0218016105095
-0.021801988274
-0.0218029305346
-0.0218074229544
-0.0218306392835
-0.0219178592285
-0.0220196723039
-0.02099555969
-0.0148255283539
-0.0147221413775
-0.0198726236579
-0.0206875800739
-0.0206648174279
-0.0206355314042
-0.0206149303314
-0.0205681742196
-0.0204988366207
-0.0204440950539
-0.0204319616407
-0.0204515811183
-0.0204769443257
-0.0204970091965
-0.0205094592123
-0.0205168362312
-0.020518979432
-0.0205159362279
-0.0205127540256
-0.0205107868242
-0.0205104708558
-0.0205116685065
-0.0205141882324
-0.0205176313482
-0.0205180574095
-0.0205177429176
-0.0205175110106
-0.0205173669049
-0.0205173082244
-0.0205173286978
-0.0205174210039
-0.0205175778619
-0.0205177965418
-0.0205180957798
-0.0205187022264
-0.0205212742574
-0.0205350121165
-0.0205899082729
-0.020656456515
-0.0198688172628
-0.0147240863028
-0.0140237069524
-0.0167462558862
-0.0170902980045
-0.0170595018971
-0.0170422556239
-0.0170298904123
-0.0170060828025
-0.0169737316335
-0.0169513593748
-0.0169501304271
-0.0169638161899
-0.0169799600623
-0.016991674808
-0.0169995615673
-0.0170048577209
-0.0170068568361
-0.017004647325
-0.0170024070528
-0.0170011209516
-0.0170010218914
-0.0170021050711
-0.0170043396584
-0.0170046792473
-0.017004147606
-0.0170037196921
-0.0170034045332
-0.0170031992356
-0.0170030951387
-0.0170030801256
-0.017003141629
-0.017003268096
-0.0170034506806
-0.0170036873353
-0.0170040466738
-0.0170051229502
-0.0170107680946
-0.0170365150511
-0.0170845888659
-0.0167457402732
-0.0140191727093
-0.0109710917831
-0.0112973370864
-0.0113114722841
-0.0113009791085
-0.0112954415537
-0.0112877104173
-0.0112843963054
-0.011283220104
-0.0112841567257
-0.0112875366669
-0.0112922897305
-0.0112960351054
-0.011300218363
-0.0113042953413
-0.0113084163019
-0.0113115909927
-0.0113112340234
-0.0113104942246
-0.0113097351757
-0.0113091077579
-0.0113086802369
-0.0113082169429
-0.011307428457
-0.0113067720781
-0.0113062590496
-0.0113058859844
-0.0113056413632
-0.0113055089179
-0.0113054705503
-0.0113055086559
-0.0113056074457
-0.0113057537899
-0.0113059364473
-0.0113061521402
-0.0113064366517
-0.0113071453424
-0.0113102637935
-0.011320350285
-0.0113033303097
-0.010974676034
-0.0140138936906
-0.0167424525025
-0.017085935772
-0.0170478299071
-0.0170268738947
-0.0170160582192
-0.0170006285828
-0.0169805841684
-0.0169661467576
-0.0169649473571
-0.0169732838382
-0.0169833075538
-0.0169933396402
-0.0169989869402
-0.0170046526361
-0.0170086572515
-0.0170084154914
-0.0170075050475
-0.0170066244525
-0.0170059955746
-0.0170056594182
-0.0170051291988
-0.0170049193382
-0.0170047979433
-0.017004777192
-0.0170048443601
-0.0170049799938
-0.0170051666634
-0.0170053886236
-0.0170056371114
-0.0170059052957
-0.0170061911762
-0.0170064967712
-0.0170068970529
-0.0170079884326
-0.0170136211817
-0.0170393306373
-0.0170873436617
-0.0167482625638
-0.0140211042158
-0.0187648765869
-0.021291168498
-0.0214210400557
-0.0213620948437
-0.0213417288705
-0.0213346656051
-0.0213196794194
-0.0212947349524
-0.0212737212535
-0.0212680058984
-0.021273529714
-0.0212815966855
-0.0212882351032
-0.0212927441585
-0.021295140056
-0.0212960091765
-0.0212961941543
-0.0212963425352
-0.0212966495192
-0.021297148179
-0.0212978032764
-0.0212985253377
-0.0212992474207
-0.0212995714953
-0.0212998390459
-0.021300056704
-0.0213002276642
-0.0213003571427
-0.0213004511493
-0.0213005167104
-0.0213005604826
-0.0213005900871
-0.0213006196853
-0.0213007486342
-0.0213017071891
-0.0213080150083
-0.0213380462817
-0.0214122131481
-0.0212917068334
-0.0187698468326
-0.0212510970075
-0.0225340001
-0.0225721497931
-0.0224849644088
-0.0224568919884
-0.0224461468708
-0.0224216162003
-0.0223802260661
-0.0223431658742
-0.0223296118984
-0.0223340877998
-0.0223431543082
-0.0223509552277
-0.0223561385885
-0.0223589842994
-0.0223602483421
-0.0223608755201
-0.0223614443128
-0.0223621228604
-0.0223629235884
-0.0223637895978
-0.0223646571941
-0.0223654445027
-0.0223659730643
-0.0223661149068
-0.0223661941714
-0.0223662293851
-0.0223662330687
-0.022366215461
-0.0223661848261
-0.0223661476765
-0.0223661115133
-0.0223661004087
-0.0223662971737
-0.0223679806982
-0.0223783445877
-0.0224243192782
-0.0225401926195
-0.0225246666091
-0.0212594059366
-0.0217954151527
-0.0229349025338
-0.0229179857658
-0.0227992659283
-0.0227618133707
-0.0227462286551
-0.0227102963879
-0.0226498081009
-0.0225925247056
-0.0225691355014
-0.0225733007319
-0.0225848111805
-0.0225946720601
-0.0226013209362
-0.0226050845787
-0.0226068379906
-0.0226077614489
-0.022608541793
-0.0226093817928
-0.0226103038233
-0.0226112502353
-0.0226121573422
-0.0226129671904
-0.0226136316665
-0.0226138982628
-0.0226139024594
-0.02261386721
-0.0226138085972
-0.0226137388327
-0.0226136662329
-0.0226135976125
-0.0226135415887
-0.0226135364669
-0.0226138699387
-0.0226164702741
-0.02263155965
-0.0226956047521
-0.0228571773354
-0.022913370626
-0.0218094200161
-0.0218503065802
-0.0229447195945
-0.0228747090018
-0.0227154733522
-0.0226644465222
-0.0226444143895
-0.0226017423742
-0.0225305786395
-0.0224533754849
-0.0224185409302
-0.0224224600222
-0.0224371365518
-0.0224496650188
-0.0224578692406
-0.0224626469555
-0.0224648878496
-0.0224660654011
-0.0224670001397
-0.0224679439963
-0.0224689408747
-0.0224699390431
-0.0224708779443
-0.0224717057267
-0.0224723820542
-0.022472835484
-0.022472807525
-0.0224727380328
-0.022472649461
-0.0224725547906
-0.022472463089
-0.0224723814345
-0.0224723208436
-0.0224723342283
-0.0224728117567
-0.0224762992364
-0.0224958441652
-0.0225768236944
-0.022782174653
-0.0229072118821
-0.02186853572
-0.0218180871816
-0.0228673067695
-0.0227426055746
-0.0225531694482
-0.0224941703076
-0.0224698915945
-0.0224169194395
-0.0223318167819
-0.0222443187503
-0.0221966137609
-0.02219931728
-0.022216920212
-0.0222320769996
-0.0222419175143
-0.022247547974
-0.0222502338881
-0.0222516415731
-0.0222527091625
-0.0222537347919
-0.0222547888473
-0.0222558317434
-0.0222567992079
-0.0222576472132
-0.0222583364291
-0.0222588441083
-0.0222588079327
-0.0222587204935
-0.0222586153668
-0.0222585063197
-0.0222584029069
-0.0222583125276
-0.0222582480609
-0.0222582738553
-0.0222588644237
-0.0222630549298
-0.0222861437604
-0.0223806781987
-0.0226222178959
-0.0228090689484
-0.0218365730049
-0.0217911373895
-0.0228122223745
-0.0226484311476
-0.0224416177836
-0.0223812220906
-0.0223538082788
-0.0222886578022
-0.0221874404764
-0.0220918268874
-0.0220305680053
-0.0220308431136
-0.022050539643
-0.0220678504206
-0.0220790743073
-0.022085457678
-0.0220885226663
-0.0220901168921
-0.0220912941488
-0.0220923882899
-0.0220934837993
-0.0220945600151
-0.0220955541501
-0.0220964177903
-0.0220971180929
-0.0220976120871
-0.0220975584354
-0.0220974608809
-0.0220973455668
-0.0220972267018
-0.0220971140598
-0.0220970157676
-0.0220969455206
-0.022096975848
-0.0220976372798
-0.0221022994462
-0.0221277890316
-0.0222315842496
-0.0224984325557
-0.0227304781523
-0.0218065131697
-0.021779296265
-0.0227911055043
-0.0226067248576
-0.0223947564715
-0.0223375804019
-0.022308139143
-0.0222312038684
-0.0221139724109
-0.0220103398545
-0.0219368698414
-0.0219342690541
-0.0219551864177
-0.0219740216654
-0.0219862869892
-0.0219932515882
-0.0219966123832
-0.0219983404968
-0.0219995991714
-0.0220007446414
-0.0220018709265
-0.0220029704526
-0.022003986212
-0.0220048617061
-0.022005564216
-0.0220060040567
-0.0220059435997
-0.0220058406236
-0.0220057190665
-0.0220055934713
-0.0220054740226
-0.022005369175
-0.022005293157
-0.0220053233426
-0.0220060225086
-0.0220109543719
-0.0220378353766
-0.0221470392794
-0.0224288457079
-0.0226878737718
-0.0217904887167
-0.0217758985817
-0.0227879908121
-0.0225959222322
-0.022385019826
-0.0223322747814
-0.0223016131213
-0.0222156828951
-0.0220861204052
-0.0219755566287
-0.0218934650469
-0.0218885450622
-0.0219100676843
-0.021929850324
-0.0219427902914
-0.0219501453589
-0.0219537010696
-0.0219555191676
-0.0219568316562
-0.0219580082071
-0.0219591544361
-0.0219602684595
-0.0219612969235
-0.0219621801952
-0.0219628857248
-0.0219632704296
-0.0219632064418
-0.0219631008976
-0.0219629760343
-0.0219628464369
-0.0219627227539
-0.0219626133936
-0.0219625330243
-0.0219625615247
-0.0219632780445
-0.0219683418994
-0.0219959116608
-0.0221078064735
-0.0223970828761
-0.0226694631695
-0.0217838187741
-0.0217753231589
-0.0227892922804
-0.0225954019529
-0.0223863914131
-0.0223366320124
-0.0223052951585
-0.0222145858873
-0.0220785267284
-0.0219633362776
-0.0218776349466
-0.0218715127807
-0.0218932865083
-0.0219135207318
-0.0219267909302
-0.0219343346003
-0.0219379913475
-0.0219398559556
-0.0219411933572
-0.0219423843989
-0.0219435404219
-0.0219446617747
-0.0219456927639
-0.0219465795371
-0.0219472896364
-0.0219476416205
-0.0219475763354
-0.0219474698466
-0.0219473436539
-0.0219472123342
-0.0219470867257
-0.0219469750774
-0.0219468924082
-0.0219469195633
-0.0219476424126
-0.0219527572058
-0.0219805944819
-0.0220935368684
-0.0223857186572
-0.0226632141473
-0.0217816332358
-0.0217752768492
-0.0227891784305
-0.0225953070062
-0.0223862897894
-0.0223364865656
-0.0223051764728
-0.0222144992295
-0.0220784801211
-0.0219632904592
-0.0218776164727
-0.0218715151221
-0.0218932922583
-0.0219135254358
-0.0219267952672
-0.0219343385565
-0.0219379937226
-0.0219398577271
-0.0219411953892
-0.0219423865245
-0.0219435426428
-0.0219446638504
-0.021945695708
-0.0219465827645
-0.021947293041
-0.0219476428644
-0.0219475776461
-0.021947471255
-0.0219473451379
-0.0219472139025
-0.0219470883203
-0.0219469766647
-0.0219468939534
-0.0219469209812
-0.0219476437696
-0.0219527584262
-0.0219805954281
-0.0220935370062
-0.0223857183752
-0.0226632133975
-0.0217816355018
-0.0217757675719
-0.0227876670538
-0.0225956535988
-0.022384746125
-0.0223319209682
-0.0223013017644
-0.0222154629918
-0.0220859918787
-0.021975358201
-0.0218934160852
-0.0218885559503
-0.0219100870023
-0.0219298654826
-0.0219428039193
-0.0219501571301
-0.0219537094405
-0.021955526269
-0.0219568394293
-0.021958015612
-0.0219591623368
-0.021960276785
-0.0219613066673
-0.0219621912095
-0.0219628976588
-0.0219632753641
-0.0219632114934
-0.0219631062186
-0.0219629815485
-0.0219628521043
-0.0219627284346
-0.0219626189766
-0.0219625384215
-0.0219625666105
-0.0219632828763
-0.0219683463265
-0.0219959152519
-0.0221078073268
-0.0223970820814
-0.0226694609283
-0.0217838228102
-0.0217791177436
-0.0227906387221
-0.0226063210959
-0.0223943630831
-0.0223371357569
-0.0223077435966
-0.0222309068606
-0.0221137896496
-0.0220100379894
-0.0219368136891
-0.0219342994684
-0.0219552275825
-0.0219740538327
-0.0219863134369
-0.0219932732218
-0.0219966299782
-0.02199835671
-0.0219996164593
-0.0220007609526
-0.0220018879978
-0.0220029904217
-0.0220040085404
-0.0220048853309
-0.0220055878105
-0.0220060163565
-0.0220059557627
-0.0220058530739
-0.0220057317405
-0.0220056059889
-0.0220054864188
-0.0220053812513
-0.0220053048445
-0.0220053346292
-0.0220060331639
-0.0220109643423
-0.0220378440221
-0.0221470440886
-0.0224288463476
-0.0226878698691
-0.0217904926992
-0.0217909605662
-0.0228117032623
-0.0226479453952
-0.0224411538507
-0.0223807555278
-0.0223533921853
-0.0222883236568
-0.0221872297132
-0.02209150454
-0.0220305354452
-0.0220309032731
-0.0220506043236
-0.0220679009282
-0.0220791163146
-0.0220854923996
-0.0220885511471
-0.0220901451075
-0.0220913232649
-0.0220924175438
-0.0220935152368
-0.022094594572
-0.0220955925182
-0.0220964578641
-0.0220971585078
-0.0220976355099
-0.0220975812179
-0.0220974837215
-0.0220973683398
-0.0220972488646
-0.0220971357599
-0.022097036956
-0.0220969659188
-0.0220969958428
-0.0220976559125
-0.0221023168264
-0.022127804555
-0.0222315941846
-0.0224984354067
-0.022730472173
-0.0218065096907
-0.021817958459
-0.0228668261118
-0.0227420588966
-0.0225526549442
-0.0224936672412
-0.0224694402357
-0.0224165475182
-0.0223315478206
-0.0222440431402
-0.0221966277938
-0.0221994097462
-0.0222170065351
-0.0222321455303
-0.0222419751132
-0.0222475895231
-0.022250268177
-0.0222516773233
-0.0222527481907
-0.0222537748921
-0.0222548313269
-0.0222558775806
-0.0222568485301
-0.0222576986624
-0.0222583896946
-0.0222588830396
-0.0222588384389
-0.0222587506327
-0.0222586451203
-0.0222585352294
-0.0222584308822
-0.0222583398275
-0.0222582742275
-0.0222582996485
-0.0222588879086
-0.022263077445
-0.0222861642669
-0.0223806894089
-0.0226222180317
-0.0228090581509
-0.0218365520429
-0.0218502523895
-0.0229443294473
-0.0228739371502
-0.0227148731991
-0.0226638233191
-0.0226438344184
-0.0226012635056
-0.0225300279564
-0.0224531698555
-0.0224185932171
-0.0224225690844
-0.0224372273371
-0.0224497368097
-0.0224579247324
-0.0224626774241
-0.0224649114128
-0.0224660912461
-0.022467029544
-0.0224679773621
-0.0224689779103
-0.0224699798347
-0.022470921935
-0.022471752339
-0.022472428682
-0.0224728597479
-0.0224728305624
-0.0224727604411
-0.0224726711482
-0.0224725756494
-0.0224724831358
-0.0224724008181
-0.0224723392643
-0.0224723517404
-0.0224728282333
-0.0224763136168
-0.0224958549353
-0.0225768236664
-0.0227821633306
-0.0229071890353
-0.0218684815701
-0.0217954343501
-0.0229346354116
-0.0229173310346
-0.0227983897179
-0.0227608045132
-0.0227452695604
-0.0227095089925
-0.0226493190063
-0.0225923987205
-0.0225692025645
-0.0225733976816
-0.0225848871393
-0.0225947253157
-0.0226013418256
-0.0226050825192
-0.0226068300506
-0.0226077566759
-0.022608541234
-0.0226093862415
-0.0226103125422
-0.0226112626983
-0.0226121750009
-0.0226129852908
-0.0226136515798
-0.0226138950759
-0.0226138985836
-0.0226138628004
-0.0226138036009
-0.0226137330873
-0.0226136600555
-0.0226135910484
-0.0226135349053
-0.0226135295486
-0.022613862522
-0.0226164612243
-0.0226315482775
-0.0226955843166
-0.0228571452966
-0.0229133306643
-0.0218093147424
-0.021251193996
-0.0225338491397
-0.0225716987933
-0.0224842572097
-0.0224560648743
-0.0224453559607
-0.0224209850508
-0.0223798848421
-0.0223431106925
-0.0223296829799
-0.0223341707952
-0.0223432164018
-0.0223509859195
-0.0223561280154
-0.0223589563861
-0.0223602157695
-0.0223608458629
-0.0223614179142
-0.0223620998151
-0.0223629044897
-0.0223637747143
-0.0223646431904
-0.0223654300046
-0.0223659457438
-0.0223660873786
-0.0223661666839
-0.0223662018865
-0.0223662054583
-0.0223661877915
-0.0223661572132
-0.0223661204774
-0.0223660850113
-0.022366074868
-0.0223662724394
-0.0223679563563
-0.0223783195792
-0.0224242878051
-0.0225401509581
-0.0225246170594
-0.0212592681568
-0.0187650575144
-0.0212911120274
-0.0214207941706
-0.0213616561038
-0.0213412002427
-0.0213341679249
-0.0213193080205
-0.0212945804072
-0.0212737516825
-0.0212680970968
-0.0212736244816
-0.0212816601044
-0.0212882578917
-0.0212927458604
-0.0212951234488
-0.0212959842859
-0.0212961666855
-0.0212963170088
-0.021296625597
-0.0212971285978
-0.0212977861675
-0.0212985169507
-0.021299222938
-0.0212995490565
-0.0212998179117
-0.0213000365269
-0.0213002083346
-0.0213003384529
-0.0213004330784
-0.0213004991802
-0.0213005438096
-0.0213005744788
-0.0213006056575
-0.021300736166
-0.021301696404
-0.0213080043967
-0.0213380308924
-0.0214121813603
-0.0212916555496
-0.0187697311759
-0.0140139536185
-0.0167424356627
-0.0170857988273
-0.0170474838446
-0.0170264063613
-0.0170156311902
-0.0170003612649
-0.0169805491756
-0.0169662709293
-0.0169650868357
-0.0169734102296
-0.0169833757271
-0.0169935345831
-0.0169990309449
-0.0170046954376
-0.0170086520902
-0.0170083767809
-0.0170074555635
-0.0170065775032
-0.0170059499742
-0.0170056467327
-0.0170051161768
-0.0170048857173
-0.0170047671503
-0.0170047486189
-0.0170048179843
-0.0170049561638
-0.0170051454994
-0.0170053711488
-0.0170056236287
-0.0170058968012
-0.017006188662
-0.0170065011174
-0.0170069080274
-0.017008005294
-0.017013638271
-0.0170393354057
-0.0170872989366
-0.0167481499002
-0.0140210635281
-0.0147232692276
-0.0198769708938
-0.0206800672365
-0.0206350587584
-0.0205934375077
-0.0205761830336
-0.0205498224297
-0.0205130541667
-0.0204835560068
-0.0204745843739
-0.0204820174472
-0.0204938913326
-0.0205044959591
-0.0205139858305
-0.0205201202905
-0.0205244375424
-0.0205248444273
-0.0205241070542
-0.0205230793306
-0.0205219887549
-0.0205210339031
-0.020520439955
-0.0205199927601
-0.0205197828014
-0.0205197306398
-0.0205197995606
-0.0205199603705
-0.0205201903887
-0.0205204687807
-0.0205207808289
-0.0205211165887
-0.0205214729389
-0.0205218660087
-0.0205225212935
-0.0205250897479
-0.0205387745294
-0.0205934494286
-0.0206599251419
-0.0198718461608
-0.0147267145333
-0.0212608466409
-0.0225352044756
-0.0225609162412
-0.022461768821
-0.0224275010358
-0.022416703924
-0.0223985135011
-0.0223695027762
-0.0223446777119
-0.0223365630216
-0.0223408875216
-0.0223484433484
-0.0223549883939
-0.0223595077234
-0.0223619005437
-0.0223629595516
-0.0223632467241
-0.0223633100938
-0.0223633873514
-0.0223635640647
-0.022363849227
-0.022364203609
-0.022364645781
-0.0223650504711
-0.0223654258219
-0.0223657591158
-0.0223660421679
-0.022366272835
-0.0223664535297
-0.0223665899014
-0.0223666892769
-0.0223667613972
-0.0223668321366
-0.0223670861426
-0.0223688050025
-0.0223791784276
-0.0224251313846
-0.0225409594815
-0.0225252452192
-0.0212593116424
-0.024548073882
-0.0232335756108
-0.0229198718487
-0.0227679382402
-0.0227258878005
-0.0227117712882
-0.02268606083
-0.0226447049308
-0.0226072217314
-0.0225916018422
-0.0225932736432
-0.0226001392994
-0.0226064288529
-0.0226107096256
-0.0226131350573
-0.0226144069069
-0.022615085119
-0.0226155386481
-0.0226159453424
-0.022616368329
-0.0226168106259
-0.0226172500148
-0.0226176578456
-0.0226180303991
-0.0226183089756
-0.0226185357582
-0.0226187113192
-0.0226188394017
-0.0226189259035
-0.022618977874
-0.0226190027582
-0.0226190110057
-0.0226190416997
-0.02261937151
-0.0226218028797
-0.0226357777516
-0.0226964597625
-0.0228760773269
-0.0232108790109
-0.0245483186913
-0.0253772986706
-0.0234168528272
-0.0229225036725
-0.0227233776871