/*--------------------------------*- C++ -*----------------------------------*\
| =========                 |                                                 |
| \\      /  F ield         | OpenFOAM: The Open Source CFD Toolbox           |
|  \\    /   O peration     | Version:  3.0.1                                 |
|   \\  /    A nd           | Web:      www.OpenFOAM.org                      |
|    \\/     M anipulation  |                                                 |
\*---------------------------------------------------------------------------*/
FoamFile
{
    version     2.0;
    format      ascii;
    class       volScalarField;
    location    "1.2";
    object      epsilon;
}
// * * * * * * * * * * * * * * * * * * * * * * * * * * * * * * * * * * * * * //

dimensions      [0 2 -3 0 0 0 0];

internalField   nonuniform List<scalar> 
15984
(
0.00812793231658
0.00857531737702
0.00869356771719
0.0087099337209
0.0087075434576
0.00870723804791
0.00871074312191
0.00871168700912
0.00870586347536
0.00869427176821
0.00868210585717
0.00867334696362
0.00866742225937
0.00866381908347
0.00866202353096
0.00866144424106
0.00866129288262
0.00866116622208
0.00866102566955
0.00866086218136
0.0086606793992
0.008660492255
0.00866029444123
0.00866007261677
0.00865983670417
0.00865959597686
0.00865935788204
0.00865912820669
0.00865891103896
0.00865870937819
0.00865852515148
0.0086583594094
0.00865821322945
0.00865808401711
0.00865795978425
0.0086576427296
0.0086554306598
0.00863806821139
0.00853039553588
0.00810440388224
0.0104459136582
0.013183380054
0.013991031079
0.0141257139635
0.0141350261546
0.0141329191848
0.0141399848042
0.0141588745654
0.0141639875013
0.014139617694
0.0141037943435
0.0140726972272
0.0140510204636
0.0140369486937
0.0140286790673
0.0140242663611
0.0140217015894
0.0140200009795
0.0140188116247
0.0140179251959
0.0140172702161
0.0140168364926
0.0140165933165
0.0140163872561
0.0140161727353
0.014015954384
0.0140157371243
0.014015525723
0.0140153239493
0.0140151354752
0.0140149632306
0.0140148093418
0.0140146751387
0.0140145365232
0.0140141595515
0.0140112026228
0.013987665055
0.0138310056061
0.0130357740018
0.0103512081574
0.011228730203
0.0162962371707
0.0178715013469
0.0181637301212
0.0181931932498
0.0181935345991
0.0182124284531
0.0182624741888
0.0182899391231
0.0182575891418
0.0182002793748
0.0181516108363
0.0181170966515
0.0180954152649
0.0180825188272
0.018075449352
0.0180712794007
0.0180685040488
0.0180665259544
0.018065073545
0.0180640013635
0.0180632218529
0.0180627399477
0.0180624972088
0.0180622949514
0.0180620922803
0.0180618916166
0.0180616963045
0.0180615093059
0.0180613344876
0.0180611752067
0.0180610337051
0.0180609079949
0.0180607220641
0.0180597643056
0.0180518492625
0.017994331696
0.0176520605544
0.0160861380217
0.0110975331693
0.0114821619766
0.0179142334537
0.0200201938582
0.0204100921263
0.0204440439459
0.020448763164
0.0204978072187
0.0206168529449
0.0207085176491
0.0206898132852
0.0206177094834
0.0205538753687
0.0205097444766
0.0204822626678
0.0204662063967
0.020457302481
0.020452081003
0.0204486307222
0.0204461563053
0.0204443275566
0.0204429546375
0.0204419376985
0.0204412249839
0.0204408015007
0.0204405862085
0.0204403962185
0.020440210155
0.0204400295447
0.0204398568021
0.0204396955537
0.0204395496103
0.0204394210046
0.0204393023944
0.0204390505405
0.0204373798687
0.0204239597392
0.0203326359523
0.0198279782416
0.0176861980745
0.0113309797639
0.0115667805389
0.018632997958
0.0210032783343
0.0214688393028
0.0215354375292
0.0215501425137
0.0216066051946
0.0217539069592
0.0219542544053
0.0219770280519
0.0218989246458
0.0218231282999
0.0217705203057
0.021738400446
0.0217200457487
0.0217098659586
0.0217039287532
0.0217000588824
0.0216973139118
0.0216952666097
0.0216937366141
0.0216925892943
0.0216917692665
0.021691236627
0.0216909553614
0.0216907734868
0.0216905964188
0.021690425368
0.0216902622884
0.0216901106434
0.0216899738709
0.0216898543035
0.0216897384225
0.0216894199435
0.0216871030565
0.0216690549575
0.0215514127013
0.0209318028425
0.0184325079685
0.0114037555024
0.011596677457
0.0188855858211
0.0213684149974
0.0219374054501
0.0219997448744
0.0220181141991
0.0221010049395
0.0222651362749
0.0225080007653
0.0225921299511
0.0225158015364
0.0224313181576
0.0223717548535
0.0223357201999
0.0223154043081
0.0223044307025
0.0222979719716
0.0222938401315
0.0222909554032
0.0222888066063
0.0222871891244
0.0222860007315
0.0222851435648
0.0222845796561
0.0222842785778
0.0222840994719
0.0222839267643
0.0222837599813
0.0222836012681
0.0222834538279
0.0222833203997
0.0222832028967
0.0222830832008
0.0222827063761
0.022279919224
0.0222587220094
0.0221241622751
0.0214358719441
0.0187452606614
0.0114264326714
0.0116080637947
0.0189349346524
0.0214984641501
0.0220603195846
0.0221045467279
0.0221249229707
0.0222389437398
0.0224569995836
0.0227096299631
0.022857854161
0.0227871792411
0.0226965372339
0.0226315604566
0.0225923470447
0.0225704113516
0.0225588122684
0.0225520405106
0.0225477308272
0.0225447595169
0.0225425885297
0.022540958358
0.0225397522635
0.022538900414
0.0225383473199
0.0225380550549
0.0225378782776
0.0225377076361
0.0225375421188
0.0225373850838
0.022537238184
0.0225371045099
0.0225369850547
0.022536858136
0.022536440619
0.0225333694731
0.0225103800809
0.0223666047253
0.0216430310117
0.0188630384064
0.0114332928352
0.011613565823
0.018921983477
0.0215127233178
0.0220518512514
0.022075041312
0.0220965682817
0.022239136047
0.0225023418666
0.0227670087643
0.0229639913493
0.0228982175459
0.0228030792723
0.0227340186171
0.0226923754156
0.0226692404853
0.0226570540948
0.0226501817334
0.022645717198
0.0226427117336
0.0226405261617
0.0226388924229
0.0226376865656
0.0226368532938
0.0226363319456
0.0226360656671
0.0226358893869
0.0226357195615
0.022635555351
0.0226353986351
0.0226352514727
0.0226351165581
0.0226349944797
0.0226348611458
0.0226344206088
0.0226312038061
0.0226073414756
0.022459230348
0.0217198479532
0.0189030265557
0.011435250908
0.0116172286996
0.0189064874818
0.0215010581668
0.022022467029
0.0220282792689
0.0220506377415
0.0222146239883
0.0225055487745
0.0227820098411
0.0230051578832
0.0229414812602
0.0228430522601
0.0227711994138
0.0227278957255
0.0227039300232
0.022691365112
0.0226843764167
0.0226798572126
0.0226768247425
0.0226746431022
0.0226730095688
0.02267181737
0.0226710006912
0.0226704988561
0.0226702547419
0.0226700783962
0.0226699089645
0.0226697456532
0.0226695893877
0.0226694418731
0.0226693059167
0.0226691816892
0.0226690448016
0.022668592505
0.0226653112642
0.0226410802154
0.0224911890649
0.0217455824278
0.0189152992244
0.0114357683051
0.0116193624979
0.018900428854
0.0214933784521
0.0220064662655
0.0220017759419
0.0220248018582
0.0222008197232
0.0225038015159
0.0227874181901
0.0230198851104
0.0229564077506
0.022856154819
0.0227828659408
0.0227386895789
0.0227143487379
0.0227015742826
0.0226944983863
0.0226899699567
0.022686927497
0.0226847460447
0.0226831209639
0.0226819429048
0.0226811348091
0.0226806410661
0.0226804057309
0.0226802297316
0.0226800603322
0.0226798975828
0.0226797417304
0.0226795942246
0.0226794577718
0.022679332627
0.0226791943129
0.0226787370667
0.0226754322021
0.0226510743591
0.0225005841183
0.021752952717
0.018918546151
0.011435889016
0.0116193802774
0.0189005960287
0.0214934992183
0.0220066508361
0.0220020534823
0.0220250603324
0.022201018115
0.022503917705
0.0227876046229
0.0230199171789
0.0229563899184
0.022856130593
0.0227828446742
0.0227386748741
0.022714337191
0.0227015639918
0.0226944929028
0.0226899664011
0.0226869227528
0.0226847412976
0.0226831175202
0.0226819383087
0.0226811309848
0.0226806380444
0.0226804034245
0.022680227568
0.0226800582998
0.0226798957297
0.0226797401666
0.0226795928976
0.0226794566344
0.0226793316968
0.0226791934279
0.0226787361396
0.0226754309018
0.0226510723793
0.0225005799778
0.0217529465952
0.0189185391248
0.0114358911009
0.0116172558397
0.0189069438944
0.0215014154011
0.0220229941905
0.022028975461
0.0220513263697
0.0222151390982
0.0225058654303
0.0227825345602
0.0230052407879
0.0229414267316
0.0228429779839
0.0227711328659
0.022727847688
0.022703889804
0.0226913341117
0.0226843561797
0.0226798426832
0.0226768094088
0.022674628537
0.0226729971848
0.0226718048208
0.0226709889922
0.0226704893275
0.0226702474781
0.0226700714939
0.0226699024888
0.0226697397518
0.0226695841221
0.0226694372766
0.0226693019139
0.0226691782521
0.0226690417036
0.0226685892419
0.0226653065834
0.0226410733536
0.022491175551
0.0217455629275
0.0189152769307
0.0114357737265
0.0116135884583
0.0189226416214
0.0215132672295
0.0220526435168
0.0220759731352
0.0220974828302
0.0222398768013
0.0225027903499
0.0227677533988
0.0229640810478
0.0228981203055
0.0228029566977
0.0227339087599
0.0226922915857
0.0226691742412
0.0226569886251
0.0226501364987
0.0226456809847
0.0226426820832
0.0226405003481
0.0226388620529
0.0226376584977
0.0226368284041
0.0226363114307
0.0226360510092
0.022635875421
0.0226357062176
0.0226355430004
0.0226353870941
0.022635241085
0.0226351069666
0.0226349854519
0.0226348527741
0.0226344118271
0.0226311925363
0.0226073263546
0.0224592034815
0.0217198116268
0.0189029863968
0.0114352583188
0.0116080397796
0.018935599575
0.0214990907964
0.0220612418149
0.022105566233
0.0221259166725
0.0222397684569
0.022457478807
0.0227103878261
0.0228578873188
0.0227870047381
0.0226963417381
0.0226313969257
0.0225922195294
0.0225703078583
0.0225587175026
0.0225519773359
0.0225476604711
0.0225447061169
0.0225425388492
0.0225409080864
0.0225397020024
0.0225388560135
0.022538311702
0.0225380267724
0.0225378508663
0.0225376809525
0.0225375168476
0.0225373609766
0.0225372157019
0.0225370830308
0.0225369643123
0.0225368370684
0.0225364194458
0.0225333441324
0.0225103489641
0.0223665569391
0.0216429705213
0.0188629758542
0.0114332989543
0.0115965804631
0.0188861036425
0.0213690341631
0.0219382870018
0.0220007006867
0.0220190492838
0.022101766005
0.0222655886541
0.022508568352
0.0225920265469
0.022515520877
0.0224310388842
0.0223715375077
0.022335535213
0.0223152276686
0.0223043154169
0.0222978600678
0.0222937300615
0.0222908579488
0.0222887168309
0.0222871082609
0.022285922947
0.0222850730781
0.0222845168442
0.0222842240554
0.0222840468223
0.0222838751854
0.0222837099009
0.0222835530957
0.0222834071647
0.0222832748206
0.0222831581879
0.0222830377911
0.0222826602052
0.0222798675232
0.0222586624426
0.0221240811467
0.0214357774469
0.0187451694165
0.0114264329663
0.0115666114341
0.0186332782156
0.0210044997919
0.0214695661098
0.0215362574738
0.0215509576604
0.0216072385991
0.0217550945958
0.0219544693972
0.0219767268483
0.0218985164413
0.0218227784044
0.0217702400201
0.021738127075
0.0217197977275
0.0217097027152
0.0217037621406
0.0216998967554
0.021697170361
0.0216951303784
0.021693607452
0.0216924672285
0.0216916545538
0.02169113364
0.0216908633771
0.0216906828377
0.0216905072839
0.0216903377603
0.0216901766925
0.0216900269642
0.0216898914859
0.0216897725498
0.0216896569034
0.0216893358863
0.021687013267
0.0216689564263
0.0215512893275
0.0209316670225
0.0184323849984
0.0114037442664
0.0114819202848
0.0179141859816
0.020020830881
0.0204114333812
0.0204457584336
0.0204504455014
0.0204991560898
0.0206174602013
0.0207083684314
0.0206893384748
0.0206172196686
0.0205534578882
0.0205093847329
0.0204819098078
0.0204659777926
0.020457079762
0.020451871267
0.0204484326227
0.0204459702284
0.0204441498472
0.0204427907258
0.0204417752753
0.0204410762013
0.0204406658907
0.0204404583725
0.0204402700635
0.0204400856236
0.020439906434
0.0204397354671
0.0204395763537
0.0204394316219
0.0204393045826
0.0204391861199
0.0204389324377
0.0204372562004
0.0204238272805
0.0203324790823
0.0198278112734
0.017686052161
0.0113309529054
0.0112284653997
0.0162959957239
0.0178715623853
0.0181643754357
0.0181940629614
0.018194432298
0.0182130658497
0.0182625803511
0.0182895645134
0.0182570639878
0.0181997949203
0.0181511973462
0.0181167018495
0.0180951339586
0.0180822860322
0.0180752367505
0.0180710795747
0.0180683189564
0.0180663540008
0.0180649116671
0.0180638487183
0.0180630805759
0.0180626121629
0.0180623747481
0.0180621739214
0.0180619725819
0.0180617732908
0.0180615791693
0.0180613938116
0.0180612208774
0.0180610632875
0.0180609238241
0.0180607992483
0.0180606136928
0.018059652856
0.0180517315027
0.0179941941296
0.0176519121412
0.0160860091359
0.0110974995665
0.0104457023929
0.0131830713175
0.0139908561475
0.0141258326225
0.0141352895702
0.0141332040923
0.0141401369619
0.0141587253945
0.0141636009459
0.0141391801743
0.0141034264878
0.0140723286985
0.0140507500198
0.0140367546677
0.0140285324546
0.0140241375203
0.0140215864477
0.0140199013559
0.0140187194352
0.014017842926
0.0140172046528
0.0140167762755
0.0140165427917
0.0140163370389
0.0140161229774
0.0140159051065
0.0140156884905
0.0140154777769
0.0140152771372
0.0140150901192
0.0140149195166
0.0140147676636
0.0140146353448
0.0140144986466
0.0140141218596
0.014011162685
0.0139876141858
0.0138309409885
0.0130357137633
0.010351197138
0.00812783916048
0.00857514601313
0.00869337491316
0.00870979458984
0.00870744454003
0.00870714215423
0.00871059925541
0.00871148611054
0.00870563255667
0.00869404356682
0.00868192302693
0.00867323798876
0.0086673594112
0.00866378410087
0.00866200927018
0.00866144170487
0.00866129927758
0.00866118123028
0.00866104919663
0.00866089263473
0.00866071935162
0.00866053933403
0.00866034241317
0.0086601204935
0.00865988456986
0.00865964394126
0.00865940611684
0.00865917688587
0.00865896045993
0.00865875981773
0.00865857686162
0.00865841278361
0.00865826845886
0.00865814147119
0.00865801940654
0.00865770409555
0.00865549168645
0.00863812214407
0.00853044098083
0.00810444480946
0.0103708906925
0.0130665287656
0.0138670287625
0.0140064082995
0.0140162139232
0.014017417157
0.0140305093005
0.0140535967347
0.014068900006
0.0140656654659
0.0140529391199
0.0140402206057
0.0140308077014
0.014026267753
0.0140233521094
0.0140218443574
0.0140209639951
0.0140202655761
0.0140196788648
0.0140191832911
0.0140187555082
0.014018385995
0.0140180402267
0.0140177220955
0.0140174304443
0.0140171642767
0.0140169230888
0.0140167066935
0.0140165138799
0.0140163443886
0.0140161973873
0.0140160714869
0.0140159669238
0.0140158528956
0.0140155042585
0.0140125515603
0.0139890161801
0.013832322825
0.0130370657989
0.0103525803207
0.0121476919639
0.0139184746859
0.0146102285855
0.0147474923491
0.0147619852005
0.0147634250606
0.0147725040493
0.0147916905626
0.0148076161122
0.014809311491
0.0148024898462
0.0147947421873
0.0147885764497
0.0147844559685
0.0147818705702
0.0147802045152
0.0147790716703
0.0147782830988
0.0147777280272
0.014777334173
0.0147770585854
0.0147768764798
0.0147767668655
0.0147767089773
0.0147766767891
0.0147766625019
0.0147766609771
0.0147766684877
0.0147766821536
0.0147767003645
0.0147767221578
0.0147767468865
0.0147767729738
0.0147767705517
0.014776455908
0.014773245754
0.0147484948254
0.0145960719549
0.0139006999033
0.0121373104063
0.0142115514103
0.015578524874
0.0163828268369
0.0165608443124
0.0165826013266
0.0165860500014
0.0166004880768
0.0166303448379
0.0166564337033
0.0166619203077
0.0166546272381
0.0166456595668
0.0166384927076
0.0166334682583
0.0166302723581
0.0166282598825
0.016626949733
0.0166260803258
0.0166255001287
0.0166251183334
0.0166248752949
0.0166247323285
0.0166246655322
0.0166246542237
0.0166246706106
0.0166246940766
0.0166247205365
0.016624747623
0.0166247739586
0.016624799329
0.0166248240147
0.0166248482721
0.016624868353
0.0166248289623
0.0166242177848
0.0166189150362
0.0165821692262
0.0163793616536
0.015558918066
0.0141692331608
0.0149728828865
0.0165315842533
0.0174660519457
0.0176851954458
0.0177151563197
0.017720945046
0.0177406189228
0.0177810880886
0.0178184880069
0.0178266243786
0.0178164794298
0.0178045057355
0.0177954257305
0.0177893835798
0.0177856043192
0.0177832688707
0.0177817872887
0.0177808256711
0.01778019402
0.0177797861923
0.0177795316846
0.0177793849403
0.017779316305
0.0177793041814
0.0177793302961
0.0177793666165
0.0177794014292
0.0177794329768
0.0177794607985
0.0177794854159
0.0177795078995
0.0177795289225
0.0177795418564
0.0177794604879
0.0177785226491
0.0177710094361
0.0177222377654
0.0174700898175
0.0165093281846
0.014909647344
0.0152534476429
0.0169855110101
0.0180121295205
0.0182694310817
0.0183117319809
0.0183205257637
0.0183410094524
0.0183830953652
0.0184361021365
0.0184506847181
0.0184384298187
0.0184233940585
0.0184122843914
0.0184052178616
0.0184009346306
0.0183983348774
0.0183967088747
0.0183956696076
0.0183949948841
0.0183945596803
0.0183942897936
0.0183941336487
0.018394058706
0.0183940414682
0.0183940636444
0.0183941047181
0.0183941433471
0.0183941770522
0.0183942057618
0.0183942303928
0.0183942523056
0.0183942724154
0.0183942811998
0.0183941640743
0.01839294379
0.0183835907342
0.0183252637792
0.0180355168606
0.0169694809208
0.0151801045665
0.0153534351651
0.0171686026234
0.0182501023873
0.0185410681975
0.0185879718806
0.0185984940162
0.018623453078
0.0186673584043
0.0187255506626
0.0187505272702
0.0187379779709
0.0187205686571
0.0187077094137
0.0186997130293
0.0186949988302
0.0186922067336
0.0186904689788
0.0186893733545
0.0186886704075
0.0186882184543
0.0186879380566
0.0186877778127
0.0186877006743
0.01868768226
0.0186877035938
0.0186877462738
0.0186877866027
0.0186878212176
0.0186878503155
0.0186878749243
0.0186878964693
0.01868791585
0.0186879212976
0.018687776946
0.0186863530983
0.0186757267992
0.0186110459098
0.0182973885085
0.0171680110058
0.0152777332498
0.0153855105459
0.0172266822715
0.0183412900933
0.0186428709785
0.0186884365262
0.0186999722737
0.0187319137216
0.0187845993618
0.0188439858777
0.0188807980862
0.0188692949613
0.0188502801736
0.0188360739384
0.018827322277
0.0188222559263
0.0188193152029
0.0188175034493
0.0188163681451
0.0188156478426
0.0188151899136
0.018814906951
0.0188147458989
0.0188146704804
0.0188146544235
0.018814678167
0.0188147222562
0.0188147632427
0.0188147980601
0.0188148270902
0.0188148512246
0.0188148720519
0.0188148902977
0.0188148926678
0.0188147302716
0.0188131821995
0.0188018082804
0.0187335192027
0.0184068451095
0.0172451257849
0.0153114741073
0.0153941238472
0.0172375752937
0.0183662845617
0.0186687360467
0.0187099792156
0.0187220721496
0.0187615810109
0.0188238009814
0.0188857366565
0.0189324034876
0.0189221887361
0.0189021217356
0.0188869434581
0.0188776314874
0.0188723015865
0.0188692399627
0.0188673886837
0.0188662248637
0.0188654961302
0.0188650359041
0.018864752927
0.0188645933417
0.0188645213898
0.0188645093383
0.0188645369872
0.0188645821084
0.0188646233259
0.0188646582008
0.018864686977
0.018864710561
0.0188647305671
0.01886474762
0.0188647475603
0.0188645748753
0.0188629615971
0.0188512092733
0.0187811447907
0.0184483063815
0.0172722114095
0.015322362034
0.0153961510318
0.0172362794703
0.0183689645995
0.0186692982361
0.0187059008855
0.018718270169
0.0187641028246
0.0188335758317
0.0188987081048
0.0189513420348
0.018941936997
0.0189211781478
0.0189053609942
0.0188956768982
0.0188901705478
0.018887027676
0.0188851483584
0.0188839712007
0.0188832375435
0.0188827777879
0.0188824956638
0.0188823386418
0.0188822697155
0.0188822606886
0.018882291541
0.0188823374031
0.018882378713
0.0188824136642
0.018882442278
0.0188824654722
0.018882484833
0.0188825009438
0.0188824993946
0.0188823215342
0.0188806786184
0.0188687600717
0.0187979339855
0.0184625397716
0.0172808264381
0.0153255921317
0.0153967138509
0.0172344875832
0.0183676009501
0.0186662430495
0.0186998876438
0.0187123864218
0.0187618625925
0.0188350701396
0.0189023693656
0.0189574488557
0.0189483321749
0.0189272083562
0.0189110701904
0.0189011978688
0.0188956063536
0.0188924217771
0.0188905258855
0.0188893445688
0.0188886090404
0.0188881496847
0.0188878690056
0.0188877137916
0.0188876464843
0.0188876392444
0.01888767164
0.0188877179088
0.0188877592702
0.018887794306
0.018887822899
0.0188878459395
0.0188878649818
0.0188878806229
0.0188878783989
0.018887698415
0.0188860445625
0.0188740669435
0.0188029751746
0.0184667136752
0.0172831840472
0.0153264242549
0.0153967309347
0.0172345313813
0.0183676256259
0.0186662598548
0.0186999011883
0.0187124052379
0.0187618738189
0.0188350821236
0.0189024011388
0.0189574557869
0.0189483284934
0.0189272029504
0.0189110652059
0.0189011941286
0.0188956032381
0.0188924188856
0.0188905238464
0.0188893430849
0.0188886075937
0.0188881483373
0.0188878678364
0.0188877126044
0.0188876454532
0.0188876383918
0.0188876709674
0.0188877173173
0.0188877587356
0.0188877938393
0.0188878225098
0.0188878456199
0.0188878647153
0.0188878803996
0.0188878781796
0.0188876981522
0.0188860441332
0.0188740661908
0.0188029736488
0.0184667113505
0.0172831807868
0.0153264209008
0.0153961937943
0.0172364011293
0.0183690351523
0.0186693470718
0.0187059365782
0.018718307941
0.018764136761
0.0188336104865
0.0188988003355
0.0189513595056
0.0189419251534
0.0189211614236
0.018905345435
0.0188956648003
0.018890160119
0.0188870183452
0.0188851414344
0.0188839657766
0.018883232597
0.0188827732358
0.0188824914942
0.0188823346336
0.0188822661234
0.018882257642
0.0188822890263
0.0188823351428
0.0188823766195
0.0188824117731
0.0188824405736
0.0188824639635
0.0188824834666
0.0188824996781
0.0188824981678
0.0188823201637
0.0188806767057
0.0188687571752
0.0187979287449
0.0184625321943
0.0172808161689
0.0153255803404
0.0153941751549
0.0172377512235
0.0183663928488
0.0186688091911
0.0187100289231
0.0187221228195
0.0187616325914
0.0188238517883
0.0188858682925
0.0189324210766
0.0189221652296
0.0189020920191
0.0188869160445
0.0188776090314
0.0188722819161
0.0188692211834
0.0188673740203
0.0188662122661
0.0188654853345
0.0188650260898
0.018864743139
0.0188645841664
0.0188645130649
0.0188645019706
0.0188645306577
0.0188645761832
0.0188646176459
0.0188646528403
0.0188646818432
0.0188647057272
0.0188647259009
0.0188647430403
0.0188647430271
0.0188645700802
0.0188629558654
0.0188512018863
0.0187811336074
0.0184482915767
0.0172721926798
0.0153223391161
0.0153855433534
0.0172268699971
0.0183414204372
0.018642958045
0.018688494473
0.0187000312795
0.0187319760654
0.0187846550719
0.0188441168835
0.0188807989989
0.0188692505798
0.0188502304209
0.0188360296951
0.0188272844547
0.0188222214848
0.0188192838311
0.0188174773082
0.0188163427638
0.0188156259685
0.0188151694211
0.0188148871294
0.0188147268808
0.0188146527945
0.018814638154
0.01881466335
0.0188147079493
0.0188147492176
0.0188147844172
0.0188148137175
0.0188148381912
0.0188148591914
0.0188148775066
0.0188148797325
0.0188147169735
0.0188131674913
0.0188017912339
0.0187334970663
0.018406818779
0.0172450957393
0.0153114340294
0.0153534281605
0.0171687612308
0.018250248929
0.0185411636975
0.0185880401188
0.0185985628423
0.0186235209013
0.0186674227523
0.0187256410425
0.0187504912881
0.0187379018375
0.0187204914191
0.018707642076
0.0186996516654
0.0186949392894
0.0186921565962
0.0186904218382
0.0186893279977
0.0186886286538
0.0186881788536
0.0186879003299
0.0186877413565
0.0186876658239
0.0186876490816
0.018687672027
0.0186877154227
0.0186877560482
0.0186877910449
0.0186878204955
0.0186878453769
0.0186878670746
0.0186878864963
0.0186878917001
0.0186877467039
0.0186863211015
0.0186756918693
0.0186110046847
0.0182973436924
0.0171679652413
0.015277668188
0.0152533973932
0.0169856136901
0.0180123792919
0.0182695540357
0.0183118413793
0.0183206335331
0.0183411042268
0.0183832796319
0.0184361241977
0.0184505963429
0.018438313639
0.0184232840942
0.0184121861697
0.018405121978
0.0184008441599
0.0183982565303
0.0183966329865
0.0183955963536
0.0183949259935
0.0183944931999
0.018394225431
0.0183940711223
0.0183939979561
0.0183939825843
0.0183940065926
0.0183940482683
0.0183940872001
0.0183941212025
0.0183941502734
0.0183941752315
0.0183941973061
0.0183942174212
0.0183942260426
0.0183941079775
0.0183928857045
0.0183835292138
0.0183251952899
0.018035446452
0.0169694147198
0.0151800062619
0.0149727981396
0.0165316128977
0.0174662151213
0.0176854579904
0.0177154643439
0.0177212513363
0.0177408632728
0.0177812012995
0.0178184343003
0.0178264866426
0.0178163282644
0.0178043637866
0.0177952940096
0.0177892548202
0.0177854914359
0.0177831607443
0.0177816833784
0.017780725333
0.0177800974605
0.017779692191
0.0177794403018
0.0177792951247
0.0177792285142
0.0177792181843
0.0177792458477
0.0177792824953
0.0177793175867
0.017779349364
0.0177793774878
0.017779402485
0.0177794251447
0.017779446386
0.0177794591984
0.0177793769997
0.01777843712
0.0177709202901
0.0177221415037
0.0174699928048
0.016509240611
0.0149095136927
0.0142114770014
0.0155784966689
0.0163828813405
0.0165610099858
0.0165828141009
0.0165862707616
0.0166006494563
0.0166303703311
0.0166563258707
0.0166617548487
0.0166544609221
0.016645501569
0.0166383429657
0.0166333323882
0.0166301477036
0.0166281401458
0.0166268344328
0.0166259687912
0.0166253921036
0.0166250127073
0.0166247716073
0.0166246304686
0.01662456515
0.0166245551017
0.0166245718689
0.0166245955962
0.0166246223155
0.0166246496093
0.0166246763157
0.0166247021332
0.0166247271956
0.0166247519179
0.0166247721324
0.0166247324243
0.0166241195526
0.0166188132376
0.0165820598467
0.0163792500624
0.0155588174615
0.0141690882195
0.0121476929032
0.0139184065115
0.014610183612
0.0147475320968
0.0147620641981
0.0147635157898
0.0147725505985
0.0147916325651
0.0148074650239
0.014809129317
0.0148023204553
0.0147945772586
0.0147884311267
0.0147843300679
0.0147817569813
0.0147800952824
0.0147789665151
0.0147781806175
0.0147776282824
0.0147772357493
0.0147769616195
0.0147767801233
0.0147766715312
0.0147766139034
0.0147765819047
0.0147765677748
0.0147765664947
0.0147765742678
0.0147765884908
0.0147766074005
0.0147766299059
0.0147766554833
0.0147766821241
0.0147766800496
0.0147763642078
0.0147731504546
0.0147483900679
0.0145959583468
0.0139005921464
0.0121371889874
0.0103708171629
0.013066354956
0.013866841561
0.0140063449858
0.0140162235622
0.0140174419347
0.0140304489492
0.014053390979
0.0140685913254
0.0140653367165
0.0140526529702
0.0140399667791
0.0140306337065
0.0140261125714
0.0140232304473
0.0140217336353
0.0140208597446
0.0140201585397
0.014019578326
0.0140190782024
0.0140186447885
0.0140182721407
0.0140179236513
0.0140176037773
0.0140173106941
0.0140170432806
0.0140168012414
0.0140165843138
0.014016392003
0.0140162235454
0.0140160778994
0.0140159541775
0.0140158514625
0.014015739518
0.0140153901473
0.0140124315658
0.0139888769606
0.0138321512483
0.0130368890131
0.0103525066957
0.0111144701577
0.0160717114883
0.0176262219611
0.0179342511138
0.0179693176798
0.017975462967
0.0179996621672
0.0180458324237
0.0180868429303
0.018099960421
0.0180947071095
0.0180852541149
0.0180769747858
0.0180725590299
0.0180705188573
0.0180693568537
0.0180687000249
0.0180681764537
0.0180676901524
0.0180672348355
0.0180668004621
0.0180663836642
0.0180659925456
0.0180656244033
0.0180652824653
0.0180649684032
0.0180646824918
0.0180644248198
0.0180641947448
0.0180639911926
0.0180638131908
0.0180636571268
0.0180635182668
0.0180633077387
0.0180623178013
0.0180543470457
0.0179967106608
0.017654427118
0.016088505951
0.0111002129479
0.0141542588922
0.0155534703977
0.0163734494926
0.0165665227303
0.0165954275735
0.0165998562653
0.016608958169
0.0166262093953
0.0166412471816
0.0166449968715
0.0166414450392
0.0166366234699
0.0166326923891
0.0166301703725
0.016628670988
0.0166276593861
0.0166269400634
0.0166264067943
0.016625998307
0.0166256809113
0.0166254336372
0.0166252443358
0.0166251017776
0.0166250024415
0.0166249369136
0.0166248981316
0.0166248803451
0.0166248785754
0.0166248886398
0.0166249073297
0.0166249322913
0.0166249611409
0.0166249883537
0.0166249550842
0.0166243496856
0.0166190457442
0.0165822914749
0.0163794898132
0.0155591085488
0.0141704103749
0.0169848439196
0.0169053109833
0.0175677579646
0.0177489941167
0.0177788579557
0.0177848391997
0.0177976068852
0.0178209630501
0.017842503956
0.0178504676892
0.0178488519869
0.0178449667754
0.0178415408283
0.0178390760217
0.0178374585844
0.0178363971783
0.0178356835559
0.0178351922228
0.0178348470423
0.0178346027093
0.0178344308098
0.0178343137367
0.0178342391102
0.0178341970883
0.0178341805598
0.0178341818629
0.017834196012
0.0178342191185
0.0178342480595
0.0178342806687
0.0178343153771
0.0178343503368
0.0178343766776
0.0178343087121
0.0178334463425
0.0178268215048
0.01778601826
0.0175877281511
0.0169100287682
0.0169741607773
0.0181447945515
0.0177667894811
0.0184052000024
0.0185945868931
0.0186282718588
0.0186359821219
0.0186517605549
0.0186796272913
0.0187057829997
0.0187153405984
0.0187129466647
0.0187080343464
0.0187039728552
0.018701174143
0.0186993666421
0.0186982201767
0.0186974814589
0.0186969949767
0.0186966684192
0.0186964485989
0.0186963024135
0.0186962094363
0.0186961559876
0.0186961319588
0.0186961294307
0.0186961407513
0.0186961611762
0.0186961875699
0.0186962174996
0.018696249393
0.0186962821067
0.0186963137757
0.0186963314465
0.0186962169327
0.0186950592476
0.0186868813191
0.0186401500761
0.0184297360787
0.0177671506938
0.0181146142026
0.0186193533477
0.0182104954067
0.0188642732245
0.0190668831046
0.0191044610702
0.0191138302679
0.0191325049371
0.0191637517387
0.0191955467803
0.0192075187226
0.0192041262134
0.0191977609657
0.019192767489
0.0191895182231
0.0191875027193
0.0191862599263
0.0191854792765
0.0191849784749
0.0191846506666
0.0191844349248
0.0191842953444
0.0191842093399
0.0191841621627
0.0191841432933
0.0191841449226
0.0191841594111
0.0191841814008
0.0191842081658
0.0191842376341
0.0191842684477
0.0191842996296
0.0191843290933
0.0191843399788
0.0191841845665
0.0191827681701
0.0191732361506
0.0191211016515
0.0188959200263
0.0182106779783
0.0185805040023
0.0188057260022
0.0184095596071
0.0190825248697
0.0192944297978
0.0193325331402
0.0193431475407
0.0193667842111
0.019404303947
0.019441572909
0.0194577645683
0.0194541772963
0.019446591586
0.0194407211299
0.0194370235945
0.0194348086511
0.0194334767583
0.019432652672
0.019432133024
0.0194317982237
0.0194315804462
0.0194314411886
0.0194313567906
0.0194313114113
0.0194312941798
0.0194312970913
0.0194313125283
0.0194313349647
0.0194313617368