/*--------------------------------*- C++ -*----------------------------------*\
| =========                 |                                                 |
| \\      /  F ield         | OpenFOAM: The Open Source CFD Toolbox           |
|  \\    /   O peration     | Version:  3.0.1                                 |
|   \\  /    A nd           | Web:      www.OpenFOAM.org                      |
|    \\/     M anipulation  |                                                 |
\*---------------------------------------------------------------------------*/
FoamFile
{
    version     2.0;
    format      ascii;
    class       volScalarField;
    location    "1.2";
    object      k;
}
// * * * * * * * * * * * * * * * * * * * * * * * * * * * * * * * * * * * * * //

dimensions      [0 2 -2 0 0 0 0];

internalField   nonuniform List<scalar> 
15984
(
0.00620591328536
0.00643663959479
0.00649762333265
0.00650616053496
0.00650497667558
0.00650489133873
0.00650673383429
0.00650723778001
0.00650423162121
0.00649822332011
0.00649190021717
0.00648734012209
0.0064842378124
0.00648233567848
0.00648136800272
0.00648103360562
0.00648095582961
0.0064808977026
0.00648083329256
0.00648075622308
0.00648066736823
0.0064805741338
0.00648047819746
0.00648037065299
0.00648025448876
0.00648013446719
0.00648001450389
0.00647989771617
0.00647978637329
0.0064796821902
0.00647958631822
0.00647949943722
0.00647942222562
0.00647935338104
0.00647928632363
0.00647911513743
0.00647794020028
0.00646886701127
0.00641326647311
0.00619344597973
0.00734853244397
0.00859964947593
0.00895507668737
0.00901437676543
0.00901858429999
0.00901776211876
0.00902106662343
0.00902962843197
0.00903207818999
0.00902143981005
0.00900564078054
0.00899187033783
0.00898225392459
0.00897600348276
0.00897232355609
0.00897036112052
0.00896925016268
0.00896852418126
0.00896801683618
0.00896763372936
0.0089673422639
0.00896713820912
0.00896701700182
0.00896693122281
0.00896684109716
0.00896674836495
0.00896665517157
0.00896656365234
0.00896647554295
0.00896639254848
0.00896631605131
0.00896624706206
0.00896618618456
0.00896612219467
0.00896594692822
0.00896459795959
0.00895403474768
0.00888466932199
0.0085333177787
0.00730254074227
0.00771719121831
0.00991933443812
0.0105600429926
0.0106780556124
0.0106901144586
0.0106904106222
0.0106983864661
0.0107190629121
0.0107305500917
0.0107176811464
0.0106945074088
0.0106747282761
0.0106606677898
0.0106518247075
0.0106465633426
0.0106436875791
0.0106420266307
0.0106409348913
0.0106401578206
0.0106395810034
0.0106391456989
0.0106388179028
0.0106386006396
0.0106384849512
0.0106384060997
0.0106383265763
0.0106382471732
0.010638169229
0.010638093966
0.010638022987
0.0106379576961
0.0106378990207
0.0106378459922
0.0106377660339
0.0106373584448
0.0106340551416
0.0106104166629
0.0104713217178
0.00983143760218
0.00765492331743
0.00783579775068
0.0105748164775
0.0114016402187
0.0115530159768
0.0115664092053
0.0115684628245
0.011587989719
0.0116348107671
0.0116709140268
0.0116640134621
0.0116360992904
0.0116112248449
0.0115939786023
0.0115832219237
0.0115769347721
0.0115734592859
0.0115714608313
0.0115701561439
0.0115692223715
0.0115685259257
0.0115679933922
0.011567588143
0.0115672923003
0.0115671022454
0.0115670043036
0.0115669323313
0.0115668613727
0.0115667919647
0.0115667250224
0.0115666619657
0.0115666042657
0.0115665526709
0.0115665039052
0.0115663989922
0.0115657171502
0.0115603467609
0.0115243444384
0.0113273451141
0.0104825559078
0.00776450777489
0.00787560099606
0.0108615290473
0.0117788081947
0.0119569328015
0.011982680303
0.0119885383988
0.012010607911
0.0120674323149
0.0121443112849
0.0121534458553
0.0121238686016
0.0120949248561
0.0120747686194
0.0120624413164
0.0120553894021
0.0120514893201
0.0120492568303
0.0120478189893
0.0120468014948
0.012046036392
0.0120454548342
0.0120450081025
0.0120446778137
0.012044451299
0.0120443187698
0.012044247587
0.0120441812269
0.0120441166684
0.0120440546176
0.0120439963651
0.0120439431897
0.012043895854
0.0120438485353
0.0120437178087
0.0120427898818
0.0120357022723
0.0119901869405
0.0117526394353
0.0107817712051
0.00779887481474
0.00788975288984
0.0109622485703
0.0119188326665
0.0121352220608
0.0121592575539
0.0121665188857
0.0121985562859
0.0122615253545
0.0123538303557
0.0123861052052
0.0123575330977
0.0123255715349
0.0123029534999
0.0122892446701
0.0122815034799
0.0122773297662
0.0122749181242
0.0122733931386
0.0122723313329
0.0122715341618
0.0122709243135
0.0122704652112
0.0122701231815
0.0122698860635
0.0122697457034
0.0122696735086
0.012269609337
0.012269546977
0.0122694871792
0.0122694310984
0.0122693797302
0.0122693336289
0.0122692850727
0.0122691317599
0.0122680241309
0.0122597616277
0.0122080921307
0.0119461274539
0.0109071447368
0.00780968923508
0.00789515188571
0.0109821883182
0.0119690950467
0.0121825402227
0.0121997178628
0.0122077698969
0.0122516395751
0.01233492957
0.0124306908242
0.0124870147318
0.0124607452856
0.012426596456
0.0124020154621
0.0123871501024
0.0123788207399
0.0123744185692
0.0123718954738
0.0123703075554
0.0123692157126
0.0123684121451
0.0123677984044
0.0123673334369
0.0123669936834
0.012366760788
0.0123666234526
0.0123665535441
0.0123664904068
0.0123664288329
0.0123663699923
0.01236631447
0.0123662633545
0.0123662168452
0.0123661657834
0.0123659967694
0.0123647795213
0.0123558391962
0.0123007675004
0.0120260548456
0.0109546951763
0.0078129980101
0.00789774382899
0.0109771553548
0.0119748931512
0.0121797659599
0.0121889703488
0.0121974924148
0.0122522810498
0.0123527133367
0.0124529772711
0.0125276253475
0.0125033018521
0.0124675278529
0.0124414426747
0.0124256777697
0.0124169027964
0.0124122805805
0.0124097202894
0.0124080749717
0.0124069701918
0.0124061612536
0.0124055462147
0.0124050808176
0.0124047472262
0.0124045251284
0.0124043992587
0.0124043314154
0.0124042687005
0.0124042077598
0.0124041492208
0.0124040938014
0.0124040424382
0.0124039951639
0.0124039418742
0.0124037639833
0.012402489817
0.0123932137561
0.0123365125029
0.0120559780579
0.0109710114303
0.00781395410597
0.00789945719144
0.010970962093
0.011970522931
0.0121687125347
0.01217130155
0.0121801696731
0.0122431781272
0.0123542061549
0.0124589379979
0.0125434662677
0.0125199985593
0.0124830227905
0.0124559004565
0.012439515226
0.0124304278088
0.0124256629757
0.0124230577
0.0124213912128
0.0124202758619
0.0124194677423
0.0124188525775
0.0124183916152
0.0124180635881
0.0124178478795
0.0124177316813
0.0124176655509
0.0124176030277
0.0124175424854
0.0124174842
0.0124174287527
0.0124173771217
0.0124173291812
0.0124172746678
0.0124170922652
0.0124157926136
0.0124063723295
0.0123489899319
0.012066119104
0.0109760802988
0.00781421010805
0.00790045371972
0.0109685042341
0.0119675748605
0.0121626073322
0.0121611890991
0.0121703335018
0.0122379551195
0.0123536171081
0.012461070669
0.0125491363535
0.0125257792511
0.0124881340717
0.0124604763261
0.0124437642777
0.0124345343713
0.0124296902559
0.0124270514013
0.0124253809974
0.0124242615919
0.0124234531986
0.0124228408008
0.0124223848164
0.0124220597984
0.012421846379
0.0124217342516
0.0124216692802
0.0124216067843
0.0124215464718
0.0124214883719
0.0124214329679
0.0124213812054
0.0124213329853
0.0124212779885
0.0124210937015
0.0124197846424
0.0124103140678
0.0123526989772
0.0120690558424
0.0109774373038
0.0078142706066
0.0079004625196
0.0109685731856
0.0119676231699
0.0121626803306
0.012161299024
0.0121704352699
0.0122380331517
0.0123536625592
0.0124611421029
0.0125491487811
0.0125257725941
0.0124881248924
0.0124604682846
0.0124437586617
0.0124345299105
0.0124296863903
0.012427049341
0.0124253796339
0.0124242597833
0.0124234513937
0.012422839485
0.0124223830272
0.0124220582765
0.0124218451259
0.0124217333114
0.0124216684614
0.0124216060119
0.0124215457639
0.0124214877682
0.0124214324505
0.012421380758
0.0124213326155
0.0124212776375
0.0124210933357
0.012419784139
0.0124103133156
0.0123526974427
0.0120690535574
0.0109774345667
0.00781427151604
0.007899471563
0.0109711505816
0.0119706655988
0.0121689205866
0.0121715770596
0.0121804412863
0.012243380776
0.0123543299107
0.0124591401555
0.0125434985202
0.0125199780873
0.0124829946816
0.0124558753256
0.0124394969723
0.0124304125703
0.0124256512627
0.0124230500352
0.0124213856523
0.0124202700272
0.01241946218
0.0124188478068
0.0124183867019
0.0124180589424
0.0124178439194
0.0124177287098
0.0124176629226
0.0124176005498
0.0124175402138
0.0124174821598
0.0124174269578
0.0124173755467
0.0124173278197
0.012417273435
0.0124170909752
0.0124157908056
0.0124063697243
0.0123489849204
0.0120661118338
0.0109760716227
0.00781421245631
0.00789775645202
0.0109774269044
0.0119751101136
0.012180078379
0.0121893389357
0.0121978533782
0.0122525718734
0.0123528884736
0.0124532647802
0.0125276604594
0.0125032649886
0.0124674811499
0.0124414009691
0.0124256459004
0.0124168775853
0.0124122559022
0.0124097031854
0.0124080611728
0.0124069588822
0.0124061513256
0.0124055345706
0.0124050698526
0.0124047373494
0.0124045166342
0.012404393294
0.0124043260465
0.0124042635516
0.0124042029696
0.0124041447338
0.01240408974
0.0124040386791
0.0124039916261
0.0124039385795
0.0124037605518
0.0124024854761
0.0123932080083
0.0123365025022
0.0120559644834
0.0109709958178
0.00781395727563
0.00789514265517
0.0109824635319
0.0119693451575
0.0121829038712
0.0122001208053
0.0122081617669
0.0122519630572
0.0123351169923
0.0124309841552
0.0124870283292
0.0124606788832
0.0124265220426
0.012401953356
0.0123871015221
0.0123787812692
0.0123743827696
0.0123718714236
0.0123702809037
0.0123691953274
0.0123683930685
0.0123677789814
0.0123673138501
0.0123669760616
0.0123667462863
0.0123666119426
0.0123665429587
0.0123664800838
0.0123664190271
0.0123663606307
0.0123663057159
0.0123662549885
0.0123662087682
0.0123661576057
0.0123659885719
0.0123647698162
0.0123558273827
0.012300749652
0.0120260321934
0.0109546708553
0.00781300049905
0.00788970890472
0.0109624641937
0.0119190805567
0.012135570553
0.0121596361297
0.012166888231
0.0121988556287
0.0122617033456
0.0123540513565
0.0123860663513
0.0123574259017
0.0123254649684
0.0123028704918
0.0122891738959
0.0122814363558
0.0122772860509
0.0122748756286
0.0122733512571
0.0122722941289
0.0122714997754
0.0122708929873
0.0122704349192
0.0122700954333
0.0122698610167
0.0122697236873
0.01226965323
0.0122695894557
0.0122695276539
0.0122694685792
0.0122694130848
0.0122693621426
0.0122693163877
0.0122692676033
0.0122691140411
0.0122680044085
0.0122597390273
0.012208061736
0.0119460919695
0.0109071092096
0.00780968896549
0.00787552217054
0.0108616481694
0.0117792958763
0.0119572230719
0.0119830081992
0.0119888634526
0.0120108602824
0.0120678987759
0.0121443976478
0.012153330522
0.0121237115522
0.0120947903794
0.0120746607557
0.0120623367485
0.0120552950208
0.0120514270045
0.0120491933782
0.0120477572055
0.0120467465116
0.012045984057
0.0120454049787
0.0120449607398
0.012044632913
0.0120444104799
0.0120442827764
0.0120442127478
0.0120441469581
0.0120440829825
0.012044021702
0.0120439641882
0.0120439115182
0.0120438644565
0.0120438172488
0.0120436856175
0.0120427556057
0.0120356647911
0.0119901404085
0.0117525880359
0.0107817230779
0.00779886917824
0.00783568376933
0.0105748005487
0.0114019017907
0.0115535554054
0.0115670980722
0.0115691376025
0.0115885301633
0.0116350555767
0.0116708578921
0.0116638278445
0.0116359076413
0.011611061656
0.0115938384187
0.0115830850868
0.0115768461776
0.0115733734007
0.0115713798906
0.0115700795758
0.0115691502215
0.0115684568601
0.0115679293581
0.011567524375
0.0115672334524
0.0115670481583
0.0115669547257
0.0115668833995
0.0115668130645
0.0115667442065
0.0115666779603
0.0115666157303
0.0115665585121
0.0115665075292
0.0115664588392
0.0115663532615
0.0115656693466
0.0115602956493
0.0115242841923
0.0113272807781
0.0104824979536
0.00776449492715
0.00771706408887
0.0099192336367
0.0105600737073
0.0106783286458
0.0106904806245
0.0106907867018
0.0106986536699
0.0107191102682
0.0107303984185
0.0107174671094
0.0106943100865
0.0106745599879
0.0106605075795
0.0106517111234
0.0106464697024
0.0106436023188
0.0106419464011
0.0106408604299
0.0106400885305
0.0106395155713
0.0106390836962
0.0106387601722
0.0106385483906
0.010638435739
0.0106383574641
0.0106382784629
0.0106381996002
0.0106381221259
0.0106380475141
0.010637977283
0.0106379126593
0.0106378547867
0.0106378021976
0.0106377223803
0.0106373135635
0.0106340077504
0.0106103614798
0.0104712620433
0.00983138451497
0.00765490737636
0.00734842759995
0.00859950925732
0.00895500176918
0.00901443460829
0.0090187073969
0.00901789396781
0.0090211378968
0.00902956393858
0.00903190694862
0.00902124572413
0.009005477299
0.0089917074501
0.00898213462049
0.00897591803109
0.00897225901086
0.00897030461809
0.00896919951071
0.00896848012962
0.00896797596143
0.00896759693477
0.0089673127234
0.00896711042789
0.00896699485873
0.00896690920214
0.00896681925987
0.00896672671998
0.00896663378953
0.00896654255248
0.00896645491927
0.00896637254003
0.00896629673503
0.00896622860775
0.00896616852093
0.00896610533675
0.00896593011651
0.00896458014247
0.00895401217478
0.00888464079599
0.00853329089346
0.0073025353385
0.00620586366435
0.00643655000947
0.00649752382282
0.00650608988443
0.00650492746017
0.00650484348346
0.00650666042475
0.00650713400611
0.00650411189745
0.00649810513597
0.00649180544951
0.00648728342133
0.00648420475555
0.00648231699122
0.0064813600079
0.00648103179454
0.00648095848399
0.00648090458895
0.00648084438247
0.00648077065027
0.00648068652042
0.00648059690553
0.00648050252471
0.00648039491347
0.00648027872728
0.006480158738
0.00648003889348
0.00647992231286
0.00647981132965
0.00647970764685
0.00647961240355
0.00647952635273
0.00647945006837
0.00647938234155
0.00647931637071
0.00647914605287
0.00647797091775
0.00646889412415
0.00641328941693
0.00619346709316
0.00731217096794
0.0085471932937
0.00890054474568
0.00896216578097
0.00896664345364
0.00896726188458
0.00897314689487
0.00898345927614
0.00899030483277
0.00898890353483
0.00898325207862
0.00897758401052
0.008973365093
0.00897131512802
0.00896998825254
0.00896928862636
0.00896890160576
0.00896860304887
0.00896835400797
0.00896814318248
0.00896795963974
0.00896780013897
0.0089676524658
0.00896751438807
0.0089673869875
0.00896726993792
0.00896716316707
0.00896706673882
0.00896698026393
0.00896690371647
0.00896683680617
0.00896677895904
0.00896673027067
0.00896667652924
0.0089665134121
0.00896516632432
0.00895460469628
0.00888522719034
0.00853387787122
0.00730319071817
0.0129173959227
0.0170726261622
0.0182668993207
0.0184944287454
0.018513588117
0.018518436805
0.0185488667491
0.0186091421244
0.018666932411
0.0186929329236
0.018695216082
0.0186897785788
0.0186831752477
0.0186774671742
0.018673650986
0.0186710963131
0.0186693213665
0.018668043339
0.0186670970238
0.0186663822895
0.0186658409285
0.0186654415659
0.0186651534258
0.018664972654
0.0186648762494
0.0186648448326
0.0186648630227
0.0186649178259
0.0186649982344
0.0186650959523
0.018665204796
0.0186653195763
0.0186654326844
0.0186654655695
0.0186647466739
0.0186577144943
0.018608050213
0.0183277159621
0.0170995345166
0.0129097238171
0.0143542790937
0.0206213328039
0.0224143089549
0.0228090538289
0.0228630097785
0.0228743375459
0.0229107055015
0.0229810205682
0.0230448226492
0.0230671462784
0.0230610553659
0.0230484228258
0.0230372756164
0.0230289229094
0.023023448927
0.0230199248451
0.0230175743377
0.0230159345264
0.0230147479917
0.0230138727496
0.0230132265763
0.0230127591711
0.0230124366888
0.023012229461
0.0230121263087
0.0230121032754
0.0230121414522
0.0230122243167
0.0230123376621
0.0230124711911
0.0230126168867
0.0230127672283
0.0230129034141
0.0230128477409
0.0230111553918
0.0229972115936
0.0229086710947
0.0224572877026
0.020636160023
0.0143247700329
0.0148707831122
0.0224043216481
0.0246187180917
0.0251357348778
0.0252138127051
0.0252317514617
0.0252818781634
0.0253769447252
0.0254616711413
0.0254880368139
0.0254756593487
0.0254563311331
0.0254408056875
0.0254301685388
0.0254233729777
0.0254191037581
0.0254163370842
0.0254144526108
0.0254131106717
0.0254121351655
0.0254114256963
0.0254109216657
0.025410582862
0.0254103773017
0.0254102755991
0.0254102554849
0.0254103023009
0.025410397906
0.0254105263456
0.0254106763282
0.0254108385374
0.0254110032331
0.0254111375836
0.0254109497281
0.0254081722377
0.025387323591
0.0252635938361
0.024673057983
0.0224237094461
0.0148274365336
0.0150606964142
0.0232592979631
0.0257351368657
0.0263227218082
0.0264088990703
0.0264322960657
0.0265051036532
0.0266404573039
0.0267647317324
0.0268059899474
0.0267909734942
0.0267660740368
0.0267465841639
0.0267338359439
0.0267259303626
0.0267210591453
0.0267179619344
0.0267158913299
0.0267144384396
0.0267133905962
0.0267126361996
0.0267121055945
0.0267117528524
0.0267115429806
0.0267114463827
0.0267114308993
0.0267114830742
0.0267115861824
0.0267117237722
0.0267118833244
0.0267120546147
0.026712225819
0.02671235039
0.0267120315725
0.0267082828874
0.0266816342983
0.0265301807508
0.0258378411607
0.0233045178481
0.0150107138849
0.0151287567179
0.0236209630604
0.026232388299
0.0268297097579
0.0269082534525
0.0269358138501
0.0270391143121
0.0272372416447
0.0274144535413
0.0274797193013
0.0274658707528
0.0274369130633
0.0274141168827
0.0273994993037
0.0273906576189
0.0273853179402
0.0273819579077
0.0273797466036
0.0273782152721
0.0273771176746
0.0273763309552
0.0273757818433
0.0273754186536
0.027375203929
0.0273751064176
0.0273750934929
0.0273751494953
0.0273752575766
0.0273754012138
0.0273755670232
0.0273757439385
0.0273759185952
0.0273760338518
0.0273756118606
0.0273711395096
0.0273403323982
0.027169854354
0.0264114364277
0.0237089875661
0.0150772922092
0.0151507763332
0.0237422572372
0.0264002821534
0.0269845110151
0.0270477658919
0.0270778760658
0.027211711231
0.0274684157669
0.0277040325883
0.0277963353105
0.0277860507073
0.0277544585316
0.0277291232669
0.0277129887943
0.0277033888532
0.0276976806821
0.0276941286773
0.0276918124423
0.0276902260213
0.0276890992555
0.0276882919429
0.0276877301055
0.0276873598556
0.0276871405385
0.0276870406706
0.0276870278214
0.0276870865752
0.027687197959
0.0276873459344
0.0276875160405
0.0276876966947
0.0276878734675
0.0276879821844
0.0276874935301
0.0276825620505
0.0276491847707
0.0274673131957
0.0266710192051
0.0238787956678
0.0151005244099
0.0151567466888
0.0237662467074
0.0264317933961
0.0269969415608
0.0270449349889
0.0270762750835
0.0272345064633
0.0275355786038
0.0278171844272
0.0279320000374
0.0279255187894
0.0278923018369
0.02786515464
0.0278478985387
0.0278377282446
0.0278317374668
0.0278280587966
0.0278256694296
0.0278240474505
0.0278229026666
0.027822083756
0.0278215132299
0.0278211388629
0.0278209167715
0.0278208136207
0.0278208006944
0.0278208610845
0.0278209752363
0.0278211260188
0.0278212990149
0.027821482176
0.0278216603292
0.0278217653573
0.0278212403131
0.027816058137
0.0277813024058
0.0275934599757
0.0267780208444
0.0239434736667
0.0151081060686
0.0151581580855
0.0237627517911
0.0264262027976
0.0269776143954
0.0270154476993
0.0270472285931
0.0272205987167
0.0275474673109
0.0278561937023
0.0279849239748
0.0279810217372
0.0279468079177
0.0279184909424
0.0279004979964
0.0278899495691
0.0278837701724
0.0278800092972
0.0278775765317
0.0278759333434
0.0278747790442
0.0278739539266
0.0278733786657
0.0278730017839
0.027872778496
0.0278726736676
0.0278726604083
0.0278727216558
0.0278728375459
0.0278729902202
0.0278731648412
0.0278733495089
0.0278735285682
0.0278736321438
0.0278730896608
0.0278677892237
0.027832392292
0.0276418214402
0.0268178937827
0.0239657207651
0.0151103828057
0.0151585440623
0.0237578420884
0.0264197410958
0.0269649707575
0.026998304877
0.0270301414698
0.0272101381823
0.0275478012395
0.0278680312322
0.0280024760952
0.0279996973381
0.0279649755981
0.0279360798172
0.0279177218151
0.0279069855389
0.0279007121685
0.0278969087598
0.0278944574205
0.0278928048943
0.0278916461857
0.0278908187528
0.0278902418289
0.0278898637826
0.0278896394791
0.0278895348688
0.0278895210716
0.0278895825628
0.0278896993294
0.0278898530002
0.02789002844
0.0278902138298
0.0278903934717
0.0278904966943
0.0278899474458
0.0278846021642
0.0278489666333
0.0276573935113
0.0268304202357
0.0239722309375
0.0151109763105
0.0151585563076
0.0237579634632
0.0264199159798
0.0269652045479
0.0269985980227
0.0270304013297
0.027210404285
0.0275479740071
0.0278681012377
0.0280024957378
0.0279996934792
0.0279649676
0.0279360724118
0.0279177158179
0.0279069803625
0.0279007075376
0.0278969052226
0.0278944546314
0.0278928022663
0.0278916436711
0.0278908164056
0.027890239155
0.0278898611118
0.0278896368615
0.0278895324458
0.027889518637
0.0278895801987
0.0278896970814
0.0278898509284
0.0278900265227
0.0278902120482
0.0278903918596
0.0278904951303
0.0278899458219
0.0278846002087
0.0278489641461
0.0276573897486
0.0268304149035
0.023972224314
0.0151109740092
0.0151581889459
0.0237630956181
0.0264267247668
0.0269782879777
0.0270162448793
0.0270480208245
0.0272212958011
0.0275479381675
0.0278564213942
0.0279849757981
0.027981007612
0.0279467825496
0.027918467588
0.0279004788045
0.0278899327791
0.027883755
0.027879997516
0.0278775665145
0.0278759243576
0.0278747702901
0.0278739453732
0.0278733694585
0.0278729925695
0.0278727693974
0.0278726650237
0.0278726519214
0.0278727133816
0.0278728296424
0.0278729827803
0.0278731578679
0.0278733429835
0.0278735225465
0.0278736263599
0.0278730837237
0.0278677821746
0.0278323835914
0.0276418089189
0.0268178769691
0.0239657000797
0.0151103747678
0.015156784025
0.0237667525033
0.0264326033145
0.0269979997422
0.0270461012647
0.0270774221307
0.0272355288711
0.0275362608328
0.0278175325361
0.0279320613277
0.02792548538
0.0278922538148
0.0278651111187
0.0278478621152
0.027837695585
0.0278317068403
0.0278280335176
0.0278256464883
0.0278240272032
0.0278228831687
0.0278220634876
0.0278214924269
0.0278211184112
0.0278208968144
0.0278207940373
0.0278207814972
0.0278208422259
0.0278209570624
0.0278211086749
0.027821282563
0.0278214665116
0.0278216453209
0.0278217507315
0.027821225525
0.0278160414406
0.0277812828919
0.0275934338253
0.0267779885664
0.0239434371891
0.0151080904981
0.0151508011294
0.0237428260196
0.0264012535997
0.0269858206448
0.0270491563541
0.027079224301
0.0272129002592
0.0274691871223
0.0277043966325
0.0277963692758
0.0277859804499
0.0277543760009
0.0277290501293
0.0277129252202
0.0277033304757
0.027697627679
0.0276940809921
0.0276917660311
0.0276901842673
0.0276890580782
0.0276882502699
0.0276876880807
0.027687318321
0.0276870994718
0.0276870002787
0.0276869880125
0.0276870473008
0.0276871598605
0.0276873092448
0.0276874808511
0.0276876626861
0.027687840288
0.0276879490349
0.027687460538
0.0276825264009
0.0276491451416
0.0274672647823
0.0266709641341
0.0238787394087
0.0151004973145
0.0151287538558
0.0236214878236
0.0262333481006
0.0268310536715
0.0269096725943
0.0269371863816
0.027040288319
0.0272379786352
0.0274147356467
0.0274796841205
0.027465743097
0.027436781692
0.027414000495
0.0273993937506
0.0273905579249
0.0273852292999
0.0273818727963
0.0273796629734
0.027378135917
0.02737703985
0.0273762532982
0.0273757042369
0.0273753415536
0.0273751275701
0.0273750314836
0.0273750188105
0.0273750758777
0.0273751854699
0.0273753312701
0.0273754990582
0.0273756773987
0.0273758531774
0.0273759684584
0.0273755464028
0.027371070741
0.0273402584499
0.0271697706138
0.0264113489672
0.0237089056513
0.0150772483966
0.0150606630705
0.0232596955405
0.0257358952233
0.0263238477153
0.0264101389218
0.0264335158912
0.0265060985237
0.0266410522445
0.0267648628834
0.026805858237
0.0267907757212
0.026765884023
0.0267464126326
0.0267336743582
0.026725780398
0.0267209224367
0.0267178281994
0.0267157600216
0.02671431078
0.0267132642957
0.0267125105229
0.0267119808578
0.0267116286748
0.0267114193728
0.0267113234415
0.0267113092258
0.0267113631363
0.0267114681687
0.0267116081986
0.0267117700406
0.0267119429272
0.0267121154932
0.0267122406205
0.0267119205872
0.0267081687425
0.0266815151473
0.026530051184
0.025837710872
0.0233044054541
0.0150106478446
0.01487072487
0.0224045558519
0.0246192029658
0.0251365359462
0.0252147389444
0.0252326646647
0.0252826203708
0.0253773081638
0.0254616464238
0.0254878187661
0.0254754042834
0.0254560889866
0.0254405825401
0.0254299594535
0.0254231849995
0.0254189225277
0.0254161602357
0.0254142781857
0.0254129387626
0.0254119644925
0.02541125565
0.025410751889
0.0254104139436
0.0254102087759
0.025410107581
0.025410089497
0.0254101383999
0.0254102359512
0.0254103669034
0.0254105193055
0.025410683118
0.0254108494423
0.0254109841185
0.025410795282
0.0254080142468
0.0253871598545
0.0252634181988
0.0246728854804
0.0224235650454
0.0148273466143
0.0143542258183
0.0206214310515
0.0224145620891
0.0228095602091
0.0228636248103
0.02287495831
0.0229111923129
0.0229812006511
0.0230447072727
0.0230668940144
0.023060787626
0.0230481639488
0.023037035227
0.0230287070429
0.0230232503439
0.0230197317181
0.0230173849572
0.0230157475662
0.0230145635324
0.0230136890974
0.0230130426016
0.0230125755468
0.0230122526033
0.0230120455286
0.0230119440937
0.0230119230048
0.0230119631358
0.0230120477113
0.0230121631609
0.0230122988037
0.0230124460387
0.0230125979057
0.0230127343453
0.023012678248
0.023010982339
0.0229970327332
0.0229084791624
0.0224570966414
0.0206359994586
0.0143246711422
0.0129173938271
0.0170726555776
0.0182670238662
0.0184947486704
0.0185139910107
0.0185188507747
0.0185491865485
0.0186092400331
0.0186668176217
0.0186927225587
0.0186949990758
0.0186895588749
0.0186829710635
0.0186772928863
0.018673491442
0.0186709406751
0.0186691687964
0.018667891737
0.0186669469611
0.0186662316746
0.01866568979
0.0186652889087
0.0186649993834
0.0186648196856
0.0186647243359
0.0186646939399
0.0186647132286
0.0186647690517
0.0186648508494
0.0186649501074
0.0186650602329
0.01866517631
0.0186652898867
0.0186653229947
0.018664601511
0.01865756421
0.0186078857108
0.0183275444306
0.0170993819932
0.0129096365741
0.00731213460118
0.00854711527312
0.00890046361704
0.00896214130206
0.00896665211143
0.00896727671159
0.00897312279906
0.00898336927205
0.00899016825976
0.00898875797513
0.00898312534108
0.00897747195286
0.00897328716707
0.00897124665565
0.00896993452306
0.0089692399515
0.00896885615175
0.0089685564691
0.00896831023145
0.00896809741457
0.00896791127891
0.00896775111462
0.00896760159638
0.00896746272577
0.00896733467535
0.00896721705815
0.00896710988847
0.00896701319985
0.00896692691175
0.0089668507843
0.00896678442798
0.00896672748906
0.00896667955664
0.00896662667485
0.00896646318528
0.00896511350595
0.0089545435016
0.00888515189541
0.00853379925734
0.00730315524334
0.00766298660284
0.00982532980063
0.0104606370689
0.0105857875717
0.0106002713719
0.0106028892071
0.0106128742065
0.0106318023058
0.0106485770273
0.0106539400635
0.0106517673551
0.0106478625384
0.0106444381614
0.0106425738816
0.0106417045512
0.0106412002895
0.010640929934
0.0106407246255
0.0106405370034
0.0106403624895
0.0106401955816
0.0106400341052
0.0106398803737
0.0106397344192
0.01063959762
0.0106394709641
0.0106393548034
0.0106392493551
0.0106391545298
0.0106390700241
0.0106389955454
0.0106389296815
0.010638870397
0.0106387799583
0.0106383593
0.0106350340026
0.0106113504604
0.0104722574632
0.00983240776417
0.00765617377744
0.0143143435634
0.0205444565194
0.0223133659122
0.0226942026333
0.0227422385569
0.0227550096645
0.0227999058071
0.0228844104033
0.0229690839957
0.0230149612421
0.0230287278655
0.0230296358364
0.0230266071408
0.0230230026359
0.0230201872771
0.0230181894352
0.0230167567117
0.0230157031666
0.023014911211
0.0230143106421
0.0230138563541
0.0230135228951
0.0230132841654
0.0230131358314
0.0230130617886
0.0230130452441
0.0230130722252
0.0230131306815
0.0230132106094
0.0230133043259
0.0230134060597
0.0230135097712
0.0230135967307
0.0230134901229
0.0230117378806
0.0229977429334
0.0229091214982
0.0224577414509
0.0206366614309
0.0143255900826
0.0161794483712
0.0250324698229
0.0275277554274
0.0281365359252
0.0282386840955
0.0282627990316
0.0283147010634
0.0284056423456
0.0284914882836
0.0285319373659
0.0285374934472
0.0285315944606
0.0285242730253
0.0285181905748
0.0285139252589
0.0285110827796
0.0285091427157
0.0285077683312
0.0285067644347
0.0285060208835
0.0285054724924
0.0285050796461
0.0285048125021
0.0285046461131
0.0285045695374
0.0285045659153
0.0285046166288
0.028504706216
0.0285048216889
0.0285049533398
0.0285050934787
0.0285052325568
0.0285053276951
0.0285050072813
0.0285014379882
0.0284760062234
0.0283299720597
0.0276530235623
0.0251197624863
0.0161724548494
0.0169188959893
0.0273689985819
0.0303806990219
0.0311592992693
0.031300625521
0.0313357375654
0.0314034106301
0.0315152316241
0.0316152293157
0.0316567000568
0.031655644047
0.0316431801387
0.0316316498705
0.031623321069
0.031617831377
0.0316143153249
0.0316119983057
0.0316104007664
0.0316092559216
0.0316084207056
0.0316078133569
0.031607384878
0.0316071003402
0.0316069313463
0.0316068538755
0.0316068536072
0.0316069138368
0.0316070173356
0.0316071494376
0.0316072992206
0.0316074575406
0.0316076108789
0.0316076874885
0.0316070984483
0.0316015948399
0.0315650882916
0.0313684194407
0.0305113773421
0.0274659479387
0.0168995371204
0.0172193434014
0.0285527785702
0.0319066289881
0.032791656344
0.0329492631978
0.0329934126145
0.0330894085714
0.0332419506829
0.0333742334039
0.033426764949
0.0334225447919
0.0334045423995
0.0333891488426
0.0333787530944
0.0333721935755
0.0333681108222
0.0333654851709
0.0333637114077
0.0333624597707
0.0333615557517
0.0333609046917
0.0333604496673
0.0333601509981
0.0333599774712
0.0333599032192
0.0333599056859
0.0333599715546
0.0333600834693
0.0333602259349
0.033360386842
0.0333605558808
0.0333607156409
0.0333607663304
0.0333599181258
0.0333526809038
0.033306794715
0.0330696830236
0.0320778928097
0.0286802523231
0.0171946327682
0.017337660949
0.0290966497391
0.032648237921
0.0335718094792
0.0337231549618
0.0337741302249
0.0339092166521
0.0341242325562
0.0343058738881
0.0343787135512
0.0343752169357
0.0343531780846
0.0343345447011
0.0343223304281
0.0343148570028
0.0343103081796
0.0343074319971