/*--------------------------------*- C++ -*----------------------------------*\
| =========                 |                                                 |
| \\      /  F ield         | OpenFOAM: The Open Source CFD Toolbox           |
|  \\    /   O peration     | Version:  3.0.1                                 |
|   \\  /    A nd           | Web:      www.OpenFOAM.org                      |
|    \\/     M anipulation  |                                                 |
\*---------------------------------------------------------------------------*/
FoamFile
{
    version     2.0;
    format      ascii;
    class       volVectorField;
    location    "1.2";
    object      U_0;
}
// * * * * * * * * * * * * * * * * * * * * * * * * * * * * * * * * * * * * * //

dimensions      [0 1 -1 0 0 0 0];

internalField   nonuniform List<vector> 
15984
(
(0.000536796828501 0.00021456718819 -0.000504979984166)
(0.00157280994668 0.000243128198337 -0.000493815487384)
(0.00213440121298 0.000487496352786 -0.00049307719046)
(0.00160199138162 0.000775824631447 -0.000506327091986)
(0.000327774993237 0.000927691409577 -0.000525767118231)
(-0.00115914837438 0.000934005476986 -0.000516715008676)
(-0.00252539655606 0.000790145950283 -0.000477732009997)
(-0.00325990293051 0.000508028200089 -0.000421264776283)
(-0.00310794394366 0.0002206136757 -0.000349699938384)
(-0.00241923036704 5.082468766e-05 -0.000263943785603)
(-0.0016732542178 -2.11235302718e-05 -0.000179389424586)
(-0.00105925432743 -3.983639104e-05 -0.000112756522277)
(-0.000618333248909 -4.05944888494e-05 -6.41823752035e-05)
(-0.000325213698456 -3.42138532878e-05 -3.49821949117e-05)
(-0.000129261717368 -2.81068131556e-05 -1.98155329693e-05)
(9.51580967287e-06 -2.29452722529e-05 -1.27758935667e-05)
(0.000116731033037 -1.89108040113e-05 -9.73231288407e-06)
(0.000205693385999 -1.58368092197e-05 -8.14250404967e-06)
(0.000281705993696 -1.3603516803e-05 -6.73683006656e-06)
(0.000345479882688 -1.20040546375e-05 -4.67048248213e-06)
(0.000395927366236 -1.09358890963e-05 -1.9477883784e-06)
(0.000432070416697 -1.0191170415e-05 1.41042719107e-06)
(0.000454082132129 -9.75263815342e-06 5.07498167229e-06)
(0.000462920942574 -9.56459233881e-06 8.34349215929e-06)
(0.000460043706829 -9.53670233482e-06 1.11845499422e-05)
(0.00044735230562 -9.62210962791e-06 1.35571000203e-05)
(0.000426834079918 -9.78570584861e-06 1.54465528295e-05)
(0.000400431501808 -1.00004671705e-05 1.68693630191e-05)
(0.000369931385231 -1.02444316675e-05 1.78692422171e-05)
(0.000336883289601 -1.05026907114e-05 1.85071252381e-05)
(0.000302572951199 -1.07641624607e-05 1.88478403418e-05)
(0.000268011578477 -1.10191267628e-05 1.89527850621e-05)
(0.000234023416825 -1.12724653349e-05 1.88623611383e-05)
(0.000201125789105 -1.15011290459e-05 1.86476169501e-05)
(0.000170135827055 -1.17672477542e-05 1.82180265548e-05)
(0.000140575894397 -1.19211182483e-05 1.79529003406e-05)
(0.000114263790477 -1.21332973269e-05 1.71149113455e-05)
(8.79736010843e-05 -1.1975699421e-05 1.74582899983e-05)
(6.25989271375e-05 -1.21006662878e-05 1.7970396875e-05)
(3.07951680197e-05 -1.29615928874e-05 2.4180606578e-05)
(0.000487181440973 0.000743682061639 -0.000703771718224)
(0.00170595104453 0.000980337796727 -0.000919474728122)
(0.00238030992617 0.00177709273257 -0.00104141404855)
(0.00180524726782 0.00263929633742 -0.00112971077056)
(0.000407132731855 0.0030834250746 -0.00119266199045)
(-0.00120674592568 0.00309436000507 -0.00117578198574)
(-0.00269618540324 0.0026591155005 -0.00107791948743)
(-0.00349350517127 0.00180456536023 -0.000924603839132)
(-0.00328501792869 0.000914604269056 -0.00072764864606)
(-0.00249721198413 0.000353065347232 -0.000513913642266)
(-0.00168377208393 8.7561973306e-05 -0.000330351984632)
(-0.00104154345329 -1.87851896515e-05 -0.000202734815444)
(-0.000593050446599 -5.24847231322e-05 -0.000120597769609)
(-0.000299682320734 -5.70713375474e-05 -6.97762454181e-05)
(-0.000106222656544 -5.10392318137e-05 -4.13964425408e-05)
(3.02384772857e-05 -4.31640374243e-05 -2.69153367269e-05)
(0.000135509177106 -3.6052435002e-05 -1.92596423798e-05)
(0.000222806786477 -3.0254543921e-05 -1.47400588731e-05)
(0.000297304594134 -2.58016862906e-05 -1.11919151202e-05)
(0.00035963577995 -2.25807447215e-05 -7.63326728892e-06)
(0.000408704728563 -2.0443600675e-05 -3.85374153314e-06)
(0.000443507635471 -1.89756040286e-05 -2.98493681936e-08)
(0.000464174379596 -1.79462870439e-05 4.1027727983e-06)
(0.000471737597763 -1.75199148015e-05 7.67203798018e-06)
(0.000467680878054 -1.74045217617e-05 1.06424064307e-05)
(0.000453897645908 -1.75021559968e-05 1.30142868223e-05)
(0.00043237862073 -1.7751283691e-05 1.48088376701e-05)
(0.000405066997831 -1.81038715198e-05 1.60696563513e-05)
(0.000373746122071 -1.85166190978e-05 1.68616417877e-05)
(0.000339958626678 -1.89612794192e-05 1.72622639794e-05)
(0.00030498291921 -1.94128588963e-05 1.73470364201e-05)
(0.000269815175178 -1.98512203636e-05 1.71867012408e-05)
(0.000235278010686 -2.02768765203e-05 1.68181144052e-05)
(0.000201840656213 -2.06538261418e-05 1.63266148918e-05)
(0.000170387363692 -2.10362444057e-05 1.55654028848e-05)
(0.000140298497735 -2.12951297214e-05 1.50350818943e-05)
(0.000113659688558 -2.14271753325e-05 1.37697001075e-05)
(8.70333183095e-05 -2.12919684039e-05 1.40461683823e-05)
(6.13908703125e-05 -2.11554598638e-05 1.44269605267e-05)
(2.90019295425e-05 -2.22004329601e-05 1.93149128623e-05)
(0.000577951196061 0.00143230648207 -0.000739545121988)
(0.00208088759459 0.00205888740844 -0.0010734375887)
(0.00293202250035 0.00355558485101 -0.0011396845778)
(0.00222985078821 0.00507921895237 -0.00113251802061)
(0.000556282435649 0.0058488042745 -0.00116076819765)
(-0.00133717054866 0.00585825066947 -0.00114008089686)
(-0.00310262185031 0.00508477277492 -0.00107002977292)
(-0.0040478317065 0.00356186865948 -0.00099447585575)
(-0.00374457318797 0.00193812639973 -0.000855549572786)
(-0.00275358660536 0.000868539436161 -0.00062952111383)
(-0.00179364761716 0.000329475192253 -0.000406749186293)
(-0.00107853570569 8.29997195543e-05 -0.00024831439965)
(-0.000598856616643 -1.45793449231e-05 -0.000148006677619)
(-0.000294356230916 -4.85316684851e-05 -8.85690165703e-05)
(-9.78262849309e-05 -5.43597579661e-05 -5.41878626658e-05)
(3.78122490792e-05 -5.04425343687e-05 -3.63173850519e-05)
(0.000141575548826 -4.44289668875e-05 -2.69552931102e-05)
(0.000227454302091 -3.86830996291e-05 -2.12905835027e-05)
(0.000300731856722 -3.39309427654e-05 -1.69439149549e-05)
(0.000362022689469 -3.04076739113e-05 -1.28119468256e-05)
(0.000410293653393 -2.80558740062e-05 -8.56918449131e-06)
(0.000444583126169 -2.65639500877e-05 -4.49096421163e-06)
(0.000464788806992 -2.55048734279e-05 -5.92306091844e-07)
(0.000471929944603 -2.49614855861e-05 3.09682595436e-06)
(0.00046761413893 -2.48709718257e-05 6.1088636136e-06)
(0.000453639908126 -2.49843289017e-05 8.46611134113e-06)
(0.000431976866493 -2.52419714151e-05 1.02110324722e-05)
(0.000404559077412 -2.55993118157e-05 1.13967654472e-05)
(0.000373159081223 -2.60119147675e-05 1.21051907135e-05)
(0.000339307677829 -2.64513929891e-05 1.24135503678e-05)
(0.00030427279427 -2.68872263996e-05 1.24045470805e-05)
(0.000269032919792 -2.72952008274e-05 1.21547980939e-05)
(0.000234401521118 -2.76659816986e-05 1.16963931586e-05)
(0.000200812734362 -2.79660556222e-05 1.11281797286e-05)
(0.000169165646843 -2.82140705058e-05 1.02771247897e-05)
(0.000138810080582 -2.83414892959e-05 9.67386173505e-06)
(0.000111912230879 -2.82464171655e-05 8.3381667413e-06)
(8.50284452251e-05 -2.7929656152e-05 8.53197600276e-06)
(5.90227779422e-05 -2.75614136729e-05 8.69331660474e-06)
(2.82267967559e-05 -2.73145515803e-05 1.2344611096e-05)
(0.000783960827392 0.0019697943816 -0.000753262711581)
(0.0027377862921 0.00295879693845 -0.00105551507649)
(0.00381955196297 0.00503203348975 -0.000878442714351)
(0.00289231030469 0.00706459322454 -0.000612943228469)
(0.000780402798233 0.00806882294533 -0.000536317972001)
(-0.00155321074952 0.00807596590727 -0.00051383799112)
(-0.00375815082068 0.00705327373626 -0.000544197448639)
(-0.00495020340654 0.00501560871589 -0.000706826065682)
(-0.00451767261836 0.00279846296423 -0.000797819747559)
(-0.0032122602255 0.00130698796232 -0.00066050999695)
(-0.00201364007257 0.000542219124541 -0.00044004077477)
(-0.00117251943111 0.000181139266004 -0.000271252152521)
(-0.000633179426537 3.00088062397e-05 -0.000161756457708)
(-0.000303790795718 -2.81234503206e-05 -9.82649152471e-05)
(-9.752891599e-05 -4.61127508652e-05 -6.19174225895e-05)
(4.11033195705e-05 -4.71363116993e-05 -4.21754923486e-05)
(0.000145054803916 -4.31313586723e-05 -3.19243683231e-05)
(0.000230373086627 -3.81194192831e-05 -2.58185967436e-05)
(0.00030291069451 -3.36484612261e-05 -2.10939894623e-05)
(0.000363472968249 -3.01723411319e-05 -1.66911429107e-05)
(0.000411118272271 -2.77733278516e-05 -1.22912128406e-05)
(0.000444964666858 -2.62885593772e-05 -8.04892053735e-06)
(0.000464913972778 -2.53916291487e-05 -4.17276169319e-06)
(0.000471803430291 -2.48144430712e-05 -6.844231995e-07)
(0.000467272299355 -2.46884201427e-05 2.41009903931e-06)
(0.000453203966855 -2.48063212686e-05 4.78347436629e-06)
(0.000431479823794 -2.50547387964e-05 6.52611135704e-06)
(0.00040402688089 -2.53920759025e-05 7.69502418202e-06)
(0.000372611090227 -2.57825785443e-05 8.38964286258e-06)
(0.000338757178828 -2.61915246855e-05 8.67672751674e-06)
(0.000303728089439 -2.65874348984e-05 8.64943075238e-06)
(0.000268492180512 -2.69433951296e-05 8.38799487715e-06)
(0.000233857514436 -2.72404146439e-05 7.92346178215e-06)
(0.000200242851072 -2.74547511994e-05 7.36011332092e-06)
(0.000168542587875 -2.75773219423e-05 6.52790880679e-06)
(0.000138133995628 -2.76054184543e-05 5.93681016328e-06)
(0.000111185646978 -2.73686662728e-05 4.67247964557e-06)
(8.43145656915e-05 -2.69444176782e-05 4.86366819983e-06)
(5.85310949636e-05 -2.63232844467e-05 5.16060228028e-06)
(2.83382146509e-05 -2.45618222833e-05 9.65938767322e-06)
(0.00107933020558 0.00229400197909 -0.000777360303311)
(0.00360952895162 0.00352146940988 -0.000955375482289)
(0.0049441277508 0.0059200655983 -0.000410113045626)
(0.003712826334 0.00819739830583 0.000210855100817)
(0.00105199411394 0.00929578685426 0.000423314640976)
(-0.0018252293279 0.00930052931936 0.000447251145094)
(-0.0045801274113 0.00816818476163 0.000279104395564)
(-0.00609523868277 0.00587812365794 -0.000212472030325)
(-0.00551934757254 0.00333291128916 -0.000645434926769)
(-0.00382150464451 0.00159036442864 -0.000660043181915)
(-0.00231611472189 0.00068947932082 -0.000459760078618)
(-0.00130950803606 0.000255688719677 -0.000286794831799)
(-0.000688801788478 6.89689046105e-05 -0.000171272313446)
(-0.000324073014559 -6.86437156788e-06 -0.000103456652749)
(-0.000102767668557 -3.30300603514e-05 -6.61723051139e-05)
(4.16880335001e-05 -3.90903374382e-05 -4.52337243074e-05)
(0.000147248502405 -3.71905366062e-05 -3.41946232604e-05)
(0.000232681201391 -3.32315705327e-05 -2.77895038073e-05)
(0.000304805215532 -2.93875492384e-05 -2.29132007304e-05)
(0.000364831969039 -2.62653699031e-05 -1.83275858761e-05)
(0.000411962150613 -2.40323504166e-05 -1.38620609993e-05)
(0.000445403154146 -2.26233245829e-05 -9.5732735704e-06)
(0.00046508938947 -2.18131653575e-05 -5.66885602343e-06)
(0.000471801685752 -2.13477864125e-05 -2.25640837331e-06)
(0.00046711183203 -2.11929154804e-05 7.95316647329e-07)
(0.000452937361693 -2.12795535584e-05 3.19494854375e-06)
(0.00043116232018 -2.14835880082e-05 4.94616043683e-06)
(0.000403678058367 -2.1766690822e-05 6.12280052293e-06)
(0.000372249414639 -2.21016441584e-05 6.81451943048e-06)
(0.000338400022077 -2.24507003041e-05 7.10383946984e-06)
(0.000303387759063 -2.27822970767e-05 7.07759126169e-06)
(0.000268176954309 -2.30694262673e-05 6.82101582225e-06)
(0.000233570607498 -2.32864935501e-05 6.37017347849e-06)
(0.00019998188191 -2.34195694471e-05 5.82734328142e-06)
(0.000168292162735 -2.34502526811e-05 5.04258758509e-06)
(0.000137919485096 -2.34144146681e-05 4.47063321015e-06)
(0.000111031980691 -2.31444869912e-05 3.26781733604e-06)
(8.4298571828e-05 -2.27083892666e-05 3.48920925364e-06)
(5.90269310068e-05 -2.21105160546e-05 3.99536626867e-06)
(2.88068932192e-05 -2.00720189753e-05 9.50504959159e-06)
(0.00141666201298 0.00235311310307 -0.000808019952027)
(0.0045691911594 0.00363121951361 -0.000818722094763)
(0.00614562868882 0.00602480515786 0.000142031417797)
(0.00456925196382 0.00822210975247 0.00113967197788)
(0.0013283545507 0.00924820961242 0.00148266710571)
(-0.00210786109675 0.00925225264178 0.00150741496371)
(-0.00544491972425 0.00818112771393 0.00120453162395)
(-0.00731968015942 0.00596370032906 0.000358492410656)
(-0.00661220173883 0.00343120310152 -0.000454518051865)
(-0.00449826545602 0.00166345105199 -0.000650537048237)
(-0.00265806828192 0.000740959271883 -0.000476143252353)
(-0.00146871663027 0.00029026781412 -0.000300463511588)
(-0.000756440231038 9.22475027456e-05 -0.000179016339588)
(-0.000350366211531 9.40689608146e-06 -0.000107283646935)
(-0.000111301467762 -2.05316621135e-05 -6.80446300528e-05)
(4.01970727634e-05 -2.95208673504e-05 -4.68546144063e-05)
(0.000148524144947 -2.93965745427e-05 -3.48983172102e-05)
(0.000234476543701 -2.64755951778e-05 -2.81942634356e-05)
(0.000306411149967 -2.33309303551e-05 -2.32716703274e-05)
(0.000366061913703 -2.07379405693e-05 -1.86128837673e-05)
(0.000412784785027 -1.87986036412e-05 -1.40923018287e-05)
(0.000445875815631 -1.75391376487e-05 -9.78113841984e-06)
(0.00046532377403 -1.68170272803e-05 -5.88046933276e-06)
(0.00047186651927 -1.6439035594e-05 -2.5125697999e-06)
(0.000467047786977 -1.63143128145e-05 5.51252341478e-07)
(0.000452794664727 -1.63568124271e-05 2.9748266827e-06)
(0.000430972538651 -1.65083731403e-05 4.73417358472e-06)
(0.000403458242963 -1.67309870525e-05 5.9181240215e-06)
(0.000372015581182 -1.70015038964e-05 6.61527600564e-06)
(0.000338169268447 -1.72859671605e-05 6.91187292314e-06)
(0.000303174274896 -1.75516621662e-05 6.89423222781e-06)
(0.000267992679812 -1.77734463779e-05 6.64371890147e-06)
(0.000233422419364 -1.79262382823e-05 6.2138734204e-06)
(0.000199872390643 -1.80011744609e-05 5.68746039508e-06)
(0.000168208371306 -1.79840195079e-05 4.94495651808e-06)
(0.000137885400208 -1.7925009113e-05 4.3878162626e-06)
(0.000111081521879 -1.76951465561e-05 3.2162530409e-06)
(8.44808930279e-05 -1.73390963675e-05 3.43117031912e-06)
(5.96599591215e-05 -1.69082670966e-05 4.00911283835e-06)
(2.92573617614e-05 -1.5228366528e-05 9.92636896545e-06)
(0.00174140883186 0.00213665750782 -0.000839318467443)
(0.00546975544703 0.00327087563065 -0.000689962648915)
(0.00724357823234 0.00533926719129 0.00063978773963)
(0.00533329375992 0.00717646445324 0.00194076005801)
(0.00156658844662 0.00801133664609 0.00236639108423)
(-0.00235501079112 0.00801574857365 0.00239370289509)
(-0.00622102706591 0.00713277348821 0.00200090512772)
(-0.00844187328311 0.00527302148219 0.000870392660995)
(-0.00763979265474 0.00308267814067 -0.000279801513323)
(-0.00514703870954 0.00151944630525 -0.000643549667677)
(-0.00299154275622 0.000690720760785 -0.000492443892039)
(-0.00162689912876 0.000280038268454 -0.000313208884205)
(-0.000825273162338 9.65127057997e-05 -0.000186177112716)
(-0.00037828670546 1.83144103542e-05 -0.000110717483647)
(-0.000121088727919 -1.12131204614e-05 -6.92234969581e-05)
(3.78283271072e-05 -2.01824345314e-05 -4.74650894219e-05)
(0.000149038439703 -2.15111194121e-05 -3.497317499e-05)
(0.000235822707101 -1.94821009255e-05 -2.7955355587e-05)
(0.000307697571077 -1.70532070489e-05 -2.28496564832e-05)
(0.000367072777702 -1.50195214583e-05 -1.82718833859e-05)
(0.000413505312562 -1.3464878473e-05 -1.36861193219e-05)
(0.000446316532111 -1.24008590018e-05 -9.39422957988e-06)
(0.000465547059761 -1.17930138923e-05 -5.50052397962e-06)
(0.000471950339508 -1.1494385504e-05 -2.11961974133e-06)
(0.000467043294753 -1.14171807506e-05 9.46169638779e-07)
(0.00045272664262 -1.14266865176e-05 3.37696626874e-06)
(0.000430860307153 -1.15318310008e-05 5.13964261313e-06)
(0.000403317451128 -1.17012998264e-05 6.33710660346e-06)
(0.000371860104737 -1.1910450819e-05 7.03509038797e-06)
(0.000338015759091 -1.21325457817e-05 7.33159395608e-06)
(0.0003030368149 -1.23383585954e-05 7.31970808892e-06)
(0.000267882429377 -1.25040792198e-05 7.07934205375e-06)
(0.000233346064079 -1.26107798251e-05 6.66031550784e-06)
(0.000199833086203 -1.26521002307e-05 6.15525585582e-06)
(0.000168193846729 -1.26180256246e-05 5.42617350427e-06)
(0.000137909687736 -1.25611329947e-05 4.867602182e-06)
(0.000111171628036 -1.23958571212e-05 3.71526386378e-06)
(8.46547753709e-05 -1.21516147316e-05 3.89844354319e-06)
(6.01203620172e-05 -1.1883985602e-05 4.42517673377e-06)
(2.95521264593e-05 -1.06176880795e-05 1.03573602923e-05)
(0.00200851946074 0.00168260182632 -0.000870166220585)
(0.00619102580079 0.00253249233806 -0.000612010776223)
(0.00810069119904 0.00405618862533 0.000963422446194)
(0.00592664475397 0.00535948803778 0.00242652530764)
(0.00174624801635 0.00593317433382 0.00286588025704)
(-0.00254342198661 0.00593726507271 0.00289687069081)
(-0.00682466453251 0.00532245807895 0.00248511378461)
(-0.00932005308943 0.00399975415955 0.00120204306984)
(-0.00846849951601 0.00238055726727 -0.000166335425684)
(-0.00568361558625 0.00119544593417 -0.000645851212911)
(-0.00327335943435 0.000552910047753 -0.000508481104425)
(-0.00176288213963 0.000229653855329 -0.000324712164399)
(-0.000885597317694 8.28884133692e-05 -0.000192454938361)
(-0.000403275281194 1.95827780768e-05 -0.000113582346632)
(-0.000130045737889 -5.0094965136e-06 -7.03522061873e-05)
(3.53044102151e-05 -1.22582429185e-05 -4.74601295173e-05)
(0.000148997560713 -1.41321545461e-05 -3.51560845811e-05)
(0.000236760283452 -1.28971978777e-05 -2.7593386681e-05)
(0.000308661473897 -1.11934399118e-05 -2.23746770933e-05)
(0.000367854195178 -9.71125825975e-06 -1.77582934418e-05)
(0.000414078729425 -8.58036862424e-06 -1.32419752909e-05)
(0.000446686852891 -7.78567265313e-06 -8.92442112713e-06)
(0.000465745043172 -7.32150922364e-06 -5.04549120207e-06)
(0.000472017283585 -7.07737472732e-06 -1.67369886337e-06)
(0.000467040671578 -7.05942802645e-06 1.48108785159e-06)
(0.000452693829532 -7.06039582529e-06 3.91407086316e-06)
(0.000430790454546 -7.13274617328e-06 5.68479827157e-06)
(0.000403223904707 -7.25919732637e-06 6.87873118047e-06)
(0.000371755396168 -7.41365677074e-06 7.58276823037e-06)
(0.000337911571218 -7.57719716136e-06 7.87942504285e-06)
(0.000302945521812 -7.72994359983e-06 7.86901805352e-06)
(0.000267813646193 -7.85142142586e-06 7.63771025566e-06)
(0.000233304617009 -7.92638381804e-06 7.2243084263e-06)
(0.000199822047081 -7.95277823049e-06 6.73197073797e-06)
(0.000168201852367 -7.92210494048e-06 6.01276385364e-06)
(0.000137941428896 -7.88235112265e-06 5.44947580609e-06)
(0.000111244021911 -7.78058239281e-06 4.28543577084e-06)
(8.47650089483e-05 -7.63452812808e-06 4.43923229902e-06)
(6.0374967785e-05 -7.45481593533e-06 4.88814416772e-06)
(2.96939255849e-05 -6.39960369147e-06 1.06903397336e-05)
(0.00219072706821 0.0010639729688 -0.000897349962505)
(0.00667128035441 0.00157207695304 -0.000591911517062)
(0.00866486196152 0.00247028641346 0.00108762783204)
(0.00630246637777 0.00322028164577 0.00259231196988)
(0.00185516165581 0.00353423076027 0.00300732174264)
(-0.00265910921237 0.00353752415696 0.00304189522697)
(-0.00721512510409 0.00319476720555 0.00264259557469)
(-0.0098908235654 0.00243721707111 0.0013368268213)
(-0.00902580871366 0.00147490538067 -0.000122193946771)
(-0.00605500546433 0.000753562671447 -0.000655542991558)
(-0.00347322456942 0.000353453134865 -0.000522192887688)
(-0.00186091667115 0.000149330109443 -0.000333568449639)
(-0.000929694712188 5.55231129242e-05 -0.000197222972726)
(-0.000421871489632 1.4757266478e-05 -0.00011576851224)
(-0.000136812131029 -1.29489027818e-06 -7.10677094783e-05)
(3.3369056892e-05 -6.07084705808e-06 -4.76687703376e-05)
(0.000148769642837 -7.40824746883e-06 -3.50328226922e-05)
(0.000237316093415 -6.82651337491e-06 -2.73335730623e-05)
(0.000309301170023 -5.82426280394e-06 -2.1994470746e-05)
(0.000368381821342 -4.9282575299e-06 -1.7326258757e-05)
(0.000414465281114 -4.24709129014e-06 -1.28589216647e-05)
(0.000446939275408 -3.77896203335e-06 -8.52230136054e-06)
(0.000465891543069 -3.50118167524e-06 -4.64386009688e-06)
(0.000472069427643 -3.33062333421e-06 -1.28176657776e-06)
(0.000467038041235 -3.33003799054e-06 1.90228376694e-06)
(0.000452674967437 -3.33869736208e-06 4.34121439759e-06)
(0.000430745137707 -3.39007156186e-06 6.11612640503e-06)
(0.000403160891671 -3.4772456343e-06 7.31227227822e-06)
(0.000371684988772 -3.58691580686e-06 8.01458729217e-06)
(0.000337841681239 -3.69938348403e-06 8.31657220026e-06)
(0.000302883990283 -3.80480296355e-06 8.3077030888e-06)
(0.000267768568332 -3.89046481771e-06 8.07804814659e-06)
(0.000233279472691 -3.94391977142e-06 7.66960289136e-06)
(0.000199818428393 -3.96591036476e-06 7.18240250494e-06)
(0.000168210720266 -3.95254050395e-06 6.47048712341e-06)
(0.000137962261078 -3.93761461761e-06 5.90331545712e-06)
(0.000111284334689 -3.89004831347e-06 4.72027042507e-06)
(8.48150893131e-05 -3.81809046236e-06 4.86251960619e-06)
(6.04819787605e-05 -3.64582428431e-06 5.25619781025e-06)
(2.97371489067e-05 -2.57361741089e-06 1.09112345098e-05)
(0.00228083939865 0.000357475078889 -0.00091381528352)
(0.0069052769799 0.000522355288409 -0.00059736344168)
(0.00893656621872 0.000812361530072 0.00110706513043)
(0.00647810197305 0.0010509360424 0.00260911699152)
(0.00190464732693 0.0011470335789 0.0029936395727)
(-0.00271135614299 0.00114900829538 0.00303112537729)
(-0.00739656593303 0.00104254784828 0.00265676240664)
(-0.0101674021328 0.000802036483188 0.0013624821147)
(-0.00929926553416 0.000490117206191 -0.000115798336272)
(-0.00624144224682 0.000252907163453 -0.000664258103648)
(-0.003575380952 0.000119691243339 -0.000530164661827)
(-0.00191161159322 5.12954852311e-05 -0.000338421100913)
(-0.000952711257706 1.9751121377e-05 -0.000199818213688)
(-0.000431567705629 6.04324122613e-06 -0.00011680413294)
(-0.000140393503146 7.68296941772e-07 -7.16432723494e-05)
(3.22829881201e-05 -9.24928437717e-07 -4.78203952412e-05)
(0.00014863759998 -1.33498126985e-06 -3.48544619383e-05)
(0.000237561221171 -1.16479041975e-06 -2.71715275712e-05)
(0.000309615096449 -8.38914727679e-07 -2.17973697115e-05)
(0.000368644542328 -5.45271947709e-07 -1.71031553645e-05)
(0.000414653267723 -3.26552371193e-07 -1.26433450625e-05)
(0.000447058333782 -1.79815589962e-07 -8.26742276381e-06)
(0.00046596664081 -9.97798633917e-08 -4.38790100258e-06)
(0.000472099423664 -4.71127152249e-08 -1.06607365635e-06)
(0.000467032497977 -6.2862987992e-08 2.1320272001e-06)
(0.000452659150105 -8.63489085103e-08 4.56848197596e-06)
(0.000430716188944 -1.26183953957e-07 6.3489273769e-06)
(0.000403120310466 -1.81085261177e-07 7.54519188542e-06)
(0.000371639095036 -2.47794096696e-07 8.24750584819e-06)
(0.000337797418738 -3.14424249471e-07 8.55152345101e-06)
(0.000302844826108 -3.76706952813e-07 8.54480511825e-06)
(0.000267738954541 -4.29897735919e-07 8.31384809058e-06)
(0.000233261689853 -4.67836525607e-07 7.90843696042e-06)
(0.000199812273091 -4.92387973735e-07 7.42061714856e-06)
(0.000168209988862 -5.02661200514e-07 6.71434365029e-06)
(0.000137965902449 -5.17299266702e-07 6.14311726888e-06)
(0.000111291627875 -5.17865188247e-07 4.95465804209e-06)
(8.48179578237e-05 -4.9961893246e-07 5.09407538876e-06)
(6.04954517286e-05 -2.78051798271e-07 5.46536917467e-06)
(2.97215592243e-05 9.80529106265e-07 1.10334316734e-05)
(0.00228012161229 -0.000375121039842 -0.000913938303549)
(0.00690331379045 -0.000546811574831 -0.000597786757842)
(0.00893407538983 -0.000847162951285 0.00110618377278)
(0.00647610170629 -0.00109492366134 0.00260772629028)
(0.00190407589651 -0.0011959817715 0.00299162424986)
(-0.00271052621167 -0.00119724764647 0.00302968316469)
(-0.00739448110108 -0.00108529749532 0.00265471784068)
(-0.0101645252928 -0.000834351197935 0.00136130680273)
(-0.0092965568322 -0.000511110761637 -0.000116352342445)
(-0.00623937625966 -0.000264123542286 -0.000664385363967)
(-0.00357408617259 -0.000124582612185 -0.000530153953141)
(-0.00191085908377 -5.2452601714e-05 -0.000338382668681)
(-0.000952291434253 -1.879292447e-05 -0.000199782414635)
(-0.000431338734123 -3.91249946943e-06 -0.000116783102532)
(-0.000140281671185 1.98229735101e-06 -7.16193991686e-05)
(3.23251300761e-05 3.95666108438e-06 -4.77966250009e-05)
(0.0001486536263 4.46933084773e-06 -3.4851933492e-05)
(0.000237566134798 4.33416994956e-06 -2.71718984915e-05)
(0.000309611972974 3.99840141711e-06 -2.17889745728e-05)
(0.000368638465627 3.6836045626e-06 -1.70941601502e-05)
(0.000414648052975 3.43902590284e-06 -1.26407921585e-05)
(0.00044705239703 3.27534179636e-06 -8.25277549912e-06)
(0.00046595737534 3.16129180495e-06 -4.37546565879e-06)
(0.000472087163159 3.06831717475e-06 -1.05519938983e-06)
(0.000467017533684 3.02678415268e-06 2.1441164699e-06)
(0.000452642283659 2.98769749798e-06 4.58029996644e-06)
(0.000430696663863 2.95520494875e-06 6.36052626785e-06)
(0.000403098933841 2.92881893788e-06 7.55670158257e-06)
(0.000371617146775 2.90587228211e-06 8.2578329247e-06)
(0.00033777605485 2.88412373185e-06 8.56168952001e-06)
(0.000302825096388 2.86306711876e-06 8.55505012626e-06)
(0.000267721855708 2.84155455478e-06 8.32241953632e-06)
(0.000233247070664 2.81772525245e-06 7.91782045677e-06)
(0.000199799772855 2.7883350192e-06 7.4298792123e-06)
(0.000168196529398 2.75282207711e-06 6.7243076464e-06)
(0.000137949890199 2.70681229487e-06 6.15356787017e-06)
(0.000111268354169 2.65814007386e-06 4.9673896361e-06)
(8.47855513586e-05 2.62865332295e-06 5.11126514752e-06)
(6.04513664395e-05 2.91755588504e-06 5.48896702745e-06)
(2.9679503423e-05 4.43892176261e-06 1.10300275209e-05)
(0.00218856354903 -0.00107989700362 -0.000897555584364)
(0.00666546864836 -0.00159415045365 -0.000593000617962)
(0.00865767491566 -0.00250215454509 0.00108482554283)
(0.00629722018605 -0.00326055487488 0.00258832277925)
(0.00185359362468 -0.00357805920374 0.00300201233145)
(-0.00265681992402 -0.00358103061826 0.00303630414009)
(-0.00720896370174 -0.00323283704246 0.00263794668979)
(-0.00988282793274 -0.00246605222367 0.00133371494728)
(-0.00901801860137 -0.00149361718244 -0.000123864588582)
(-0.00604902854829 -0.000763521387984 -0.00065590439621)
(-0.00346949065924 -0.000357723229368 -0.000522157827757)
(-0.00185874768599 -0.000150168347966 -0.000333448304316)
(-0.000928473172457 -5.44373172881e-05 -0.000197102122362)
(-0.000421205983587 -1.2610618887e-05 -0.000115686221291)
(-0.000136474891675 4.02774525286e-06 -7.09771898106e-05)
(3.35175810842e-05 9.08003867891e-06 -4.76014295348e-05)
(0.000148821645201 1.0529156626e-05 -3.50024071866e-05)
(0.000237323232509 9.98209009475e-06 -2.73190814382e-05)
(0.000309288416372 8.95606315356e-06 -2.19675707951e-05)
(0.000368364141615 8.03571778885e-06 -1.72980096113e-05)
(0.0004144489145 7.33686544132e-06 -1.28422533263e-05)
(0.000446919604584 6.84434176677e-06 -8.48189840026e-06)
(0.000465863557905 6.52974641774e-06 -4.60334536857e-06)
(0.000472032826274 6.3154901102e-06 -1.2478315231e-06)
(0.000466993036451 6.25531983383e-06 1.93854173196e-06)
(0.000452624360619 6.20085405029e-06 4.3785707439e-06)
(0.000430687843303 6.18015279089e-06 6.15275134784e-06)
(0.000403096796178 6.18653836005e-06 7.34810657654e-06)
(0.000371617930381 6.20644853455e-06 8.04863678565e-06)
(0.000337777208593 6.23060656956e-06 8.35156996551e-06)
(0.000302824735897 6.25253373665e-06 8.34185856833e-06)
(0.000267717491308 6.2647621233e-06 8.10701672286e-06)
(0.000233236324338 6.25778981549e-06 7.69893584716e-06)
(0.000199781071361 6.22681715398e-06 7.21093571058e-06)
(0.000168169848453 6.16817690959e-06 6.50347667697e-06)
(0.000137913574953 6.09184742127e-06 5.93814139428e-06)
(0.000111212070207 5.99182661408e-06 4.76658148044e-06)
(8.47126797904e-05 5.89942595987e-06 4.91968794506e-06)
(6.03450920682e-05 6.21992078261e-06 5.33215706741e-06)
(2.96052657638e-05 7.9582041699e-06 1.09182607701e-05)
(0.00200529781977 -0.0016954541961 -0.00087040968968)
(0.00618185054246 -0.00255022244578 -0.000613641113388)
(0.00808928458782 -0.00408210067226 0.000958900775614)
(0.00591842731951 -0.00539273806692 0.00242003949502)
(0.00174405674622 -0.00596909472682 0.00285830810237)
(-0.00253968345154 -0.00597244593804 0.00288918307373)
(-0.0068150325938 -0.00535301941494 0.00247835081492)
(-0.00930750801254 -0.00402267422364 0.00119761332029)
(-0.00845636677509 -0.00239524474623 -0.000168792120928)
(-0.00567433572138 -0.00120317891178 -0.000646316376873)
(-0.00326750700944 -0.000556064074729 -0.000508421850868)
(-0.00175945545622 -0.000229982250162 -0.00032452792376)
(-0.000883687533417 -8.158538327e-05 -0.000192256631326)
(-0.000402224336908 -1.7366083321e-05 -0.000113427974049)
(-0.000129503979849 7.73265355835e-06 -7.02248368014e-05)
(3.55393896252e-05 1.52215637826e-05 -4.72851056989e-05)
(0.000149086010726 1.71683404517e-05 -3.50559078059e-05)
(0.000236770159372 1.59927447596e-05 -2.75284034834e-05)
(0.000308633989726 1.42583035037e-05 -2.23208320537e-05)
(0.000367826892453 1.27504727978e-05 -1.77095573489e-05)
(0.000414052333076 1.15971078847e-05 -1.31917778134e-05)
(0.000446650223251 1.07727171893e-05 -8.85611608987e-06)
(0.000465695462271 1.02677547745e-05 -4.97928376656e-06)
(0.000471953346612 9.96803935969e-06 -1.6191002183e-06)
(0.000466964342674 9.8951440135e-06 1.55165355946e-06)
(0.000452609371543 9.83359702371e-06 3.98315033912e-06)
(0.000430694516551 9.83363950584e-06 5.75429283475e-06)
(0.000403117286193 9.87790348215e-06 6.94787621845e-06)
(0.000371644462535 9.94450835315e-06 7.64763599627e-06)
(0.000337804377403 1.00203060857e-05 7.94551994569e-06)
(0.000302847433956 1.00910962175e-05 7.93087492021e-06)
(0.000267729777043 1.01424693337e-05 7.69476636331e-06)
(0.000233233548745 1.01589406626e-05 7.28041395693e-06)
(0.00019976069562 1.01335595874e-05 6.78765759421e-06)
(0.000168134345849 1.00590387045e-05 6.07674525058e-06)
(0.000137859231575 9.95580410114e-06 5.51539197506e-06)