/*--------------------------------*- C++ -*----------------------------------*\
| =========                 |                                                 |
| \\      /  F ield         | OpenFOAM: The Open Source CFD Toolbox           |
|  \\    /   O peration     | Version:  3.0.1                                 |
|   \\  /    A nd           | Web:      www.OpenFOAM.org                      |
|    \\/     M anipulation  |                                                 |
\*---------------------------------------------------------------------------*/
FoamFile
{
    version     2.0;
    format      ascii;
    class       volScalarField;
    location    "2.6";
    object      p;
}
// * * * * * * * * * * * * * * * * * * * * * * * * * * * * * * * * * * * * * //

dimensions      [1 -1 -2 0 0 0 0];

internalField   nonuniform List<scalar> 
7968
(
5116.99229714
5117.0008415
5116.95420278
5116.87455828
5116.77440076
5116.6695397
5116.57902377
5116.51070701
5116.46534531
5116.44245847
5116.44119584
5116.46160448
5116.50461465
5116.57078591
5116.65945932
5116.76288146
5116.86200488
5116.94102181
5116.98737217
5116.97876702
5117.00108527
5117.06014976
5117.0387307
5116.9698794
5116.86843072
5116.75717082
5116.65625189
5116.57920795
5116.52810698
5116.50226218
5116.50098952
5116.52434133
5116.57307622
5116.64796822
5116.74704734
5116.856866
5116.95730354
5117.02556862
5117.0467502
5116.98767078
5116.95478401
5117.03909394
5117.02097115
5116.93890447
5116.80952159
5116.66323331
5116.52735614
5116.42051706
5116.34833852
5116.31164223
5116.31038305
5116.34460791
5116.41444521
5116.51916051
5116.6532223
5116.79808902
5116.92649328
5117.00801965
5117.02596387
5116.94168481
5116.87562984
5116.97075353
5116.93942024
5116.82397392
5116.64703938
5116.44913375
5116.26670724
5116.12273233
5116.02517221
5115.97584132
5115.97463792
5116.02160369
5116.11693511
5116.25888571
5116.43956778
5116.63610973
5116.81211605
5116.92707136
5116.95826991
5116.86320349
5116.7759865
5116.86984975
5116.81059286
5116.64760132
5116.41429074
5116.16256652
5115.93705334
5115.7619963
5115.64467218
5115.58526249
5115.58416558
5115.64142789
5115.75672131
5115.92992291
5116.15381204
5116.40427718
5116.63672878
5116.79927482
5116.85842615
5116.7646217
5116.67153641
5116.75898702
5116.66472301
5116.45013338
5116.16302158
5115.86590195
5115.60762836
5115.41237973
5115.28404151
5115.21960536
5115.21863486
5115.28118866
5115.40776886
5115.60142144
5115.85829576
5116.15429089
5116.44064443
5116.65483948
5116.74901546
5116.66161719
5116.58107555
5116.65815102
5116.52893818
5116.26778604
5115.937566
5115.60769788
5115.32942569
5115.12719668
5114.99830859
5114.93443097
5114.93360465
5114.99589463
5115.12334076
5115.32426635
5115.60142923
5115.93040551
5116.26000102
5116.52082717
5116.64996909
5116.57292987
5116.51237792
5116.58071513
5116.42170166
5116.1233789
5115.76203223
5115.41202148
5115.12683801
5114.93315509
5114.81804462
5114.7617522
5114.76108983
5114.81610205
5114.9300699
5115.12279523
5115.40718129
5115.7565804
5116.11749631
5116.4155948
5116.57455694
5116.50623803
5116.46612778
5116.52868939
5116.34858717
5116.02487346
5115.64370715
5115.2827511
5114.99722908
5114.81741085
5114.71489531
5114.66379243
5114.66331967
5114.71346622
5114.81510593
5114.99429569
5115.27936736
5115.64002906
5116.02099557
5116.34460813
5116.52467806
5116.46211491
5116.44184976
5116.50141002
5116.31043644
5115.97404975
5115.58289962
5115.21700222
5114.93220336
5114.7601486
5114.66297548
5114.61390313
5114.61356472
5114.66198362
5114.75861912
5114.93042767
5115.21512758
5115.5810453
5115.97222389
5116.30863925
5116.49959094
5116.44001247
5116.43877321
5116.4982773
5116.30730898
5115.97104523
5115.58014083
5115.21453672
5114.93002296
5114.7582097
5114.66135723
5114.61250587
5114.61231088
5114.66081624
5114.75753778
5114.92947184
5115.21421428
5115.58012859
5115.97127569
5116.30765985
5116.49862599
5116.43908704
5116.45704654
5116.51945383
5116.33936733
5116.01599534
5115.63554586
5115.27546159
5114.99080873
5114.81173666
5114.70997022
5114.65949186
5114.65951009
5114.71005026
5114.8120414
5114.99156584
5115.2767358
5115.63736126
5116.01823128
5116.3417802
5116.52186953
5116.45941536
5116.49772578
5116.56581624
5116.40684388
5116.10907534
5115.74880999
5115.40017991
5115.11642821
5114.92398725
5114.81001029
5114.75472822
5114.75497704
5114.81078158
5114.9253693
5115.11853873
5115.40303092
5115.75236522
5116.11314498
5116.41114642
5116.5701305
5116.50198108
5116.56151564
5116.63828334
5116.50914115
5116.24869272
5115.91982109
5115.59173957
5115.31539186
5115.11498704
5114.98773777
5114.92531228
5114.92579259
5114.9891881
5115.11740656
5115.31879317
5115.59605602
5115.92494931
5116.25438643
5116.51509483
5116.64425891
5116.56742838
5116.64794132
5116.73507156
5116.64090376
5116.4270993
5116.14148867
5115.84648932
5115.59054936
5115.39757351
5115.27134823
5115.20879497
5115.20946164
5115.27333631
5115.40084541
5115.59501668
5115.85203732
5116.147936
5116.43411656
5116.64819312
5116.74239946
5116.65521711
5116.74941741
5116.84290945
5116.78379517
5116.62167322
5116.39001378
5116.14057211
5115.91770663
5115.74527385
5115.63043218
5115.57325522
5115.57405883
5115.63281466
5115.74915311
5115.92295832
5116.14702692
5116.39738758
5116.62964589
5116.79206499
5116.851241
5116.75770807
5116.84702169
5116.94183045
5116.91071533
5116.79622356
5116.6210318
5116.42553201
5116.24590318
5116.10478778
5116.00997584
5115.96307524
5115.96396161
5116.0125992
5116.10904591
5116.25164223
5116.4325307
5116.62898596
5116.80481274
5116.91963579
5116.95084268
5116.85601585
5116.92499679
5117.00910375
5116.99132356
5116.91032249
5116.78275909
5116.63893289
5116.50591892
5116.4020519
5116.33273934
5116.29862345
5116.2995477
5116.33547257
5116.40648833
5116.51188937
5116.64619975
5116.79101196
5116.91924494
5117.00061339
5117.01851751
5116.93441908
5116.97075206
5117.02977417
5117.00886095
5116.94119961
5116.84164175
5116.73286633
5116.63481497
5116.56074941
5116.51251521
5116.48926211
5116.49019344
5116.51527179
5116.56522814
5116.64085127
5116.74022355
5116.8500107
5116.95026633
5117.01832637
5117.03939737
5116.98041836
5116.96181028
5116.97048975
5116.924525
5116.84618348
5116.74797173
5116.64560681
5116.55794166
5116.49258832
5116.45008012
5116.42977689
5116.43071216
5116.45285037
5116.49708837
5116.56400225
5116.65298183
5116.75637562
5116.85528036
5116.93402364
5116.98016238
5116.97154304
4627.31953656
4627.30677788
4627.24438801
4627.15454946
4627.05347834
4626.95476015
4626.87145666
4626.81119093
4626.77244781
4626.7530884
4626.75181234
4626.76867082
4626.80503602
4626.86313388
4626.94457946
4627.04184268
4627.14189749
4627.23116094
4627.2933433
4627.3061156
4627.30704858
4627.34126779
4627.29793064
4627.21864076
4627.12871182
4627.04054522
4626.96482979
4626.90978391
4626.87400713
4626.8557161
4626.85440725
4626.87016964
4626.90352684
4626.95636047
4627.03017095
4627.11683553
4627.20573913
4627.28450203
4627.32773912
4627.29365157
4627.24507758
4627.29840698
4627.24684092
4627.14908985
4627.03740614
4626.92650627
4626.82914436
4626.75440609
4626.70343974
4626.67697487
4626.67568625
4626.69962123
4626.74818137
4626.82071653
4626.91616106
4627.02554067
4627.13619756
4627.23345861
4627.28501293
4627.23190164
4627.15583155
4627.21975357
4627.14971392
4627.01887486
4626.87021211
4626.7236926
4626.5956671
4626.49508023
4626.42395745
4626.38818295
4626.38696082
4626.42029747
4626.48916541
4626.5876621
4626.71382577
4626.85886487
4627.00652123
4627.13689555
4627.20695723
4627.14327084
4627.05539312
4627.13046257
4627.03862006
4626.87076026
4626.68479183
4626.50748754
4626.35933819
4626.24476399
4626.1656292
4626.12365253
4626.1225457
4626.16236085
4626.23944298
4626.35210886
4626.49848199
4626.67445883
4626.85948282
4627.02689571
4627.11875538
4627.04388229
4626.95714237
4627.04271415
4626.92806239
4626.72450525
4626.50779362
4626.31478367
4626.15789558
4626.04258842
4625.96468472
4625.9227872
4625.92179799
4625.96180349
4626.03795878
4626.15166737
4626.3070822
4626.49883036
4626.7147333
4626.91787863
4627.03252295
4626.94709009
4626.87395597
4626.9670555
4626.83064287
4626.59626361
4626.35920588
4626.15758749
4626.00304778
4625.89801313
4625.82860612
4625.79053324
4625.78967411
4625.82612364
4625.89407647
4625.99786056
4626.15125214
4626.35190197
4626.58829233
4626.82232845
4626.95872059
4626.86569958
4626.81332482
4626.91156781
4626.75536618
4626.49503315
4626.24370928
4626.04150407
4625.8973478
4625.80370575
4625.73897395
4625.70209538
4625.70142563
4625.73702357
4625.80063135
4625.89318875
4626.03652561
4626.23809027
4626.4890063
4626.74911087
4626.90530195
4626.80709729
4626.773676
4626.87483031
4626.70342194
4626.42311283
4626.16332785
4625.9624262
4625.82721982
4625.73837093
4625.67721054
4625.64144214
4625.64098306
4625.67579195
4625.73596566
4625.82402072
4625.95874802
4626.15938232
4626.41907372
4626.69930489
4626.87073684
4626.76960509
4626.7528848
4626.85508181
4626.67547266
4626.38555111
4626.11984428
4625.91906931
4625.78787899
4625.7003938
4625.6406772
4625.60552651
4625.60514481
4625.6395593
4625.69864689
4625.78569845
4625.91674292
4626.11760043
4626.38349484
4626.67352371
4626.85319854
4626.75101812
4626.74973026
4626.85190398
4626.67233258
4626.38253018
4626.11714469
4625.91665535
4625.78571778
4625.69852702
4625.63917185
4625.60423681
4625.60397023
4625.63841559
4625.69751999
4625.7846676
4625.91577849
4626.11665193
4626.38252217
4626.67253674
4626.85220444
4626.75004681
4626.76437324
4626.86544345
4626.69413617
4626.4141168
4626.15529764
4625.95523995
4625.82080572
4625.73276058
4625.67244712
4625.63727112
4625.63724647
4625.67237391
4625.73278406
4625.82103035
4625.95590941
4626.15660532
4626.41619857
4626.69643272
4626.86784708
4626.76678083
4626.79832007
4626.89638644
4626.74035623
4626.48069837
4626.23058921
4626.02968581
4625.88681175
4625.79453841
4625.73087783
4625.6949258
4625.69514843
4625.73156597
4625.79572831
4625.88845484
4626.03198509
4626.23367635
4626.48455192
4626.74459617
4626.90075051
4626.80266079
4626.8539561
4626.94675512
4626.81052752
4626.57700607
4626.34134443
4626.14143
4625.98863056
4625.88525021
4625.81741396
4625.78071301
4625.7811627
4625.81876599
4625.88744325
4625.99169495
4626.14535639
4626.34619573
4626.58259447
4626.81653333
4626.95286798
4626.8600051
4626.93308477
4627.01821933
4626.90370311
4626.70102899
4626.48566553
4626.29486518
4626.14017713
4626.02695484
4625.95103897
4625.91096013
4625.91162273
4625.95300831
4626.03014565
4626.14451865
4626.30030948
4626.49223048
4626.70816799
4626.91120754
4627.02578315
4626.94054283
4627.02833243
4627.10283674
4627.01108509
4626.84417055
4626.6598854
4626.48475651
4626.33920574
4626.22710037
4626.15038039
4626.11061445
4626.11144646
4626.15283441
4626.2310679
4626.34456779
4626.49143591
4626.66750861
4626.8524693
4627.01972563
4627.11149537
4627.03685063
4627.12681385
4627.19013558
4627.12019013
4626.99034568
4626.84350393
4626.69941814
4626.57419233
4626.47648161
4626.40829514
4626.37485106
4626.37577489
4626.41102748
4626.48090076
4626.58014965
4626.70671824
4626.85184074
4626.99939205
4627.12956769
4627.19952137
4627.13605396
4627.21500602
4627.26784208
4627.21646746
4627.11979855
4627.01003207
4626.90170498
4626.80729221
4626.73560683
4626.68761491
4626.66380323
4626.66475976
4626.69044305
4626.74020129
4626.81348751
4626.90927615
4627.01867141
4627.12916381
4627.22618959
4627.27761002
4627.22466826
4627.27658928
4627.31055311
4627.26759424
4627.18950148
4627.10155898
4627.01601182
4626.94329938
4626.89135527
4626.8585538
4626.84293076
4626.84388237
4626.86137069
4626.89594103
4626.94949579
4627.02359348
4627.11021517
4627.19890362
4627.27739695
4627.32046871
4627.28646708
4627.28904312
4627.27631597
4627.21453495
4627.12601461
4627.02697094
4626.93086889
4626.8505546
4626.79338198
4626.75760019
4626.74089648
4626.74185355
4626.76043315
4626.79798718
4626.85676561
4626.93844705
4627.03560672
4627.13536986
4627.22428965
4627.28621409
4627.29894896
4137.69085949
4137.67536664
4137.61256491
4137.52686654
4137.43741467
4137.35545096
4137.29022222
4137.24655533
4137.2205274
4137.2079097
4137.20665399
4137.21680579
4137.24048335
4137.28200196
4137.34538752
4137.42591599
4137.5144179
4137.59963444
4137.66233796
4137.67792616
4137.6757305
4137.72825574
4137.69692723
4137.62864561
4137.56144141
4137.50215482
4137.45584443
4137.4254733
4137.40714445
4137.39765161
4137.39635254
4137.40329909
4137.41918978
4137.44731927
4137.49169067
4137.54946423
4137.61566303
4137.68352442
4137.71493973
4137.66272214
4137.61352983
4137.69761253
4137.65743102
4137.5593672
4137.4600115
4137.37123257
4137.29900832
4137.2465216
4137.21252889
4137.1944867
4137.19317474
4137.20865767
4137.24017064
4137.29037205
4137.36059598
4137.44780964
4137.54616308
4137.64385849
4137.68424611
4137.60061926
4137.52864294
4137.63020306
4137.56024962
4137.40780779
4137.25142405
4137.11069984
4136.99485892
4136.90922722
4136.85586149
4136.82582147
4136.82458733
4136.85224156
4136.90313541
4136.98658452
4137.10049406
4137.23967649
4137.39505605
4137.54713911
4137.6173312
4137.51624197
4137.44007063
4137.56385051
4137.46170121
4137.25215945
4137.03584592
4136.84132787
4136.48822118
4136.02806792
4135.80532022
4135.7695472
4135.76849122
4135.80222848
4136.02289355
4136.48099101
4136.83226487
4137.02519347
4137.24051566
4137.44968581
4137.55204609
4137.42865488
4137.35874438
4137.50512926
4137.37339879
4137.11186516
4136.84169954
4136.05560849
4134.2469226
4132.49707236
4131.87368363
4131.83611784
4131.8354998
4131.8719626
4132.49424832
4134.24235499
4136.04842738
4136.8325942
4137.10179153
4137.36297593
4137.4948521
4137.34875669
4137.29373612
4137.45890832
4137.30116938
4136.99603821
4136.48868868
4134.24669293
4130.03536981
4126.72800556
4125.7068571
4125.67363763
4125.67347401
4125.70646829
4126.7274683
4130.03386496
4134.24237166
4136.48147643
4136.98780779
4137.29268015
4137.45050761
4137.28552932
4137.24971694
4137.42804333
4137.24804941
4136.9096485
4136.02789632
4132.49550973
4126.72487737
4122.59588405
4121.37332049
4121.34947803
4121.34967783
4121.37382075
4122.59679983
4126.72547396
4132.49361528
4136.0228339
4136.9034763
4137.24167214
4137.4217186
4137.24352544
4137.22272244
4137.40866451
4137.21284358
4136.85460161
4135.80364464
4131.86944724
4125.69923951
4121.36648211
4120.10567232
4120.08774447
4120.08794456
4120.10630149
4121.36803921
4125.70108667
4131.86918974
4135.80043039
4136.85041972
4137.20863648
4137.40451363
4137.21868581
4137.20857125
4137.39763253
4137.19323143
4136.82316801
4135.76554932
4131.82832848
4125.66103197
4121.33737013
4120.08153749
4120.06620621
4120.06654189
4120.08257553
4121.33964407
4125.66417907
4131.8297112
4135.76418815
4136.82112264
4137.19124793
4137.39570144
4137.20675013
4137.20529761
4137.39434556
4137.18994521
4136.82000895
4135.76234762
4131.82435399
4125.65571472
4121.33114092
4120.07527837
4120.06010247
4120.06058041
4120.07684587
4121.33464756
4125.66046143
4131.82761578
4135.76291544
4136.81996319
4137.19013723
4137.3946114
4137.20567206
4137.2130784
4137.39895574
4137.20314714
4136.84533033
4135.794149
4131.85774183
4125.68368017
4121.34883783
4120.08759539
4120.07040243
4120.07115592
4120.08994778
4121.35361509
4125.69028007
4131.86310725
4135.79668206
4136.84716044
4137.20545058
4137.40135658
4137.21557424
4137.23419382
4137.41234666
4137.23233798
4136.89432024
4136.0131092
4132.47851656
4126.70272269
4122.57024538
4121.34772289
4121.32527956
4121.32620378
4121.35055151
4122.57577665
4126.71038565
4132.48525191
4136.01731511
4136.89832769
4137.23668463
4137.41676409
4137.23866399
4137.27311329
4137.43793739
4137.28017205
4136.97564448
4136.46971624
4134.22738699
4130.01304822
4126.70263929
4125.68161008
4125.64963151
4125.65051717
4125.68423143
4126.7077409
4130.02022873
4134.23410782
4136.47515822
4136.98153325
4137.28638379
4137.4441838
4137.27934253
4137.33406118
4137.47988927
4137.34809914
4137.08737404
4136.81916806
4136.0347037
4134.22698085
4132.4775774
4131.85539344
4131.81944317
4131.82023435
4131.85770252
4132.48186156
4134.23301923
4136.04111142
4136.82573885
4137.09479011
4137.35589645
4137.48768152
4137.34174683
4137.41247173
4137.53549771
4137.43321928
4137.22456777
4137.01015755
4136.81836453
4136.4679145
4136.01019686
4135.79010778
4135.7567164
4135.75759971
4135.79272547
4136.01460667
4136.473851
4136.82520548
4137.01807041
4137.23319287
4137.44222892
4137.54446836
4137.4212598
4137.49929698
4137.59996359
4137.52991251
4137.37843715
4137.22398822
4137.08599677
4136.97332222
4136.89074693
4136.84022348
4136.8130699
4136.81404997
4136.84309191
4136.89538308
4136.97956705
4137.0936079
4137.23265699
4137.3878852
4137.53971446
4137.60971371
4137.50882127
4137.58338866
4137.66667599
4137.6265307
4137.52957562
4137.43228603
4137.34631447
4137.27728211
4137.22805839
4137.19717979
4137.1819819
4137.18300339
4137.20015385
4137.23286005
4137.28372361
4137.35418198
4137.44125855
4137.53933043
4137.63665137
4137.67679523
4137.59332785
4137.64546401
4137.69753253
4137.66647736
4137.59944975
4137.53440264
4137.47795692
4137.43486142
4137.40779585
4137.39260765
4137.3859048
4137.38689182
4137.39551378
4137.41251655
4137.44122779
4137.48575754
4137.54332878
4137.60915886
4137.67659497
4137.70774025
4137.65558404
4137.66073588
4137.64524437
4137.58305601
4137.49877216
4137.41151382
4137.33237839
4137.27035875
4137.22998583
4137.20706803
4137.19719492
4137.19818596
4137.20999304
4137.23473247
4137.27675268
4137.34018182
4137.42039827
4137.50840065
4137.59308097
4137.65538606
4137.67084808
3648.06347592
3648.05369924
3648.00541919
3647.94322916
3647.88559403
3647.83925751
3647.8095679
3647.79661955
3647.79310168
3647.7922318
3647.79105233
3647.78960359
3647.79090223
3647.80180288
3647.82971794
3647.87467734
3647.93144754
3647.99325176
3648.04153426
3648.05149274
3648.0542405
3648.13504924
3648.13425767
3648.10074885
3648.07684291
3648.06265836
3648.05818116
3648.0610768
3648.06539214
3648.06699945
3648.06575372
3648.06170667
3648.05504259
3648.04995853
3648.05252968
3648.06524996
3648.08817007
3648.12136988
3648.12242226
3648.04208344
3648.0068781
3648.13526875
3648.12376863
3648.04192692
3647.95802789
3647.88639389
3647.83093901
3647.79275525
3647.77076305
3647.7598511
3647.75854803
3647.76696546
3647.78654446
3647.82240826
3647.87581432
3647.94589279
3648.02887214
3648.11049772
3648.12240633
3647.9946838
3647.945887
3648.10301465
3648.04324741
3647.87342028
3647.68989881
3647.17727886
3645.95400488
3644.76807315
3644.36601873
3644.34097505
3644.33992141
3644.36312582
3644.76327037
3645.94659816
3647.16717451
3647.67803422
3647.86066903
3648.03029853
3648.09052219
3647.93407186
3647.8895008
3648.08032107
3647.96057126
3647.69102656
3646.59804576
3643.1663531
3637.79881232
3633.62760515
3632.31234434
3632.27651292
3632.27646728
3632.31237614
3633.62754612
3637.7970797
3643.16056249
3646.58816561
3647.67932223
3647.94866547
3648.06884834
3647.87856146
3647.84409191
3648.06700662
3647.88973661
3647.17921817
3643.16737386
3633.60634073
3621.71127898
3613.52254282
3611.112004
3611.06733643
3611.06840181
3611.11571874
3613.52841129
3621.7169479
3633.60804276
3643.16233071
3647.16955006
3647.87941022
3648.05701982
3647.83450139
3647.81478724
3648.06273488
3647.83459114
3645.95619218
3637.79774222
3621.70608462
3603.61658436
3591.89560517
3588.57852849
3588.53060434
3588.5328721
3588.58583605
3591.90693738
3603.62904157
3621.71495557
3637.79872926
3645.94977026
3647.82620819
3648.05458547
3647.80690879
3647.80151659
3648.06511368
3647.79587234
3644.76902069
3633.62195253
3613.50725162
3591.87422151
3578.29732265
3574.50596247
3574.47786868
3574.48075697
3574.51489814
3578.31156091
3591.89135618
3613.52138187
3633.62739167
3644.76576543
3647.78961558
3648.05898022
3647.79558174
3647.79694862
3648.06829113
3647.77251885
3644.36412188
3632.29975778
3611.08410696
3588.53563377
3574.48039176
3570.60403097
3570.60582317
3570.6082298
3570.61249232
3574.49654434
3588.55490838
3611.10028267
3632.30823796
3644.36363764
3647.7684812
3648.06426901
3647.79310696
3647.79437171
3648.06823677
3647.75966957
3644.33562707
3632.2553522
3611.02271999
3588.46852175
3574.42887559
3570.58047838
3570.58969832
3570.5933322
3570.5904718
3574.44629234
3588.48903637
3611.04045863
3632.26671564
3644.33791053
3647.75793662
3648.06639485
3647.79271171
3647.79093207
3648.06479804
3647.75610875
3644.33099841
3632.2477729
3611.00963475
3588.45010394
3574.40682033
3570.55545731
3570.56532581
3570.56878707
3570.56698922
3574.42575529
3588.47234366
3611.02981879
3632.26213981
3644.33592756
3647.7566109
3648.06512042
3647.79145189
3647.78684614
3648.05818198
3647.7621029
3644.35054136
3632.27702608
3611.04519488
3588.48098246
3574.41591983
3570.53596399
3570.53910264
3570.5426402
3570.54803869
3574.4363295
3588.50598067
3611.06879058
3632.2947134
3644.35812925
3647.7647706
3648.06061395
3647.78948557
3647.78534277
3648.04885335
3647.77922365
3644.74858222
3633.58888402
3613.45094347
3591.79264474
3578.1979279
3574.40356038
3574.37747248
3574.38150386
3574.41579059
3578.21835787
3591.81862906
3613.47586137
3633.60794836
3644.75761381
3647.78388468
3648.05330334
3647.78997207
3647.79343654
3648.04110937
3647.81252719
3645.93217578
3637.76312254
3621.64835331
3603.53027943
3591.78781302
3588.4657905
3588.420082
3588.42372085
3588.47629145
3591.80548066
3603.55325771
3621.67049099
3637.78003933
3645.94098987
3647.81905797
3648.04744386
3647.79986353
3647.81875703
3648.04117475
3647.86356433
3647.15294029
3643.13699821
3633.5618591
3621.64525431
3613.44055411
3611.02679386
3610.9827541
3610.98520896
3611.03380856
3613.45286152
3621.66214544
3633.57865268
3643.149725
3647.16126714
3647.87166688
3648.04914753
3647.82668634
3647.86147895
3648.05155398
3647.93144425
3647.66249022
3646.57029743
3643.1368709
3637.76258549
3633.58602553
3632.27037558
3632.23590378
3632.23728798
3632.27439274
3633.59343923
3637.77320849
3643.1479792
3646.57976981
3647.67138887
3647.9407607
3648.06078989
3647.87055221
3647.91649932
3648.07260625
3648.0126553
3647.84379357
3647.66222837
3647.1520479
3645.93093917
3644.74717787
3644.34748641
3644.32512154
3644.32621178
3644.35047556
3644.75247218
3645.93858498
3647.16055429
3647.6711651
3647.85350696
3648.02281967
3648.08268829
3647.92632431
3647.97714366
3648.10458039
3648.09311429
3648.01253531
3647.93098196
3647.86253818
3647.81073021
3647.77626763
3647.75761969
3647.74965214
3647.75079897
3647.76082721
3647.78135551
3647.8174673
3647.87071439
3647.94022477
3648.02262377
3648.10359575
3648.11502313
3647.98735672
3648.02478757
3648.10502861
3648.10456478
3648.07250861
3648.05109775
3648.04012107
3648.03914347
3648.04560748
3648.0532472
3648.05774603
3648.05877662
3648.05625161
3648.05047315
3648.04568067
3648.04814147
3648.06030141
3648.08251785
3648.11497555
3648.1154979
3648.03512248
3648.0344143
3648.02468261
3647.97712913
3647.916572
3647.86142758
3647.81826466
3647.79210555
3647.78272598
3647.78250032
3647.78445798
3647.78550052
3647.78556158
3647.78768109
3647.79875309
3647.82636084
3647.87062203
3647.92651574
3647.98742737
3648.0350396
3648.04469877
3158.41157098
3158.41740114
3158.41240813
3158.41175547
3158.42669952
3158.45396028
3158.49207224
3158.53477844
3158.5701581
3158.58908554
3158.58804303
3158.56706705
3158.52972218
3158.48518205
3158.44545747
3158.41694094
3158.40119526
3158.40156219
3158.40666692
3158.40109419
3158.41820512
3158.52315843
3158.56786751
3158.59776914
3158.64226792
3158.69328317
3158.74468486
3158.78910946
3158.819318
3158.83280236
3158.83167856
3158.81601661
3158.78368177
3158.73720982
3158.68396439
3158.63152295
3158.58616211
3158.55608495
3158.51180083
3158.40744797
3158.4146033
3158.56940081
3158.58400631
3158.5329202
3158.48015884
3158.09259666
3156.97630756
3155.86881299
3155.51489904
3155.51227732
3155.51136871
3155.51240536
3155.86455147
3156.96938026
3158.08283772
3158.4687301
3158.52066156
3158.57164712
3158.55761436
3158.40364601
3158.41574513
3158.6012157
3158.53486546
3158.32063857
3156.67134417
3151.82174332
3144.73261386
3139.38724678
3137.78622544
3137.76740832
3137.7675859
3137.78690026
3139.38820497
3144.73171505
3151.81636067
3156.66165206
3158.30852968
3158.52267542
3158.58963007
3158.40500395
3158.43249503
3158.64757204
3158.48391378
3156.67224585
3148.63297769
3132.62696126
3114.54034622
3102.7594155
3099.42710697
3099.40078849
3099.40221815
3099.43280283
3102.7685201
3114.54921285
3132.63234397
3148.63108939
3156.6632562
3158.47267153
3158.63687018
3158.42249486
3158.46120347
3158.69990752
3158.0972756
3151.82202573
3132.62388532
3102.72480468
3073.62199453
3056.10261799
3051.29439615
3051.26439091
3051.26877317
3051.30798315
3056.12444198
3073.64689185
3102.74479497
3132.63252723
3151.81896854
3158.08811473
3158.69061835
3158.45240945
3158.50004604
3158.75180935
3156.9805571
3144.72858827
3114.5309716
3073.60369602
3036.61100036
3015.06002694
3009.23051017
3009.20436247
3009.21113578
3009.25101787
3015.09349304
3036.65093353
3073.6383283
3114.55013238
3144.73290829
3156.97495442
3158.74429603
3158.492823
3158.54256739
3158.79582078
3155.87139375
3139.37671414
3102.72677779
3056.04778875
3015.01860318
2991.42165835
2985.08538487
2985.05819625
2985.06621082
2985.10988906
2991.46220221
3015.06783531
3056.09255234
3102.75530613
3139.38721531
3155.86914284
3158.79022142
3158.53715884
3158.57682207
3158.82483283
3155.51451076
3137.76616468
3099.3722408
3051.20247534
3009.14225093
2985.0355766
2978.56784158
2978.53736025
2978.54617507
2978.59445953
2985.07925644
3009.19604574
3051.25282505
3099.40698281
3137.78099279
3155.51492955
3158.82123411
3158.57340859
3158.59376114
3158.83645165
3155.50800131
3137.73350481
3099.3245513
3051.13736149
3009.06838731
2984.95245992
2978.48065339
2978.45017067
2978.45926312
2978.50831534
2984.99825022
3009.1254394
3051.19224194
3099.36505521
3137.75202556
3155.51122208
3158.83499383
3158.59248598
3158.59001179
3158.8327374
3155.5029377
3137.7233343
3099.30372443
3051.10484987
3009.02563471
2984.90424118
2978.43202029
2978.40193681
2978.41127694
2978.46026387
2984.95165769
3009.08576799
3051.16382671
3099.34896312
3137.74574673
3155.50886696
3158.83340551
3158.59089454
3158.56589384
3158.81404268
3155.50003238
3137.73573302
3099.31173419
3051.10631654
3009.0147148
2984.89037066
2978.42010498
2978.39112539
2978.40088389
2978.44952684
2984.93942541
3009.07704179
3051.16831641
3099.36072454
3137.76266441
3155.50835182
3158.81675706
3158.56886727
3158.52527819
3158.77869745
3155.84973777
3139.33180419
3102.63532002
3055.8979174
3014.8170533
2991.1918918
2984.85003549
2984.82449623
2984.83419702
2984.8793615
2991.24060694
3014.87880717
3055.95988738
3102.68487937
3139.35967221
3155.85930621
3158.7833716
3158.53020948
3158.47755601
3158.72931048
3156.95508087
3144.68034786
3114.43112136
3073.43366163
3036.37630404
3014.78932368
3008.95287693
3008.92973433
3008.93836122
3008.9790079
3014.83275566
3036.4316378
3073.48949488
3114.47626644
3144.70447273
3156.96417171
3158.73584532
3158.48425918
3158.43494298
3158.67338518
3158.07019196
3151.78275929
3132.54567245
3102.58298528
3073.41880945
3055.86200285
3051.04670695
3051.02104551
3051.02747976
3051.06612809
3055.89451362
3073.46069746
3102.62450104
3132.5766002
3151.79946924
3158.07894525
3158.68159705
3158.44314829
3158.40402065
3158.61841216
3158.45480595
3156.64140315
3148.58584193
3132.54342775
3114.41920141
3102.60912099
3099.27190336
3099.25120049
3099.25508164
3099.28303939
3102.62837217
3114.44485731
3132.56818956
3148.60308871
3156.65169753
3158.46423383
3158.62795004
3158.4133709
3158.38652736
3158.57104024
3158.50478602
3158.29187934
3156.64120745
3151.78351734
3144.68003792
3139.32544678
3137.72343869
3137.70442899
3137.70666273
3137.72906633
3139.3350531
3144.69257962
3151.79613301
3156.65167324
3158.30153513
3158.51523234
3158.58144736
3158.39662366
3158.38579022
3158.53968008
3158.55452945
3158.50512378
3158.45528108
3158.0703161
3156.95471937
3155.84896419
3155.49771211
3155.4977573
3155.49926952
3155.50149486
3155.85523797
3156.96305036
3158.07936236
3158.4647222
3158.51551682
3158.56534631
3158.55040694
3158.39622155
3158.39036009
3158.49476954
3158.54002374
3158.57176103
3158.61930933
3158.67417628
3158.72963095
3158.77809762
3158.81194901
3158.82848978
3158.82962339
3158.81516901
3158.78325244
3158.73646289
3158.6825074
3158.62880497
3158.58208162
3158.55070345
3158.50543194
3158.40083153
3158.38449049
3158.39051066
3158.38643676
3158.3877404
3158.40562249
3158.43658239
3158.47876819
3158.52545614
3158.56442012
3158.58630915
3158.58742859
3158.56768418
3158.5307105
3158.48578055
3158.44507739
3158.41521587
3158.3980192
3158.39698021
3158.40100786
3158.39486287
2668.69870894
2668.73549183
2668.82157935
2668.93858645
2669.08342227
2669.23735926
2669.3871111
2669.51757001
2669.611193
2669.65861755
2669.6577852
2669.60872328
2669.51352999
2669.38156765
2669.23044446
2669.07540805
2668.92987906
2668.81270643
2668.72689755
2668.69041461
2668.73669411
2668.85005645
2668.9701402
2669.10050383
2669.25428001
2669.40505003
2669.34507962
2669.10191841
2669.01215572
2669.03960983
2669.03875624
2669.00970384
2669.09775037
2669.3389921
2669.39718695
2669.2451447
2669.09061459
2668.96017253
2668.8407223
2668.72800883
2668.82486736
2668.97239345
2669.02799215
2669.02675569
2668.23852077
2665.10480121
2659.96640418
2655.94283027
2654.71926943
2654.72866723
2654.72872169
2654.72010272
2655.94370911
2659.96521156
2665.09927457
2668.22942113
2669.0160322
2669.01721546
2668.96230728
2668.81571397
2668.94458701
2669.1056137
2669.02964334
2667.35679672
2659.49338375
2643.66101413
2625.76447223
2614.13388979
2610.86070063
2610.84850767
2610.85054809
2610.86684281
2614.14386376
2625.77354477
2643.66501313
2659.49135217
2667.34817111
2669.01887291
2669.09552032
2668.93542241
2669.09216666
2669.26219801
2668.24356269
2659.49335295
2635.36274495
2600.33775565
2567.46443806
2547.95175924
2542.6718349
2542.69047041
2542.69503642
2542.68517919
2547.97338602
2567.49036039
2600.36164051
2635.37573563
2659.49279367