/*--------------------------------*- C++ -*----------------------------------*\
| =========                 |                                                 |
| \\      /  F ield         | OpenFOAM: The Open Source CFD Toolbox           |
|  \\    /   O peration     | Version:  3.0.1                                 |
|   \\  /    A nd           | Web:      www.OpenFOAM.org                      |
|    \\/     M anipulation  |                                                 |
\*---------------------------------------------------------------------------*/
FoamFile
{
    version     2.0;
    format      ascii;
    class       volScalarField;
    location    "1";
    object      ddt0(k);
}
// * * * * * * * * * * * * * * * * * * * * * * * * * * * * * * * * * * * * * //

dimensions      [0 2 -3 0 0 0 0];

internalField   nonuniform List<scalar> 
7968
(
-0.0115797065202
-0.0116327939155
-0.011611257759
-0.0115728295992
-0.0115520396215
-0.0115484922851
-0.0115535445819
-0.0115612174989
-0.0115684887031
-0.0115737412407
-0.0115737201691
-0.0115684391374
-0.011561157932
-0.0115534858232
-0.0115484397385
-0.0115519956014
-0.0115728011384
-0.0116112338727
-0.011632800653
-0.0115797064132
-0.011632879006
-0.0126307193773
-0.0129678531286
-0.012949293489
-0.0128765075278
-0.0128460174695
-0.0128540308746
-0.0128764608268
-0.0128965452966
-0.01290755315
-0.0129075404689
-0.0128965283159
-0.0128764480078
-0.0128540250858
-0.0128460331968
-0.0128765363742
-0.0129493277765
-0.0129678704131
-0.0126307899774
-0.0116329161351
-0.0116114451401
-0.0129679378598
-0.013560776706
-0.0136082594773
-0.0135154776961
-0.0134572005571
-0.0134548732693
-0.0134796765201
-0.0135049503714
-0.0135189030994
-0.0135188949898
-0.0135049394694
-0.0134796710722
-0.0134548798312
-0.013457226786
-0.013515525745
-0.0136083233295
-0.013560839767
-0.0129680164402
-0.0116114823465
-0.0115730967464
-0.0129493039726
-0.0136081456615
-0.0136742131725
-0.0135660598069
-0.0134907280631
-0.0134824659024
-0.0135105463091
-0.0135411116531
-0.0135580022486
-0.0135579817526
-0.0135411098448
-0.0135105613539
-0.0134824909501
-0.0134907612901
-0.0135661141867
-0.0136743125411
-0.0136082588911
-0.0129494128046
-0.0115731424837
-0.0115523531696
-0.0128763096655
-0.0135150322178
-0.0135656481011
-0.0134418698188
-0.0133561448545
-0.0133034322855
-0.0132949812009
-0.0133045877927
-0.0133127755383
-0.0133127897392
-0.0133046429616
-0.0132950705116
-0.0133035595269
-0.0133561469959
-0.0134418863739
-0.013565739802
-0.0135151737749
-0.0128764501826
-0.0115524108445
-0.0115488153909
-0.0128455174747
-0.0134562445521
-0.0134895675078
-0.0133552632319
-0.0132019201922
-0.0131281382812
-0.0131170661544
-0.013128558493
-0.0131384174054
-0.0131384333124
-0.0131286073535
-0.0131171435021
-0.0131282467035
-0.0132020921285
-0.0133552219709
-0.0134896109053
-0.013456376733
-0.0128456778893
-0.011548886705
-0.0115538337939
-0.0128531764372
-0.0134533017622
-0.0134804236089
-0.0133026534263
-0.0131277719542
-0.0130529762515
-0.0130490775498
-0.013067201016
-0.0130807514642
-0.013080773187
-0.0130672479859
-0.0130491458457
-0.0130530709492
-0.0131278839236
-0.0133028589819
-0.0134803601412
-0.0134533805624
-0.012853332128
-0.0115539137291
-0.0115614437128
-0.0128752800979
-0.0134775848432
-0.0135077323715
-0.0132938455322
-0.0131164538796
-0.013049033258
-0.0130547322252
-0.0130803096375
-0.0130978786798
-0.0130979104916
-0.0130803560405
-0.0130547894606
-0.0130491032235
-0.013116520646
-0.0132939961535
-0.0135074932638
-0.0134775618713
-0.0128754156784
-0.0115615207064
-0.0115686335308
-0.0128951590797
-0.0135025124031
-0.0135377564381
-0.0133030516104
-0.0131275651627
-0.0130668845742
-0.0130801729716
-0.0131119149904
-0.0131333631322
-0.0131334096497
-0.013111966743
-0.0130802030693
-0.0130669040837
-0.0131275895533
-0.0133031528678
-0.0135373474748
-0.0135023866417
-0.0128952455891
-0.0115687020918
-0.0115738194107
-0.0129061205795
-0.013516373429
-0.0135544107236
-0.013310929082
-0.0131369766744
-0.0130798413869
-0.0130972586631
-0.0131330515669
-0.0131578026914
-0.0131577804519
-0.0131330267492
-0.0130972344191
-0.0130798101676
-0.0131369594061
-0.0133109853079
-0.013553862093
-0.0135161403702
-0.0129061343007
-0.0115738572793
-0.0115737597863
-0.0129061073973
-0.013516376044
-0.0135544257586
-0.0133108733473
-0.0131368940933
-0.0130797102643
-0.013097085419
-0.0131328773404
-0.0131576000759
-0.0131575697515
-0.0131327959862
-0.013097004276
-0.0130796416703
-0.0131368515561
-0.0133109009635
-0.0135537943319
-0.0135160964339
-0.0129060689493
-0.0115737916456
-0.0115685525802
-0.0128951315028
-0.0135025402694
-0.0135377916692
-0.0133028797111
-0.0131272779487
-0.0130664262284
-0.0130795807651
-0.0131112687562
-0.0131326675115
-0.013132680496
-0.0131112480788
-0.0130795440815
-0.0130663972528
-0.0131272620376
-0.0133029107756
-0.0135371592148
-0.0135022669612
-0.012895117713
-0.0115685989497
-0.0115613530034
-0.012875215665
-0.013477557588
-0.0135076984869
-0.0132935395024
-0.0131159609549
-0.0130482889773
-0.0130538230488
-0.0130792993255
-0.0130967708284
-0.0130967905539
-0.0130793276279
-0.0130538468756
-0.0130483206205
-0.0131159868644
-0.0132935996848
-0.0135071532881
-0.0134773522961
-0.0128751880657
-0.0115614114225
-0.0115537248339
-0.0128530376147
-0.0134531546912
-0.0134802444925
-0.0133021786823
-0.0131271234113
-0.013052076608
-0.0130480161494
-0.0130660215736
-0.0130794600624
-0.0130794953099
-0.0130661098088
-0.0130481154541
-0.0130521671352
-0.0131272072384
-0.0133023021981
-0.0134799009567
-0.0134530643847
-0.0128531385677
-0.0115538105015
-0.0115486919665
-0.0128452746615
-0.0134559569824
-0.0134891625221
-0.0133544417524
-0.0132010719272
-0.0131271619187
-0.0131159045781
-0.0131272478616
-0.0131370143978
-0.0131370591986
-0.0131273767383
-0.0131160728478
-0.0131273256729
-0.0132012532409
-0.0133542799773
-0.0134891181867
-0.0134560911882
-0.0128454867895
-0.0115487862076
-0.0115522259237
-0.0128759680156
-0.0135145847948
-0.0135650687092
-0.0134409487371
-0.013354658085
-0.0133023404794
-0.0132937343775
-0.0133031852738
-0.0133113065648
-0.0133113586541
-0.0133033436261
-0.0132939537989
-0.0133025885465
-0.013354850458
-0.0134411478146
-0.0135653420441
-0.0135149113905
-0.0128762643334
-0.011552321639
-0.0115729939088
-0.0129489266663
-0.0136076305751
-0.013673586123
-0.0135652083652
-0.0134894714584
-0.0134808019941
-0.0135085686197
-0.0135390182791
-0.0135559490167
-0.0135560381298
-0.0135392807212
-0.0135089163975
-0.0134811629099
-0.0134898392598
-0.0135655978895
-0.0136740072183
-0.0136080160194
-0.0129492370301
-0.0115730811682
-0.0116113808604
-0.0129676075871
-0.0135603179647
-0.0136077018508
-0.0135147893022
-0.0134563074603
-0.0134536808853
-0.0134783252412
-0.0135035419918
-0.0135175526146
-0.0135176231666
-0.0135037490317
-0.0134786229721
-0.0134540507693
-0.0134566680499
-0.0135151835079
-0.0136080835235
-0.0135606316685
-0.0129678425528
-0.0116114449547
-0.0116328761541
-0.0126305902833
-0.0129676091379
-0.0129489666174
-0.0128760912262
-0.0128454918376
-0.0128533664795
-0.0128756654865
-0.0128957346941
-0.0129067937605
-0.0129068425467
-0.0128958754529
-0.0128758825908
-0.0128536073031
-0.0128457591185
-0.0128763751468
-0.012949227756
-0.0129677836196
-0.0126306996511
-0.0116329040372
-0.0115797136332
-0.011632799603
-0.0116112561837
-0.0115728434991
-0.0115520481415
-0.0115485037637
-0.0115535424267
-0.011561184065
-0.0115684278288
-0.0115736680784
-0.0115736712462
-0.0115684128643
-0.011561152184
-0.011553504888
-0.0115484697345
-0.0115520172736
-0.0115728216443
-0.0116112330653
-0.0116327861018
-0.0115797049604
-0.0116529216965
-0.0127245307629
-0.0130765181163
-0.0130518263521
-0.0129628499977
-0.0129123970696
-0.0129015821798
-0.0129093781857
-0.0129205384629
-0.0129278402588
-0.0129278414658
-0.0129205491792
-0.0129093916839
-0.0129015904817
-0.0129124163903
-0.0129628773906
-0.01305185838
-0.013076544594
-0.0127245465508
-0.0116529161512
-0.012724491588
-0.0208290395746
-0.0229553512597
-0.0233596111045
-0.0232626756726
-0.0231310212279
-0.0230772789462
-0.0230805906794
-0.0231008038281
-0.0231149226268
-0.0231148968512
-0.0231007206303
-0.023080472475
-0.0230771474117
-0.0231308775982
-0.0232625245378
-0.023359465083
-0.0229552131362
-0.0208289433892
-0.0127245280871
-0.0130767402557
-0.0229558287542
-0.0257438908697
-0.0263961381023
-0.0263365229237
-0.0261652217149
-0.0260711668361
-0.0260558355128
-0.0260726127806
-0.026087690449
-0.0260877025302
-0.0260726442503
-0.0260558883123
-0.0260712420667
-0.0261653228201
-0.0263366446671
-0.0263962876957
-0.0257440287542
-0.0229558657911
-0.0130768309122
-0.0130522373258
-0.0233601941276
-0.0263962994808
-0.0271525172886
-0.0270999750428
-0.026895722628
-0.0267707002732
-0.0267423520101
-0.0267578744362
-0.02677384278
-0.026773847289
-0.0267579378887
-0.0267424980695
-0.0267709008423
-0.0268959867904
-0.0271002919912
-0.0271528901967
-0.0263966514092
-0.0233603608032
-0.0130523775325
-0.0129633392593
-0.0232630731087
-0.0263365705969
-0.0270998668062
-0.0270249197203
-0.0267893359133
-0.0266389538266
-0.0266040026155
-0.02662165106
-0.0266411583211
-0.0266411409346
-0.0266216523057
-0.0266040437703
-0.0266390670261
-0.0267896480375
-0.0270253425248
-0.0271003747055
-0.0263370717754
-0.023263353467
-0.0129635246227
-0.0129128828815
-0.0231310273126
-0.0261649109718
-0.0268951530607
-0.0267887046875
-0.0265267225963
-0.0263753073737
-0.0263479880336
-0.0263748898108
-0.0264000885128
-0.0264000547694
-0.0263747907401
-0.0263478826616
-0.0263752708323
-0.0265267993729
-0.026789132671
-0.0268957323331
-0.0261654951393
-0.0231313831869
-0.0129131030146
-0.0129019954163
-0.0230767912783
-0.026070323709
-0.0267693602355
-0.0266371936933
-0.0263742862563
-0.0262348397846
-0.0262245615429
-0.0262649217
-0.026296762784
-0.026296727249
-0.0262647320449
-0.0262242888147
-0.0262345860779
-0.0263741685981
-0.0266372983176
-0.0267698891042
-0.0260709130326
-0.0230771714799
-0.0129022484918
-0.0129097003338
-0.0230796358941
-0.0260545188145
-0.0267403439224
-0.02660131085
-0.0263461763171
-0.0262239677748
-0.0262325093474
-0.0262856689569
-0.0263229095195
-0.0263229180976
-0.0262854573404
-0.0262321426088
-0.026223564416
-0.0263458286332
-0.0266012053376
-0.0267407475381
-0.0260550499237
-0.0230800203909
-0.0129099592698
-0.0129207700906
-0.0230995433133
-0.0260709549794
-0.0267555513451
-0.0266181897943
-0.02637241426
-0.0262640129509
-0.0262855890828
-0.0263471312601
-0.0263879869437
-0.0263880587657
-0.0263470114539
-0.0262852025706
-0.0262635032393
-0.0263719308228
-0.0266179024666
-0.0267558070922
-0.026071396871
-0.0230999152945
-0.012921018926
-0.0129280132582
-0.0231135790813
-0.0260859128686
-0.0267712683865
-0.0266371263841
-0.0263967996418
-0.0262949631426
-0.0263222123202
-0.0263878815703
-0.0264308179794
-0.0264307161356
-0.0263875109932
-0.0263216773452
-0.0262943245483
-0.0263961968883
-0.026636685145
-0.0267713887065
-0.0260862416919
-0.0231138682694
-0.0129282209847
-0.0129279661809
-0.0231135046594
-0.0260858245473
-0.0267711899905
-0.0266369896935
-0.0263966264645
-0.0262947795773
-0.0263220678035
-0.0263878178617
-0.026430725238
-0.0264305902511
-0.0263871849368
-0.0263212532244
-0.0262940001601
-0.0263959467784
-0.0266364605514
-0.0267711933962
-0.0260860872187
-0.0231137274603
-0.012928146484
-0.0129206658152
-0.0230993107544
-0.0260707173856
-0.0267552978094
-0.0266177932639
-0.0263717738592
-0.0262631747958
-0.02628460884
-0.0263461880644
-0.0263870763534
-0.0263870029863
-0.0263456846689
-0.0262839221182
-0.0262625170563
-0.0263711623598
-0.02661725422
-0.026755224497
-0.0260709335876
-0.0230995625732
-0.0129208500944
-0.0129095410527
-0.0230792037483
-0.0260540744512
-0.0267398350649
-0.0266005244452
-0.0263449986611
-0.0262224654569
-0.0262307932195
-0.0262838377453
-0.026320975197
-0.026320902246
-0.0262835239454
-0.02623031217
-0.0262219773925
-0.0263444737389
-0.0266000301692
-0.0267397580725
-0.0260542864933
-0.023079472349
-0.0129097296593
-0.01290177536
-0.0230761208001
-0.0260696187419
-0.0267685478812
-0.0266359933957
-0.0263724316348
-0.0262326135372
-0.0262220926216
-0.0262623258044
-0.0262940100751
-0.0262940013972
-0.0262622661644
-0.026221931062
-0.0262323560901
-0.0263720885898
-0.0266356615318
-0.0267685624112
-0.0260699107878
-0.0230764506079
-0.0129020039105
-0.0129126101464
-0.0231300974626
-0.02616389005
-0.0268940149376
-0.0267871629715
-0.0265245021031
-0.0263723997621
-0.0263447823886
-0.0263714752305
-0.0263965407514
-0.0263965712487
-0.0263715986147
-0.0263449094089
-0.0263724156436
-0.0265244109485
-0.0267871698113
-0.0268942447227
-0.026164347944
-0.0231305456527
-0.0129128492438
-0.0129630396153
-0.0232619157352
-0.0263352934556
-0.0270984931642
-0.0270232978768
-0.0267871246084
-0.0266360313645
-0.026600623401
-0.0266180358686
-0.0266374569598
-0.0266375184738
-0.0266182462801
-0.0266008683819
-0.0266362171747
-0.0267872367867
-0.0270235108661
-0.0270989229635
-0.0263358808927
-0.0232624518555
-0.0129632782334
-0.0130519564259
-0.023358966664
-0.026394946846
-0.0271511036054
-0.0270984267448
-0.0268938537021
-0.0267683217673
-0.0267396040485
-0.0267550983515
-0.0267710282696
-0.0267710635952
-0.0267552030957
-0.0267397424874
-0.0267684547682
-0.0268940119747
-0.0270987323044
-0.0271515809076
-0.0263955047595
-0.0233594527448
-0.0130521565866
-0.0130765282973
-0.0229547548323
-0.0257426775496
-0.0263948414022
-0.0263351282329
-0.0261636380509
-0.0260692796142
-0.0260536993951
-0.0260703353799
-0.0260854142868
-0.0260854412713
-0.026070407367
-0.0260537952983
-0.0260693984054
-0.0261638029865
-0.0263353885833
-0.0263951802226
-0.0257430200415
-0.022955026129
-0.013076641073
-0.0127244011181
-0.020828404215
-0.022954484964
-0.0233585570408
-0.0232614492146
-0.0231295970749
-0.0230756061912
-0.023078701332
-0.023098820725
-0.0231129742121
-0.0231130024268
-0.0230989008762
-0.0230787956296
-0.0230756962658
-0.0231296804809
-0.0232615377165
-0.023358628665
-0.0229544877785
-0.0208283253874
-0.0127244012043
-0.0116528941552
-0.0127243099892
-0.0130762733796
-0.0130516213855
-0.012962679954
-0.0129122378294
-0.0129013937139
-0.0129091394968
-0.0129202702927
-0.0129275619976
-0.0129275746854
-0.0129202902894
-0.0129091586827
-0.012901417337
-0.0129122698837
-0.0129627189447
-0.013051659907
-0.0130762887604
-0.0127243038703
-0.0116528863156
-0.0116451652028
-0.0131274572912
-0.0137482092989
-0.0137866541271
-0.0136677230367
-0.0135760922545
-0.0135414461276
-0.0135409283442
-0.0135506126236
-0.0135578245191
-0.0135578324716
-0.0135506345387
-0.013540953096
-0.0135414656572
-0.0135761200418
-0.0136677647408
-0.0137867015213
-0.0137482503698
-0.0131274739682
-0.0116451884079
-0.0131273648452
-0.0231163585956
-0.0259278667714
-0.0265857432541
-0.0265219350616
-0.0263409369391
-0.0262357123557
-0.0262107277888
-0.0262211571657
-0.0262333917226
-0.026233359518
-0.0262210433871
-0.0262105672627
-0.0262355144598
-0.0263407236677
-0.0265216934016
-0.0265855198643
-0.0259276646462
-0.0231161737702
-0.0131274011943
-0.0137484278396
-0.0259282092728
-0.0295019488803
-0.0304640538289
-0.0304706935149
-0.0302577676902
-0.030103334645
-0.0300477543613
-0.0300468257503
-0.0300563926064
-0.0300564060689
-0.0300468464062
-0.0300478038808
-0.0301034004018
-0.0302578607238
-0.0304708258748
-0.0304642444889
-0.0295021350187
-0.0259282313669
-0.0137485509938
-0.0137870997039
-0.0265860518837
-0.0304641427351
-0.0315607638178
-0.0315930206673
-0.0313524655559
-0.0311641094881
-0.0310889545694
-0.0310739892374
-0.031075485766
-0.0310754439619
-0.0310738168073
-0.0310891022519
-0.0311643396359
-0.0313527799862
-0.0315934415181
-0.031561289365
-0.0304646447478
-0.0265862692616
-0.0137873069574
-0.0136682449088
-0.026521957514
-0.0304706752382
-0.031592976149
-0.0316126440257
-0.0313377879991
-0.0311067828278
-0.0309769776198
-0.0309515081453
-0.0309652432629
-0.0309654386197
-0.0309521631735
-0.030977178085
-0.0311064396003
-0.0313381241608
-0.031613242233
-0.0315937231397
-0.0304713900348
-0.0265223154463
-0.0136685255844
-0.0135765780673
-0.0263404162448
-0.03025740615
-0.0313520857815
-0.0313374804901
-0.0309798099901
-0.0305415485097
-0.030242700109
-0.0301742093474
-0.0301963861274
-0.0301977172623
-0.0301782077572
-0.0302461850813
-0.0305416021007
-0.0309791980911
-0.0313381271518
-0.0313529886593
-0.0302582420459
-0.0263408524593
-0.0135769047268
-0.0135418065024
-0.0262344690661
-0.0301024116289
-0.031163093545
-0.0311053318325
-0.030544279828
-0.0297969899432
-0.029315148734
-0.0292106753687
-0.0292424122446
-0.0292453006648
-0.0292192839544
-0.0293241812871
-0.0297997255205
-0.0305424445205
-0.0311056829086
-0.0311640489544
-0.0301032832807
-0.0262348957259
-0.0135421735171
-0.0135411525418
-0.0262088473042
-0.0300463210591
-0.0310874562224
-0.0309767489138
-0.0302509169552
-0.0293197024591
-0.0287554821443
-0.0286402103241
-0.0286798364254
-0.0286836891696
-0.0286515462754
-0.0287681411862
-0.0293252119034
-0.0302487723095
-0.0309765192058
-0.0310883419815
-0.0300471361756
-0.0262092345509
-0.0135415236968
-0.0135507348504
-0.0262188361728
-0.030045155724
-0.0310743975178
-0.0309522569752
-0.0301826840161
-0.0292123869869
-0.0286352120422
-0.0285232630342
-0.0285678445484
-0.0285719524946
-0.0285352701072
-0.0286487758199
-0.0292188030492
-0.0301807635105
-0.0309516387074
-0.0310749790282
-0.0300458617069
-0.0262191285036
-0.0135510864121
-0.0135578931208
-0.0262309372454
-0.030054660139
-0.0310750961274
-0.0309650258554
-0.0301997572014
-0.0292332928574
-0.0286603055587
-0.0285527103609
-0.0285999846498
-0.0286038934075
-0.0285644499444
-0.0286738716644
-0.029240045143
-0.0301981584605
-0.0309643585447
-0.0310757313798
-0.030055227003
-0.0262311177583
-0.0135582013599
-0.0135578535703
-0.0262308781936
-0.0300545576709
-0.0310749451626
-0.0309643560252
-0.0301961236128
-0.0292252224286
-0.0286493963054
-0.0285411230727
-0.0285883862394
-0.0285922273
-0.0285525898596
-0.0286628665154
-0.0292322825777
-0.0301948725387
-0.0309636862257
-0.0310755458294
-0.0300550383183
-0.0262309794428
-0.0135581281054
-0.0135506369602
-0.0262186408314
-0.0300448856631
-0.0310737818906
-0.0309503069634
-0.0301717793073
-0.0291881272327
-0.0286022304968
-0.0284880555251
-0.0285327625901
-0.0285366514491
-0.0284995120578
-0.0286158957385
-0.0291956293515
-0.0301709544891
-0.0309496482682
-0.0310745205217
-0.0300452942503
-0.0262187278561
-0.0135508974833
-0.0135409812676
-0.0262084538236
-0.0300458408452
-0.0310869507138
-0.0309758081921
-0.0302412656497
-0.0292935585049
-0.0287174808066
-0.0285988567635
-0.0286382469931
-0.0286417543931
-0.0286093255681
-0.0287297761828
-0.02929991293
-0.0302400507805
-0.0309751436617
-0.0310872220291
-0.0300462235992
-0.026208591215
-0.0135412383973
-0.0135415417426
-0.0262338117455
-0.0301016567588
-0.0311622678933
-0.0311055615641
-0.0305433713852
-0.0297874061508
-0.0292959629411
-0.0291883296365
-0.0292194865142
-0.0292218480865
-0.0291954255441
-0.029303615613
-0.0297898294275
-0.0305414423814
-0.0311051669159
-0.0311625507849
-0.0301021106158
-0.0262340861718
-0.0135418397015
-0.0135762236077
-0.0263394480737
-0.0302562943624
-0.0313508840593
-0.0313360227785
-0.0309804852145
-0.0305447267267
-0.0302452779448
-0.0301755161265
-0.0301971172079
-0.0301979294704
-0.0301780764072
-0.0302472437749
-0.0305440322812
-0.0309794477412
-0.0313362976304
-0.0313513359604
-0.0302569126748
-0.0263399028269
-0.0135765448937
-0.013667831755
-0.0265207000934
-0.0304692748232
-0.0315915402469
-0.0316110405545
-0.0313358474948
-0.0311048566114
-0.0309757489197
-0.0309506324183
-0.030964161812
-0.0309642467776
-0.0309509143734
-0.0309756337814
-0.0311043849937
-0.0313359325976
-0.0316113159352
-0.0315921061733
-0.030470003926
-0.0265212951601
-0.0136681520509
-0.0137866876252
-0.0265847064159
-0.0304626586361
-0.0315592905765
-0.0315914872571
-0.0313506370393
-0.0311617434517
-0.0310861923281
-0.0310726230398
-0.0310736199071
-0.0310735624484
-0.0310724299751
-0.0310861354974
-0.031161702808
-0.0313506926665
-0.0315917705983
-0.0315598275129
-0.0304633140492
-0.026585255983
-0.0137869438628
-0.0137481078012
-0.0259270384392
-0.0295005944111
-0.0304626249712
-0.0304691845357
-0.030256056126
-0.0301012395566
-0.0300453145321
-0.0300442726822
-0.0300538416577
-0.0300538463557
-0.0300442782116
-0.030045326106
-0.0301012653924
-0.0302561387606
-0.0304693940896
-0.0304629626558
-0.029500971387
-0.0259273447337
-0.0137482320763
-0.013127211213
-0.0231157099754
-0.0259268591972
-0.0265844313762
-0.0265203380722
-0.0263390199786
-0.0262333650642
-0.0262080550126
-0.0262183209838
-0.0262305839254
-0.0262306326834
-0.0262184426608
-0.0262081976626
-0.0262334840724
-0.026339100371
-0.026520399548
-0.0265844776164
-0.0259268513264
-0.0231156236706
-0.0131271957564
-0.0116451154971
-0.0131271018467
-0.0137478106104
-0.0137862918418
-0.0136673962074
-0.0135757532245
-0.0135410428192
-0.013540450717
-0.0135501024942
-0.0135573189393
-0.0135573361011
-0.013550142388
-0.0135404961741
-0.0135410898846
-0.0135758003852
-0.0136674453431
-0.0137863330664
-0.0137478283596
-0.0131270922978
-0.0116451262778
-0.0116072736351
-0.0131440652151
-0.0138427876258
-0.0138951214509
-0.0137475730837
-0.0136211813011
-0.01356400109
-0.0135535269442
-0.013559991941
-0.0135663997475
-0.0135664085505
-0.0135600123337
-0.0135535450016
-0.0135640135756
-0.0136211977196
-0.0137476037324
-0.0138951590244
-0.0138428424073
-0.0131440919882
-0.0116073192027
-0.0131440114069
-0.0236553827549
-0.026734586362
-0.0274977567236
-0.0274307010435
-0.0271999473113
-0.0270462419062
-0.026992488088
-0.0269911080469
-0.0270000753663
-0.0270000352688
-0.0269909742124
-0.0269922662253
-0.0270459467982
-0.0271996217349
-0.0274303489677
-0.0274974412099
-0.0267343078566
-0.0236551721993
-0.0131440683079
-0.0138430240466
-0.026734823465
-0.0306259838768
-0.0317153585455
-0.0317287274442
-0.0314635589763
-0.0312493326188
-0.0311532844564
-0.031134094085
-0.0311392204276
-0.0311392073836
-0.0311340542522
-0.0311532264605
-0.0312492939415
-0.0314635790597
-0.0317288046183
-0.0317155204493
-0.0306261558241
-0.0267348474798
-0.0138431860345
-0.0138955607325
-0.0274976459048
-0.0317152794223
-0.0329470224738
-0.0329883620625
-0.0326479624311
-0.032247818493
-0.0319815221105
-0.0319063507755
-0.0319115995149
-0.0319125839211
-0.0319093023215
-0.031984619076
-0.0322482423156
-0.0326477916535
-0.0329888036732
-0.0329475960908
-0.0317158124726
-0.0274978673909
-0.0138958116482
-0.0137480043922
-0.0274300802491
-0.0317284136098
-0.0329882025069
-0.0329105118749
-0.0321514795008
-0.0312148226097
-0.0306372529117
-0.0304872625943
-0.0304984088418
-0.0305026667288
-0.0305001195552
-0.0306519536213
-0.031223307274
-0.032153572963
-0.0329109288484
-0.0329890955537
-0.0317291842479
-0.027430392935
-0.0137483280986
-0.0136214776609
-0.0271984335493
-0.0314627114492
-0.0326464618653
-0.0321537606569
-0.0306952102182
-0.0293210487986
-0.0285942421005
-0.0284208605257
-0.0284402419915
-0.0284483848583
-0.0284452328665
-0.0286235965063
-0.0293423349305
-0.0307053761388
-0.0321548539511
-0.0326478027434
-0.0314636386197
-0.0271987631605
-0.0136218348467
-0.0135640392239
-0.0270435455757
-0.0312476352428
-0.032246410835
-0.0312200306128
-0.0293259021566
-0.0278362903019
-0.0270959974913
-0.0269237259419
-0.0269490518003
-0.0269597108886
-0.0269554204037
-0.0271345635108
-0.027865674459
-0.0293434914354
-0.0312250776542
-0.0322480456584
-0.0312486307903
-0.0270438097396
-0.0135644066642
-0.0135533078545
-0.0269887748552
-0.0311508229599
-0.0319837232523
-0.0306459230123
-0.02860542696
-0.0271025528839
-0.0263615708544
-0.0261923536265
-0.0262209986396
-0.0262326114928
-0.0262267392231
-0.0264033978859
-0.0271347804207
-0.0286255776414
-0.0306537705364
-0.0319849861633
-0.0311517612226
-0.0269888704783
-0.0135536435992
-0.0135595991769
-0.0269867240241
-0.031131156149
-0.0319094258981
-0.0304908538257
-0.0284206815596
-0.0269154610004
-0.0261752398038
-0.026009786799
-0.0260397889668
-0.0260515204594
-0.0260444322902
-0.0262176219335
-0.026948596017
-0.0284419682803
-0.0304996465374
-0.0319103797238
-0.0311319486466
-0.0269865861478
-0.0135598865943
-0.0135659281537
-0.0269954809461
-0.0311362669081
-0.0319107758625
-0.0304868007911
-0.0284106087293
-0.026901945208
-0.0261607360462
-0.0259959796122
-0.0260273656881
-0.0260389315003
-0.0260303834244
-0.0262035330635
-0.0269366916167
-0.0284337091916
-0.0304968017272
-0.0319120547993
-0.0311368882646
-0.0269951930535
-0.0135661593419
-0.0135659121
-0.0269955291143
-0.0311363175206
-0.0319083029296
-0.0304756593155
-0.0283887504401
-0.0268726243694
-0.0261280132874
-0.0259626395361
-0.0259938716531
-0.0260053521891
-0.0259967179119
-0.0261710799152
-0.026908811058
-0.0284137288212
-0.0304869949237
-0.0319099046627
-0.0311368003144
-0.0269951406387
-0.0135661098441
-0.0135595631278
-0.026986840223
-0.0311312720003
-0.0319021198796
-0.0304575362867
-0.0283554732753
-0.0268282476718
-0.0260776590091
-0.0259101108819
-0.025940069428
-0.0259515642355
-0.025944169278
-0.0261212628741
-0.0268657357399
-0.0283822823236
-0.0304702494838
-0.03190395938
-0.031131684565
-0.0269864149823
-0.0135597391345
-0.0135532327053
-0.0269888910346
-0.0311508968387
-0.0319763385562
-0.0306075321582
-0.0285259699105
-0.0269948802883
-0.0262406136899
-0.0260681172444
-0.0260960824145
-0.0261069161793
-0.026100384411
-0.0262820370004
-0.0270307848583
-0.0285517101061
-0.0306192905687
-0.0319782574235
-0.0311512990345
-0.0269885550606
-0.0135534160786
-0.0135638769225
-0.0270435105458
-0.0312474949915
-0.0322455262
-0.0311973662216
-0.0292666160522
-0.0277513191538
-0.0269988991482
-0.0268233855085
-0.0268468566949
-0.0268558606592
-0.0268502711376
-0.0270332788061
-0.0277805186911
-0.0292863924676
-0.0312041215486
-0.0322464838961
-0.0312479889618
-0.0270434389497
-0.0135641174887
-0.0136211918505
-0.0271980472936
-0.0314621656976
-0.0326469587677
-0.0321478444601
-0.0306664501957
-0.0292687953402
-0.0285315063896
-0.0283545938402
-0.0283720428484
-0.0283781872615
-0.0283730834502
-0.0285547748379
-0.0292874870184
-0.0306762977056
-0.03214945147
-0.0326475892725
-0.0314628472059
-0.0271983176275
-0.0136215032583
-0.0137476159468
-0.0274292967311
-0.0317274985708
-0.0329873199895
-0.0329103562705
-0.0321487835617
-0.0311997958054
-0.0306119387598
-0.0304590483551
-0.0304688729767
-0.0304717105249
-0.0304675989765
-0.0306220369007
-0.0312059109493
-0.0321502009706
-0.0329104626296
-0.0329880439233
-0.0317283007352
-0.0274298282626
-0.0137479595508
-0.0138951381528
-0.0274967166386
-0.0317142220749
-0.0329460673894
-0.0329873661361
-0.0326463165273
-0.0322449848621
-0.0319779328604
-0.0319038624896
-0.0319080042327
-0.0319085136159
-0.0319053761682
-0.031979530043
-0.0322451313604
-0.0326461525409
-0.0329877060775
-0.0329466879558
-0.0317149426415
-0.0274972985729
-0.0138954226878
-0.0138427075487
-0.0267340060826
-0.0306249779271
-0.0317143198445
-0.0317276519655
-0.031462256686
-0.0312474927609
-0.0311509226434
-0.03113142338
-0.0311365652064
-0.031136565246
-0.0311314433909
-0.0311509407136
-0.031247536343
-0.0314623570718
-0.0317278813636
-0.0317146927649
-0.0306254029689
-0.0267343933986
-0.013842852801
-0.013143844467
-0.0236550298828
-0.0267339038883
-0.0274966572865
-0.0274292374772
-0.0271980490113
-0.0270437361334
-0.026989518248
-0.0269879255626
-0.0269969501964
-0.0269970311172
-0.0269881665249
-0.0269898227471
-0.0270440184375
-0.0271982485223
-0.0274293686128
-0.0274967610326
-0.0267339740911
-0.0236550651137
-0.0131438447928
-0.0116071922741
-0.0131436822491
-0.0138423796341
-0.0138947428313
-0.0137471964481
-0.0136207553371
-0.0135634616631
-0.0135528791836
-0.0135593054297
-0.0135657311064
-0.013565760855
-0.0135593888283
-0.0135529805315
-0.0135635572965
-0.0136208332116
-0.013747257474
-0.0138947812659
-0.0138424007999
-0.0131436871983
-0.0116072129493
-0.0115725500989
-0.0130678361768
-0.0137533998261
-0.013782992859
-0.0136033544293
-0.0134477465426
-0.0133719216746
-0.0133524926661
-0.0133554924012
-0.0133607976978
-0.0133608018801
-0.0133554978357
-0.0133524841589
-0.0133719022134
-0.0134477320516
-0.0136033513889
-0.0137830101283
-0.0137534390514
-0.0130678694883
-0.0115726148077
-0.013067791305
-0.0236539104883
-0.0267815343884
-0.0275415994381
-0.0274282775069
-0.0271360252191
-0.0269315876464
-0.026847912764
-0.026833773763
-0.0268389639714
-0.0268388940631
-0.0268335481959
-0.0268475376409
-0.02693113097
-0.0271355475043
-0.0274277731801
-0.0275411393647
-0.0267811688227
-0.0236536462911
-0.0130678492448
-0.013753677159
-0.0267816459715
-0.0307235869434
-0.0317962946527
-0.0317431048615
-0.0313495149865
-0.0309260221569
-0.0306489381235
-0.0305685347694
-0.0305700052084
-0.0305709296385
-0.0305713041741
-0.0306516606527
-0.0309263350896
-0.0313491019788
-0.0317430494252
-0.031796342168
-0.030723640288
-0.0267816392019
-0.0137538472955
-0.0137834566561
-0.0275411750558
-0.0317960415711
-0.0329888133016
-0.0327508375239
-0.0318201071551
-0.0308553546949
-0.0302869137494
-0.0301414864643
-0.0301547650082
-0.0301599512673
-0.0301571514143
-0.0303049166755
-0.0308669321698
-0.0318254972402
-0.0327514819809
-0.0329893595158
-0.0317964658611
-0.0275412349662
-0.0137837195665
-0.0136036352852
-0.0274270879193
-0.0317423482263
-0.0327488295876
-0.0318497839902
-0.0301852439374
-0.028808886427
-0.0280756133949
-0.0278928940518
-0.027910529521
-0.0279206975344
-0.0279233963378
-0.0281119408288
-0.0288362110241
-0.0302035981132
-0.0318564312621
-0.0327511765023
-0.0317430510025
-0.0274271291557
-0.0136039168482
-0.0134477456714
-0.0271335101279
-0.031346609451
-0.031819994639
-0.030187940981
-0.028140263563
-0.0266059404145
-0.0258229901057
-0.0256321147561
-0.0256569627964
-0.0256709042963
-0.0256735635275
-0.0258734144127
-0.0266451037865
-0.0281650244065
-0.0302030096155
-0.0318251905049
-0.0313481901625
-0.027133505924
-0.0134480116056
-0.0133714815061
-0.0269273369413
-0.0309207900801
-0.0308586531524
-0.0288239996359
-0.0266169673564