/*--------------------------------*- C++ -*----------------------------------*\
| =========                 |                                                 |
| \\      /  F ield         | OpenFOAM: The Open Source CFD Toolbox           |
|  \\    /   O peration     | Version:  3.0.1                                 |
|   \\  /    A nd           | Web:      www.OpenFOAM.org                      |
|    \\/     M anipulation  |                                                 |
\*---------------------------------------------------------------------------*/
FoamFile
{
    version     2.0;
    format      ascii;
    class       volVectorField;
    location    "1";
    object      ddt0(U);
}
// * * * * * * * * * * * * * * * * * * * * * * * * * * * * * * * * * * * * * //

dimensions      [0 1 -2 0 0 0 0];

internalField   nonuniform List<vector> 
7968
(
(0.00106698566354 0.00104438691626 -0.00199391548844)
(0.00299639227291 0.000760503944798 -0.0018498392553)
(0.00504574740822 0.000526026238354 -0.00149452887876)
(0.0065568872054 0.000382246851332 -0.00102532441433)
(0.00732510658934 0.000320023221053 -0.000534815094162)
(0.00723275705346 0.000306357370597 -8.22572631812e-05)
(0.00641393893108 0.000297228500647 0.000291322041327)
(0.0049677231937 0.000300203770906 0.000582222569224)
(0.0031106023633 0.000294447448751 0.00077369116529)
(0.00102780040378 0.000286970030855 0.000869100757338)
(-0.00112348758648 0.000285160508622 0.000869764600496)
(-0.00319869549428 0.000288908084444 0.000776317454219)
(-0.00504110806361 0.000290875929037 0.000586082189055)
(-0.00646558750862 0.000284117569074 0.000294822718495)
(-0.00725905940942 0.000288994429004 -8.14966017833e-05)
(-0.00732726143084 0.000298502217125 -0.000537540846143)
(-0.00654171899622 0.000355964521902 -0.001032602018)
(-0.00502764456138 0.000495811195807 -0.0015069174572)
(-0.00299490843566 0.000728938050015 -0.00186534961387)
(-0.00107581529276 0.00101469139299 -0.00200905195482)
(0.000783493491901 0.00293064257622 -0.00184630724454)
(0.00261962701892 0.00255198517706 -0.00260183651759)
(0.00488811045325 0.00219672516194 -0.00263590589404)
(0.00658789873974 0.00198399122432 -0.00231345506367)
(0.00745707155023 0.00189714670203 -0.00187879616865)
(0.00740453160921 0.00186981073427 -0.00144892144473)
(0.00654849187088 0.00183680285523 -0.00108778158879)
(0.00505402840111 0.00179640414913 -0.000821698612304)
(0.00314987945006 0.00173927036856 -0.000658200983747)
(0.00103925193563 0.00169499013707 -0.000583441214967)
(-0.00113033057277 0.00169067328589 -0.000582795343384)
(-0.00323397327602 0.0017259680773 -0.000656571007644)
(-0.00512397567089 0.00177384060236 -0.000819581396973)
(-0.00659810089102 0.00180448944012 -0.00108647939306)
(-0.00743024317805 0.00182641021826 -0.00144943287169)
(-0.00745958674243 0.00184142853931 -0.00188317756646)
(-0.00657437608526 0.00191585856875 -0.0023225039973)
(-0.00487201264841 0.00211815182885 -0.00264956653207)
(-0.00261899805894 0.00246741165592 -0.00261756194414)
(-0.000791107820445 0.00284691954157 -0.00185944616748)
(0.00054881224182 0.00494298215776 -0.00148328431256)
(0.00226431506626 0.00478217800415 -0.00262847521296)
(0.00467304135536 0.00456626157652 -0.00283875276176)
(0.00650110317817 0.00447291269219 -0.00255018143901)
(0.00744112077135 0.00449035687647 -0.00209327858314)
(0.00740502945066 0.0045408298115 -0.00162406322933)
(0.00651629483159 0.00455170611358 -0.00123286995744)
(0.00498858301978 0.00451440672347 -0.000960488856921)
(0.00308048496036 0.00444016863296 -0.000810560428771)
(0.00100726550755 0.00437721261131 -0.000753124056132)
(-0.00110508431634 0.00437188014431 -0.000753063707033)
(-0.00317160341926 0.00442403319756 -0.000810572137817)
(-0.0050665827617 0.00448731104842 -0.000960130699783)
(-0.00657576668892 0.00451198835946 -0.00123276306111)
(-0.00744249616682 0.00448610521858 -0.00162566075302)
(-0.0074571818214 0.00441884973914 -0.00209785017276)
(-0.00650032622266 0.00438353043545 -0.00255888616606)
(-0.00466676442249 0.00446215829106 -0.00285112139368)
(-0.0022661879155 0.00466942112981 -0.00264156679041)
(-0.000554476200068 0.00483241759162 -0.00149261505686)
(0.000404757741251 0.00642997196188 -0.00100250581662)
(0.00205176347087 0.00645766125174 -0.00229490239931)
(0.00458147513259 0.0063716844095 -0.00253936152085)
(0.00652190706329 0.00639179651168 -0.0021750088585)
(0.00750927475841 0.00649658685356 -0.00159459794565)
(0.00745183017718 0.00660264586589 -0.000998229496101)
(0.00649428836923 0.00662634380535 -0.000510626196003)
(0.00490314067341 0.00656272072508 -0.000187187888609)
(0.00298062444742 0.00644467417048 -2.82390607709e-05)
(0.000959865988869 0.00635183272079 1.33446868384e-05)
(-0.00106850148117 0.00634631388353 1.24339221684e-05)
(-0.00308259049014 0.00642843256382 -3.11260106874e-05)
(-0.00499290761543 0.00653499314156 -0.000188976034996)
(-0.00656794530219 0.00658545711157 -0.000512507305295)
(-0.00750632559634 0.00654578954443 -0.00100076674135)
(-0.00754380737201 0.00642150075808 -0.00159924892063)
(-0.00653948410952 0.00629771263305 -0.0021822547758)
(-0.00458878057888 0.00626098570415 -0.00254852029127)
(-0.00205759843367 0.00633794908246 -0.00230308132944)
(-0.000408999958084 0.00631358616062 -0.00100577878274)
(0.000342837291029 0.00719108313117 -0.000497788988402)
(0.00196655642543 0.00732147949618 -0.00184666765201)
(0.00460223774754 0.00730891668904 -0.0020696695293)
(0.00662944242011 0.00737929640576 -0.00158245500129)
(0.00763548855734 0.0075049843059 -0.000828994604282)
(0.00751672518431 0.00759608108446 -5.43337095075e-05)
(0.00645824176171 0.00756590466132 0.000552629475481)
(0.0047793862233 0.0074245922371 0.00094416662975)
(0.0028455242776 0.00723070647211 0.00110273065291)
(0.000899743163972 0.00709359544942 0.00113332188481)
(-0.00101849038632 0.00708858271653 0.00113168614325)
(-0.00295815446051 0.00721467538739 0.00109863664726)
(-0.00488108144165 0.00739749203112 0.000939226263951)
(-0.00654624591839 0.00752676732932 0.000547874001588)
(-0.00758811013109 0.00754234140277 -5.95122675121e-05)
(-0.00768856210122 0.00743458178029 -0.000834862051046)
(-0.00666561824159 0.00729186227859 -0.00158890032704)
(-0.00462368237795 0.0072067209495 -0.00207587373732)
(-0.00197587804276 0.0072117438721 -0.00184982108234)
(-0.00034547443101 0.00708575067622 -0.000494804521024)
(0.000329483398236 0.00711023704652 -3.0880972631e-05)
(0.00194230298955 0.00728195811921 -0.00140260200873)
(0.00465822123009 0.00728982848252 -0.0015877965246)
(0.00673983531143 0.00734253400871 -0.000975388850261)
(0.00772876720775 0.00740995021732 -4.55848226245e-05)
(0.00750746832999 0.00740096297549 0.000884899396225)
(0.00631811465054 0.00723036151079 0.00160481987028)
(0.00455225677714 0.00694708981237 0.00203363447853)
(0.00263457492485 0.0066352983475 0.00215201605992)
(0.000812111799896 0.00642795138653 0.002150298876)
(-0.000940174448053 0.00642285192741 0.0021471483326)
(-0.00275678531411 0.00662014132196 0.00214392887076)
(-0.00466381971053 0.00692113929828 0.0020250590398)
(-0.0064173780801 0.00719407393014 0.00159485592885)
(-0.0075925947581 0.00735309208953 0.000874952509457)
(-0.00779798878019 0.00734892961246 -5.39758915073e-05)
(-0.00679149188967 0.00726780676041 -0.000982621181316)
(-0.00469096434427 0.00720431202537 -0.00159236639114)
(-0.00195327246311 0.00719217581177 -0.00140196968686)
(-0.000329827162804 0.00702605812344 -2.31430590065e-05)
(0.000322579753376 0.00631936411103 0.000357248828221)
(0.00191545269927 0.00645622530732 -0.00102861510359)
(0.00467811501154 0.006435425232 -0.00118512635869)
(0.00677132495187 0.00642458354175 -0.000478455119907)
(0.00770314197499 0.0063945673289 0.00056781280274)
(0.00733925090853 0.00625850794589 0.00161145953413)
(0.00601957376436 0.00596301181805 0.00234738423989)
(0.00417869820842 0.00557671228377 0.00269522731892)
(0.00231321242968 0.00517997376557 0.00273628355685)
(0.000682521653249 0.00492150328823 0.00267054688352)
(-0.000820087898374 0.00491721397683 0.00266690938957)
(-0.00244513599961 0.00516611835524 0.00272594532386)
(-0.00429987034754 0.00555388936229 0.00268096846277)
(-0.00612848433911 0.00593127721914 0.00233157113394)
(-0.00743498469812 0.00621704527796 0.0015968531015)
(-0.00778441373005 0.00634390867244 0.000554677623079)
(-0.00683441348372 0.00636470492747 -0.000488251576038)
(-0.00471788694628 0.00636949146204 -0.0011900983503)
(-0.00192585065514 0.00638999472194 -0.00102601073576)
(-0.00032033361415 0.00625936239217 0.000367639920586)
(0.000328334472124 0.00491409111832 0.000660291131328)
(0.00188397538439 0.00500401512717 -0.000750907472934)
(0.00465397798107 0.00495289978155 -0.000901578947146)
(0.00671902406224 0.00488258727817 -0.000144022703018)
(0.00757031577181 0.00476637557943 0.0009649751293)
(0.00706547939826 0.00454581874443 0.00204788278823)
(0.00563855553973 0.00417823080076 0.00271078422175)
(0.00373223549779 0.00373252375464 0.00299225909813)
(0.00193700448536 0.003286909912 0.00291381804565)
(0.000532086578403 0.00300463125568 0.00275474914255)
(-0.000678714889766 0.00300186875987 0.00275192493791)
(-0.00207825237751 0.00327637114079 0.00290261415124)
(-0.00386192185515 0.00371356848461 0.00297558088089)
(-0.0057560249479 0.00415163827304 0.00269231650775)
(-0.00717007145949 0.00451237455579 0.00202561720576)
(-0.00765967485844 0.00472646306948 0.000946253097963)
(-0.00678851218207 0.00483756260698 -0.00015741786915)
(-0.00469642175055 0.00490624863547 -0.000908321745729)
(-0.00189198165771 0.00496006800859 -0.000748375920013)
(-0.00032345479736 0.00487652104898 0.000670808915411)
(0.0003259088749 0.00310531498367 0.000861293522963)
(0.00183645890987 0.00314863565975 -0.000577548090246)
(0.00459304320442 0.00309216206786 -0.000740912282612)
(0.00661159529661 0.00300524330467 3.19117952175e-05)
(0.00738272769673 0.00287863734008 0.00113542589449)
(0.00675908698509 0.0026727823164 0.00217170538499)
(0.00524572665514 0.00235202054475 0.00276089215837)
(0.00328781296465 0.0019797682665 0.00292487997406)
(0.00157645263384 0.00162267475902 0.00269638937144)
(0.000393672201726 0.00140526483234 0.002440534282)
(-0.000545788206906 0.00140193841634 0.00243971877564)
(-0.00172542826393 0.0016137945128 0.00268811114257)
(-0.00342541646357 0.00196539792491 0.0029081762192)
(-0.00536910273209 0.0023321903066 0.00274016830824)
(-0.00686939889819 0.00264891598662 0.00214800836536)
(-0.00747703650472 0.00285068347446 0.00111586229206)
(-0.00668363139485 0.00297530115568 1.51982763847e-05)
(-0.00463483903073 0.00306315261452 -0.000750067669427)
(-0.00184073833449 0.00312394041482 -0.000576678388133)
(-0.000318444827533 0.00308651319031 0.000870266591769)
(0.000321191066291 0.00107444450378 0.000963069471657)
(0.00179874995363 0.00108907217797 -0.000495523832895)
(0.00453646142823 0.00106767729706 -0.000678344413403)
(0.006525791813 0.00103021754529 7.06831241537e-05)
(0.00725205172846 0.000978213397067 0.00116743523494)
(0.00655344643839 0.000893922395079 0.00217234874718)
(0.00498930527018 0.00076320018283 0.00269083625087)
(0.00301217167125 0.000616394331187 0.00276721869706)
(0.00136288954453 0.000482163244419 0.00245243930254)
(0.00031173367959 0.000401269296631 0.00214787295616)
(-0.000471285364082 0.000398795453357 0.00214385865642)
(-0.00151552428379 0.000475103415097 0.00244130533365)
(-0.00315286089879 0.000607443974212 0.0027511379088)
(-0.00511610682728 0.000752675315854 0.00266998750173)
(-0.00666644710314 0.00088135071216 0.00214770877182)
(-0.00734865932519 0.000963833495719 0.00114684544854)
(-0.00659827638953 0.00101566758606 5.22613097074e-05)
(-0.00457634410264 0.00105522927892 -0.000690210318699)
(-0.00179922788896 0.00108091696412 -0.000497217924613)
(-0.00031148644397 0.0010710596806 0.000969222349818)
(0.000321613210673 -0.00102530445773 0.000967071674596)
(0.00179902250384 -0.00103032173519 -0.000490978961272)
(0.00453609629388 -0.000995375188084 -0.000674190290082)
(0.00652408870335 -0.000948610092654 7.48357435254e-05)
(0.00724983995614 -0.000894502514855 0.00117040144307)
(0.00655004695562 -0.000815663670607 0.00217781795199)
(0.00498620400342 -0.000694278911419 0.00269601800649)
(0.00301032795048 -0.000555298922601 0.00277396830765)
(0.00136111753365 -0.000425211527184 0.00246115519316)
(0.000310427136609 -0.000348615894765 0.00215615009087)
(-0.000472130614898 -0.00034707458329 0.00215389764872)
(-0.0015166458587 -0.000424450718684 0.00244779429673)
(-0.00315125132645 -0.000553759369124 0.00275504633026)
(-0.00511302571547 -0.00069201884661 0.00267527036044)
(-0.0066642632075 -0.000814183127516 0.00215383065287)
(-0.00734672893613 -0.000894075951148 0.00114979850843)
(-0.00659570947982 -0.000947760451606 5.59515226517e-05)
(-0.0045739620645 -0.000992244779639 -0.000687269750025)
(-0.0017967870925 -0.00102355455431 -0.000495508896503)
(-0.00031032681055 -0.00101591534047 0.000969995562002)
(0.00032672231723 -0.00305431360521 0.000873734465496)
(0.00183741659727 -0.00308932275946 -0.000564261098064)
(0.00459142000325 -0.00302097677086 -0.000727329853334)
(0.00660635362891 -0.00292732734165 4.4802086678e-05)
(0.007373754871 -0.00280045263966 0.00114525984203)
(0.00674702491717 -0.00260110016575 0.00218679277285)
(0.00523284694942 -0.00229054524488 0.00277038891814)
(0.00327874842085 -0.00192711054011 0.0029333205885)
(0.00157089233808 -0.00157715907264 0.0027091003521)
(0.000390179426433 -0.00136345672659 0.00245512474262)
(-0.000547376465928 -0.00136075354383 0.00245487637213)
(-0.00172321249975 -0.00156839243344 0.0026980690757)
(-0.00341770849184 -0.00191413191872 0.00291809060635)
(-0.00535950245515 -0.00227548739649 0.00275321198424)
(-0.00686211193472 -0.00258598748482 0.00216533482378)
(-0.00747082142558 -0.00278534854835 0.00112554049302)
(-0.00667688778034 -0.00291146099604 2.56858922762e-05)
(-0.00462729508427 -0.00300347342655 -0.000741418283623)
(-0.00183374622476 -0.00306938496313 -0.000570115819835)
(-0.000315098937884 -0.0030341159303 0.000873666251645)
(0.000328901040624 -0.00485999098561 0.000679826602792)
(0.00188362538379 -0.004943624283 -0.000729596072779)
(0.00464895405046 -0.00488486942358 -0.000879546257649)
(0.00670711113984 -0.00481181313469 -0.000122756303821)
(0.00755323642101 -0.0046991914701 0.00098389116618)
(0.00704493299518 -0.00448628732327 0.00206160860695)
(0.00561801987305 -0.004127501824 0.00272542825832)
(0.00371599313548 -0.00368809105529 0.00300406922762)
(0.00192578326785 -0.00324822705795 0.00292634773611)
(0.000526810056447 -0.00296938567755 0.0027679082386)
(-0.000676656456816 -0.00296552595368 0.00276575452435)
(-0.00207061275213 -0.00323438566556 0.00291818005175)
(-0.00385040323804 -0.00366748031036 0.0029917639435)
(-0.00574270132294 -0.0041031306715 0.0027111635396)
(-0.00715818477854 -0.00445930887371 0.0020471123866)
(-0.00764906894097 -0.0046703356913 0.000964710569309)
(-0.00677621923012 -0.00478167165219 -0.000141746722837)
(-0.00468376599849 -0.00485362731571 -0.000894317600322)
(-0.00188022949051 -0.00491202310891 -0.00073737586369)
(-0.000317935085322 -0.0048302278156 0.000677197622101)
(0.000321484642082 -0.00626123351427 0.000382843467426)
(0.00191111597584 -0.00639499068101 -0.00100032244932)
(0.0046658152912 -0.00637202689013 -0.00115483578455)
(0.00674963697541 -0.00636444140596 -0.000449141743471)
(0.00767464315013 -0.00634205566674 0.000594451437683)
(0.00730978253808 -0.00621723205851 0.0016305506605)
(0.00599249648143 -0.00592947287903 0.00237249443735)
(0.00415887554484 -0.00555008888195 0.00271554500845)
(0.00229939068963 -0.00515729118742 0.00275628290046)
(0.000676773960133 -0.00490056093572 0.00268963194114)
(-0.000815418004583 -0.00489517162958 0.0026878466049)
(-0.00243432909044 -0.00514063970727 0.00275113265285)
(-0.00428699704903 -0.00552450228356 0.00270712578569)
(-0.00611282889184 -0.00589774320872 0.00235992461637)
(-0.00741976659851 -0.00618017397445 0.00161439170253)
(-0.00776749465059 -0.00630135696938 0.000575574843707)
(-0.00681710545681 -0.00632166519672 -0.000467344755649)
(-0.00470070940484 -0.00632916337884 -0.00116920116428)
(-0.00190975607168 -0.00635378900559 -0.00100932184467)
(-0.000312011717075 -0.00622471307352 0.000378727828666)
(0.000326183851938 -0.00704849875981 -6.7174557684e-07)
(0.00192962321184 -0.00722101690556 -0.00136909720613)
(0.00463385664754 -0.00723363629966 -0.00155178747149)
(0.00670368407912 -0.00729578543913 -0.000938954383614)
(0.00768558374281 -0.00737645859801 -1.27800644387e-05)
(0.00746480777982 -0.00738167628547 0.000910148030085)
(0.00628344140341 -0.00722437952495 0.00162560837189)
(0.00452762806425 -0.00695019177715 0.00204647340383)
(0.00261809717106 -0.00664049666898 0.0021845153403)
(0.000806186915491 -0.00643548038901 0.00218089895471)
(-0.000933987046595 -0.0064295961021 0.00217875425353)
(-0.0027424309642 -0.00662238196766 0.00217997748403)
(-0.00464700423917 -0.00692144225098 0.00204161519261)
(-0.00639685060548 -0.00718724187395 0.00161605089061)
(-0.0075690670224 -0.00733736963979 0.000897742691591)
(-0.00777465247809 -0.00732711780504 -2.89556610443e-05)
(-0.00676949870362 -0.00724403937408 -0.000954965279691)
(-0.00467006918866 -0.00718309982883 -0.00156561271887)
(-0.00193274880629 -0.00717410326584 -0.00137836622291)
(-0.000319803980143 -0.00700920900054 -6.24270449929e-06)
(0.000334250725869 -0.00712851169139 -0.00046609823959)
(0.00194131425188 -0.00726328333625 -0.00181054423607)
(0.00455963771557 -0.00726118078405 -0.00202977330749)
(0.00657385839808 -0.00734808459699 -0.0015412234597)
(0.00757334258544 -0.00749201079765 -0.000789162086938)
(0.00745747836734 -0.00760158725283 -1.95193942755e-05)
(0.00641034468387 -0.0075874839486 0.000583860660163)
(0.00474683202811 -0.00745720540821 0.000968047041448)
(0.00282478646675 -0.00726844935705 0.00112796170484)
(0.000892568950516 -0.00713575153426 0.00115477518335)
(-0.0010091685593 -0.00712888889247 0.00115384443393)
(-0.00293927693139 -0.00724944053561 0.00112574554272)
(-0.00485729176617 -0.00742733064434 0.000964092182935)
(-0.00651597134605 -0.00754782908061 0.00057693291608)
(-0.00755512873905 -0.00755401180252 -2.98765131512e-05)
(-0.00765765633577 -0.00743857653916 -0.000801805509844)
(-0.00663888382288 -0.00729296356125 -0.00155464121997)
(-0.00459860235513 -0.00720819095438 -0.00204196369811)
(-0.00195114779562 -0.00721593978099 -0.00181948456927)
(-0.000332347002872 -0.00709112830054 -0.000471964583972)
(0.0003908682369 -0.00637204744061 -0.00097077229394)
(0.00201149064595 -0.00640713310112 -0.00225822425741)
(0.00451768420624 -0.00633577462932 -0.00249797496928)
(0.00644241590626 -0.00637615954757 -0.00212998839335)
(0.00742540426132 -0.00650385525188 -0.00154858118186)
(0.00737360249576 -0.00663082579832 -0.000953348181029)
(0.00643228205364 -0.00667317374508 -0.000468810345152)
(0.00486191888799 -0.00662446553156 -0.000144617748081)
(0.00295509306257 -0.00651565360096 2.22541315201e-05)
(0.000951022781813 -0.0064259458577 5.46585931537e-05)
(-0.00105561394247 -0.0064196105236 5.42148616493e-05)
(-0.0030583971008 -0.00649703462321 2.03281591139e-05)
(-0.00496228056682 -0.00659474186728 -0.000148133800264)
(-0.00652860925485 -0.0066337608719 -0.00047436154714)
(-0.00746360504584 -0.00658315517971 -0.00096170262639)
(-0.00750541529685 -0.00645126780764 -0.00155857647485)
(-0.0065070201402 -0.00632240650534 -0.00214075475203)
(-0.00456061970742 -0.00628529860742 -0.0025083087697)
(-0.00202976687761 -0.00636409313924 -0.00226612731364)
(-0.000394304056712 -0.00634056045731 -0.000975880188175)
(0.000528859085833 -0.00489797942247 -0.00145399209899)
(0.00220848038566 -0.00474628344825 -0.002593773822)
(0.00458754242563 -0.0045453344532 -0.00279819147177)
(0.00639754820511 -0.00447194849592 -0.00250426382556)
(0.00733353628865 -0.0045108616936 -0.00204303249838)
(0.0073065950984 -0.00458216127502 -0.00157186528841)
(0.00643654559416 -0.00461091936218 -0.00118033361546)
(0.00493336366036 -0.00458929590626 -0.000907822911086)
(0.00304834857828 -0.004526363426 -0.000756240745249)
(0.000998291104613 -0.00446541670827 -0.000701639728535)
(-0.00109020364156 -0.0044596065125 -0.000702361442692)
(-0.00313963309896 -0.00450933791783 -0.00075845521777)
(-0.00502287992893 -0.00456206069728 -0.000911176975026)
(-0.00652357887251 -0.00457479309134 -0.00118529142873)
(-0.0073896861148 -0.00453869298356 -0.00157847980855)
(-0.00741000341126 -0.0044631878837 -0.00205054872223)
(-0.00646278738292 -0.00442375278438 -0.00251241179122)
(-0.00463556096711 -0.00450097422939 -0.00280580862631)
(-0.00223646403518 -0.00471040758474 -0.00259973675777)
(-0.000538206243711 -0.00487502345342 -0.00145743350753)
(0.000759520319433 -0.00290660250766 -0.0018196788844)
(0.00255102582356 -0.00253592134234 -0.00257008776773)
(0.00478527838643 -0.00219068518315 -0.00259817088218)
(0.00646488962293 -0.00199045648241 -0.00226893723922)
(0.00733094424318 -0.00191755093547 -0.00182816391647)
(0.00728957367341 -0.00190313786993 -0.0013932954114)
(0.00645496955848 -0.00188181313895 -0.00103000639867)
(0.00498809700792 -0.001851476491 -0.00076314344983)
(0.00311302121557 -0.00180199649472 -0.000599306937122)
(0.00103057929609 -0.00176044488438 -0.000525199185229)
(-0.00111284697919 -0.00175636239737 -0.0005260175677)
(-0.00319538429292 -0.00179033821077 -0.000601329118644)
(-0.00506979647857 -0.0018328161352 -0.00076634817345)
(-0.00653548721763 -0.00185634894529 -0.00103474410117)
(-0.00736832245584 -0.00187206146528 -0.00139836584615)
(-0.0074062232459 -0.00188303190967 -0.00183335110251)
(-0.00653259796525 -0.00195492996077 -0.00227382838851)
(-0.00483998599222 -0.0021577865094 -0.00260254850424)
(-0.00258983484869 -0.00251027422854 -0.0025730835825)
(-0.000774869263834 -0.00289186739045 -0.00182020194358)
(0.00104243382312 -0.00104245462319 -0.00196910438739)
(0.0029225792764 -0.000760829101787 -0.00182137998982)
(0.00493638626326 -0.000528482706928 -0.00146082718001)
(0.00642690318006 -0.000388174165345 -0.000984483513241)
(0.00719220817152 -0.000330163441774 -0.000488389075498)
(0.00711196585781 -0.000320170182126 -2.91302973652e-05)
(0.00631495182745 -0.000314262604321 0.000348976672857)
(0.00489699029829 -0.000320404319479 0.000641192502558)
(0.00307022578037 -0.000317103688318 0.00083287749951)
(0.00101792804539 -0.0003110147327 0.000926822111439)
(-0.00110557359963 -0.000309469364856 0.00092615596161)
(-0.00315824197616 -0.000313112563706 0.00083060692916)
(-0.00498349035187 -0.000313986730871 0.000637250062884)
(-0.00639953292192 -0.000305272296489 0.00034480008333)
(-0.00719516405678 -0.000308758054249 -3.31671243491e-05)
(-0.00727247519673 -0.000317426322297 -0.00049193294243)
(-0.00650049377079 -0.000374615055581 -0.00098681482036)
(-0.00499887125319 -0.000515190707475 -0.00146234671776)
(-0.00297003864801 -0.00075012747184 -0.00182124378235)
(-0.00106139581617 -0.00103620294183 -0.00196745754311)
(0.0014487189697 0.00142950402481 -0.00629875603217)
(0.00388100128483 0.00155946638394 -0.00597658230131)
(0.0061851216646 0.00156257406753 -0.00508675452359)
(0.00782641042813 0.0016114583955 -0.00384865294193)
(0.00858855384158 0.00167991187784 -0.00249523495874)
(0.00839550773096 0.00174902169177 -0.00121570069527)
(0.0073817107406 0.00179789116651 -0.000132990489617)
(0.00569080803619 0.00183833707888 0.000702171870075)
(0.0035550028254 0.00185691806461 0.00124863542389)
(0.00118230220799 0.00186053231743 0.0015190871194)
(-0.00126189359304 0.00185845901348 0.00152160300952)
(-0.00362872243299 0.0018506352074 0.00125761659268)
(-0.0057528001543 0.00182835999003 0.000715224545116)
(-0.00742579048076 0.00178435409092 -0.000121055280984)
(-0.00841800607934 0.00173128424782 -0.00121010097963)
(-0.0085899754331 0.00165789226459 -0.0024990394357)
(-0.00781356572051 0.00158499471454 -0.00386455360965)
(-0.00617115117393 0.0015328316926 -0.00511557021959)
(-0.0038830997544 0.0015293574932 -0.00601525556534)
(-0.00145818719205 0.00140182836584 -0.00633567104801)
(0.00157978437326 0.00382545568031 -0.00596398038747)
(0.00398700120401 0.00392899636749 -0.00678281546069)
(0.00619224962415 0.00384466090074 -0.00639628374654)
(0.00781226525031 0.00382074373343 -0.00536351756728)
(0.00854074292756 0.00381639852083 -0.00408472458523)
(0.00833649210058 0.00379421313501 -0.00281766457158)
(0.00730783837775 0.00373690111342 -0.00173109660626)
(0.00562584467848 0.00365986361106 -0.000913435232285)
(0.0035157601055 0.00357556373655 -0.000395830844504)
(0.00118590763245 0.00351421548042 -0.000153017252625)
(-0.00120717470509 0.0035094494874 -0.000151085016485)
(-0.00353255328802 0.00356113359975 -0.000391688944616)
(-0.00563372149293 0.00363694485782 -0.00090806651192)
(-0.00730327541826 0.00370508314076 -0.00172790259873)
(-0.00831755330497 0.00375225619556 -0.00281980142184)
(-0.0085094145689 0.00376304257401 -0.00409732173791)
(-0.0077755471211 0.00375589882541 -0.00538844852046)
(-0.00616290400578 0.00377076088729 -0.00643230663703)
(-0.00397946474041 0.0038506776081 -0.00682266073747)
(-0.00158459675675 0.00374880515745 -0.00599369990999)
(0.00158308230033 0.00609977447775 -0.00505034482216)
(0.00390253000921 0.0061020156464 -0.00637122144928)
(0.00606415472187 0.00597254790067 -0.00620819260057)
(0.00764066293937 0.00587976115743 -0.00521885316271)
(0.0083125589681 0.00578554499472 -0.00390334041764)
(0.0080679327518 0.00565306634953 -0.00258049409227)
(0.00702104521204 0.00546887842926 -0.00145780048548)
(0.0053649252725 0.005258922475 -0.000644573985339)
(0.00333006302954 0.00506124852088 -0.000161209326206)
(0.00112521567465 0.00492519986054 4.14255066286e-05)
(-0.00111883692594 0.00491916361256 4.16178154966e-05)
(-0.00331961257649 0.00504223910278 -0.000162610623014)
(-0.00534720067011 0.00523040574374 -0.000645168787614)
(-0.00699518879149 0.0054295221366 -0.00146002776741)
(-0.00803355749512 0.00560085012369 -0.00258788920649)
(-0.00827186878163 0.00571875301951 -0.0039193603362)
(-0.00759959608614 0.00579799169504 -0.00524556398139)
(-0.00603246278718 0.00587788577209 -0.00624266703721)
(-0.00389075258195 0.00600009248302 -0.00640457077251)
(-0.00158410349257 0.00599955143588 -0.00506767794948)
(0.00163226939343 0.00772199968572 -0.00377714875002)
(0.00387939746382 0.00770158741883 -0.005303270883)
(0.00597308000908 0.00752806109107 -0.00518316010119)
(0.00746871883074 0.00735524547244 -0.00410705604882)
(0.00804475970373 0.00714791446179 -0.00265330924403)
(0.00771521956871 0.00687418781944 -0.00120198720335)
(0.00662060357876 0.00652171359885 -3.07668229553e-06)
(0.00498363248401 0.00613375943706 0.000819843951673)
(0.00304307320847 0.00578268945223 0.00126472341523)
(0.00101600090607 0.00556812155807 0.00137614192082)
(-0.00100351408157 0.00556167347796 0.0013742687961)
(-0.00302509343869 0.00576395505396 0.00124910718536)
(-0.00495769786747 0.00610368574721 0.000811501129633)
(-0.00659022917939 0.0064802494022 -1.21907148395e-05)
(-0.00768069731454 0.00682009799094 -0.00121410866706)
(-0.00800811056906 0.00707925409487 -0.00267166847845)
(-0.00743411437468 0.00727103587624 -0.00413180399064)
(-0.00594673910394 0.00743021268502 -0.00521106199736)
(-0.00386668497962 0.0075951461041 -0.00532483911188)
(-0.00163057454545 0.00761691163556 -0.00377906626962)
(0.00170138816519 0.00847985882837 -0.00238335399658)
(0.00387770481329 0.00842389840265 -0.00398326392103)
(0.00588287794951 0.00819369510691 -0.00382666497207)
(0.00726430827035 0.00792640951915 -0.00261282053107)
(0.00770656963334 0.00758679845089 -0.000985459861214)
(0.00724691809433 0.00714107273625 0.000612517384126)
(0.00606502007001 0.00659647583132 0.00187447102501)
(0.00443883350667 0.00600326802093 0.00263954343921)
(0.00264523801022 0.00547762871171 0.00296006105135)
(0.000872261491358 0.00517371458052 0.00302476510411)
(-0.00086157269293 0.00516716646386 0.00301910161574)
(-0.00262953695076 0.00545961995141 0.00294514682042)
(-0.00441642031056 0.00597296265144 0.00262088674768)
(-0.00603847601234 0.00655547697547 0.00185612657321)
(-0.00721856914739 0.00708879302167 0.000591847515856)
(-0.0076789999084 0.00752235428953 -0.00100795967031)
(-0.0072396978112 0.00784857517774 -0.00263693293387)
(-0.00586351898663 0.0081038892287 -0.00384806800788)
(-0.0038643710485 0.00832658473366 -0.00399282645393)
(-0.0016971543561 0.00838417323476 -0.00237039217918)
(0.00177078724682 0.00829752284115 -0.00106192679057)
(0.00385962312307 0.00822751940376 -0.00267412007036)
(0.00575634171114 0.00795656094082 -0.00246314254253)
(0.00699482171199 0.00760603309281 -0.00112351712783)
(0.00726277231608 0.0071371231299 0.000647691638799)
(0.00663873747231 0.00652732252938 0.00233628513344)
(0.00535161325943 0.00579654344496 0.00356393926146)
(0.00373847053229 0.00501142193811 0.00416894746576)
(0.00212742014318 0.00432031605967 0.00429524867107)
(0.000678613031591 0.00391263327135 0.00423261151887)
(-0.00067812069003 0.00390639648543 0.00422404151278)
(-0.00212079304739 0.00430187071059 0.00426961669154)
(-0.00372352370449 0.00498199577751 0.00413741360257)
(-0.00533207177668 0.00575732045458 0.00353272288755)
(-0.00661798664334 0.00647892883293 0.00230487219291)
(-0.00724401775314 0.00707905445009 0.000618145658511)
(-0.00697925605824 0.00753829698163 -0.00114956953832)
(-0.00574244923229 0.0078805054142 -0.00248111122956)
(-0.00384453873548 0.00814698657871 -0.00267523848909)
(-0.00176352853064 0.0082197696039 -0.00103863713855)
(0.00182139196444 0.00730928743886 6.07332160055e-05)
(0.00380842732993 0.00721905510346 -0.0015494764963)
(0.00558087190759 0.00692989245917 -0.00130406442216)
(0.00664818600937 0.00653520939074 0.000108939601987)
(0.00671990271575 0.00597781806414 0.00193845326671)
(0.0059083702095 0.00526158839213 0.00359204357681)
(0.0044955255797 0.00440469000931 0.0046664794047)
(0.00289507010005 0.00349048743358 0.00504132281)
(0.00149732487081 0.00268295946544 0.00486173205293)
(0.000440328043578 0.0022004356136 0.00459922363305)
(-0.000452315016069 0.00219499091483 0.00458900660106)
(-0.00150295887004 0.00266730860598 0.00483251629689)