/*--------------------------------*- C++ -*----------------------------------*\
| =========                 |                                                 |
| \\      /  F ield         | OpenFOAM: The Open Source CFD Toolbox           |
|  \\    /   O peration     | Version:  3.0.1                                 |
|   \\  /    A nd           | Web:      www.OpenFOAM.org                      |
|    \\/     M anipulation  |                                                 |
\*---------------------------------------------------------------------------*/
FoamFile
{
    version     2.0;
    format      ascii;
    class       surfaceVectorField;
    location    "1";
    object      Uf_0;
}
// * * * * * * * * * * * * * * * * * * * * * * * * * * * * * * * * * * * * * //

dimensions      [0 1 -1 0 0 0 0];

internalField   nonuniform List<vector> 
22672
(
(0.00126352570577 0.000620406748064 -0.00131675885664)
(0.000612939174496 0.00127438033058 -0.00131629877264)
(0.00075847539221 0.000766380051015 -0.00253790536956)
(0.00265231482984 0.000552376919939 -0.00126357524014)
(0.00188689417413 0.00115631382276 -0.00156595152174)
(0.00211450050909 0.000786129312096 -0.00254510383804)
(0.00387712708739 0.000578375991561 -0.00114461286431)
(0.00337935369793 0.00117985718977 -0.0015725315571)
(0.00352682913963 0.000843391984437 -0.00240467393235)
(0.00470839859619 0.000692583719222 -0.00100894465798)
(0.00451910274679 0.00136313015194 -0.00146703775938)
(0.00459546555512 0.00098742452957 -0.00219441075354)
(0.00502020460374 0.000864332078589 -0.00088522992735)
(0.00515418265267 0.00166931835922 -0.00134350082244)
(0.00517789467699 0.00119638961525 -0.00198113812972)
(0.00478190961358 0.00105308946605 -0.000784453465971)
(0.00519795916571 0.00203391524119 -0.00123422402288)
(0.00519027779485 0.00143506953808 -0.00179563810733)
(0.00404589025786 0.00122654301379 -0.000709909139462)
(0.00467669634223 0.00238851013107 -0.00115158474562)
(0.00465777495534 0.00166302587598 -0.00165251183795)
(0.00291548942032 0.00136217670725 -0.00066109673268)
(0.00367588526425 0.00268554192553 -0.00109826777097)
(0.00365700147159 0.00185505744458 -0.00155516439118)
(0.00152623026166 0.00144580155406 -0.000635068271685)
(0.00233722507108 0.00289048260392 -0.00107161293934)
(0.00232462205891 0.00198751685292 -0.00150124804536)
(1.16792790883e-05 0.00147416574174 -0.000627142887417)
(0.000806215615561 0.00299348799512 -0.00106208689529)
(0.000801717769673 0.002054175612 -0.00147896200214)
(-0.00150350431596 0.00144692526898 -0.000635286269178)
(-0.000786470926482 0.00299429700551 -0.00106211730304)
(-0.000782666213591 0.00205473647527 -0.00147913788903)
(-0.00289454063742 0.00136428904773 -0.000661666807304)
(-0.00231853676478 0.00289278511474 -0.00107175373381)
(-0.00230661803386 0.0019890569064 -0.00150177189911)
(-0.0040274057368 0.00122946398384 -0.000710879178683)
(-0.00365916803945 0.00268915868609 -0.00109869515054)
(-0.00364093723381 0.00185744605151 -0.001556314608)
(-0.0047662810663 0.0010565356575 -0.000785795432773)
(-0.00466242672222 0.00239310116997 -0.00115229787195)
(-0.0046440202518 0.00166604749051 -0.00165424436716)
(-0.00500748803073 0.000868132219647 -0.000886891068562)
(-0.00518628476071 0.00203908535691 -0.00123528369906)
(-0.00517890555024 0.00143838240371 -0.00179789444089)
(-0.00469854619236 0.000696664456583 -0.00101064626542)
(-0.00514503910869 0.00167486190984 -0.00134484406047)
(-0.00516885836581 0.00119994595558 -0.00198381774729)
(-0.00387033058411 0.00058263346938 -0.00114611172615)
(-0.00451233697598 0.00136882011235 -0.00146840349435)
(-0.00458859198775 0.000991122519728 -0.00219704834019)
(-0.00264884962482 0.000556275476938 -0.00126564017479)
(-0.00337473653822 0.00118567221993 -0.00157383618132)
(-0.00352198276962 0.000847266445406 -0.00240716529225)
(-0.00126210642724 0.00062330311629 -0.00132031197617)
(-0.00188582261381 0.00116194752716 -0.00156846680261)
(-0.00211312646241 0.000789488823723 -0.00254870309817)
(-0.000610454994562 0.00128039937972 -0.00132013668694)
(-0.000755591413662 0.000768653050959 -0.00254251338971)
(0.00114668429275 0.00190094266024 -0.00156549143775)
(0.00054544180135 0.0026714556131 -0.00126150467488)
(0.00077906143646 0.0021296900509 -0.00254375892732)
(0.00269679210496 0.00191476496412 -0.0018749078387)
(0.00190350035701 0.00271151958274 -0.00187393320082)
(0.00219790623508 0.00220856478097 -0.00310531476617)
(0.00412231775947 0.00212560066075 -0.00189495645217)
(0.00364684143283 0.00295096729833 -0.00203020485685)
(0.00374725097234 0.00241930690254 -0.00319664059525)
(0.00509360625398 0.00253092656235 -0.00180159392384)
(0.00499150595814 0.0034509610357 -0.00194858632264)
(0.00493631185998 0.00283499774399 -0.00305912854763)
(0.0054657307516 0.0030600990768 -0.00169249491798)
(0.005746143464 0.00415507899313 -0.00180245975038)
(0.00558379348483 0.00340169539979 -0.0028578984858)
(0.00521192338915 0.0036181773398 -0.00160135530253)
(0.00581315602433 0.0049503706258 -0.00165724351917)
(0.00560447845553 0.00403192818644 -0.00266266491737)
(0.00439813874998 0.00411980046369 -0.00153994337713)
(0.00522024826918 0.00571121926567 -0.00154291441269)
(0.00501866417735 0.00463131132256 -0.00250894408978)
(0.00315698588708 0.00450405587601 -0.00150878397763)
(0.00408584313937 0.00633933467751 -0.00147391741408)
(0.00392751212426 0.00512555995708 -0.002412661314)
(0.00164553417059 0.00473939435573 -0.00149863156295)
(0.00258449900196 0.00677135959488 -0.00144688476286)
(0.00248658678075 0.00546558160417 -0.00236944767779)
(8.10095482696e-06 0.00481858989811 -0.00149706131092)
(0.000886505909252 0.00698801895483 -0.00144165320297)
(0.00085287891927 0.00563628415207 -0.00235712024846)
(-0.00162976448372 0.00474152884882 -0.00149858476767)
(-0.000871785321923 0.0069892340217 -0.00144151599156)
(-0.000841197090689 0.005637177112 -0.00235709325506)
(-0.00314255137749 0.00450813617882 -0.00150878207704)
(-0.00257065014488 0.00677490016418 -0.00144646123302)
(-0.0024756173728 0.00546814346803 -0.00236934809977)
(-0.00438562077048 0.00412546200814 -0.00154011384381)
(-0.00407363700342 0.00634488962736 -0.00147340860768)
(-0.0039178265117 0.00512954819821 -0.00241267905817)
(-0.0052015907913 0.00362494134386 -0.00160178613824)
(-0.00521010209723 0.00571826664297 -0.00154249031525)
(-0.00501053719293 0.00463633157225 -0.00250921023057)
(-0.00545762953728 0.00306753275233 -0.00169323669097)
(-0.0058051948544 0.00495836927965 -0.00165702432048)
(-0.00559794586192 0.00403751887112 -0.00266325743404)
(-0.00508749299509 0.00253867451151 -0.0018026012894)
(-0.00574027054679 0.00416360998503 -0.00180260330058)
(-0.00557873389897 0.00340756898067 -0.00285889499783)
(-0.00411789774395 0.00213347354627 -0.00189612794953)
(-0.00498738217432 0.00345967523127 -0.0019490535553)
(-0.00493240322764 0.00284101452619 -0.00306045968172)
(-0.00269382216792 0.0019228609142 -0.00187666280914)
(-0.00364390881313 0.00295984423399 -0.00203096643014)
(-0.0037440848795 0.00242565652956 -0.00319825658638)
(-0.00114485651542 0.00191001981855 -0.00156829151337)
(-0.00190265069373 0.00272089842461 -0.00187570592222)
(-0.00219642413009 0.00221571622068 -0.00310792537586)
(-0.000543713008205 0.00268284271548 -0.00126416111153)
(-0.000776952557787 0.00213888656523 -0.00254730429255)
(0.00117204075417 0.00339816358873 -0.00156994643795)
(0.000572239381927 0.00389930733017 -0.00114002447291)
(0.000838171509619 0.00354701945524 -0.00239989116766)
(0.00294078592371 0.00365966033193 -0.00202923021897)
(0.00211695273619 0.0041371935363 -0.00189174322468)
(0.00241303010581 0.00375879479415 -0.00319441915173)
(0.00461961125116 0.00418247811535 -0.00208383472732)
(0.00417444351197 0.00462755829355 -0.00208277765967)
(0.00419246861564 0.00419712638077 -0.00335541912433)
(0.00577890934222 0.00497242297571 -0.00194945214918)
(0.00578451579356 0.00545695766126 -0.00193731334279)
(0.00556802441506 0.00492911051349 -0.00316530070345)
(0.00623283836627 0.00592981783736 -0.00176720835157)
(0.00669646357305 0.0065475566144 -0.00167532544528)
(0.00631945071354 0.00587804916763 -0.00284641558844)
(0.00594516771472 0.00691264340863 -0.00159880262933)
(0.00678330728879 0.00774686560776 -0.0013963488342)
(0.00634554049449 0.00691365718162 -0.00250883571278)
(0.00500083202842 0.00778465971495 -0.00147688844965)
(0.00607507046466 0.00888033490856 -0.00116207419337)
(0.00566738862264 0.00789050454093 -0.00222479317946)
(0.00357163242952 0.00844750740304 -0.00141201819931)
(0.00472963481939 0.00980663762196 -0.00101147864836)
(0.00441496292284 0.00868946342198 -0.00203811781138)
(0.0018526781223 0.00885233650718 -0.00138990640288)
(0.00297385465862 0.0104406514521 -0.000945673816429)
(0.00278104901915 0.0092375193553 -0.0019503526284)
(6.61502647905e-06 0.00898805897518 -0.00138610788362)
(0.00101511002147 0.0107575380202 -0.000928452405166)
(0.000949454694331 0.0095120835472 -0.001923470917)
(-0.00183981532753 0.00885488076377 -0.00138939245691)
(-0.00100176608857 0.0107588088621 -0.000928079182622)
(-0.000941026918171 0.00951303922784 -0.00192315841771)
(-0.00355998148739 0.00845239151057 -0.00141108776365)
(-0.00296135445095 0.0104444348888 -0.000944513247483)
(-0.00277322643094 0.00924033720965 -0.00194938058281)
(-0.00499096294019 0.00779144827272 -0.00147578507912)
(-0.00471880063279 0.00981260709729 -0.00100979786027)
(-0.00440824939894 0.00869383325545 -0.00203674547758)
(-0.00593734964118 0.00692077251797 -0.0015977284975)
(-0.00606636526032 0.008887964884 -0.00116017734587)
(-0.00566203239993 0.0078959474979 -0.00222331828716)
(-0.00622711093328 0.00593877376156 -0.00176639093009)
(-0.00677684796282 0.00775558349162 -0.00139455822072)
(-0.00634157204291 0.00691967811706 -0.00250745736359)
(-0.0057750047449 0.00498179891431 -0.00194905556647)
(-0.00669212687346 0.00655699181672 -0.00167388906873)
(-0.00631670839449 0.00588438283431 -0.00284549097238)
(-0.00461716382178 0.00419207715076 -0.00208389203592)
(-0.00578198364305 0.00546676390502 -0.00193641453872)
(-0.00556620361059 0.00493568614525 -0.00316493191967)
(-0.00293941218122 0.00366977408651 -0.00203000954322)
(-0.00417307596424 0.00463778334359 -0.00208253311806)
(-0.00419116025508 0.00420426231179 -0.00335569303978)
(-0.00117137289693 0.0034099326715 -0.00157157552037)
(-0.00211713848724 0.00414859650871 -0.00189259424377)
(-0.00241275887731 0.0037673578196 -0.00319573929186)
(-0.000571585824828 0.00391355039471 -0.0011416614229)
(-0.000837505918029 0.00355892139231 -0.00240207999458)
(0.00135673287565 0.00453707668977 -0.00146182125964)
(0.000687258632342 0.0047285406549 -0.0010015585702)
(0.000983756816506 0.00461469180033 -0.00218596347634)
(0.00344367634443 0.00500129327972 -0.00194529066537)
(0.00252395370666 0.00510453984639 -0.00179588810952)
(0.00283194069615 0.00494485585995 -0.00305428749671)
(0.0054530986156 0.0057880488441 -0.00193625627513)
(0.00496698646522 0.00578146383709 -0.00194637645839)
(0.00492889629542 0.00556839295827 -0.00316332707899)
(0.0068542550303 0.00690097745746 -0.00166318663889)
(0.00690072941674 0.00685178303149 -0.00166237434064)
(0.00656049231041 0.00655568152762 -0.00279598282144)
(0.00740492051906 0.00821167109231 -0.00130446592792)
(0.0080002411683 0.00821828323181 -0.00119989164349)
(0.0074500442567 0.0078076861281 -0.00222139474237)
(0.00705235120925 0.00953826915855 -0.000959620398248)
(0.00809760994074 0.00969957446564 -0.00069837998894)
(0.00747009229111 0.00915971492919 -0.00160014351333)
(0.00590647864771 0.0107040930011 -0.000696664392084)
(0.00722682370617 0.0110878572666 -0.000268175763189)
(0.00664631255979 0.0104253765715 -0.00106165481673)
(0.00419385301573 0.0115836893541 -0.000545134265478)
(0.00559489209561 0.0122150919149 1.77729376468e-05)
(0.00514856223523 0.0114530626071 -0.000695834459361)
(0.00216430107896 0.0121182423986 -0.000484219818716)
(0.00349717772956 0.0129844046395 0.000151349561168)
(0.00322444108827 0.0121547249744 -0.000514207440205)
(6.69638990489e-06 0.0122967035919 -0.000470423704172)
(0.00118880337934 0.0133680959047 0.00019174913213)
(0.00109623036538 0.012505291592 -0.000452959180985)
(-0.00215126682997 0.0121206691099 -0.000483199973193)
(-0.0011746953667 0.0133691397342 0.000192283877965)
(-0.00108850865361 0.0125061028624 -0.000452372560701)
(-0.00418213306014 0.0115883904319 -0.000543223344098)
(-0.00348396780062 0.0129876120729 0.000153188089313)
(-0.00321732160734 0.012157180147 -0.000512313875404)
(-0.00589675319638 0.0107106643849 -0.000694190127018)
(-0.005583581148 0.0122202159681 2.05536516709e-05)
(-0.00514268521658 0.0114568608753 -0.00069298907269)
(-0.00704498635338 0.00954621579792 -0.000957007069098)
(-0.00721794097883 0.0110945321645 -0.000264938511764)
(-0.00664199049592 0.0104300778924 -0.00105833185288)
(-0.00739984816743 0.00822057792285 -0.00130205635937)
(-0.00809124368979 0.00970736891664 -0.000695122621449)
(-0.00746728608363 0.00916490691562 -0.00159691928488)
(-0.00685127771984 0.00691053220375 -0.00166124804098)
(-0.00799628512396 0.00822697050778 -0.00119693163016)
(-0.0074485281189 0.00781329503739 -0.00221854361082)
(-0.00545179243948 0.00579816630458 -0.00193505562086)
(-0.00689893551067 0.00686114642123 -0.00166010197026)
(-0.00656000955422 0.00656177979207 -0.00279386189406)
(-0.00344347359035 0.00501248056146 -0.00194511781861)
(-0.00496663082743 0.00579166961536 -0.00194504539839)
(-0.00492899795333 0.005575491405 -0.00316219920339)
(-0.00135688592709 0.00455059528672 -0.0014626801463)
(-0.00252499235974 0.00511651034882 -0.00179589109312)
(-0.0028328139149 0.00495414760734 -0.00305449487728)
(-0.000687195261741 0.00474387198285 -0.00100249047431)
(-0.000983958930406 0.00462837050681 -0.00218720109171)
(0.00166382728633 0.00516718419721 -0.00133562542008)
(0.000859595279478 0.0050337686292 -0.000875121328178)
(0.00119388630639 0.00519204856165 -0.00196905043142)
(0.00414915823254 0.00574988603317 -0.00179697390254)
(0.00305377578156 0.00546990141026 -0.00168449570492)
(0.00340033847827 0.00558693061704 -0.00285068718157)
(0.00654539519577 0.00669305525393 -0.0016724945239)
(0.00592510612137 0.00622827574801 -0.0017625116231)
(0.00587997960953 0.00631409129647 -0.0028430439644)
(0.00822305314732 0.00799273726509 -0.00119907934524)
(0.00821222076956 0.00739467421491 -0.00130252284065)
(0.00781497608255 0.00743898533247 -0.00222054485203)
(0.00887615412917 0.00950254192132 -0.000593805704517)
(0.00951151278861 0.00886270612265 -0.000593898193432)
(0.00886367393383 0.00884939500217 -0.00129752022904)
(0.0084322500288 0.0110181438157 -6.93535388081e-06)
(0.00960868193724 0.0104411234585 0.000175398128689)
(0.0088656646386 0.0103613766289 -0.000297641913664)
(0.00703044267776 0.0123432844751 0.000446261566542)
(0.00854612717483 0.0119117544893 0.000840297283159)
(0.00785490928148 0.0117699084039 0.000577912375136)
(0.004965157304 0.0133411795154 0.000714256764292)
(0.00658624745249 0.0131060159376 0.00128641102688)
(0.00605196278032 0.0129100808618 0.00117436287423)
(0.00255087885801 0.0139476092529 0.000827318512014)
(0.0040984221716 0.0139228856121 0.00150063496588)
(0.00377060945071 0.0136895987711 0.00147579837734)
(7.34498387053e-06 0.0141498140888 0.000854456714267)
(0.00138889723096 0.014330618676 0.00156953698737)
(0.00127756460231 0.0140797709084 0.00158101199152)
(-0.00253654873702 0.0139493908674 0.000828671940472)
(-0.00137354871632 0.0143312895457 0.00157004434085)
(-0.0012695031542 0.0140802504868 0.00158174575572)
(-0.00495232764224 0.0133447073041 0.000716965085082)
(-0.00408398041898 0.0139249043396 0.00150269700516)
(-0.00376321962566 0.0136910530535 0.00147849046203)
(-0.00701988037147 0.0123483839814 0.000449805266924)
(-0.00657384442413 0.013109278019 0.00128974944581)
(-0.00604606061152 0.01291237589 0.00117849711263)
(-0.00842437242351 0.0110245283158 -3.05406411507e-06)
(-0.00853640948124 0.0119164276189 0.000844518001149)
(-0.0078508418153 0.0117728657874 0.000582605641409)
(-0.00887087105684 0.00950996226591 -0.000589997892244)
(-0.00960174493822 0.0104468320679 0.000179772871917)
(-0.00886327195582 0.010364690724 -0.000292953336714)
(-0.00822025973359 0.00800106977463 -0.00119578555945)
(-0.00950726746853 0.00886951511104 -0.000589709775172)
(-0.00886270528687 0.00885325222023 -0.00129314342728)
(-0.0065446690244 0.00670233578303 -0.00167009174779)
(-0.00821057666636 0.00740250383674 -0.00129901849386)
(-0.00781528580787 0.00744363233607 -0.0022169349601)
(-0.00414971909002 0.00576070097887 -0.00179581867291)
(-0.00592529980489 0.0062373262813 -0.00176015156445)
(-0.0058810978916 0.00632014641383 -0.00284059291868)
(-0.00166453248655 0.00518080910355 -0.00133570142113)
(-0.00305539258387 0.00548112804234 -0.0016836461961)
(-0.00340215694065 0.00559572694892 -0.00284978925943)
(-0.000859860284545 0.00504866044084 -0.000875343560068)
(-0.00119462167808 0.0052058941867 -0.00196930898726)
(0.00202862677737 0.00520278255464 -0.00122399161301)
(0.00104873754852 0.00478545766232 -0.000771970568931)
(0.00143313911772 0.00519621216701 -0.00178030843354)
(0.00494441415921 0.00580925730025 -0.00165003342548)
(0.00361172766382 0.00520773315672 -0.00159146427826)
(0.0040309861917 0.00560110121277 -0.00265361050419)
(0.00774438533555 0.00677226966616 -0.00139253993985)
(0.00690730541624 0.00593342253087 -0.0015930435452)
(0.00691572370554 0.00633457458759 -0.00250510905737)
(0.00970419867916 0.00808190522689 -0.000697341688838)
(0.0095378452523 0.00703514639883 -0.000957536754205)
(0.00916697455275 0.00745341813072 -0.00160027674305)
(0.0104552040158 0.00959063996813 0.000175305639774)
(0.0110266497459 0.00841163519088 -7.96434191585e-06)
(0.0103762504105 0.00884510587942 -0.000299926038951)
(0.00990494101159 0.0110971413968 0.00102263076573)
(0.0111157158913 0.00988361125687 0.0010218279316)
(0.0103508911618 0.010328810695 0.00110778277504)
(0.00822950202352 0.0124132967987 0.0016804467435)
(0.00986306171127 0.0112582561933 0.00191220052327)
(0.00913920463327 0.0117096044158 0.00232894373466)
(0.00579040943642 0.0134079656114 0.00207278922847)
(0.00757912402905 0.0123797211343 0.00251170725103)
(0.00701565898261 0.0128324343622 0.00316539232352)
(0.0029663905506 0.014014721131 0.00224285344124)
(0.00470280098312 0.0131511508836 0.00280694465871)
(0.00435763460987 0.0136068001954 0.00359575722199)
(7.92689530691e-06 0.0142170863782 0.00228512461395)
(0.00159029313071 0.0135379861502 0.00290557032491)
(0.00147340148379 0.0139959896173 0.00375109922898)
(-0.0029509320692 0.0140156277789 0.00224406940553)
(-0.00157403094013 0.0135383878849 0.00290599793864)
(-0.00146509346627 0.013996094555 0.00375176436844)
(-0.00577641966995 0.0134096941202 0.00207548136588)
(-0.00468754172361 0.0131519902622 0.0028088034853)
(-0.00434998033563 0.0136069935034 0.00359840738274)
(-0.00821777788026 0.0124160611313 0.00168446218003)
(-0.00756570166971 0.0123808302719 0.0025146691485)
(-0.00700946383875 0.0128326349134 0.00316981442874)
(-0.00989617432129 0.0111010523923 0.00102734493718)
(-0.00985232332561 0.0112603361471 0.0019166130194)
(-0.00913502784755 0.0117103191435 0.00233449943434)
(-0.0104492419508 0.00959565020845 0.000180060988988)
(-0.0111079296758 0.00988663678091 0.00102670640453)
(-0.0103485259707 0.0103297153061 0.00111327709861)
(-0.00970105425154 0.00808810663157 -0.000692942709586)
(-0.0110216579679 0.00841591713573 -2.9757530845e-06)
(-0.0103753494123 0.008846686479 -0.000294573401788)
(-0.00774375830042 0.0067797501498 -0.00138907831051)
(-0.00953586814973 0.00704071346954 -0.000953072345249)
(-0.00916761343648 0.00745606907141 -0.00159548766095)
(-0.00494533905023 0.00581858452105 -0.00164797908764)
(-0.00690759524404 0.00594051180917 -0.001589819214)
(-0.00691744226731 0.00633893220509 -0.00250158522733)
(-0.0020296625339 0.00521513756423 -0.00122328833504)
(-0.0036135920215 0.00521717909027 -0.00158987121304)
(-0.00403342925915 0.00560848799715 -0.00265170570926)
(-0.00104919831967 0.00479860129703 -0.000771527225239)
(-0.00143423284231 0.00520883954704 -0.00177958710015)
(0.00238314789869 0.00467149161704 -0.00113944323417)
(0.00122240266087 0.00403691462584 -0.000695489934308)
(0.0016615856703 0.00465362548059 -0.00163459477691)
(0.00570447811275 0.00520866864177 -0.00153447439798)
(0.00411279304095 0.00438514173422 -0.00152859695327)
(0.00463007305506 0.00500907396384 -0.00249872704351)
(0.00887640095342 0.00605780881837 -0.00115804035955)
(0.0077781128805 0.00498306837737 -0.00147042860245)
(0.00789153003659 0.00565275205074 -0.00222155654714)
(0.0110911345124 0.00720566931693 -0.000268159407282)
(0.0107022908875 0.00588469559132 -0.000694821949295)
(0.0104311753535 0.00662732666388 -0.00106427097847)
(0.011925117035 0.00852373931567 0.000838557949914)
(0.0123517512815 0.00700611432719 0.000443898858366)
(0.0117839622582 0.00783300719936 0.000571549039009)
(0.0112778775801 0.00984301318197 0.00191139768914)
(0.0124350500454 0.00820577479302 0.00167993580283)
(0.0117319918454 0.00911750703004 0.00232508487912)
(0.00935068255448 0.0110033685638 0.0027434610308)
(0.0110239081031 0.00933173155735 0.00274982635423)
(0.0103422303789 0.0103246418456 0.00385372609344)
(0.00656495743772 0.0118855456042 0.00324586268127)
(0.00845567446832 0.0102532936574 0.00347384488752)
(0.00792716335236 0.0113139475569 0.00491215627783)
(0.00335686908806 0.0124265066475 0.00346966154239)
(0.00523706377792 0.0108870266373 0.00383494183379)
(0.00491692404338 0.0119993875082 0.00547221388224)
(8.29123130714e-06 0.0126077120282 0.0035264436496)
(0.00176869930838 0.0112068541477 0.00395814297804)
(0.00166028748966 0.0123453409573 0.00567970992741)
(-0.00334087995134 0.0124268508653 0.00347073201841)
(-0.00175189302177 0.0112072016576 0.00395889958094)
(-0.00165210777223 0.0123453749063 0.00568035788261)
(-0.00655043817149 0.0118858432241 0.00324799126792)
(-0.00522166285864 0.0108871563592 0.00383660188461)
(-0.00490963915433 0.011998794187 0.00547439458334)
(-0.00933797817614 0.0110039074992 0.00274681998786)
(-0.00844184492361 0.0102528606051 0.00347621137222)
(-0.00792096894338 0.0113125864768 0.00491551534532)
(-0.0112681091425 0.00984426402927 0.00191597448674)
(-0.0110124201388 0.00933134014187 0.00275363893815)
(-0.0103378681912 0.0103231258014 0.00385913634114)
(-0.011918205168 0.0085260392982 0.000843669662454)
(-0.0124263770268 0.00820620671194 0.00168446443314)
(-0.011729517291 0.00911608047877 0.00233053925439)
(-0.0110872386094 0.00720929756299 -0.000263105388748)
(-0.0123457871946 0.00700776511221 0.000449057219762)
(-0.0117827713731 0.00783224243401 0.000577202057814)
(-0.00887541253555 0.00606295058077 -0.00115381324874)
(-0.0106995831819 0.00588777032023 -0.000689808205399)
(-0.0104316965626 0.00662780861763 -0.00105886318674)
(-0.00570538160459 0.00521582458302 -0.0015317113394)
(-0.00777807222634 0.00498779562098 -0.00146659894867)
(-0.00789340617836 0.00565513758316 -0.00221729185693)
(-0.00238429510104 0.00468166838191 -0.00113811010324)
(-0.00411460304677 0.00439220079026 -0.00152638751983)
(-0.00463277452852 0.00501453337115 -0.00249608190954)
(-0.00122293958317 0.00404738035542 -0.00069450943733)
(-0.00166288546187 0.00466408402018 -0.00163305518216)
(0.00267977558852 0.00365937972708 -0.00108464365341)
(0.00135787555205 0.00289231450411 -0.000645300444292)
(0.00185366863932 0.00364145578656 -0.00153516275798)
(0.00633152779632 0.00406695814183 -0.00146455115775)
(0.00449600927734 0.00313505761557 -0.00149637241102)
(0.00512366777166 0.0039125226262 -0.00240165365499)
(0.00980134465705 0.00470748914292 -0.0010072101922)
(0.00843912065947 0.00354864712306 -0.00140496599568)
(0.0086892827525 0.00439877658162 -0.00203538118631)
(0.0122183344932 0.00556961392065 1.72363163534e-05)
(0.0115797138884 0.00416815553971 -0.000543346562004)
(0.0114578792561 0.00513001216165 -0.000700436621667)
(0.0131230294396 0.00655950370715 0.00128527671129)
(0.013348625885 0.00493602349032 0.000710627040442)
(0.0129255161772 0.00603097168246 0.00116540671358)
(0.0124057399847 0.00755428779788 0.00251836446792)
(0.0134321084922 0.00575913716409 0.00207192303096)
(0.0128617036033 0.00699450074593 0.00316393445713)
(0.0102742566121 0.00843300673327 0.00348021021095)
(0.0119090861566 0.00653348173133 0.00325688328583)
(0.0113370692304 0.00791007669814 0.00492973652659)
(0.00720182594396 0.00910210707629 0.00406292404004)
(0.0091251369504 0.0071712474423 0.00406295103096)
(0.00867903636212 0.00866224513667 0.00615447604586)
(0.00367809459963 0.00951415159994 0.00432342326944)
(0.00564828621303 0.00761316624082 0.00446572382406)
(0.00537685989197 0.00918281804819 0.00679758756557)
(8.53518929857e-06 0.00965344443189 0.00439059890938)
(0.00190780069647 0.00784138479059 0.00460897825689)
(0.00181431051108 0.00944882944569 0.0070350228017)
(-0.00366205709278 0.00951435626095 0.00432476944714)
(-0.00189056240789 0.00784127847136 0.00461064366833)
(-0.00180630740757 0.0094490121981 0.00703650964277)
(-0.00718738972651 0.00910157272696 0.00406482198892)
(-0.0056334324048 0.00761273325715 0.00446805668804)
(-0.00537036905134 0.00918223424323 0.00679975198068)
(-0.0102613706798 0.00843169390828 0.00348303032251)
(-0.00911192470678 0.00716952831803 0.00406491786017)
(-0.00867358349773 0.00865995920765 0.00615731302873)
(-0.012395301793 0.00755319135103 0.00252212888455)
(-0.0118973035456 0.00653117532466 0.0032596295112)
(-0.0113330181455 0.00790677321835 0.00493410030254)
(-0.0131151902142 0.00655941121035 0.00128985199045)
(-0.0134225413332 0.00575751413463 0.00207570260708)
(-0.0128590889798 0.00699141087702 0.00316859030254)
(-0.0122134680363 0.0055708098695 2.23544031104e-05)
(-0.0133416394063 0.00493551136579 0.000715528167508)
(-0.012923915869 0.0060284551773 0.00117054589)
(-0.00979962670086 0.00471022663473 -0.00100259390533)
(-0.0115760338027 0.00416899476679 -0.000538137076498)
(-0.0114579082616 0.00512869731058 -0.000695046633587)
(-0.00633204452918 0.00407162674274 -0.0014612751291)
(-0.00843843168118 0.00355106328307 -0.00140076781561)
(-0.00869086945479 0.0043993245658 -0.00203082594872)
(-0.00268085523541 0.00366677973099 -0.00108278685392)
(-0.00449752264846 0.00313942955146 -0.00149372955275)
(-0.00512635269579 0.00391584435954 -0.00239838977181)
(-0.00135835063118 0.00289960776663 -0.00064385133778)
(-0.00185505605461 0.00364909599633 -0.00153306263253)
(0.00288385814351 0.00230889674611 -0.0010570292019)
(0.00144094765069 0.00148834191302 -0.000618555355784)
(0.00198575054904 0.00229703086035 -0.00147987050974)
(0.00676163832246 0.00255878882443 -0.00143678724894)
(0.00472963763884 0.00161500820016 -0.00148560509661)
(0.00546233415923 0.00246698482641 -0.00235771419813)
(0.0104324749771 0.00294772833789 -0.000941102365485)
(0.00884112327835 0.0018254843303 -0.00138247043753)
(0.00923505384176 0.00276480593836 -0.00194765800405)
(0.0129844336811 0.00346820230801 0.000150044162084)
(0.0121104660577 0.00213631829635 -0.000482547040115)
(0.0121565230978 0.00320786606353 -0.000520107973296)
(0.0139375393083 0.00406557076239 0.00149727336012)
(0.0139508912353 0.00251935414759 0.000821996281474)
(0.0137022001937 0.00375101442424 0.00146357336455)
(0.0131768141485 0.00466611304471 0.00281044184887)
(0.0140352409036 0.00293069843806 0.00223803389256)
(0.0136349446669 0.00433420954242 0.00358916867577)
(0.0109089198016 0.0051993997323 0.00383962410584)
(0.0124497743478 0.00331652449979 0.00347391385386)
(0.0120237087997 0.00488983394712 0.00548485094984)
(0.00764400342307 0.00561202505917 0.00446575081498)
(0.00953928564741 0.00363869927534 0.00432107843127)
(0.00920097573173 0.00535154413717 0.00679745885085)
(0.00390536854259 0.00587237377552 0.00475127881151)
(0.00590894103797 0.00386684357153 0.00475143188614)
(0.00570201777885 0.00567768510949 0.00748494791118)
(8.78860122402e-06 0.0059619392222 0.00482902301584)
(0.00199758983253 0.00398812596714 0.00491631084847)
(0.00192589095965 0.00585041440917 0.007749826934)
(-0.00388956421919 0.00587135114237 0.00475393090922)
(-0.0019812501631 0.00398683438681 0.0049173022191)
(-0.00191776362757 0.00584940690246 0.00775278496243)
(-0.00763074317332 0.00561021439694 0.00446815255929)
(-0.00589475652863 0.00386466120251 0.00475390802954)
(-0.00569690430159 0.00567598518137 0.00748924102218)
(-0.0108966077895 0.00519669861092 0.00384151704886)
(-0.00952685207553 0.00363574028665 0.00432256672893)
(-0.00919725871351 0.00534837681524 0.00679964647053)
(-0.0131657936862 0.00466337065114 0.00281320323373)
(-0.0124379580771 0.00331310003712 0.00347558586458)
(-0.0120200693114 0.00488569335909 0.00548726010768)
(-0.0139287208968 0.00406363486923 0.00150137878413)
(-0.0140249090604 0.00292760500787 0.00224098155775)
(-0.0136319897254 0.00433021994889 0.00359284120674)
(-0.0129784987405 0.00346744593455 0.0001550366879)
(-0.0139428827841 0.00251724285272 0.000826423651021)
(-0.0137001252167 0.00374759107892 0.00146805751186)
(-0.0104298259487 0.00294834193786 -0.000936310986776)
(-0.0121057136464 0.00213536243958 -0.000477462422984)
(-0.012155910111 0.00320545821603 -0.000515023105043)
(-0.00676157910367 0.00256100135677 -0.00143322223926)
(-0.0088395944661 0.0018258461118 -0.00137811947157)
(-0.00923611529346 0.00276393604445 -0.00194300640767)
(-0.00288467880569 0.00231327726725 -0.00105479403661)
(-0.00473069809464 0.00161676260153 -0.0014827298853)
(-0.00546479199633 0.00246823720872 -0.0023542050762)
(-0.0014412642982 0.00149217818874 -0.000616859136119)
(-0.0019871087411 0.00230161593216 -0.00147722951082)
(0.00298549021172 0.000766351290711 -0.00104713125049)
(0.00146833820052 -4.0246027495e-05 -0.000610660919373)
(0.00205154709658 0.000762236890478 -0.00145688536187)
(0.00697559432583 0.000854744720751 -0.0014312882852)
(0.00480649070595 -3.02301301321e-05 -0.00148409333511)
(0.00563094456255 0.00082926774494 -0.00234484766702)
(0.0107454491598 0.000986462670966 -0.00092391511216)
(0.00897341713528 -2.36984389891e-05 -0.00137895302663)
(0.00950642065692 0.000934213863124 -0.00192065529098)
(0.0133631665483 0.00115895506167 0.000189405079275)