/*--------------------------------*- C++ -*----------------------------------*\
| =========                 |                                                 |
| \\      /  F ield         | OpenFOAM: The Open Source CFD Toolbox           |
|  \\    /   O peration     | Version:  3.0.1                                 |
|   \\  /    A nd           | Web:      www.OpenFOAM.org                      |
|    \\/     M anipulation  |                                                 |
\*---------------------------------------------------------------------------*/
FoamFile
{
    version     2.0;
    format      ascii;
    class       volScalarField;
    location    "0.05";
    object      alpha.water;
}
// * * * * * * * * * * * * * * * * * * * * * * * * * * * * * * * * * * * * * //

dimensions      [0 0 0 0 0 0 0];

internalField   nonuniform List<scalar> 
1935
(
1.93462e-34
1.98913e-35
1.88568e-36
1.7376e-37
1.55597e-38
1.35215e-39
1.13798e-40
9.25227e-42
7.24657e-43
5.45018e-44
3.92276e-45
2.69221e-46
1.75527e-47
1.08308e-48
6.30128e-50
3.44401e-51
1.76215e-52
8.41253e-54
3.73569e-55
1.53862e-56
5.86236e-58
2.06147e-59
6.67633e-61
1.98774e-62
5.43216e-64
1.36091e-65
3.12262e-67
6.55781e-69
1.26013e-70
2.21569e-72
3.56655e-74
5.26065e-76
7.12067e-78
8.86347e-80
1.01743e-81
1.08091e-83
1.06762e-85
9.85753e-88
8.56452e-90
7.05602e-92
5.56107e-94
4.23421e-96
3.14838e-98
1.01163e-35
5.3565e-37
2.85221e-38
1.52166e-39
1.01702e-36
5.26519e-38
2.74575e-39
1.4355e-40
9.31135e-38
4.72808e-39
2.42323e-40
1.24519e-41
8.30682e-39
4.08079e-40
2.02387e-41
1.00691e-42
7.20135e-40
3.42545e-41
1.64544e-42
7.93424e-44
6.05744e-41
2.79199e-42
1.30018e-43
6.08221e-45
4.9351e-42
2.20595e-43
9.96851e-45
4.52846e-46
3.88606e-43
1.68617e-44
7.40176e-46
3.26874e-47
2.95018e-44
1.244e-45
5.31091e-47
2.28271e-48
2.1532e-45
8.8354e-47
3.67347e-48
1.53874e-49
1.50619e-46
6.02398e-48
2.44293e-49
9.98742e-51
1.00649e-47
3.93084e-49
1.55761e-50
6.22564e-52
6.40337e-49
2.44724e-50
9.49432e-52
3.71698e-53
3.86528e-50
1.44905e-51
5.51641e-53
2.11977e-54
2.2062e-51
8.13459e-53
3.04625e-54
1.1516e-55
1.18672e-52
4.31609e-54
1.59421e-55
5.94387e-57
5.9965e-54
2.158e-55
7.88475e-57
2.90715e-58
2.83767e-55
1.01387e-56
3.67573e-58
1.34407e-59
1.254e-56
4.464e-58
1.61113e-59
5.86038e-61
5.1613e-58
1.8374e-59
6.62441e-61
2.40457e-62
1.97375e-59
7.0541e-61
2.54962e-62
9.26624e-64
6.99772e-61
2.52091e-62
9.16844e-64
3.34777e-65
2.29574e-62
8.37108e-64
3.07531e-65
1.1322e-66
6.95776e-64
2.57899e-65
9.60819e-67
3.57964e-68
1.94536e-65
7.36235e-67
2.7929e-68
1.05692e-69
5.01228e-67
1.94562e-68
7.54653e-70
2.912e-71
1.18913e-68
4.75636e-70
1.89436e-71
7.4827e-73
2.59642e-70
1.07525e-71
4.41648e-73
1.79289e-74
5.21678e-72
2.24773e-73
9.56338e-75
4.00612e-76
9.64738e-74
4.34632e-75
1.92416e-76
8.35148e-78
1.64313e-75
7.77965e-77
3.60005e-78
1.62567e-79
2.58023e-77
1.29053e-78
6.2711e-80
2.95846e-81
3.74168e-79
1.98732e-80
1.01877e-81
5.04186e-83
5.0216e-81
2.84717e-82
1.54687e-83
8.0638e-85
6.25481e-83
3.80562e-84
2.20126e-85
1.21359e-86
7.2565e-85
4.76221e-86
2.94566e-87
1.72417e-88
7.8754e-87
5.60242e-88
3.72152e-89
2.32122e-90
8.03739e-89
6.22691e-90
4.45973e-91
2.97434e-92
7.76097e-91
6.57636e-92
5.09656e-93
3.64573e-94
7.14074e-93
6.64281e-94
5.58799e-95
4.2988e-96
6.31049e-95
6.46465e-96
5.91793e-97
4.9066e-98
5.40398e-97
6.11021e-98
6.09836e-99
5.45792e-100
4.52763e-99
5.65796e-100
6.16351e-101
5.95997e-102
7.26809e-41
3.43296e-42
1.59777e-43
7.30222e-45
3.2664e-46
1.42571e-47
6.05482e-49
2.49543e-50
9.95657e-52
3.83724e-53
1.42551e-54
5.09465e-56
1.74847e-57
5.75232e-59
1.81108e-60
5.44781e-62
1.56308e-63
4.27058e-65
1.10913e-66
2.73319e-68
6.37826e-70
1.40654e-71
2.92413e-73
5.71598e-75
1.04747e-76
1.79342e-78
2.85769e-80
4.21864e-82
5.73904e-84
7.14917e-86
8.09267e-88
8.24638e-90
7.47577e-92
5.93898e-94
4.05281e-96
2.31113e-98
1.05784e-100
3.64453e-103
8.39594e-106
9.47926e-109
6.71464e-42
3.10681e-43
1.41693e-44
6.34824e-46
2.78503e-47
1.1928e-48
4.9733e-50
2.01341e-51
7.89562e-53
2.99251e-54
1.0939e-55
3.84919e-57
1.3014e-58
4.22023e-60
1.31042e-61
3.88966e-63
1.10182e-64
2.97357e-66
7.63214e-68
1.85957e-69
4.29259e-71
9.36766e-73
1.92805e-74
3.73275e-76
6.77748e-78
1.15016e-79
1.81719e-81
2.66083e-83
3.5916e-85
4.44071e-87
4.99089e-89
5.05101e-91
4.54925e-93
3.59172e-95
2.43664e-97
1.38178e-99
6.29152e-102
2.15696e-104
4.94629e-107
5.54802e-110
5.7181e-43
2.59811e-44
1.16379e-45
5.12216e-47
2.2081e-48
9.29576e-50
3.81113e-51
1.5178e-52
5.85782e-54
2.18604e-55
7.87203e-57
2.73011e-58
9.10213e-60
2.91213e-61
8.92572e-63
2.61645e-64
7.32301e-66
1.9536e-67
4.95887e-69
1.19542e-70
2.73139e-72
5.90244e-74
1.20345e-75
2.30895e-77
4.15615e-79
6.99482e-81
1.09639e-82
1.59323e-84
2.13496e-86
2.62139e-88
2.92666e-90
2.94322e-92
2.63492e-94
2.06846e-96
1.39568e-98
7.87435e-101
3.56817e-103
1.21782e-105
2.78107e-108
3.09949e-111
4.49104e-44
2.00873e-45
8.85726e-47
3.83741e-48
1.6286e-49
6.75093e-51
2.72595e-52
1.06952e-53
4.06786e-55
1.4966e-56
5.31525e-58
1.81882e-59
5.98565e-61
1.89116e-62
5.72667e-64
1.65921e-65
4.59199e-67
1.21187e-68
3.04433e-70
7.26608e-72
1.6444e-73
3.52104e-75
7.11614e-77
1.35385e-78
2.41734e-80
4.03705e-82
6.2812e-84
9.06332e-86
1.20633e-87
1.47168e-89
1.63302e-91
1.6327e-93
1.45361e-95
1.13515e-97
7.62152e-100
4.28008e-102
1.93104e-104
6.56399e-107
1.49337e-109
1.65386e-112
3.43564e-45
1.48654e-46
6.34438e-48
2.67153e-49
1.11826e-50
4.57205e-52
1.82108e-53
7.04929e-55
2.64584e-56
9.60869e-58
3.36962e-59
1.13892e-60
3.70353e-62
1.15664e-63
3.4634e-65
9.92669e-67
2.71878e-68
7.10344e-70
1.76732e-71
4.17924e-73
9.37434e-75
1.9902e-76
3.9895e-78
7.53079e-80
1.33461e-81
2.21293e-83
3.41958e-85
4.90208e-87
6.4842e-89
7.86372e-91
8.67672e-93
8.62876e-95
7.64346e-97
5.94045e-99
3.97061e-101
2.22044e-103
9.97869e-106
3.37966e-108
7.66342e-111
8.4331e-114
2.55928e-46
1.07232e-47
4.43455e-49
1.81425e-50
7.36887e-52
2.92475e-53
1.1373e-54
4.34958e-56
1.6132e-57
5.79015e-59
2.0073e-60
6.7088e-62
2.15783e-63
6.66785e-65
1.97615e-66
5.60786e-68
1.52123e-69
3.93793e-71
9.71059e-73
2.27672e-74
5.06506e-76
1.06689e-77
2.12256e-79
3.97778e-81
7.00086e-83
1.15318e-84
1.7708e-86
2.5233e-88
3.31867e-90
4.00292e-92
4.39407e-94
4.34853e-96
3.8343e-98
2.96713e-100
1.97522e-102
1.10041e-104
4.92797e-107
1.66367e-109
3.76131e-112
4.11225e-115
1.85324e-47
7.52747e-49
3.01979e-50
1.20133e-51
4.7397e-53
1.82848e-54
6.92704e-56
2.57845e-57
9.31127e-59
3.27796e-60
1.12469e-61
3.72101e-63
1.18503e-64
3.62669e-66
1.06481e-67
2.99439e-69
8.05183e-71
2.06677e-72
5.0551e-74
1.17595e-75
2.59654e-77
5.4299e-79
1.07283e-80
1.99727e-82
3.49303e-84
5.71914e-86
8.73181e-88
1.23745e-89
1.61906e-91
1.94327e-93
2.12322e-95
2.09198e-97
1.83697e-99
1.41601e-101
9.39235e-104
5.21501e-106
2.32822e-108
7.83787e-111
1.7675e-113
1.91942e-116
1.3023e-48
5.1338e-50
2.00023e-51
7.74342e-53
2.9711e-54
1.11537e-55
4.12036e-57
1.49434e-58
5.26094e-60
1.80946e-61
6.06071e-63
1.95827e-64
6.14061e-66
1.8631e-67
5.42415e-69
1.51289e-70
4.036e-72
1.02807e-73
2.49604e-75
5.76536e-77
1.26435e-78
2.62676e-80
5.15744e-82
9.54418e-84
1.65966e-85
2.70257e-87
4.10483e-89
5.78861e-91
7.5383e-93
9.00773e-95
9.80074e-97
9.61859e-99
8.415e-101
6.46435e-103
4.2741e-105
2.36617e-107
1.05353e-109
3.53804e-112
7.96117e-115
8.58411e-118
8.86406e-50
3.39561e-51
1.28652e-52
4.85091e-54
1.81232e-55
6.62864e-57
2.38984e-58
8.45468e-60
2.90523e-61
9.77118e-63
3.1983e-64
1.01048e-65
3.10445e-67
9.22272e-69
2.6302e-70
7.24093e-72
1.91809e-73
4.85253e-75
1.17039e-76
2.68622e-78
5.855e-80
1.2093e-81
2.36106e-83
4.34592e-85
7.51865e-87
1.21838e-88
1.84198e-90
2.58614e-92
3.35381e-94
3.99182e-96
4.32719e-98
4.23205e-100
3.69052e-102
2.82653e-104
1.86367e-106
1.02912e-108
4.57159e-111
1.53212e-113
3.44127e-116
3.68226e-119
5.83172e-51
2.17389e-52
8.0202e-54
2.94851e-55
1.07401e-56
3.83215e-58
1.34967e-59
4.66338e-61
1.56594e-62
5.15459e-64
1.65067e-65
5.10519e-67
1.53804e-68
4.47824e-70
1.25248e-71
3.38786e-73
8.81278e-75
2.19057e-76
5.21792e-78
1.19091e-79
2.5818e-81
5.30498e-83
1.03063e-84
1.88811e-86
3.25184e-88
5.24699e-90
7.90027e-92
1.10492e-93
1.42768e-95
1.69344e-97
1.8298e-99
1.78421e-101
1.55157e-103
1.18527e-105
7.79666e-108
4.29613e-110
1.90477e-112
6.37295e-115
1.42931e-117
1.51665e-120
3.70018e-52
1.34426e-53
4.83642e-55
1.73575e-56
6.17297e-58
2.15163e-59
7.41072e-61
2.50404e-62
8.22715e-64
2.65298e-65
8.32162e-67
2.52232e-68
7.45786e-70
2.13054e-71
5.84977e-73
1.55593e-74
3.97823e-76
9.7254e-78
2.28242e-79
5.13006e-81
1.09593e-82
2.22183e-84
4.29526e-86
7.83707e-88
1.34451e-89
2.16144e-91
3.24297e-93
4.52051e-95
5.82275e-97
6.88641e-99
7.42059e-101
7.21728e-103
6.26152e-105
4.77302e-107
3.13354e-109
1.72362e-111
7.63026e-114
2.54953e-116
5.71158e-119
6.00423e-122
2.25877e-53
8.01097e-55
2.81531e-56
9.87766e-58
3.4349e-59
1.17128e-60
3.95e-62
1.307e-63
4.20718e-65
1.33046e-66
4.09277e-68
1.21722e-69
3.53537e-71
9.92039e-73
2.67688e-74
7.0067e-76
1.76261e-77
4.24193e-79
9.81559e-81
2.17446e-82
4.58127e-84
9.17339e-86
1.75154e-87
3.15792e-89
5.35667e-91
8.52762e-93
1.27576e-94
1.77344e-96
2.27838e-98
2.68804e-100
2.89e-102
2.80494e-104
2.42885e-106
1.84825e-108
1.21151e-110
6.65486e-113
2.94255e-115
9.82245e-118
2.19867e-120
2.28689e-123
1.32333e-54
4.59033e-56
1.57855e-57
5.42304e-59
1.84698e-60
6.17101e-62
2.0405e-63
6.62119e-65
2.09106e-66
6.4926e-68
1.96125e-69
5.73042e-71
1.63658e-72
4.51596e-74
1.1989e-75
3.09076e-77
7.6576e-79
1.81599e-80
4.14606e-82
9.06084e-84
1.88428e-85
3.72916e-87
7.03763e-89
1.25465e-90
2.10571e-92
3.32207e-94
4.92343e-96
6.78447e-98
8.64571e-100
1.01244e-101
1.08229e-103
1.04875e-105
9.06809e-108
6.89134e-110
4.51196e-112
2.47595e-114
1.09388e-116
3.64908e-119
8.16396e-122
8.38698e-125
7.42183e-56
2.52315e-57
8.50688e-59
2.8667e-60
9.57896e-62
3.14113e-63
1.01992e-64
3.2505e-66
1.00862e-67
3.07884e-69
9.14512e-71
2.62849e-72
7.38968e-74
2.00759e-75
5.24974e-77
1.33419e-78
3.25903e-80
7.62361e-82
1.71861e-83
3.70858e-85
7.61916e-87
1.49134e-88
2.7838e-90
4.91105e-92
8.16081e-94
1.27656e-95
1.87536e-97
2.56316e-99
3.24167e-101
3.76963e-103
4.00787e-105
3.86142e-107
3.32176e-109
2.51308e-111
1.63905e-113
8.96535e-116
3.95072e-118
1.31537e-120
2.93896e-123
2.97566e-126
3.97472e-57
1.32728e-58
4.39658e-60
1.45611e-61
4.78257e-63
1.54198e-64
4.92456e-66
1.54397e-67
4.71454e-69
1.41681e-70
4.14394e-72
1.17323e-73
3.25081e-75
8.70596e-77
2.24506e-78
5.63047e-80
1.35746e-81
3.13547e-83
6.98513e-85
1.48974e-86
3.02637e-88
5.86268e-90
1.08326e-91
1.89252e-93
3.11596e-95
4.83503e-97
7.04532e-99
9.5563e-101
1.20012e-102
1.38655e-104
1.46662e-106
1.40552e-108
1.20336e-110
9.06622e-113
5.89198e-115
3.21324e-117
1.41259e-119
4.69484e-122
1.04771e-124
1.04549e-127
2.02755e-58
6.66649e-60
2.17449e-61
7.09272e-63
2.29447e-64
7.28733e-66
2.29315e-67
7.08489e-69
2.13235e-70
6.31829e-72
1.8224e-73
5.08955e-75
1.39167e-76
3.6787e-78
9.36674e-80
2.32067e-81
5.52836e-83
1.26223e-84
2.78135e-86
5.86834e-88
1.17988e-89
2.26381e-91
4.14383e-93
7.17488e-95
1.17132e-96
1.80384e-98
2.60877e-100
3.51383e-102
4.38425e-104
5.03513e-106
5.30002e-108
5.0543e-110
4.30842e-112
3.23359e-114
2.09456e-116
1.13917e-118
4.99706e-121
1.65812e-123
3.69634e-126
3.63517e-129
9.82768e-60
3.18987e-61
1.02705e-62
3.30671e-64
1.05582e-65
3.30992e-67
1.02818e-68
3.13603e-70
9.31909e-72
2.72691e-73
7.76833e-75
2.14323e-76
5.79112e-78
1.51299e-79
3.80862e-81
9.33261e-83
2.19931e-84
4.96904e-86
1.08406e-87
2.265e-89
4.5114e-91
8.57996e-93
1.55714e-94
2.67417e-96
4.33196e-98
6.62466e-100
9.51523e-102
1.27345e-103
1.57949e-105
1.80409e-107
1.89033e-109
1.79461e-111
1.52367e-113
1.13956e-115
7.3594e-118
3.99259e-120
1.74791e-122
5.7914e-125
1.28985e-127
1.2501e-130
4.51586e-61
1.45096e-62
4.62318e-64
1.47277e-65
4.65189e-67
1.4425e-68
4.43218e-70
1.33706e-71
3.92997e-73
1.13755e-74
3.20581e-76
8.75084e-78
2.33991e-79
6.05048e-81
1.50774e-82
3.65847e-84
8.53883e-86
1.91127e-87
4.13244e-89
8.55891e-91
1.69044e-92
3.18942e-94
5.74384e-96
9.79179e-98
1.57514e-99
2.39342e-101
3.41647e-103
4.54594e-105
5.60822e-107
6.37407e-109
6.65056e-111
6.28813e-113
5.31947e-115
3.96588e-117
2.55428e-119
1.38262e-121
6.04219e-124
1.99935e-126
4.44939e-129
4.24963e-132
1.96285e-62
6.2612e-64
1.97965e-65
6.25547e-67
1.95922e-68
6.02271e-70
1.83418e-71
5.48351e-73
1.59715e-74
4.58112e-76
1.27931e-77
3.46054e-79
9.17056e-81
2.35029e-82
5.80571e-84
1.39673e-85
3.23264e-87
7.17659e-89
1.53946e-90
3.16395e-92
6.20259e-94
1.16201e-95
2.07837e-97
3.51996e-99
5.62717e-101
8.50139e-103
1.20683e-104
1.59751e-106
1.96136e-108
2.21935e-110
2.30672e-112
2.17308e-114
1.83238e-116
1.36225e-118
8.75252e-121
4.72822e-123
2.063e-125
6.81853e-128
1.51642e-130
1.42726e-133
8.05394e-64
2.55834e-65
8.0494e-67
2.52965e-68
7.87554e-70
2.40557e-71
7.27709e-73
2.16046e-74
6.24775e-76
1.77903e-77
4.93142e-79
1.32406e-80
3.48282e-82
8.85993e-84
2.17252e-85
5.18886e-87
1.19236e-88
2.62858e-90
5.60037e-92
1.14336e-93
2.22703e-95
4.1465e-97
7.37228e-99
1.24146e-100
1.97387e-102
2.96698e-104
4.1914e-106
5.52308e-108
6.75242e-110
7.61089e-112
7.88337e-114
7.40283e-116
6.22439e-118
4.61585e-120
2.9594e-122
1.59589e-124
6.95349e-127
2.29592e-129
5.10341e-132
4.73339e-135
3.11383e-65
9.88114e-67
3.10291e-68
9.72478e-70
3.01726e-71
9.17955e-73
2.76458e-74
8.1679e-76
2.34988e-77
6.6551e-79
1.83444e-80
4.89709e-82
1.28062e-83
3.23852e-85
7.8941e-87
1.87432e-88
4.28178e-90
9.38463e-92
1.98813e-93
4.03635e-95
7.81935e-97
1.44828e-98
2.56194e-100
4.29321e-102
6.79432e-104
1.01682e-105
1.43046e-107
1.87757e-109
2.28712e-111
2.56923e-113
2.65324e-115
2.4846e-117
2.08392e-119
1.54205e-121
9.86848e-124
5.31362e-126
2.31246e-128
7.62883e-131
1.69509e-133
1.54929e-136
1.13246e-66
3.60188e-68
1.13234e-69
3.54925e-71
1.10036e-72
3.34267e-74
1.00457e-75
2.96007e-77
8.48963e-79
2.396e-80
6.57943e-82
1.74933e-83
4.55532e-85
1.14695e-86
2.78326e-88
6.57843e-90
1.49594e-91
3.26378e-93
6.88306e-95
1.39116e-96
2.68317e-98
4.94849e-100
8.71726e-102
1.45494e-103
2.29368e-105
3.42016e-107
4.79469e-109
6.27273e-111
7.61764e-113
8.53305e-115
8.7897e-117
8.21174e-119
6.87313e-121
5.07669e-123
3.24383e-125
1.74439e-127
7.58399e-130
2.50021e-132
5.55386e-135
5.00224e-138
3.86868e-68
1.23748e-69
3.90697e-71
1.22835e-72
3.8157e-74
1.16035e-75
3.48812e-77
1.02738e-78
2.94363e-80
8.29531e-82
2.27352e-83
6.03111e-85
1.5665e-86
3.9331e-88
9.51574e-90
2.24206e-91
5.08189e-93
1.10506e-94
2.32267e-96
4.67861e-98
8.99348e-100
1.65317e-101
2.90278e-103
4.82952e-105
7.59037e-107
1.12853e-108
1.57765e-110
2.05854e-112
2.49372e-114
2.78698e-116
2.86484e-118
2.67137e-120
2.2321e-122
1.64625e-124
1.05057e-126
5.6437e-129
2.45172e-131
8.07814e-134
1.79418e-136
1.59247e-139
1.23987e-69
4.0026e-71
1.27322e-72
4.02729e-74
1.257e-75
3.83656e-77
1.15644e-78
3.4125e-80
9.78875e-82
2.75997e-83
7.5642e-85
2.00565e-86
5.20482e-88
1.30522e-89
3.15313e-91
7.41645e-93
1.6778e-94
3.64086e-96
7.63593e-98
1.53465e-99
2.94318e-101
5.39755e-103
9.45544e-105
1.56954e-106
2.46123e-108
3.65138e-110
5.0938e-112
6.63315e-114
8.02023e-116
8.94762e-118
9.18285e-120
8.55006e-122
7.13473e-124
5.25606e-126
3.35095e-128
1.79872e-130
7.80929e-133
2.57203e-135
5.71236e-138
4.99647e-141
3.72421e-71
1.21771e-72
3.91565e-74
1.24989e-75
3.931e-77
1.20743e-78
3.65848e-80
1.08412e-81
3.1202e-83
8.82023e-85
2.42197e-86
6.43045e-88
1.67015e-89
4.18989e-91
1.01221e-92
2.38012e-94
5.38139e-96
1.16684e-97
2.44479e-99
4.90788e-101
9.40059e-103
1.72169e-104
3.01183e-106
4.99224e-108
7.8171e-110
1.15805e-111
1.61324e-113
2.09789e-115
2.53327e-117
2.82272e-119
2.89365e-121
2.69144e-123
2.24382e-125
1.65164e-127
1.05227e-129
5.64526e-132
2.44993e-134
8.06693e-137
1.79176e-139
1.54447e-142
1.04766e-72
3.48225e-74
1.13574e-75
3.66999e-77
1.16645e-78
3.61534e-80
1.10393e-81
3.29282e-83
9.52986e-85
2.70648e-86
7.46054e-88
1.9871e-89
5.1742e-91
1.30067e-92
3.1471e-94
7.4085e-96
1.67635e-97
3.63653e-99
7.62095e-101
1.52987e-102
2.92972e-104
5.36379e-106
9.3786e-108
1.55365e-109
2.4312e-111
3.59915e-113
5.01022e-115
6.51059e-117
7.85604e-119
8.74749e-121
8.96139e-123
8.33002e-125
6.94077e-127
5.10655e-129
3.25209e-131
1.74415e-133
7.56763e-136
2.49152e-138
5.53497e-141
4.70194e-144
2.75892e-74
9.35652e-76
3.10584e-77
1.01918e-78
3.2832e-80
1.02966e-81
3.17649e-83
9.56001e-85
2.7884e-86
7.97263e-88
2.21052e-89
5.91724e-91
1.5474e-92
3.90398e-94
9.47518e-96
2.23627e-97
5.07089e-99
1.10195e-100
2.31256e-102
4.64746e-104
8.90749e-106
1.63182e-107
2.85447e-109
4.72998e-111
7.40269e-113
1.09594e-114
1.52554e-116
1.98216e-118
2.39141e-120
2.66228e-122
2.72686e-124
2.53425e-126
2.11121e-128
1.55304e-130
9.88928e-133
5.30336e-135
2.30098e-137
7.57582e-140
1.68345e-142
1.40941e-145
6.80005e-76
2.36186e-77
8.0069e-79
2.67677e-80
8.76568e-82
2.78924e-83
8.7159e-85
2.65305e-86
7.81611e-88
2.25461e-89
6.30002e-91
1.69801e-92
4.46716e-94
1.13298e-95
2.76247e-97
6.54595e-99
1.4895e-100
3.24654e-102
6.83081e-104
1.3758e-105
2.64186e-107
4.84751e-109
8.4909e-111
1.40855e-112
2.20651e-114
3.26915e-116
4.55345e-118
5.91936e-120
7.14444e-122
7.9563e-124
8.15148e-126
7.57735e-128
6.31365e-130
4.64518e-132
2.95835e-134
1.58672e-136
6.88534e-139
2.26732e-141
5.04016e-144
4.15884e-147
1.56893e-77
5.60218e-79
1.94635e-80
6.65019e-82
2.22037e-83
7.18826e-85
2.28104e-86
7.03917e-88
2.09934e-89
6.12212e-91
1.72741e-92
4.69633e-94
1.24509e-95
3.1796e-97
7.80008e-99
1.85834e-100
4.24888e-102
9.30036e-104
1.96416e-105
3.9691e-107
7.64378e-109
1.40612e-110
2.46846e-112
4.10288e-114
6.4381e-116
9.55274e-118
1.33226e-119
1.73382e-121
2.09467e-123
2.33463e-125
2.39363e-127
2.22643e-129
1.85613e-131
1.36626e-133
8.70486e-136
4.67057e-138
2.02739e-140
6.67808e-143
1.48519e-145
1.20785e-148
3.39018e-79
1.24922e-80
4.46345e-82
1.56365e-83
5.33863e-85
1.76326e-86
5.69653e-88
1.78642e-89
5.40525e-91
1.59686e-92
4.55848e-94
1.25237e-95
3.35165e-97
8.63172e-99
2.13362e-100
5.11797e-102
1.17732e-103
2.59115e-105
5.49912e-107
1.11611e-108
2.15782e-110
3.98329e-112
7.01439e-114
1.16909e-115
1.839e-117
2.73459e-119
3.82109e-121
4.98127e-123
6.02698e-125
6.7263e-127
6.90428e-129
6.42852e-131
5.36409e-133
3.95148e-135
2.51929e-137
1.3525e-139
5.87378e-142
1.93559e-144
4.30699e-147
3.45245e-150
6.86642e-81
2.62098e-82
9.66428e-84
3.48238e-85
1.21938e-86
4.11993e-88
1.3585e-89
4.33939e-91
1.33499e-92
4.0035e-94
1.15844e-95
3.2218e-97
8.71822e-99
2.26781e-100
5.65652e-102
1.36796e-103
3.17008e-105
7.02355e-107
1.49956e-108
3.06002e-110
5.945e-112
1.10226e-113
1.94869e-115
3.25942e-117
5.1434e-119
7.67003e-121
1.07447e-122
1.40388e-124
1.70203e-126
1.90292e-128
1.95637e-130
1.8241e-132
1.52393e-134
1.1238e-136
7.17145e-139
3.85305e-141
1.67444e-143
5.52073e-146
1.22919e-148
9.71208e-152
1.30515e-82
5.18027e-84
1.97801e-85
7.35426e-87
2.64869e-88
9.17908e-90
3.09681e-91
1.00988e-92
3.16559e-94
9.65575e-96
2.83726e-97
8.0018e-99
2.19289e-100
5.77015e-102
1.45433e-103
3.5506e-105
8.29914e-107
1.85314e-108
3.98464e-110
8.18346e-112
1.59915e-113
2.9806e-115
5.29457e-117
8.89393e-119
1.40892e-120
2.10839e-122
2.96285e-124
3.88211e-126
4.71841e-128
5.28717e-130
5.44651e-132
5.08721e-134
4.25662e-136
3.1432e-138
2.00811e-140
1.07996e-142
4.69701e-145
1.54964e-147
3.45255e-150
2.68902e-153
2.33196e-84
9.66048e-86
3.83278e-87
1.47492e-88
5.47916e-90
1.95267e-91
6.75661e-93
2.25442e-94
7.21518e-96
2.24274e-97
6.70417e-99
1.92051e-100
5.33848e-102
1.42301e-103
3.62915e-105
8.95585e-107
2.11391e-108
4.76245e-110
1.03236e-111
2.13592e-113
4.20196e-115
7.87983e-117
1.4075e-118
2.37625e-120
3.78146e-122
5.68208e-124
8.01451e-126
1.05362e-127
1.28443e-129
1.4431e-131
1.49013e-133
1.39476e-135
1.16919e-137
8.6474e-140
5.5322e-142
2.97865e-144
1.29671e-146
4.28133e-149
9.54553e-152
7.32878e-155
3.92483e-86
1.70323e-87
7.04472e-89
2.81425e-90
1.08131e-91
3.97281e-93
1.41314e-94
4.83467e-96
1.58295e-97
5.02334e-99
1.53021e-100
4.45958e-102
1.25925e-103
3.40503e-105
8.79829e-107
2.19728e-108
5.24325e-110
1.19308e-111
2.60988e-113
5.44471e-115
1.07926e-116
2.03791e-118
3.66304e-120
6.21961e-122
9.94903e-124
1.50199e-125
2.12755e-127
2.80768e-129
3.43453e-131
3.87071e-133
4.00782e-135
3.76041e-137
3.15895e-139
2.3407e-141
1.49983e-143
8.08611e-146
3.52397e-148
1.16449e-150
2.5983e-153
1.96662e-156
6.23835e-88
2.84605e-89
1.23109e-90
5.12014e-92
2.04008e-93
7.74589e-95
2.83858e-96
9.97788e-98
3.3484e-99
1.0867e-100
3.37881e-102
1.00329e-103
2.88181e-105
7.91518e-107
2.07465e-108
5.2494e-110
1.26771e-111
2.91637e-113
6.44377e-115
1.35665e-116
2.71177e-118
5.15975e-120
9.33921e-122
1.59583e-123
2.56751e-125
3.89648e-127
5.54557e-129
7.34978e-131
9.02544e-133
1.02069e-134
1.0601e-136
9.97369e-139
8.3985e-141
6.23597e-143
4.00285e-145
2.16127e-147
9.43026e-150
3.11913e-152
6.96523e-155
5.19741e-158
9.39291e-90
4.52029e-91
2.05109e-92
8.9055e-94
3.68873e-95
1.45063e-96
5.48814e-98
1.98584e-99
6.84231e-101
2.27473e-102
7.22983e-104
2.19038e-105
6.40828e-107
1.78998e-108
4.76461e-110
1.22272e-111
2.99127e-113
6.96352e-115
1.5554e-116
3.30744e-118
6.67159e-120
1.28003e-121
2.33455e-123
4.01691e-125
6.50368e-127
9.92691e-129
1.4202e-130
1.89113e-132
2.33214e-134
2.64746e-136
2.75902e-138
2.60355e-140
2.19813e-142
1.63586e-144
1.05209e-146
5.68982e-149
2.4859e-151
8.23066e-154
1.83949e-156
1.35329e-159
1.34453e-91
6.84725e-93
3.26844e-94
1.48524e-95
6.41015e-97
2.61643e-98
1.02387e-99
3.82037e-101
1.35371e-102
4.6169e-104
1.50208e-105
4.64909e-107
1.38704e-108
3.94443e-110
1.06735e-111
2.7807e-113
6.89752e-115
1.62621e-116
3.67489e-118
7.89817e-120
1.60882e-121
3.11446e-123
5.7269e-125
9.9278e-127
1.61837e-128
2.48556e-130
3.57602e-132
4.78609e-134
5.92934e-136
6.75876e-138
7.06942e-140
6.69275e-142
5.66667e-144
4.22757e-146
2.72466e-148
1.4761e-150
6.45824e-153
2.1406e-155
4.78815e-158
3.47317e-161
1.8373e-93
9.93067e-95
4.99959e-96
2.38332e-97
1.07401e-98
4.55861e-100
1.84836e-101
7.12314e-103
2.59945e-104
9.10723e-106
3.03675e-107
9.6131e-109
2.92784e-110
8.48514e-112
2.33627e-113
6.18432e-115
1.55662e-116
3.71963e-118
8.50984e-120
1.84975e-121
3.80714e-123
7.44046e-125
1.3801e-126
2.41154e-128
3.95975e-130
6.12179e-132
8.86046e-134
1.19232e-135
1.48437e-137
1.69945e-139
1.78453e-141
1.69531e-143
1.43976e-145
1.07695e-147
6.95647e-150
3.77573e-152
1.65443e-154
5.48993e-157
1.22906e-159
8.79055e-163
2.40804e-95
1.385e-96
7.37119e-98
3.69373e-99
1.7412e-100
7.69798e-102
3.23893e-103
1.29097e-104
4.85807e-106
1.75047e-107
5.98861e-109
1.94085e-110
6.04002e-112
1.78542e-113
5.00599e-115
1.34742e-116
3.44386e-118
8.34591e-120
1.93423e-121
4.25454e-123
8.85245e-125
1.74742e-126
3.27096e-128
5.7635e-130
9.53609e-132
1.48456e-133
2.16229e-135
2.92639e-137
3.662e-139
4.21204e-141
4.4412e-143
4.23458e-145
3.60779e-147
2.70612e-149
1.75212e-151
9.52849e-154
4.1817e-156
1.38927e-158
3.11293e-161
2.19543e-164
3.04296e-97
1.86656e-98
1.05223e-99
5.5523e-101
2.74214e-102
1.26453e-103
5.52817e-105
2.28152e-106
8.86289e-108
3.28759e-109
1.15502e-110
3.83556e-112
1.22059e-113
3.68276e-115
1.0522e-116
2.88151e-118
7.48281e-120
1.84007e-121
4.32211e-123
9.6248e-125
2.02542e-126
4.03973e-128
7.63408e-130
1.35688e-131
2.26293e-133
3.54845e-135
5.20246e-137
7.0829e-139
8.91105e-141
1.0299e-142
1.09061e-144
1.04383e-146
8.92298e-149
6.71223e-151
4.35658e-153
2.37404e-155
1.04357e-157
3.47127e-160
7.78469e-163
5.41401e-166
3.72884e-99
2.44376e-100
1.46148e-101
8.13189e-103
4.21287e-104
2.02869e-105
9.22424e-107
3.94552e-108
1.58351e-109
6.05157e-111
2.18487e-112
7.43917e-114
2.42229e-115
7.46403e-117
2.17419e-118
6.06094e-120
1.59986e-121
3.99369e-123
9.51109e-125
2.14503e-126
4.5668e-128
9.20636e-130
1.75688e-131
3.15076e-133
5.2978e-135
8.36949e-137
1.23541e-138
1.6923e-140
2.14092e-142
2.4867e-144
2.64498e-146
2.54148e-148
2.18e-150
1.64476e-152
1.07022e-154
5.84413e-157
2.57321e-159
8.5701e-162
1.92355e-164
1.31925e-167
4.45865e-101
3.12604e-102
1.98556e-103
1.16615e-104
6.34301e-106
3.1921e-107
1.51066e-108
6.70124e-110
2.78034e-111
1.09529e-112
4.06587e-114
1.42007e-115
4.73325e-117
1.49012e-118
4.42697e-120
1.25666e-121
3.37281e-123
8.54938e-125
2.06492e-126
4.71762e-128
1.01639e-129
2.07141e-131
3.9926e-133
7.22598e-135
1.22519e-136
1.95033e-138
2.89884e-140
3.99587e-142
5.08378e-144
5.93491e-146
6.34126e-148
6.11754e-150
5.26583e-152
3.98497e-154
2.59962e-156
1.42258e-158
6.27427e-161
2.09229e-163
4.69994e-166
3.17895e-169
5.23705e-103
3.93108e-104
2.65363e-105
1.646e-106
9.40485e-108
4.94852e-109
2.4385e-110
1.12224e-111
4.81507e-113
1.95592e-114
7.46733e-116
2.67606e-117
9.13261e-119
2.93813e-120
8.90439e-122
2.57433e-123
7.02665e-125
1.80889e-126
4.43157e-128
1.02578e-129
2.23667e-131
4.60885e-133
8.97357e-135
1.63915e-136
2.80277e-138
4.49608e-140
6.72953e-142
9.33515e-144
1.19448e-145
1.40162e-147
1.50444e-149
1.45724e-151
1.25879e-153
9.55514e-156
6.24947e-158
3.42716e-160
1.5141e-162
5.05547e-165
1.13649e-167
7.58124e-171
)
;

boundaryField
{
    leftWall
    {
        type            zeroGradient;
    }
    rightWall
    {
        type            zeroGradient;
    }
    lowerWall
    {
        type            zeroGradient;
    }
    atmosphere
    {
        type            inletOutlet;
        inletValue      uniform 0;
        value           nonuniform List<scalar> 
45
(
3.14838e-98
4.52763e-99
5.65796e-100
6.16351e-101
5.95997e-102
5.23705e-103
3.93108e-104
2.65363e-105
1.646e-106
9.40485e-108
4.94852e-109
2.4385e-110
1.12224e-111
4.81507e-113
1.95592e-114
7.46733e-116
2.67606e-117
9.13261e-119
2.93813e-120
8.90439e-122
2.57433e-123
7.02665e-125
1.80889e-126
4.43157e-128
1.02578e-129
2.23667e-131
4.60885e-133
8.97357e-135
1.63915e-136
2.80277e-138
4.49608e-140
6.72953e-142
9.33515e-144
1.19448e-145
1.40162e-147
1.50444e-149
1.45724e-151
1.25879e-153
9.55514e-156
6.24947e-158
3.42716e-160
1.5141e-162
5.05547e-165
1.13649e-167
7.58124e-171
)
;
    }
    defaultFaces
    {
        type            empty;
    }
    procBoundary3to1
    {
        type            processor;
        value           nonuniform List<scalar> 
45
(
1.70507e-33
9.15339e-35
4.96549e-36
2.70992e-37
1.48082e-38
7.24491e-40
3.50303e-41
1.66787e-42
7.79265e-44
3.56113e-45
1.58686e-46
6.87538e-48
2.88885e-49
1.17427e-50
4.60746e-52
1.74141e-53
6.32771e-55
2.2065e-56
7.37093e-58
2.35495e-59
7.18411e-61
2.08925e-62
5.78253e-64
1.52058e-65
3.79214e-67
8.95162e-69
1.9959e-70
4.1935e-72
8.28089e-74
1.53235e-75
2.64823e-77
4.25785e-79
6.34012e-81
8.69687e-83
1.09202e-84
1.24558e-86
1.27851e-88
1.16712e-90
9.33361e-93
6.40964e-95
3.67704e-97
1.69256e-99
5.8622e-102
1.35717e-104
1.54254e-107
)
;
    }
    procBoundary3to2
    {
        type            processor;
        value           nonuniform List<scalar> 
43
(
3.95951e-33
4.16429e-34
4.10022e-35
3.92774e-36
3.65243e-37
3.29134e-38
2.86863e-39
2.41231e-40
1.9515e-41
1.51362e-42
1.1214e-43
7.90453e-45
5.27931e-46
3.32708e-47
1.97041e-48
1.09228e-49
5.64606e-51
2.71165e-52
1.20599e-53
4.95151e-55
1.8715e-56
6.49523e-58
2.06521e-59
6.00394e-61
1.59317e-62
3.85313e-64
8.48352e-66
1.69891e-67
3.09287e-69
5.11757e-71
7.69796e-73
1.05342e-74
1.31305e-76
1.49361e-78
1.55463e-80
1.48589e-82
1.31014e-84
1.07182e-86
8.1935e-89
5.90219e-91
4.0459e-93
2.6688e-95
1.71505e-97
)
;
    }
}


// ************************************************************************* //
