/*--------------------------------*- C++ -*----------------------------------*\
| =========                 |                                                 |
| \\      /  F ield         | OpenFOAM: The Open Source CFD Toolbox           |
|  \\    /   O peration     | Version:  3.0.1                                 |
|   \\  /    A nd           | Web:      www.OpenFOAM.org                      |
|    \\/     M anipulation  |                                                 |
\*---------------------------------------------------------------------------*/
FoamFile
{
    version     2.0;
    format      ascii;
    class       volVectorField;
    location    "9.4";
    object      ddt0(U);
}
// * * * * * * * * * * * * * * * * * * * * * * * * * * * * * * * * * * * * * //

dimensions      [0 1 -2 0 0 0 0];

internalField   nonuniform List<vector> 
7968
(
(0.000591255467071 0.000592200614673 -0.0012916654705)
(0.00150388441266 0.000640734709891 -0.00118927624718)
(0.00208455105404 0.000712038613292 -0.000817993688736)
(0.00240204263691 0.000752879973218 -0.000581387656132)
(0.00219055488635 0.000723487742402 -0.000227279401401)
(0.00205884735865 0.000692339144508 -0.000129947894248)
(0.00167417079213 0.00065553522875 -3.69798835261e-05)
(0.00113100197181 0.00067601219587 -2.36256761431e-05)
(0.00060309562054 0.000749983591887 -8.66676741046e-05)
(0.000179377555827 0.000838334752737 -0.000164557501722)
(-0.000166365283621 0.000838172181806 -0.000164472603378)
(-0.000591046578454 0.000749262671158 -8.55705880971e-05)
(-0.00112132831876 0.000674540563157 -2.16886751892e-05)
(-0.00166786565571 0.000653514767824 -3.44520976968e-05)
(-0.00205568203217 0.000690085813695 -0.000127479134756)
(-0.00218863818351 0.000721080839048 -0.000224846310429)
(-0.00240270457243 0.000750488864585 -0.000578695293148)
(-0.00208534542267 0.000709550131482 -0.000815888493101)
(-0.00150442523616 0.000638123089529 -0.00118686726764)
(-0.000591346593171 0.000589286811629 -0.0012898326187)
(0.000639964212764 0.00150486062816 -0.00118798470791)
(0.00148734191905 0.00148875414888 -0.000873309248531)
(0.00195148484751 0.00156433342248 -0.000578240890872)
(0.00225413755862 0.00167670274533 -0.00045899781428)
(0.00214422786593 0.00170232734741 -0.000167444038861)
(0.00196944575875 0.00164406187705 -5.95342419778e-05)
(0.00165252193192 0.00156953712188 6.02470657991e-05)
(0.0011799227635 0.00153035646012 0.000225427347994)
(0.000666201959842 0.00152166405485 0.00034348026497)
(0.000212526164145 0.00154623698204 0.000336151161936)
(-0.000200611200893 0.00154520550682 0.000336728848774)
(-0.00065512896354 0.00151856527562 0.000345424435097)
(-0.00117117173328 0.00152568539638 0.000228457103223)
(-0.00164709317207 0.0015640589485 6.35119199071e-05)
(-0.00196687525277 0.00163832362504 -5.61976681838e-05)
(-0.00214331335284 0.00169628367368 -0.00016465697207)
(-0.00225558232103 0.00167100046536 -0.000456327230212)
(-0.00195278373581 0.00155835086643 -0.000576655219426)
(-0.00148806270242 0.00148254671096 -0.000871574583992)
(-0.000640033827663 0.00149843811502 -0.00118689101995)
(0.000711308979506 0.00208452485864 -0.000816484768938)
(0.00156268279595 0.00195257972476 -0.000577986301086)
(0.00205199584343 0.0020537009114 -0.000321212940744)
(0.00233704770805 0.00216020822254 -0.000232359676405)
(0.00229649963949 0.00211543100923 4.87894752938e-05)
(0.00215338240355 0.0019062992835 0.000158778784117)
(0.0019105996724 0.00166764885972 0.000340637037214)
(0.00148840895924 0.0014166733733 0.000567643125149)
(0.000919245142597 0.00120760650853 0.000786750001686)
(0.000305716727247 0.00107116970235 0.0008858770868)
(-0.00029524558159 0.00106945338399 0.000886477033672)
(-0.000909671530244 0.00120284743921 0.000788454274361)
(-0.00148125532587 0.00141011791633 0.000569742618408)
(-0.00190646295306 0.00166000518785 0.000342895976008)
(-0.00215159967792 0.00189836745205 0.000160783552337)
(-0.00229596657299 0.00210711909487 5.08878747052e-05)
(-0.00233898634907 0.0021522436167 -0.000231052721758)
(-0.00205356783797 0.0020456233828 -0.000320560874402)
(-0.00156355295307 0.0019441097286 -0.00057719549041)
(-0.000711366855049 0.00207594129521 -0.00081641843773)
(0.000752249893915 0.00240128900737 -0.000579870794003)
(0.00167537666216 0.0022549557916 -0.000457708727079)
(0.00215818820993 0.00233890627888 -0.000231460612453)
(0.00239964049142 0.00240217107549 -0.000186431235009)
(0.00231488086166 0.00222943410967 7.86208022778e-05)
(0.00215568455397 0.00183490959961 0.000123792115708)
(0.00193780382003 0.00140534281226 0.000278378183179)
(0.00158108504005 0.000943385581853 0.000502395921154)
(0.00103843441424 0.000530863190399 0.000732300520695)
(0.000360067405266 0.000286500838189 0.000857237269044)
(-0.000351543132937 0.000284594580859 0.000857649657287)
(-0.00103090330137 0.000525618983059 0.000733527935375)
(-0.001575566605 0.000935834339341 0.00050389439149)
(-0.00193467831025 0.00139688153969 0.000279451156387)
(-0.00215450440663 0.00182647956766 0.000124676377983)
(-0.00231466744587 0.00222035365947 7.99311319945e-05)
(-0.00240195767194 0.00239365434066 -0.000186029548382)
(-0.00216002276915 0.00233004111462 -0.000231679021125)
(-0.00167611667853 0.00224547472253 -0.000457891339493)
(-0.000752253332875 0.00239146344505 -0.000580141133292)
(0.000723246778354 0.00218830592846 -0.000226423438109)
(0.00170125414892 0.00214296059888 -0.000165905546864)
(0.00211346094501 0.00229655576321 5.0612194904e-05)
(0.00222652513176 0.00231621221315 7.97736603495e-05)
(0.00207206947165 0.00207439292649 0.00027375826652)
(0.00186544930435 0.00152865111168 0.000226328941594)
(0.00163968833709 0.000955863885597 0.000321283913057)
(0.00135746064583 0.0003466661346 0.000354625364574)
(0.000914124740563 -0.000183316018141 0.000425708931543)
(0.000323773292685 -0.000490894313527 0.000480549952307)
(-0.000317379582673 -0.000492695026656 0.00048068034802)
(-0.000908505491109 -0.000188191182429 0.000426117083988)
(-0.00135331601477 0.000339893602799 0.000354634723427)
(-0.00163710941427 0.000948345218037 0.000321521915001)
(-0.00186463456866 0.00152122222364 0.000226150453412)
(-0.00207173995701 0.00206631512129 0.000274282029629)
(-0.00222890183672 0.00230876089836 7.9255560182e-05)
(-0.00211527880479 0.00228893577686 4.95908528089e-05)
(-0.00170188533044 0.00213484639344 -0.000166944287626)
(-0.000722955456941 0.002179195181 -0.000227074315087)
(0.000692380413466 0.00205558890232 -0.000129262774474)
(0.00164342269091 0.00196682884889 -5.78224092624e-05)
(0.00190473253408 0.00215218338498 0.000160864228478)
(0.00183229010366 0.00215610338844 0.000125379934496)
(0.00152622051593 0.00186727705869 0.000226997932687)
(0.00131144440357 0.00131365198452 6.64084323333e-05)
(0.0011394563371 0.000724988502672 9.30066058076e-05)
(0.000937193445918 0.000121018686845 0.000181462342792)
(0.00065688683906 -0.000366823869846 2.93923316993e-05)
(0.000233031859886 -0.00065421801046 1.91239342797e-05)
(-0.000228238043084 -0.000655798109844 1.91050390924e-05)
(-0.000652643085695 -0.000371072044317 2.90845370333e-05)
(-0.000933934590268 0.000115237660632 0.000182225270887)
(-0.00113773527622 0.000718702869546 9.34906713983e-05)
(-0.00131129433815 0.00130757829287 6.65232841988e-05)
(-0.00152646729262 0.00186065671294 0.000227273822273)
(-0.00183520928793 0.00215007284274 0.000125034202373)
(-0.00190699431376 0.00214592338263 0.000160158897831)
(-0.0016443871413 0.001959837774 -5.85056014707e-05)
(-0.000692100525662 0.00204737171094 -0.000129903958066)
(0.00065619653024 0.0016690793421 -3.69838378444e-05)
(0.0015696156104 0.00164789201417 6.2072550569e-05)
(0.00166667489117 0.00190746294416 0.000342982892976)
(0.0014033445934 0.00193645741724 0.00028043590404)
(0.000953597853781 0.00164002536524 0.000322833818243)
(0.000722719309117 0.00114051552852 9.38597639236e-05)
(0.000594423483237 0.00059586134127 3.22375957272e-05)
(0.000487317751646 2.2941127729e-05 0.000104264529073)
(0.000347810479515 -0.000403776470314 -0.000119575446203)
(0.000125675006308 -0.000638768976095 -0.000135720664281)
(-0.000121839982991 -0.000640027482847 -0.000135747139487)
(-0.000344256504901 -0.000407188868209 -0.000119545388295)
(-0.0004845748659 1.83277793621e-05 0.000105034397317)
(-0.000592968649972 0.000591292699876 3.2450105193e-05)
(-0.000722599062999 0.00113624460655 9.38979133904e-05)
(-0.000953933516122 0.00163535798704 0.000322719678726)
(-0.00140612227186 0.00193240079024 0.000279985128176)
(-0.00166909556384 0.00190304168375 0.000342261876804)
(-0.00157070923603 0.00164253490796 6.11517342382e-05)
(-0.000655775749072 0.00166243772079 -3.76311470539e-05)
(0.000677540565884 0.00112532407359 -2.43671265403e-05)
(0.00153170228155 0.00117418864542 0.000226662895313)
(0.00141680527081 0.00148359764781 0.000569688060392)
(0.000942474882174 0.00157778784767 0.000504555553715)
(0.000345127869827 0.00135604924889 0.000356217309938)
(0.000119399167529 0.000936772921959 0.000182597809606)
(2.16790568704e-05 0.000487531315593 0.000104920843151)
(3.37082171522e-05 3.41997400751e-05 -0.000129614723433)
(4.76268922708e-05 -0.000319535351751 -0.000200172000173)
(2.17052349248e-05 -0.000500647061241 -0.000213143411087)
(-1.8455037593e-05 -0.000501577019777 -0.00021326611537)
(-4.43995135204e-05 -0.00032214662039 -0.000200353173287)
(-3.10512441074e-05 3.08510713859e-05 -0.000129259129615)
(-2.01625178581e-05 0.000484748986276 0.000105426333152)
(-0.00011924288332 0.00093445833455 0.000182791674649)
(-0.000345562275237 0.00135370588163 0.000355385182257)
(-0.000945146379888 0.00157568384508 0.000504603629445)
(-0.0014194771256 0.00148094122144 0.00056904609739)
(-0.00153301636698 0.00117031082837 0.000225792482527)
(-0.000677061009197 0.0011199655266 -2.50574365742e-05)
(0.000752245565253 0.000598653562647 -8.76834870057e-05)
(0.00152430100562 0.000661094688211 0.000343578436419)
(0.00120932740407 0.00091408336068 0.000788016437829)
(0.00053168497579 0.00103403852544 0.000733741688834)
(-0.000183151487265 0.00091126153234 0.000426877170806)
(-0.000366896733281 0.000654817783492 3.12197975375e-05)
(-0.000403930899959 0.000346870328813 -0.000119504446246)
(-0.000319564566268 4.74466133859e-05 -0.000200224130913)
(-0.000186515237868 -0.000186212315587 -0.000258577635131)
(-6.3988895933e-05 -0.00030170015631 -0.000295116218306)
(6.63832498226e-05 -0.00030227750331 -0.000295274758649)
(0.000188957076167 -0.00018783234125 -0.000258906678542)
(0.00032158137606 4.55080937754e-05 -0.000200256642847)
(0.000404952565435 0.000345635752318 -0.000119044202768)
(0.000366646114617 0.000654207372627 3.14035626539e-05)
(0.000182181434339 0.000910596000441 0.000426915812631)
(-0.000534953896984 0.00103341780162 0.000734262385384)
(-0.00121258698161 0.000912736422132 0.000787794090459)
(-0.00152631814068 0.000658546621076 0.000342887630183)
(-0.000752121294661 0.000594659162889 -8.8194734778e-05)
(0.000840676099483 0.000177476491103 -0.000165537098217)
(0.00154960990741 0.000209078342649 0.000335445263121)
(0.0010737189673 0.000301426546965 0.000886411252527)
(0.000288292727772 0.000355630263517 0.000857920689616)
(-0.000489641449929 0.000320261551872 0.000481078200017)
(-0.000653163159915 0.000230127892461 1.96623216969e-05)
(-0.000638039278933 0.00012394623557 -0.000136013483275)
(-0.000500145920549 2.15177763248e-05 -0.000213417883613)
(-0.000301809911578 -6.26473708719e-05 -0.000295223987229)
(-0.000106531517999 -0.000104585047824 -0.000347826213141)
(0.000108062895292 -0.00010473104499 -0.000347956131882)
(0.000303327606443 -6.30922057875e-05 -0.00029545855996)
(0.000501192401853 2.11461347554e-05 -0.000213393039227)
(0.000638105776002 0.000124191891133 -0.000135402978608)
(0.000651815071356 0.000230859173286 2.06163712995e-05)
(0.000487375589285 0.000320947019531 0.000481431514035)
(-0.000292976776855 0.000356194088035 0.000858595301483)
(-0.0010783215893 0.000301440432964 0.000886176213921)
(-0.00155247597484 0.000208202050804 0.000334458143607)
(-0.000841038954954 0.000175232164059 -0.000166959732618)
(0.000839978650906 -0.000165729907109 -0.00016614322418)
(0.00154837557276 -0.000202484092367 0.000335206941399)
(0.00107185915393 -0.000298460716664 0.000886260136705)
(0.000286124550729 -0.000355491307485 0.000857759502999)
(-0.000491953821557 -0.000320847703534 0.000480589786235)
(-0.000655304576122 -0.000231345866714 1.90938148256e-05)
(-0.000639958635727 -0.000123761283796 -0.000136328247439)
(-0.000501872162163 -1.82637988014e-05 -0.000213763821895)
(-0.000303091480004 6.91573891638e-05 -0.000295540996036)
(-0.00010703552842 0.000112644836473 -0.000348040084391)
(0.000108293808151 0.000112925168674 -0.000348128252607)
(0.00030428241848 6.98859415626e-05 -0.000295663350248)
(0.000502492421552 -1.70761919308e-05 -0.000213561357349)
(0.000639395309481 -0.000122087413547 -0.000135500140782)
(0.000653052380619 -0.00022938757079 2.04959777793e-05)
(0.000488568046844 -0.00031878684495 0.000481217161078)
(-0.000292068429769 -0.000353561735118 0.000858475122181)
(-0.00107765919912 -0.000296706997231 0.000885881941423)
(-0.00155217381073 -0.000201102589894 0.00033419529271)
(-0.000841009667547 -0.000165391192519 -0.000167280123389)
(0.000750526212002 -0.000588166492936 -8.85753767948e-05)
(0.0015211917886 -0.000655053843133 0.000343152138457)
(0.00120459764065 -0.000911176589739 0.000787455848677)
(0.000526270442346 -0.00103360585868 0.000733132002531)
(-0.000188664885957 -0.000911410490141 0.000425376853833)
(-0.000371866092961 -0.000655653778358 2.88404866286e-05)
(-0.000408405821948 -0.000346398875743 -0.000120306631451)
(-0.000323790318441 -4.45140528612e-05 -0.000200993815869)
(-0.000189779273302 0.000191584425305 -0.000259293790115)
(-6.54541652345e-05 0.000308114768929 -0.000295643099772)
(6.69916289468e-05 0.000308718135655 -0.000295698194143)
(0.000191376483186 0.000193202783033 -0.000259287262512)
(0.00032477745798 -4.21225678724e-05 -0.000200544344137)
(0.000408015456592 -0.000343650603118 -0.000119118668727)
(0.000369652386923 -0.000652736163232 3.06404461443e-05)
(0.000185228809148 -0.000908221775452 0.000426389793291)
(-0.000532402856437 -0.00103014008439 0.000734117828822)
(-0.0012106499012 -0.00090738699167 0.000787305494198)
(-0.00152514806591 -0.000651038935631 0.000342403930563)
(-0.000751808806711 -0.000584571731243 -8.91912698371e-05)
(0.000675375145947 -0.00111613680428 -2.50436266283e-05)
(0.00152764370028 -0.00116895449535 0.00022605602343)
(0.00141117717169 -0.00148091700138 0.000568436837354)
(0.000935851777524 -0.00157682683038 0.000503160841995)
(0.000338802068014 -0.0013554077833 0.00035300665324)
(0.000114003515158 -0.000936719422173 0.000180824803693)
(1.6868371801e-05 -0.000486901847632 0.00010406774886)
(2.92845376016e-05 -3.19921508464e-05 -0.000130083948427)
(4.40203288473e-05 0.000322817480885 -0.00020080760675)
(2.00125691762e-05 0.000504012349884 -0.000213752587753)
(-1.74951282377e-05 0.00050469178485 -0.000213673729626)
(-4.14328767511e-05 0.000324749322134 -0.000200595624499)
(-2.73977771387e-05 -2.91024326877e-05 -0.000129112979544)
(-1.65521539393e-05 -0.000483749983879 0.000106172281771)
(-0.000115714547581 -0.000933488471364 0.000182534342191)
(-0.000341620468756 -0.0013517629311 0.00035382784788)
(-0.000941336943139 -0.00157233311729 0.000504616750588)
(-0.00141644084767 -0.00147569745522 0.000568845019645)
(-0.00153106719976 -0.00116298252551 0.000225863516031)
(-0.000676391155081 -0.00111022863899 -2.55044098871e-05)
(0.000654141027018 -0.00166101980534 -3.72294587715e-05)
(0.00156539953417 -0.00164338438748 6.13309126322e-05)
(0.00166059501888 -0.00190477912046 0.000341582748202)
(0.00139656334418 -0.00193482087414 0.000278364923159)
(0.000947188404665 -0.00163812992224 0.000319795222769)
(0.000717590335975 -0.001139823133 9.15265242987e-05)
(0.000590446240251 -0.000595186086405 3.04001030861e-05)
(0.000484191401027 -2.16719551683e-05 0.000103806063113)
(0.000345360664446 0.000404936883273 -0.000119808205277)
(0.000124632447014 0.000638972172848 -0.000136001601649)
(-0.000120726075433 0.00063962298095 -0.000135887727764)
(-0.000341631945066 0.000406823778227 -0.000119357923732)
(-0.000481558158949 -1.86187543942e-05 0.000105765215174)
(-0.000589678726109 -0.000591728379466 3.23098408137e-05)
(-0.000718798894225 -0.00113620387054 9.34177294556e-05)
(-0.000949628985572 -0.00163396258775 0.000321676300663)
(-0.00140161025173 -0.00192994977339 0.000279710704728)
(-0.00166516588904 -0.00189899290645 0.000342433691827)
(-0.0015680912072 -0.00163668071062 6.15906526512e-05)
(-0.000654671740406 -0.00165412949515 -3.73313095539e-05)
(0.000690586386582 -0.00204846047174 -0.000129454621232)
(0.00163924210019 -0.00196269954812 -5.82621407366e-05)
(0.00189850325688 -0.00214934190672 0.000159391231521)
(0.00182572477121 -0.00215392592603 0.000123408752794)
(0.00151996421869 -0.00186483019927 0.000224265725158)
(0.00130653378342 -0.00131250433509 6.42493528376e-05)
(0.0011356912852 -0.000724185965222 9.13176969782e-05)
(0.000934350822784 -0.000120550541843 0.000180835190778)
(0.000654724956899 0.000365690637459 2.95941363569e-05)
(0.000232238778332 0.000651119617433 1.90669404592e-05)
(-0.000227011790177 0.00065184567503 1.92197590912e-05)
(-0.00065004417914 0.00036780350833 2.97906761321e-05)
(-0.000931140408451 -0.000117439395141 0.000182097587213)
(-0.00113449530458 -0.000720281360917 9.30916720011e-05)
(-0.00130744837161 -0.0013084513211 6.57704604777e-05)
(-0.00152198098074 -0.0018602762147 0.00022595687691)
(-0.00183027344255 -0.00214874059723 0.000124684735525)
(-0.00190257588008 -0.0021434465268 0.000160214443413)
(-0.00164152552203 -0.00195602676194 -5.78945852024e-05)
(-0.000690819812738 -0.0020416009981 -0.000129094594359)
(0.00072150147826 -0.00218207687623 -0.000226134909471)
(0.0016971302251 -0.00213934025508 -0.000166250687128)
(0.00210717389945 -0.00229382989832 4.93420129674e-05)
(0.00221948257403 -0.00231392828822 7.81404244871e-05)
(0.00206502137593 -0.00207154292918 0.000271867218385)
(0.00185945596207 -0.00152690844949 0.000224341520075)
(0.00163470655363 -0.000954652991194 0.000319306643091)
(0.00135349517991 -0.000346587745956 0.000352907781019)
(0.000911266915179 0.00018125643153 0.000423457165685)
(0.000322661305363 0.000486385211544 0.000478071742622)
(-0.000316034685731 0.000487158357644 0.000478341201198)
(-0.000905464349204 0.000183587124938 0.000424284675252)
(-0.00134976122135 -0.000342984581379 0.000353060245944)
(-0.00163308563375 -0.000950531043322 0.000320790922143)
(-0.00186016357145 -0.00152257951415 0.000225292377797)
(-0.00206691771056 -0.00206676931842 0.000273284899589)
(-0.00222383702348 -0.00230868602235 7.91774476824e-05)
(-0.00211108631615 -0.00228805379568 5.00758388567e-05)
(-0.00169930702975 -0.00213287382754 -0.000165523380936)
(-0.000721717131862 -0.00217553629691 -0.00022547531762)
(0.00075065701311 -0.00239700747901 -0.000579087841841)
(0.00167183448362 -0.00225234826076 -0.000457742968031)
(0.00215263314513 -0.00233698228748 -0.000232484162381)
(0.0023932173253 -0.00240077260367 -0.000187801110089)
(0.00230831594471 -0.0022279379098 7.69434354361e-05)
(0.00214977348235 -0.00183449011567 0.000122383430865)
(0.00193267261891 -0.00140560348872 0.00027719675869)
(0.00157677280369 -0.000944928702854 0.00050154482034)
(0.00103509115613 -0.000534740091523 0.000731255893321)
(0.000358595201213 -0.000292974373362 0.000855603662935)
(-0.000350416373245 -0.0002922139073 0.000855921762773)
(-0.00102759821397 -0.000532347398429 0.000732400698556)
(-0.00157136335802 -0.000940969364682 0.000503425674482)
(-0.00193023834887 -0.00140091046047 0.000278819988632)
(-0.0021498744485 -0.00182951175867 0.000123894274508)
(-0.00231000037914 -0.00222259723307 7.89865869773e-05)
(-0.00239740657256 -0.00239532018057 -0.000186286902888)
(-0.00215624900306 -0.00233134887933 -0.000231433433413)
(-0.00167374832243 -0.00224642637695 -0.000456622675188)
(-0.00075066962522 -0.00239068024976 -0.0005777545002)
(0.000709956668645 -0.00208265642264 -0.000814837475487)
(0.00155956135977 -0.00195126748874 -0.000577827168017)
(0.00204681518221 -0.00205252042462 -0.000322075705006)
(0.00233054403558 -0.00215916319162 -0.000233722670072)
(0.00228960449503 -0.00211431403604 4.71529815414e-05)
(0.00214676742061 -0.00190593802521 0.000157395909473)
(0.00190441841834 -0.00166811607636 0.000339496482305)
(0.00148278469889 -0.00141836953812 0.000566477980456)
(0.000914777089683 -0.00121142236737 0.000785164431839)
(0.000303528183727 -0.0010772273204 0.000883439945111)
(-0.00029454099309 -0.00107657451762 0.000883807614574)
(-0.000906439446085 -0.00120934489013 0.000786448964453)
(-0.00147675002035 -0.00141502797406 0.000568526575966)
(-0.00190164409476 -0.00166385769931 0.00034179502836)
(-0.00214689489934 -0.00190130138581 0.000159472545009)
(-0.00229153357083 -0.00210951256419 4.95329172273e-05)
(-0.00233494564882 -0.00215428706603 -0.000231875307629)
(-0.002050509085 -0.00204752404816 -0.000320758351251)
(-0.00156148190106 -0.00194603239405 -0.000576357278989)
(-0.000710100660336 -0.00207710436491 -0.000812893908838)
(0.000638822234099 -0.00150456222555 -0.00118574412361)
(0.0014845897614 -0.00148799280257 -0.000872854170725)
(0.00194635233192 -0.00156342245839 -0.000578673859342)
(0.00224698996197 -0.00167582053542 -0.000459963233821)
(0.00213628297901 -0.00170149222721 -0.000168987172143)
(0.00196141597301 -0.00164378407131 -6.09806785853e-05)
(0.0016445961244 -0.00157001096559 5.88085523667e-05)
(0.00117245620088 -0.00153192060886 0.00022381664188)
(0.000660297634695 -0.00152478267586 0.000341369810058)
(0.000209470196807 -0.00155070969992 0.000333248253492)
(-0.00020020421152 -0.00155033251145 0.00033364013286)
(-0.000651518840378 -0.00152320471406 0.000342530611876)
(-0.00116574159712 -0.00152937227329 0.000226097943364)
(-0.0016412917887 -0.00156682857573 6.14439123078e-05)
(-0.00196148601533 -0.00164035926717 -5.80713479883e-05)
(-0.00213848007099 -0.00169788912803 -0.000166065750177)
(-0.00225166108657 -0.00167219637421 -0.00045716947732)
(-0.00195018213827 -0.00155949009425 -0.000576708922789)
(-0.0014864766604 -0.00148374032922 -0.000870570901203)
(-0.000639036757779 -0.00150013701201 -0.0011832416274)
(0.000590096769827 -0.000591433621723 -0.00128763222383)
(0.0015020134693 -0.000640115883204 -0.00118745695019)
(0.00207938272499 -0.000711311682477 -0.000817142282111)
(0.00239379370864 -0.000752048940172 -0.000581557381009)
(0.00218090195249 -0.000722678468159 -0.000228379588935)
(0.00204884568016 -0.000691705406472 -0.000131424091133)
(0.00166415679696 -0.000655258266597 -3.89359498635e-05)
(0.00112180001856 -0.000676352152248 -2.6118220809e-05)
(0.00059604679794 -0.000751130059307 -8.93840446705e-05)
(0.000175647096001 -0.000839920885464 -0.000168466304555)
(-0.000166032400554 -0.000839968275899 -0.000168148457733)
(-0.000586950556225 -0.000750801443364 -8.94085094762e-05)
(-0.00111492817223 -0.000675536735968 -2.49428869717e-05)
(-0.00166064539346 -0.000653904791415 -3.69789736068e-05)
(-0.00204890853024 -0.000690168286 -0.000129305091711)
(-0.00218265279711 -0.000721086152006 -0.000225858111681)
(-0.00239783993085 -0.000750248886963 -0.000578649554447)
(-0.00208254532149 -0.000709470261272 -0.000814687389114)
(-0.00150346749342 -0.000638157695267 -0.00118477451926)
(-0.000590253688242 -0.000589530290773 -0.0012852513434)
(0.000367648321548 0.000366920645525 -0.00328155798833)
(0.000179793778521 0.000192851379064 -0.00280338206935)
(0.000251359682583 0.000379104152235 -0.00241676745137)
(-0.000203820666886 0.00061154374532 -0.00200641917482)
(-0.000829077357533 0.000689628168185 -0.00180583060025)
(-0.00130348735346 0.000750729957989 -0.00154888075937)
(-0.00167554745381 0.000862210216785 -0.00120639815498)
(-0.00176187063247 0.00102397046465 -0.00105448605441)
(-0.0013439253281 0.00116760855502 -0.00120528768336)
(-0.000505129386267 0.00125330806376 -0.00144913460896)
(0.000513431053689 0.00125287573301 -0.00144804872233)
(0.00135173033045 0.00116587490973 -0.00119720529122)
(0.0017675907663 0.00102131704398 -0.00104418459731)
(0.00167934887444 0.000858862309763 -0.00119526271991)
(0.00130545183152 0.000747885517468 -0.00153822569678)
(0.000829732174456 0.000687041974783 -0.00179687727846)
(0.000204360476193 0.00060930437421 -0.00199913420018)
(-0.000252051303122 0.000377610810051 -0.00240974145226)
(-0.000179725887102 0.000191384487591 -0.00279672716164)
(-0.0003676218697 0.000364895776839 -0.00327610881888)
(0.000193724103115 0.000177521771962 -0.00280118510717)
(0.000298451564224 0.00029742551955 -0.00218389587392)
(0.000430648240499 0.000748450365964 -0.00175860534655)
(0.000230606901386 0.00123574909426 -0.00138746510323)
(-0.000167700582826 0.00154433662279 -0.00109197650539)
(-0.000583946556404 0.00168516885476 -0.000774648268951)
(-0.000924105432506 0.00170020171512 -0.000377931235985)
(-0.000998908708285 0.00173504050982 0.000141472764866)
(-0.000790485485007 0.00175459890639 0.000522832360338)
(-0.000308737348898 0.0017264023722 0.0006675336089)
(0.000316462458662 0.00172544341461 0.000669311941401)
(0.000797619331016 0.00175118891367 0.000528173455172)
(0.00100449219615 0.00173030219475 0.000149321645564)
(0.000927763819485 0.00169513691174 -0.000369278962336)
(0.000585821524551 0.00168058365739 -0.000766338783946)
(0.000167926888887 0.00154012927126 -0.00108479741836)
(-0.000231348454028 0.00123212363623 -0.00138168824873)
(-0.000431825880402 0.000744712966478 -0.00175428030025)
(-0.000298370449358 0.000294033836206 -0.00218002766488)
(-0.000192864968495 0.000174525717049 -0.00279796183933)
(0.000380061194676 0.000248405420888 -0.00241361343233)
(0.000748496656754 0.000429232140877 -0.00175700514294)
(0.00107358908669 0.001073511206 -0.00117869863958)
(0.00106020897326 0.00170254849212 -0.000665133103387)
(0.000827189256377 0.00206930237035 -0.000211596027183)
(0.000561801419777 0.00214804281303 0.000264159624537)
(0.000265437345284 0.00203519463425 0.000773727327038)
(5.88967074159e-05 0.00181656634992 0.0012907986569)
(-2.95063091122e-05 0.00165296804839 0.0017379123425)
(-2.62246160091e-05 0.00158952309191 0.0019694267312)
(3.32272345036e-05 0.00158793933312 0.00197075476653)
(3.585848136e-05 0.00164850453209 0.00174172261074)
(-5.37392325774e-05 0.00180990260561 0.00129617881249)
(-0.000262622711835 0.00202793062627 0.000779553384213)
(-0.000560674777024 0.00214110592799 0.000269123762245)
(-0.000827455982194 0.00206289305976 -0.000207421328176)
(-0.00106138121158 0.00169695567493 -0.00066216150891)
(-0.00107515462938 0.00106814843442 -0.00117674099008)
(-0.000748771564789 0.000423922214034 -0.00175557375081)
(-0.000378753396869 0.000243041743159 -0.00241249254364)
(0.000611301694063 -0.000209071715766 -0.00200378582061)
(0.00123531885173 0.000227752911197 -0.00138437547885)
(0.00170178550554 0.00105914348786 -0.000663100362094)
(0.00175846104961 0.00175877108595 -7.40178123396e-05)
(0.00161831084189 0.00209202607991 0.000336098304235)
(0.00139617276159 0.00204184059917 0.000718123950888)
(0.00112824419552 0.00175561695375 0.00112102470103)
(0.000818520015812 0.00137162453074 0.00154957418558)
(0.000493211539503 0.000996068619811 0.00193519883238)
(0.000167721446504 0.00078430956867 0.00215251202283)
(-0.000161760402751 0.000782465021884 0.00215334357996)
(-0.000487822144274 0.000991065544264 0.00193757692438)
(-0.000814073411912 0.00136446943273 0.00155277386647)
(-0.0011252676009 0.00174784400768 0.0011239492399)
(-0.00139507707802 0.00203444211421 0.000720321617653)
(-0.00161883230427 0.00208550448683 0.00033797134737)
(-0.00176011031703 0.00175294602694 -7.29923909243e-05)
(-0.00170389344722 0.00105360101431 -0.000663392978066)
(-0.00123601316349 0.000222093819578 -0.0013852111499)
(-0.000611021296914 -0.000214651352194 -0.00200398720889)
(0.000689020146644 -0.000834408282491 -0.00180252487943)
(0.00154307117017 -0.000172221285146 -0.00108773374588)
(0.0020678205788 0.000824530102763 -0.000207840255399)
(0.0020908215843 0.00161745848021 0.000338014226608)
(0.00187604108634 0.00187638307996 0.000616745016077)
(0.00161876521907 0.00171206748486 0.000758860402557)
(0.0013505472096 0.00128073025876 0.000908674661914)
(0.00103039398283 0.000763688518038 0.00119240419152)
(0.000659772915097 0.000317675034128 0.00144885790135)
(0.000231391174712 5.67271727111e-05 0.00160547001725)
(-0.00022637752282 5.49637494491e-05 0.00160598590743)
(-0.000655208249945 0.000312909430528 0.00145029057294)
(-0.00102665131154 0.000757170623605 0.00119422491665)
(-0.00134824153153 0.00127368347905 0.000909783741948)
(-0.00161800133224 0.00170540432898 0.000759503072195)
(-0.00187675627817 0.00187069920912 0.000617235341464)
(-0.00209304075522 0.00161266544881 0.000337821760578)
(-0.00207071952757 0.000820117675859 -0.000209488823698)
(-0.00154457217084 -0.000176776891743 -0.001090088622)
(-0.000689001696008 -0.000840004740543 -0.00180406014786)
(0.00075069126184 -0.00131024781406 -0.00154480993853)
(0.00168341531984 -0.000590171063562 -0.000769574445328)
(0.00214615892644 0.000557178485843 0.000269015422916)
(0.00204029811424 0.00139376176808 0.000721476815104)
(0.00171115066947 0.00161784671806 0.000760429757483)
(0.00140577532987 0.00140565663005 0.000646073326231)
(0.00114450333938 0.000954121012775 0.000573902945742)
(0.000903168988205 0.000408686476982 0.000613043504407)
(0.000595164456081 -5.67106104095e-05 0.000843996693384)
(0.000213014151624 -0.000316487203147 0.000921336904643)
(-0.000208775654719 -0.000318037669502 0.000921614225771)
(-0.000591493007812 -6.08465018391e-05 0.00084468898454)
(-0.000900189934891 0.000403073008437 0.000613795824765)
(-0.00114257938795 0.000948465132125 0.000574170819056)
(-0.00140522546225 0.00140065218547 0.000645952458291)
(-0.00171190850751 0.00161371830708 0.000760243020891)
(-0.00204275250295 0.00139053704977 0.000720745287227)
(-0.00214974803352 0.00055472704464 0.000267097608374)
(-0.00168567300287 -0.000592915541305 -0.000772296106939)
(-0.000750247609605 -0.00131421867597 -0.00154686939546)
(0.000863905610245 -0.00168362196224 -0.00120330701952)