/*--------------------------------*- C++ -*----------------------------------*\
| =========                 |                                                 |
| \\      /  F ield         | OpenFOAM: The Open Source CFD Toolbox           |
|  \\    /   O peration     | Version:  3.0.1                                 |
|   \\  /    A nd           | Web:      www.OpenFOAM.org                      |
|    \\/     M anipulation  |                                                 |
\*---------------------------------------------------------------------------*/
FoamFile
{
    version     2.0;
    format      ascii;
    class       volScalarField;
    location    "0.35";
    object      p_rgh;
}
// * * * * * * * * * * * * * * * * * * * * * * * * * * * * * * * * * * * * * //

dimensions      [1 -1 -2 0 0 0 0];

internalField   nonuniform List<scalar> 
1915
(
1233
1267.28
1179.34
1241.98
1135.86
1213.79
1141.13
1217.78
1179.11
1255.84
1250.07
1300.87
1286.61
1329.33
1294.09
1332.2
1282.52
1310.61
1260.16
1261.99
534.741
534.735
534.725
534.711
534.694
534.675
534.655
534.636
534.618
534.6
534.584
534.57
534.558
534.547
534.538
534.532
534.527
534.525
534.525
534.528
534.533
534.54
534.55
534.561
534.575
534.59
534.606
534.623
534.641
534.66
534.678
534.695
534.712
534.728
534.742
534.754
534.764
534.771
534.777
534.779
534.742
534.736
534.725
534.71
534.693
534.674
534.654
534.635
534.616
534.599
534.583
534.569
534.556
534.546
534.537
534.53
534.526
534.523
534.524
534.526
534.531
534.539
534.549
534.56
534.574
534.589
534.605
534.623
534.641
534.659
534.677
534.695
534.712
534.727
534.741
534.754
534.764
534.771
534.776
534.779
534.741
534.735
534.724
534.709
534.691
534.672
534.652
534.633
534.614
534.597
534.581
534.567
534.554
534.544
534.535
534.528
534.523
534.521
534.521
534.524
534.529
534.536
534.546
534.558
534.572
534.587
534.604
534.621
534.64
534.658
534.676
534.694
534.711
534.727
534.741
534.753
534.764
534.771
534.777
534.779
534.74
534.732
534.721
534.706
534.688
534.669
534.649
534.629
534.611
534.593
534.578
534.564
534.551
534.54
534.531
534.524
534.52
534.517
534.517
534.52
534.525
534.533
534.543
534.555
534.569
534.584
534.601
534.619
534.638
534.657
534.675
534.693
534.711
534.727
534.741
534.754
534.764
534.772
534.777
534.779
534.737
534.729
534.717
534.702
534.684
534.665
534.644
534.624
534.606
534.589
534.574
534.56
534.547
534.536
534.527
534.52
534.515
534.512
534.512
534.515
534.52
534.528
534.538
534.55
534.565
534.581
534.598
534.616
534.635
534.655
534.674
534.692
534.71
534.726
534.741
534.754
534.764
534.773
534.778
534.78
534.733
534.723
534.711
534.697
534.679
534.659
534.639
534.618
534.6
534.583
534.568
534.554
534.542
534.531
534.522
534.514
534.509
534.506
534.506
534.509
534.514
534.522
534.532
534.545
534.559
534.576
534.594
534.613
534.632
534.652
534.672
534.691
534.709
534.726
534.741
534.754
534.765
534.774
534.779
534.782
534.726
534.713
534.702
534.689
534.672
534.653
534.632
534.611
534.593
534.576
534.562
534.548
534.536
534.525
534.515
534.507
534.502
534.499
534.498
534.501
534.506
534.514
534.525
534.538
534.553
534.57
534.589
534.608
534.628
534.649
534.669
534.689
534.708
534.726
534.741
534.755
534.766
534.775
534.781
534.783
534.716
534.696
534.686
534.679
534.664
534.645
534.623
534.602
534.584
534.568
534.554
534.541
534.529
534.517
534.507
534.499
534.493
534.49
534.489
534.491
534.497
534.505
534.516
534.53
534.546
534.563
534.582
534.603
534.624
534.645
534.667
534.687
534.707
534.725
534.742
534.756
534.768
534.777
534.783
534.785
534.69
534.665
534.662
534.667
534.654
534.637
534.614
534.592
534.573
534.558
534.545
534.533
534.521
534.509
534.499
534.49
534.483
534.479
534.478
534.481
534.486
534.495
534.506
534.52
534.537
534.555
534.575
534.597
534.619
534.641
534.664
534.685
534.706
534.725
534.742
534.757
534.769
534.779
534.785
534.788
534.655
534.617
534.623
534.651
534.644
534.628
534.604
534.579
534.561
534.547
534.536
534.524
534.513
534.501
534.489
534.479
534.472
534.467
534.466
534.468
534.473
534.482
534.494
534.509
534.527
534.546
534.567
534.59
534.613
534.636
534.66
534.683
534.704
534.725
534.743
534.758
534.771
534.782
534.788
534.791
1237.62
1167.59
1238.64
1180.55
1242.68
1214.32
1234.23
1220.63
1221.64
1218.4
1210.11
1213.18
1197.87
1205.21
1184.9
1196.13
1170.76
1186.13
1157.66
1175.14
1167.94
1155.82
774.067
52.056
8.26714
8.18536
8.12487
8.01666
7.9023
7.83336
7.85587
7.99915
8.55108
9.09306
9.2033
8.30067
8.14616
8.18235
8.17827
8.15302
8.10689
8.04428
7.96784
631.999
539.295
537.755
535.903
725.581
539.287
536.828
534.798
1097.07
686.825
535.872
534.154
1171.44
1063.55
882.496
580.284
1192.04
1136.03
1128.2
1029.82
1207.58
1185.31
1166.49
1161.46
1207.01
1202.79
1198.78
1194.48
1202.7
1205.9
1210.95
1216.75
1197.48
1205.62
1213.9
1223.27
1190.15
1202.73
1214.42
1225.7
1184.25
1198.36
1212.36
1225.92
1178.7
1196.48
1212.41
1226.45
1109.74
1185.16
1206.94
1225.87
226.089
542.356
880.695
1149.89
8.43605
10.8956
75.3035
237.522
8.2122
8.26888
8.29472
8.55989
8.15719
8.22161
8.29807
8.43465
8.08848
8.19926
8.31967
8.45424
8.0099
8.16006
8.31617
8.46924
7.94372
8.11488
8.30092
8.48283
7.90796
8.08541
8.2869
8.48178
7.9114
8.09101
8.28599
8.47351
7.97149
8.14436
8.31547
8.62976
8.76779
8.2389
8.39247
8.55649
8.84615
8.3181
8.47731
8.62272
8.55723
8.59494
8.54693
8.69554
8.32057
8.47695
8.602
8.81102
8.32195
8.45822
8.59295
8.7526
8.31438
8.44344
8.5639
8.67381
8.28056
8.40241
8.51836
8.62695
8.22858
8.34515
8.45726
8.5638
8.16139
8.27371
8.38272
8.48749
8.08107
8.18972
8.29583
8.3987
534.739
534.51
534.552
534.641
534.635
534.621
534.592
534.565
534.546
534.534
534.525
534.515
534.504
534.491
534.478
534.467
534.458
534.453
534.451
534.453
534.459
534.468
534.481
534.497
534.515
534.535
534.558
534.581
534.606
534.631
534.656
534.68
534.703
534.724
534.743
534.76
534.774
534.785
534.792
534.795
534.479
534.312
534.402
534.644
534.625
534.615
534.579
534.546
534.526
534.519
534.514
534.506
534.495
534.481
534.466
534.453
534.443
534.436
534.434
534.436
534.442
534.452
534.465
534.482
534.501
534.523
534.547
534.572
534.598
534.625
534.651
534.677
534.701
534.724
534.744
534.762
534.777
534.788
534.796
534.799
534.174
534.077
534.09
534.718
534.622
534.615
534.564
534.523
534.504
534.5
534.504
534.498
534.487
534.471
534.453
534.437
534.425
534.417
534.414
534.416
534.422
534.433
534.448
534.465
534.486
534.509
534.534
534.561
534.589
534.617
534.645
534.673
534.699
534.723
534.745
534.764
534.78
534.792
534.801
534.804
533.791
533.88
533.671
534.659
534.603
534.62
534.559
534.502
534.478
534.477
534.496
534.493
534.482
534.462
534.439
534.419
534.403
534.394
534.39
534.393
534.4
534.411
534.427
534.446
534.468
534.493
534.52
534.549
534.579
534.609
534.639
534.669
534.697
534.723
534.746
534.767
534.784
534.797
534.806
534.809
775.513
693.404
531.08
558.36
534.789
534.762
534.547
534.42
534.425
534.44
534.5
534.493
534.48
534.453
534.422
534.397
534.378
534.367
534.363
534.366
534.374
534.387
534.404
534.425
534.448
534.475
534.504
534.535
534.567
534.6
534.632
534.664
534.694
534.722
534.748
534.77
534.788
534.803
534.813
534.816
1158.02
1132.6
938.254
791.862
534.115
534.541
534.495
534.387
534.419
534.329
534.486
534.499
534.488
534.447
534.4
534.371
534.348
534.335
534.331
534.335
534.344
534.359
534.378
534.4
534.426
534.454
534.486
534.519
534.554
534.589
534.624
534.658
534.691
534.722
534.749
534.773
534.793
534.809
534.82
534.823
1191.5
1189.59
1225.87
1245.09
885.204
663.124
534.407
533.925
534.192
534.396
534.649
534.534
534.497
534.424
534.366
534.34
534.31
534.298
534.294
534.299
534.311
534.328
534.349
534.373
534.401
534.431
534.465
534.501
534.539
534.577
534.615
534.652
534.688
534.721
534.751
534.777
534.799
534.816
534.828
534.832
1223.92
1226.72
1243.96
1258.53
1275.03
1220.88
903.366
878.605
594.912
533.52
534.499
534.619
534.597
534.469
534.312
534.297
534.259
534.255
534.249
534.258
534.273
534.293
534.316
534.343
534.372
534.405
534.441
534.48
534.521
534.563
534.605
534.645
534.684
534.72
534.753
534.782
534.806
534.825
534.837
534.842
1235.63
1245.82
1259.9
1269.26
1281.39
1288.72
1305.23
1306.22
1219.81
974.832
704.622
534.483
534.367
534.339
534.189
534.365
534.221
534.213
534.195
534.21
534.23
534.255
534.281
534.309
534.34
534.375
534.414
534.457
534.502
534.548
534.593
534.638
534.68
534.719
534.755
534.787
534.813
534.834
534.848
534.853
1238.52
1251.41
1266.34
1280.25
1294.6
1301.36
1304.64
1317.69
1349.67
1370.61
1322.29
1082.02
910.667
551.822
533.73
534.051
534.079
534.156
534.114
534.156
534.182
534.216
534.242
534.273
534.304
534.34
534.383
534.43
534.48
534.531
534.581
534.629
534.675
534.718
534.757
534.792
534.822
534.845
534.86
534.866
1240.19
1254.74
1269.87
1284.88
1300.56
1313.23
1323.27
1336.92
1350.14
1364.74
1378.37
1411.82
1428.55
1300.75
1072.49
652.403
533.823
533.879
533.98
534.084
534.124
534.178
534.201
534.234
534.264
534.301
534.347
534.399
534.455
534.511
534.566
534.619
534.669
534.716
534.76
534.798
534.831
534.857
534.875
534.881
1240.77
1255.78
1270.6
1285.27
1300.25
1314.1
1327.78
1341.8
1356.44
1372.55
1384.13
1395.44
1417.36
1443.31
1478.51
1395.58
1170.85
766.909
533.689
534.015
534.052
534.136
534.152
534.198
534.222
534.255
534.305
534.362
534.426
534.489
534.55
534.608
534.663
534.714
534.762
534.805
534.841
534.871
534.891
534.897
1243.38
1259.65
1273.36
1286.47
1299.59
1311.83
1324.42
1338.3
1354.03
1371.2
1387.86
1404.57
1422.08
1438.41
1456.67
1482.2
1515.09
1485.66
1285.38
820.145
533.825
534.102
534.081
534.136
534.154
534.185
534.256
534.324
534.396
534.466
534.533
534.596
534.655
534.711
534.764
534.812
534.853
534.886
534.91
534.917
1234.75
1255.39
1272.3
1288.38
1303.49
1316.13
1328.12
1340.03
1352.59
1366.62
1382.27
1399.27
1416.31
1435.97
1457.66
1478.05
1495.27
1525.27
1560.73
1546.85
1341.07
769.88
533.805
534.016
534.035
534.082
534.208
534.288
534.363
534.439
534.513
534.582
534.646
534.707
534.765
534.819
534.866
534.904
534.931
534.94
528.022
830.144
1051.91
1193.78
1289.78
1305.42
1319.91
1334.21
1348.94
1365.3
1383.43
1399.79
1414.02
1431.22
1451.53
1471.49
1493
1519.35
1543.06
1575.09
1615.68
1580.95
1307.71
666.421
533.932
533.973
534.152
534.227
534.3
534.409
534.493
534.566
534.635
534.701
534.765
534.826
534.88
534.925
534.956
534.966
9.85193
48.2208
142.156
274.882
425.67
636.912
835.011
999.809
1133.05
1287.23
1362.98
1384.38
1402.29
1423.74
1450.09
1470.99
1489.62
1512.8
1537.92
1564.93
1592.67
1631.11
1677.55
1586.85
1156.81
533.799
534.171
534.143
534.194
534.362
534.476
534.554
534.623
534.692
534.764
534.833
534.895
534.948
534.985
534.997
8.60351
8.74629
9.08898
9.57695
9.94044
13.8849
40.1462
92.9627
171.3
305.266
547.123
798.437
1013.29
1291.19
1422.93
1450.9
1475.27
1508.3
1536.6
1559.68
1586.53
1616.33
1647.21
1691.39
1746.21
1542.41
836.242
534.057
534.04
534.256
534.449
534.545
534.614
534.682
534.759
534.838
534.911
534.974
535.019
535.033
8.60709
8.7645
9.0235
9.38976
9.69106
9.58917
9.69557
9.89611
10.1224
10.2732
10.6733
28.737
82.0426
237.381
508.281
813.73
1200.71
1473.19
1511.29
1545.18
1582.79
1612.51
1640.27
1671.92
1708.97
1760.22
1740.18
1248.89
539.742
534.339
534.414
534.515
534.595
534.67
534.75
534.839
534.927
535.003
535.059
535.076
8.63271
8.78979
9.02653
10.0352
9.80495
9.62321
9.6853
9.82676
9.98822
10.1371
10.2774
10.4417
10.7133
10.9205
11.1829
27.2195
142.804
413.477
795.856
1344.97
1546.74
1589.79
1632.82
1669.67
1700.98
1737.02
1790.83
1860.75
1557.53
687.95
534.651
534.485
534.533
534.635
534.736
534.837
534.942
535.036
535.106
535.128
8.66829
8.83852
10.0021
10.821
10.7208
9.63526
9.68092
9.82622
9.989
10.1383
10.2808
10.4431
10.6443
10.8373
10.983
11.1403
11.4068
11.7757
22.1801
191.044
527.014
1114.5
1586.63
1643.45
1695
1737.89
1776.36
1823.05
1892.22
1718.57
820.347
534.867
534.49
534.57
534.692
534.831
534.956
535.072
535.161
535.192
8.68184
9.75537
10.7438
10.9366
10.605
9.58678
9.67731
9.82236
9.97708
10.1275
10.2795
10.4484
10.6386
10.8184
10.9812
11.1621
11.3733
11.554
11.7182
12
12.7515
85.6186
395.037
1065.96
1644.47
1712.65
1769.52
1814.98
1864.95
1936.78
1825.48
901.254
534.924
534.567
534.591
534.781
534.965
535.107
535.225
535.271
9.70587
10.6275
10.8299
10.923
9.68365
9.52386
9.65929
9.80916
9.96642
10.1241
10.2836
10.4505
10.6273
10.804
10.9806
11.1708
11.3664
11.5544
11.7551
11.9723
12.1653
12.3817
13.0262
62.2207
411.997
1276.81
1723.32
1799.41
1860.01
1911.99
1983.51
1887.18
904.453
534.901
534.485
534.579
534.911
535.124
535.302
535.377
10.4486
10.6703
10.8741
9.92337
9.35707
9.48794
9.63376
9.791
9.95275
10.1154
10.2795
10.4483
10.6239
10.8026
10.9819
11.1672
11.3592
11.5587
11.7729
11.9813
12.1909
12.4122
12.6171
12.8649
13.6144
117.454
657.117
1638.84
1831.59
1905.22
1962.8
2040.51
1885.99
826.492
534.377
534.189
534.733
535.128
535.422
535.535
9.43164
10.3285
9.85363
9.21029
9.3224
9.46422
9.61671
9.77579
9.93838
10.1026
10.2691
10.4403
10.617
10.7979
10.9814
11.1698
11.3641
11.563
11.771
11.9854
12.2162
12.446
12.6676
12.8987
13.1198
13.412
14.7762
340.005
1392.1
1868.24
1954.33
2021.77
2109.86
1768.26
693.586
533.863
534.644
535.231
535.63
535.768
8.75082
8.93319
9.1142
9.27135
9.40531
9.48782
9.61115
9.76321
9.92225
10.0854
10.2526
10.4253
10.6041
10.7882
10.9769
11.1704
11.3683
11.5701
11.7795
11.9986
12.2285
12.4637
12.7072
12.9523
13.1875
13.4115
13.6373
14.2893
174.399
1177.28
1913.37
2011.31
2090.28
2192.92
1498.03
580.538
535.025
535.439
535.928
536.074
8.82387
8.9437
9.16836
9.4419
9.57982
9.66666
9.61527
9.74666
9.9004
10.0617
10.2291
10.4034
10.5846
10.7722
10.9658
11.165
11.3693
11.5782
11.7928
12.0146
12.2453
12.4863
12.7359
12.9881
13.2437
13.4832
13.7191
13.9545
14.4496
83.6142
1122.08
1971.83
2079.88
2169.72
2226.69
1087.66
535.345
535.271
536.274
536.501
9.06893
9.20521
9.32359
9.44423
9.57077
9.55904
9.5758
9.71718
9.8693
10.03
10.1981
10.3739
10.5576
10.7487
10.947
11.1523
11.364
11.5814
11.8041
12.0324
12.2678
12.5123
12.7657
13.0256
13.2904
13.5496
13.8151
14.0531
14.2855
14.6915
74.3617
1259.5
2048.08
2160.96
2265.4
1887.41
689.988
534.758
536.804
537.294
8.94233
9.12153
9.24538
9.31205
9.33342
9.40556
9.53714
9.67902
9.83018
9.99028
10.159
10.3364
10.5225
10.7171
10.92
11.1312
11.3502
11.5764
11.8089
12.0471
12.2909
12.5411
12.7989
13.0645
13.3363
13.6088
13.8809
14.1429
14.3892
14.6425
15.0475
170.836
1564.33
2142.73
2255.78
2379.3
1258.34
537.297
537.83
538.619
8.78164
8.89527
9.00472
9.1147
9.23376
9.35987
9.49241
9.63268
9.78221
9.94158
10.1106
10.2894
10.4779
10.676
10.8837
11.1008
11.3271
11.562
11.8048
12.0542
12.3091
12.5691
12.8344
13.1054
13.3824
13.6635
13.9449
14.2242
14.4933
14.7548
15.0181
15.2711
510.859
1965.23
2254.16
2375.07
1955.14
673.219
538.512
540.252
8.73525
8.84488
8.95383
9.06599
9.18327
9.30636
9.43642
9.57498
9.72337
9.88217
10.0515
10.2315
10.4224
10.624
10.8366
11.0599
11.2938
11.5377
11.7908
12.0519
12.3193
12.5916
12.8678
13.1475
13.431
13.7186
14.0091
14.2995
14.5828
14.8547
15.1148
15.3164
15.6673
1238.13
2232.91
2377.27
2409.06
1032.8
538.812
542.899
8.67155
8.78153
8.89061
9.00188
9.11746
9.23879
9.3674
9.50482
9.65228
9.81059
9.98018
10.1614
10.3545
10.5597
10.7773
11.0072
11.2491
11.5025
11.7666
12.0398
12.3205
12.6065
12.896
13.1874
13.4804
13.7753
14.0724
14.3703
14.6649
14.9491
15.2247
15.4985
15.7932
309.184
1931.88
2376.68
2527.35
1522.85
547.772
547.641
8.59443
8.7042
8.813
8.9235
9.03786
9.15781
9.28503
9.42117
9.5676
9.72532
9.89502
10.0773
10.2726
10.4815
10.7042
10.9409
11.1914
11.4552
11.7312
12.0177
12.3126
12.6133
12.9173
13.2225
13.5274
13.8317
14.1359
14.44
14.7428
15.0382
15.3139
15.6195
15.9217
15.8432
1330.88
2376.72
2546.94
1985.28
635.386
555.003
8.50444
8.61345
8.72149
8.83089
8.94384
9.0622
9.18777
9.32234
9.46749
9.62447
9.79418
9.97742
10.175
10.3876
10.6156
10.8595
11.1193
11.3943
11.6833
11.9845
12.295
12.6118
12.9315
13.2515
13.5697
13.8854
14.1987
14.5107
14.8221
15.1307
15.4205
15.724
16.0638
16.2387
578.738
2238.72
2569.58
2395.71
838.984
566.201
)
;

boundaryField
{
    leftWall
    {
        type            fixedFluxPressure;
        gradient        nonuniform 0();
        value           nonuniform 0();
    }
    rightWall
    {
        type            fixedFluxPressure;
        gradient        uniform 0;
        value           nonuniform List<scalar> 
43
(
534.779
534.779
534.779
534.779
534.78
534.782
534.783
534.785
534.788
534.791
534.795
534.799
534.804
534.809
534.816
534.823
534.832
534.842
534.853
534.866
534.881
534.897
534.917
534.94
534.966
534.997
535.033
535.076
535.128
535.192
535.271
535.377
535.535
535.768
536.074
536.501
537.294
538.619
540.252
542.899
547.641
555.003
566.201
)
;
    }
    lowerWall
    {
        type            fixedFluxPressure;
        gradient        uniform 0;
        value           nonuniform List<scalar> 
66
(
1233
1267.28
1267.28
1241.98
1213.79
1217.78
1255.84
1300.87
1329.33
1332.2
1310.61
1261.99
631.999
539.295
537.755
535.903
534.741
534.742
534.741
534.74
534.737
534.733
534.726
534.716
534.69
534.655
534.741
534.735
534.725
534.711
534.694
534.675
534.655
534.636
534.618
534.6
534.584
534.57
534.558
534.547
534.538
534.532
534.527
534.525
534.525
534.528
534.533
534.54
534.55
534.561
534.575
534.59
534.606
534.623
534.641
534.66
534.678
534.695
534.712
534.728
534.742
534.754
534.764
534.771
534.777
534.779
)
;
    }
    atmosphere
    {
        type            totalPressure;
        rho             rho;
        psi             none;
        gamma           1;
        p0              nonuniform 0();
        value           nonuniform 0();
    }
    defaultFaces
    {
        type            empty;
    }
    procBoundary1to0
    {
        type            processor;
        value           nonuniform List<scalar> 
44
(
1195.66
1151.05
1113.7
1126.1
1170.62
1225.74
1253.84
1263.66
1261.5
1253.57
1244.45
1238.95
1234.2
1225.84
1214.29
1200.67
1185.52
1169.64
1152.21
1138.58
1147.51
1147.51
1125.69
377.664
8.91838
8.40606
8.27868
8.16248
8.01505
8.05821
8.41573
8.69485
8.78508
8.84048
8.95068
8.6198
7.92636
8.01053
8.04873
8.05003
8.0267
7.98389
7.92482
7.85174
)
;
    }
    procBoundary1to3
    {
        type            processor;
        value           nonuniform List<scalar> 
45
(
7.87868
7.98833
8.09359
8.19673
8.29727
8.40116
8.50867
8.61528
8.72298
8.8339
8.95006
9.07352
9.2062
9.34979
9.50575
9.67534
9.85964
10.0596
10.2762
10.51
10.7617
11.0313
11.3184
11.6218
11.9391
12.267
12.6014
12.938
13.2736
13.6061
13.9343
14.2586
14.582
14.9056
15.2315
15.549
15.8624
16.2388
16.4799
120.625
1858.76
2606.68
2793.47
1342.12
611.825
)
;
    }
}


// ************************************************************************* //
