/*--------------------------------*- C++ -*----------------------------------*\
| =========                 |                                                 |
| \\      /  F ield         | OpenFOAM: The Open Source CFD Toolbox           |
|  \\    /   O peration     | Version:  3.0.1                                 |
|   \\  /    A nd           | Web:      www.OpenFOAM.org                      |
|    \\/     M anipulation  |                                                 |
\*---------------------------------------------------------------------------*/
FoamFile
{
    version     2.0;
    format      ascii;
    class       volScalarField;
    location    "8.6";
    object      epsilon_0;
}
// * * * * * * * * * * * * * * * * * * * * * * * * * * * * * * * * * * * * * //

dimensions      [0 2 -3 0 0 0 0];

internalField   nonuniform List<scalar> 
7968
(
7.04467880242e-05
9.35187085868e-05
0.000109932433033
0.00011811987833
0.000118935834164
0.000115586141563
0.000109992808751
0.000103945842678
9.89477349569e-05
9.57258575839e-05
9.57028313336e-05
9.89029894791e-05
0.000103890736275
0.000109937014011
0.000115538283304
0.000118900068036
0.00011809973205
0.000109925098669
9.35190253003e-05
7.0449347107e-05
9.35095007385e-05
0.000169347272625
0.000217581097742
0.00023960725722
0.000240946279774
0.000230419770139
0.000213451878769
0.000194900305185
0.000179436195096
0.000170365322747
0.000170323377671
0.000179341174679
0.000194774887203
0.000213320739182
0.00023030132291
0.000240848720392
0.000239544159839
0.000217549802745
0.000169340661278
9.35140979064e-05
0.000109915766364
0.000217564431776
0.000286404099485
0.000318387655859
0.000321573592756
0.000307045939749
0.000283059523093
0.000256307106172
0.000233401022789
0.000219620241347
0.000219565360018
0.00023327672148
0.000256141541346
0.000282884156668
0.000306884059444
0.000321436401076
0.000318293764114
0.000286353123887
0.000217549632317
0.000109920035933
0.000118095679766
0.000239572945807
0.00031836628236
0.000356709454201
0.000362673762745
0.000347768184739
0.000322091283496
0.00029931942311
0.000279505645955
0.000266670149001
0.000266619919098
0.000279396492753
0.000299170800727
0.000321897622004
0.000347576845618
0.000362509375672
0.000356592168882
0.000318297491939
0.000239546728288
0.000118096381774
0.000118907339487
0.000240902124755
0.000321539293336
0.000362659988174
0.000371493581303
0.000365194672657
0.000353785383941
0.000337409820339
0.000320086765877
0.000307767431309
0.000307715350565
0.000319976195433
0.000337267183276
0.000353625385121
0.000365034477929
0.00037131259535
0.000362523176686
0.000321451102508
0.000240858324853
0.000118900021685
0.000115566174507
0.000230390013592
0.000307025124345
0.000347766727043
0.000365198320336
0.00037467735883
0.000373503158933
0.000362793034867
0.000347760655511
0.000335905942789
0.000335850692697
0.000347644905863
0.000362649699992
0.000373354832302
0.000374534316746
0.000365054983465
0.000347617748364
0.000306921397683
0.000230329340929
0.000115548911081
0.000109991400178
0.000213452329805
0.000283071411736
0.000322121485214
0.000353812287861
0.000373525080013
0.000379322434326
0.00037260997099
0.000359110958656
0.000347498763881
0.000347441916561
0.000358992855061
0.000372466458582
0.000379179649411
0.000373391581766
0.00035368162379
0.000321976332969
0.000282957989259
0.000213377915874
0.000109963833197
0.000103966363596
0.000194940575683
0.000256365604053
0.000299370618361
0.00033746759129
0.000362855023098
0.000372656488195
0.000368103721956
0.000355151574522
0.000343176506176
0.000343121394478
0.000355039652558
0.000367971751296
0.000372528274392
0.000362739926398
0.000337362164008
0.000299267428438
0.000256256752862
0.000194863361018
0.000103933101709
9.89798429273e-05
0.000179505559809
0.000233496465694
0.000279584073909
0.000320177813308
0.000347867735591
0.000359212810789
0.000355215564227
0.000341591560923
0.000328300749077
0.000328252720057
0.000341500264936
0.000355115764235
0.000359122806971
0.000347791577412
0.000320110981371
0.000279519555127
0.00023341947963
0.000179448950205
9.89524926013e-05
9.57514841797e-05
0.000170431145004
0.00021971629331
0.000266751470557
0.000307865459996
0.000336028349296
0.000347626498976
0.000343280082137
0.000328353815391
0.000313191721278
0.000313158237377
0.000328301737781
0.000343237476561
0.000347602403527
0.000336018712042
0.000307860922436
0.000266745947325
0.000219703739332
0.000170424689722
9.57477300119e-05
9.57287392939e-05
0.000170366794983
0.000219626752098
0.00026666484048
0.000307768811986
0.000335922023179
0.000347521604433
0.00034319248706
0.000328299300032
0.000313175681238
0.000313166900186
0.00032830255873
0.000343223714559
0.000347579801689
0.00033599529295
0.000307843017642
0.000266735268379
0.000219698525183
0.000170427878023
9.57616909531e-05
9.89288570466e-05
0.000179364069103
0.000233303143938
0.00027940269344
0.000319979123733
0.00034765264514
0.000359004758308
0.000355049931857
0.000341503707208
0.000328300881352
0.000328304068142
0.000341527823061
0.000355103553835
0.000359084159831
0.000347745668744
0.000320072720634
0.000279493519996
0.000233402078716
0.000179448850474
9.89736304784e-05
0.000103910274539
0.000194776606962
0.000256135661714
0.000299144394925
0.000337230203858
0.000362608434815
0.000372425040701
0.000367931749038
0.000355081406144
0.00034321782449
0.00034322470319
0.000355107653564
0.00036798000682
0.000372491802335
0.000362684793114
0.000337306837058
0.000299218888154
0.000256218357939
0.000194848748974
0.000103946850018
0.000109942722783
0.00021330022665
0.000282849143544
0.000321847876836
0.000353564415774
0.000373288902034
0.000379114130229
0.000372468663839
0.000359077940274
0.000347583199634
0.000347590522285
0.000359100157026
0.000372502893327
0.000379157261898
0.000373335342695
0.000353608226026
0.000321886891407
0.000282894870461
0.000213341926977
0.000109961004783
0.000115527523193
0.000230261931808
0.000306828204809
0.000347508600273
0.000364962292441
0.000374464401542
0.000373328192433
0.000362689614288
0.000347762859253
0.000336021308342
0.000336028310258
0.000347780831455
0.000362711386913
0.000373348930062
0.000374480643394
0.000364968945652
0.000347507390696
0.000306838434039
0.000230273048762
0.000115527203458
0.000118873500204
0.000240796591843
0.000321369546609
0.000362435784294
0.000371237494075
0.00036499287586
0.000353633136188
0.000337335474033
0.000320112141968
0.000307895796716
0.000307902314214
0.000320126412045
0.000337345984759
0.000353631575578
0.000364979157492
0.000371197927064
0.000362409523754
0.000321354687974
0.000240784675294
0.000118859333404
0.000118057421985
0.000239482521095
0.000318222506429
0.000356523448276
0.000362465662054
0.000347569946816
0.000321943184413
0.000299263745898
0.000279547468842
0.000266808107956
0.00026681329503
0.000279556332051
0.000299260776793
0.00032191078231
0.000347521964941
0.000362415731063
0.000356483909474
0.000318192510064
0.000239456611554
0.000118035776243
0.000109870809768
0.000217484010738
0.000286287043102
0.00031824313942
0.000321416137226
0.00030689923286
0.000282949652503
0.000256266949614
0.000233459085331
0.000219779427499
0.000219782531748
0.000233459559516
0.000256249090287
0.000282912814345
0.000306851180655
0.000321362573641
0.000318196743349
0.000286248630747
0.000217451169211
0.000109846752343
9.34611079651e-05
0.000169281775638
0.000217500478035
0.000239514111686
0.000240845472702
0.00023032392767
0.000213378768485
0.000194875321969
0.00017948188985
0.000170484187985
0.000170485513475
0.000179479005445
0.000194854911151
0.000213340390931
0.000230274415871
0.000240789647117
0.000239463953521
0.00021745882597
0.000169247627872
9.34380708129e-05
7.04030239734e-05
9.34767915357e-05
0.000109898245999
0.00011808921712
0.000118905860007
0.000115557560539
0.000109971518271
0.000103942961527
9.89725673678e-05
9.57812362046e-05
9.57779206077e-05
9.89647751322e-05
0.000103923212988
0.000109939675145
0.00011551894479
0.000118865496741
0.000118053341489
0.000109869860219
9.34548879904e-05
7.03862481565e-05
0.000122001396771
0.000182417352929
0.000226834604224
0.000251387066107
0.000259510917048
0.000256964904305
0.000250557923213
0.000246054137229
0.000246370762008
0.000249288016025
0.000249238570685
0.000246242536209
0.000245873279435
0.000250361823367
0.000256788913407
0.000259376103622
0.000251300903443
0.000226789103453
0.00018239736987
0.000121991466756
0.000182411858731
0.00022632800112
0.000259108080083
0.000276134577228
0.000280275456888
0.000275258086557
0.000266110087354
0.000257143340677
0.000251408853292
0.000249138501655
0.000249094659568
0.000251297094575
0.000256984740677
0.000265933764676
0.000275092686407
0.000280142566043
0.000276043036898
0.000259053630567
0.000226298922671
0.000182404534003
0.000226820573102
0.000259103560983
0.000284147633278
0.000295925616148
0.000297216296118
0.000291045160808
0.000280917559777
0.000269851660736
0.000261449489532
0.000257012563811
0.000256981911339
0.000261373710778
0.000269732344142
0.000280781363486
0.000290911234441
0.000297101195751
0.000295839472904
0.000284091355175
0.000259070692949
0.000226810188851
0.000251360992248
0.00027612362533
0.000295920305275
0.000305296450922
0.000307228262682
0.000304205980165
0.000299893948348
0.00029385049504
0.000287226971501
0.00028257812722
0.000282553441539
0.000287171069682
0.0002937746543
0.000299806803808
0.000304104149823
0.000307130330698
0.000305213097315
0.000295857764888
0.000276081196748
0.000251339737827
0.000259482885812
0.000280267224078
0.000297212134074
0.000307227689939
0.00031368730914
0.000319709480935
0.000322652370532
0.000321303948684
0.000316982958293
0.000312934586875
0.000312913174387
0.000316938274035
0.000321249509696
0.00032259436611
0.000319645452437
0.000313613618749
0.000307145858772
0.000297138728986
0.000280207201947
0.000259441424199
0.000256971652624
0.000275277545149
0.000291057597412
0.000304214501762
0.000319714354543
0.000334004629116
0.000343407172597
0.000346301392183
0.000344011363279
0.000340549843054
0.000340529471751
0.000343970903462
0.000346256741106
0.00034336466203
0.000333959652267
0.000319657848863
0.000304135556003
0.000290972614237
0.000275194982184
0.000256900235621
0.000250644202612
0.00026618525355
0.000280962163867
0.000299918398445
0.000322668141854
0.00034341779949
0.000357842072602
0.000363797745178
0.00036286925762
0.000359769273988
0.000359749464681
0.000362831518922
0.000363756167021
0.00035780665539
0.000343383281745
0.000322623500177
0.000299854475078
0.000280872242749
0.00026608621765
0.000250544910977
0.000246238317462
0.000257285028475
0.00026993284364
0.000293894311948
0.000321336163957
0.000346331840479
0.000363821425355
0.000371615770021
0.00037141555209
0.00036815779342
0.00036813857591
0.000371381228585
0.000371581900146
0.000363792385686
0.00034630633373
0.000321302853088
0.000293843738056
0.000269853260661
0.000257191635625
0.000246139188974
0.000246617081835
0.000251591052717
0.000261542139933
0.000287283057529
0.000317030434115
0.00034406470705
0.000362918828329
0.000371447456427
0.000370953351265
0.000366833628258
0.000366817128117
0.000370927760706
0.000371428487352
0.000362908856418
0.000344057293236
0.000317017084016
0.000287257203978
0.000261502244767
0.000251541242403
0.000246571576582
0.000249516183339
0.000249306786656
0.000257093893518
0.000282628471898
0.000312981423706
0.000340608259588
0.000359831734014
0.00036821096368
0.000366862382185
0.000361644693157
0.000361636100543
0.000366857040143
0.000368220355789
0.000359854425337
0.000340634993604
0.000313002549162
0.00028264168963
0.000257105745402
0.000249336333593
0.000249576995808
0.000249384877418
0.000249201280584
0.000257024465214
0.000282573381052
0.000312931295158
0.000340558902373
0.000359786644071
0.000368175496318
0.0003668442321
0.000361648331673
0.000361653690979
0.000366869925979
0.000368224398186
0.000359851895336
0.000340628966821
0.00031299593444
0.000282634043862
0.000257094773582
0.000249318235302
0.000249558499917
0.000246309169374
0.000251338115814
0.000261376717016
0.000287159048461
0.000316924199446
0.000343964453759
0.000362832016047
0.000371385631314
0.000370932685959
0.000366861541188
0.000366873990814
0.000370971788373
0.000371449193711
0.000362911073399
0.000344048043818
0.000317003554498
0.000287237697737
0.000261471111824
0.000251490088811
0.000246519327287
0.000245873079561
0.000256966212755
0.000269700320811
0.000293734677665
0.000321210079255
0.000346223094769
0.000363729143865
0.000371559676094
0.000371412414472
0.000368213360225
0.000368227870132
0.000371453169632
0.000371621373052
0.000363802964842
0.000346300080785
0.000321283882875
0.000293809303958
0.000269792946187
0.000257105313899
0.000246052399473
0.000250306616027
0.000265862937448
0.000280710354593
0.000299741251661
0.000322536696492
0.000343316035909
0.000357765465679
0.000363756592969
0.000362882693563
0.000359842563321
0.000359856881338
0.000362920303382
0.000363809370232
0.000357827591584
0.000343379481147
0.000322596197721
0.000299799195836
0.000280779573501
0.000265962036253
0.000250421440043
0.000256690112786
0.000274978950647
0.000290805223234
0.000304014435132
0.000319572589437
0.000333901709173
0.000343337021048
0.00034626927764
0.000344031671294
0.000340627234369
0.000340640546848
0.000344064865046
0.00034631432492
0.000343387084594
0.000333949884865
0.000319614140367
0.000304048119472
0.000290846268248
0.000275034703748
0.000256742036254
0.000259244329234
0.000279996338673
0.000296966306098
0.000307017808472
0.00031352557875
0.000319589942624
0.000322571937685
0.000321265764489
0.000316996118652
0.00031300269966
0.000313014851805
0.000317025379744
0.00032130197668
0.000322607937558
0.000319619452512
0.000313545062747
0.00030702965779
0.0002969814999
0.000280015404683
0.000259249362819
0.000251146826348
0.000275877741562
0.000295684410506
0.000305081777134
0.000307040959766
0.000304053706654
0.000299790885941
0.000293797416898
0.000287230756305
0.000282638131788
0.000282648382265
0.000287253536043
0.000293820845326
0.000299806777887
0.000304053535194
0.000307032204627
0.000305071397164
0.000295676174306
0.000275868720092
0.000251122806628
0.000226624208675
0.000258882951386
0.000283926735168
0.000295713983089
0.000297018101261
0.000290870059646
0.000280782467965
0.000269776270643
0.000261442945688
0.000257067352133
0.000257075070545
0.00026145642686
0.000269778279952
0.000280767760066
0.000290840507363
0.000296980866141
0.000295677222922
0.000283893601587
0.000258850034894
0.000226582617576
0.000182243161385
0.000226139313005
0.000258910610936
0.000275935225476
0.000280075735618
0.000275067864841
0.000265952168022
0.00025704846936
0.000251397781297
0.000249207250311
0.000249211474335
0.000251397244368
0.000257026298662
0.000265904699317
0.000275002418002
0.000280004278372
0.000275868548282
0.000258852350419
0.000226086880867
0.000182193292634
0.00012187233696
0.00018226027488
0.000226667499377
0.000251214099736
0.000259331103406
0.000256785320924
0.000250401503786
0.000245958146784
0.000246362748738
0.00024936592931
0.000249368577258
0.000246351182121
0.000245912751046
0.000250323025753
0.000256688990237
0.000259233452068
0.00025112824792
0.000226597127228
0.000182204421811
0.000121828745981
0.000196219914546
0.000310955503447
0.00039886643253
0.000451251771158
0.000478386415714
0.000492808603289
0.000509726782769
0.000538852759341
0.000575563086494
0.000602266348309
0.000602196667138
0.000575354516633
0.000538515820752
0.000509321690951
0.000492432434831
0.000478100365594
0.000451078993499
0.000398780444587
0.000310919312697
0.00019619264913
0.000310987210226
0.000351138153429
0.000400903256509
0.000431560686834
0.000444353278115
0.000444530854403
0.000441262348206
0.000442761181864
0.000450703539974
0.000458496016206
0.000458427916263
0.00045050992621
0.000442466475859
0.000440921418932
0.000444218396975
0.000444119928618
0.000431419484911
0.000400832004294
0.000351100006812
0.000310949816576
0.000398894747501
0.000400916789953
0.000419572109642
0.000426405483306
0.000422765464728
0.000411668312824
0.000397618170716
0.000387050799772
0.0003835147239
0.000382605975301
0.000382559727481
0.000383390849822
0.000386871968188
0.000397373066695
0.000411436305885
0.000422580914105
0.000426283955514
0.000419505487052
0.000400879320701
0.00039885966911
0.00045127114813
0.000431574998902
0.000426405862843
0.000417105698403
0.000406851316959
0.000398750680988
0.000390407336816
0.000381817127089
0.000375415368255
0.000371768800824
0.00037173712904
0.000375335047644
0.000381702359905
0.00039027015508
0.000398621900063
0.000406714856468
0.000416997813787
0.000426335717075
0.00043153229043
0.000451235114432
0.000478421618645
0.000444377287867
0.000422771262888
0.000406853179038
0.00040208682769
0.000400662065131
0.000398721329503
0.000394830483111
0.00038998361443
0.000386340564285
0.000386319276706
0.000389932972265
0.000394762292978
0.000398645030917
0.000400584705744
0.000402000997045
0.000406756820384
0.000422687428585
0.00044431719703
0.000478371887128
0.000492950845768
0.000444614429137
0.000411706408178
0.000398768236817
0.000400670508076
0.000406520242559
0.000411319982052
0.000412486716088
0.000410277099434
0.00040742056509
0.000407406319209
0.000410245754152
0.000412447462684
0.000411278187151
0.000406476591352
0.00040061690321
0.000398699383897
0.000411603740014
0.000444522722268
0.000492864594099
0.000510070513205
0.000441464455371
0.000397721229087
0.000390456605029
0.000398747565739
0.000411334627304
0.000422005268642
0.000427139086449
0.000426661195083
0.000424280366649
0.000424270276305
0.000426639847908
0.000427114868952
0.000421981591031
0.000411309764003
0.000398710751083
0.000390390687497
0.00039760740108
0.000441353583928
0.000509970188615
0.00053939127921
0.000443090360569
0.000387212432055
0.000381900433375
0.000394880114023
0.000412524286393
0.000427164990793
0.000434333637994
0.0004344115171
0.000431917799834
0.000431910223072
0.000434396383128
0.000434317836966
0.000427153037669
0.000412513672898
0.000394860546441
0.000381856877172
0.000387144450725
0.00044301820925
0.00053937394773
0.000576158878188
0.000451091695638
0.000383715721304
0.000375521049493
0.000390052679328
0.000410339242283
0.000426719500591
0.000434448207763
0.000434153247919
0.000430974057893
0.000430969557614
0.000434146594728
0.000434445318834
0.000426723180935
0.000410348216947
0.000390058611824
0.00037551455106
0.000383704582959
0.000451130933235
0.000576342076468
0.000602765285698
0.000458842376152
0.000382785047152
0.000371863745583
0.000386407335567
0.000407490380635
0.000424353827534
0.000431977480496
0.0004310040094
0.000427048818586
0.000427050531424
0.000431013224858
0.00043199709032
0.000424384582295
0.000407530652512
0.000386452697271
0.000371913335664
0.000382863084946
0.000459034601558
0.00060319451673
0.000602514752202
0.000458653661261
0.000382662729979
0.000371781731861
0.000386347837327
0.000407443711195
0.000424317821355
0.000431954461742
0.0004309982442
0.000427061010828
0.00042707169545
0.00043102833007
0.000432001530452
0.000424380087473
0.000407520487504
0.000386438274609
0.000371892836597
0.000382831362838
0.000458983880163
0.000603135691194
0.000575491941502
0.000450597577449
0.000383406010013
0.000375319353762
0.000389912303574
0.000410235480375
0.000426642690489
0.000434403128104
0.000434150243828
0.000431012819646
0.000431027508598
0.000434188845291
0.000434460519502
0.000426715849121
0.000410325251483
0.000390021114878
0.000375457795199
0.000383615361133
0.000450986686458
0.000576172570397
0.000538496687402
0.000442423847175
0.000386801033399
0.000381628458553
0.000394696938031
0.000412397124122
0.000427078285162
0.000434288235104
0.000434419956911
0.000431977950545
0.000431992748446
0.00043445783897
0.000434343605498
0.000427148682931
0.000412483612561
0.000394802676566
0.00038176296768
0.000386999832699
0.000442788586222
0.000539100992289
0.000509173227142
0.000440764735517
0.000397223352715
0.000390140236974
0.000398539083913
0.000411196028704
0.000421916681137
0.000427097804814
0.000426676329146
0.000424350400001
0.000424363984887
0.000426710864075
0.000427148286106
0.000421979900866
0.000411272462672
0.000398630092802
0.000390253124952
0.000397385194744
0.000441050627037
0.000509612677669
0.000492186616671
0.000443970189277
0.000411209474377
0.00039843632981
0.000400436828753
0.00040636206507
0.000411218398509
0.000412436991503
0.000410285657342
0.000407486905661
0.000407500051019
0.000410318445882
0.000412482448676
0.000411272590468
0.000406424235968
0.0004005067262
0.000398521531355
0.000411326745927
0.000444167978414
0.000492456065213
0.000477795732165
0.000443808062448
0.000422289561761
0.000406470968485
0.000401805690101
0.000400462029848
0.000398584378042
0.000394755400029
0.000389975109757
0.000386394685247
0.000386407298719
0.000390004669602
0.000394792411813
0.000398623349449
0.000400502533203
0.000401845539157
0.000406516082878
0.000422366465279
0.000443931545374
0.000477929648103
0.000450748314465
0.00043107702602
0.000425947311756
0.000416699935694
0.000406508147993
0.000398491434919
0.000390209680969
0.000381698372086
0.000375378859415
0.000371806874742
0.000371817923535
0.000375401609217
0.000381719277754
0.00039022059651
0.000398499832075
0.000406505695666
0.000416712726531
0.000425987117153
0.000431140350254
0.000450789155478
0.000398458794884
0.000400491015986
0.00041914598161
0.000425992023276
0.000422373197653
0.000411313297003
0.000397327224238
0.000386872133483
0.000383438800916
0.000382621333366
0.000382628377662
0.000383446869843
0.000386865471972
0.000397285112051
0.00041125932588
0.000422325578737
0.000425965955767
0.000419144686367
0.000400501501855
0.000398438292076
0.000310659657859
0.000350787120082
0.000400516234749
0.000431150678607
0.000443928562373
0.000444112887578
0.000440897027923
0.000442505647681
0.000450581673848
0.000458489749527
0.000458488183085
0.000450560015764
0.000442444989147
0.000440797468531
0.000443998253253
0.000443825862569
0.000431075248422
0.000400466172168
0.000350750274272
0.000310603232011
0.000196015345539
0.000310634767905
0.000398477357491
0.000450826734343
0.000477930670397
0.00049234870692
0.000509321489409
0.000538579814367
0.000575451417994
0.000602287858848
0.00060228791743
0.00057542073002
0.000538483942759
0.00050915981738
0.000492160360914
0.000477755107433
0.000450684244199
0.00039836974738
0.000310554973128
0.00019595283832
0.00028726268394
0.000490577325022
0.000656349481729
0.000771767765954
0.000857453540155
0.000934957648865
0.00102217615439
0.00111904854505
0.00120692400749
0.00126044098523
0.00126037675628
0.00120674500062
0.00111874418381
0.00102176101173
0.000934530853055
0.000857113964345
0.000771595281857
0.000656291845633
0.000490581785163
0.000287230269817
0.000490706509318
0.000528244289315
0.000613550084076
0.000678461950062
0.000719975003154
0.000746066383823
0.000771091328062
0.000803419450473
0.000836918844253
0.000858335965198
0.000858259638875
0.000836691708979
0.00080306037942
0.000770654750389
0.000745667549944
0.000719709344264
0.000678350593771
0.000613538918904
0.00052824743314
0.000490628913882
0.000656483988326
0.000613600183892
0.000629056142355
0.000636863813049
0.000632624933768
0.000619647090212
0.000604727092729
0.000600192893376
0.000601178252586
0.000603554334883
0.000603489082045
0.000600995230893
0.000599912301622
0.000604362796622
0.000619321270587
0.000632405126632
0.00063676933937
0.000629058385955
0.000613629279204
0.000656450085932
0.000771923905085
0.000678519163567
0.000636873335255
0.000601387793463
0.000572506053737
0.000554462547563
0.000536590956825
0.000522315029656
0.000512603592344
0.000507692063335
0.000507646518598
0.00051248173551
0.000522135456507
0.000536377955462
0.000554269116865
0.00057234705745
0.000601303674788
0.000636878040828
0.000678586790154
0.000771955852483
0.000857652314714
0.000720050019564
0.00063264032315
0.000572508191881
0.000543710397723
0.000526558824242
0.000513331596389
0.000501505494631
0.000491427136037
0.000485225647744
0.000485200634948
0.000491360464076
0.000501407803382
0.000513217467741
0.000526452420525
0.000543621314184
0.000572436968416
0.000632634776969
0.000720144680591
0.000857780150999
0.000935338848351
0.000746229642786
0.000619705758964
0.000554484933517
0.00052656868352
0.000515430387724
0.000509342342187
0.000502597304577
0.000494865445854
0.00048925016283
0.000489241905878
0.000494839896333
0.000502555698195
0.000509289491095
0.000515377383478
0.000526520257641
0.000554441133983
0.000619679482426
0.000746337196834
0.00093555565582
0.00102276196339
0.000771399235864
0.000604874568128
0.00053665621587
0.000513364564241
0.000509360624979
0.000509594277665
0.000506967751536
0.000501068234217
0.000495958352118
0.000495961094672
0.000501067589781
0.000506958841334
0.000509577322071
0.000509340285258
0.000513339758322
0.000536624317836
0.000604842528732
0.000771555303649
0.00102316321152
0.00111972539481
0.000803833769881
0.00060041821446
0.000522427599319
0.000501569469322
0.00050264294696
0.000506997032839
0.000506577403223
0.000501287095321
0.000496141284157
0.000496149388398
0.000501299312027
0.000506586176977
0.00050700155344
0.000502646272918
0.000501569829932
0.000522431502954
0.000600469973836
0.00080413554305
0.00112047335703
0.00120752060039
0.00083733485701
0.000601435576649
0.000512745283261
0.00049151574187
0.000494938491862
0.00050113140008
0.00050132480238
0.000495637094576
0.000489952454225
0.000489963837712
0.000495657991348
0.00050134767772
0.000501154272449
0.000494965050277
0.000491548528767
0.000512802059483
0.000601590701507
0.000837845291889
0.00120869218386
0.00126085233636
0.000858668202621
0.000603773445753
0.000507818581054
0.000485310967952
0.000489329535865
0.000496036938892
0.000496202729672
0.000489981733023
0.000483785150781
0.000483801199651
0.000490014503612
0.000496242444755
0.000496082622494
0.000489386638469
0.000485389259853
0.000507947756521
0.000604050723382
0.000859380923833
0.0012623918751
0.00126057236117
0.000858446906865
0.000603603423611
0.000507700669287
0.00048523247536
0.00048927855509
0.000496007200689
0.000496190030548
0.000489986050546
0.000483804581896
0.000483826336072
0.00049003232782
0.000496247420151
0.000496075135149
0.00048936902161
0.000485361186765
0.000507906052626
0.00060399213546
0.00085930576265
0.0012623101369
0.00120672813224
0.00083671699163
0.000600980732356
0.000512438854308
0.000491315019103
0.000494808966994
0.000501054194187
0.000501291049385
0.000495647231749
0.000489999850071
0.000490023512601
0.000495698149493
0.000501355744088
0.000501131985521
0.000494915978877
0.000491469941097
0.000512684560733
0.000601423859851
0.000837627595769
0.00120846780595
0.0011185464654
0.000802919445592
0.000599763636679
0.000521991734313
0.00050128558495
0.000502460214345
0.00050688619429
0.000506527052777
0.000501298180489
0.000496201639569
0.000496223568857
0.000501346418542
0.000506591376569
0.000506967453076
0.000502572228155
0.000501445853721
0.000522241787818
0.000600198930631
0.000803783593239
0.00112010141107
0.00102140274766
0.000770348411665
0.000604082513869
0.000536133054211
0.000513020681336
0.00050913655839
0.00050945418973
0.000506897673161
0.000501068442774
0.000496014278062
0.000496032998712
0.000501111028675
0.000506959118614
0.000509535104433
0.00050924562388
0.000513172612415
0.000536362538006
0.000604458617178
0.000771087930179
0.00102264937903
0.000934047804296
0.00074521574696
0.000618905756672
0.000553919593987
0.000526173897072
0.000515159713168
0.000509162121581
0.000502493246762
0.000494835795146
0.000489284514302
0.000489301973561
0.000494876279112
0.00050255041188
0.000509235558354
0.000515256357633
0.00052630915258
0.00055411886572
0.000619226245953
0.000745796680954
0.000934935627172
0.000856554471148
0.000719153105661
0.000631877430745
0.000571895278673
0.00054324785174
0.000526214885519
0.000513082329266
0.000501347384059
0.000491359672255
0.00048523797816
0.000485253043362
0.000491394025629
0.000501392218473
0.000513136328234
0.000526288639693
0.000543354366036
0.000572049679204
0.00063214310207
0.000719581663579
0.000857115091816
0.000771023987031
0.000677753259021
0.000636165813047
0.000600748175812
0.000571952669608
0.000554013512007
0.000536239050742
0.000522081946257
0.000512489529383
0.000507680534409
0.000507691430712
0.000512511579699
0.000522103334874
0.000536257212177
0.000554046325623
0.000572010539024
0.000600868267618
0.000636372699039
0.000678040675059
0.00077132332731
0.000655779157309
0.000612959849285
0.000628417311995
0.000636227051862
0.000632003788607
0.000619068292927
0.000604237972777
0.000599872606634
0.000601012218309
0.000603514894945
0.000603520004896
0.000601015295508
0.000599857759508
0.000604192822554
0.000619035297196
0.000632016094275
0.000636303063768
0.000628552109781
0.00061311923467
0.000655888819158
0.000490206534747
0.000527720880744
0.000612974275941
0.00067784556886
0.000719333529832
0.000745447899935
0.0007705763054
0.000803085589541
0.00083677242433
0.000858337959413
0.000858337917925
0.000836757367358
0.000803037186637
0.00077049306125
0.000745363439938
0.000719286765405
0.000677849576517
0.00061301461591
0.000527766827201
0.000490198046741
0.000286996831098
0.000490075900941
0.000655723787931
0.000771079937034
0.000856740179301
0.000934320539012
0.00102171974982
0.00111886851685
0.00120701169565
0.00126072846341
0.00126074839982
0.00120703719478
0.00111884370926
0.00102161356344
0.000934164267987
0.000856591093453
0.000770965116725
0.000655647797754
0.000490022366154
0.000286942662916
0.000397764918542
0.000738277114995
0.00103533617711
0.00127257120955
0.00147363193673
0.00165918225769
0.00183983934283
0.00200949849259
0.002146852979
0.00222615462683
0.00222617784167
0.00214688128898
0.00200949240973
0.00183977335783
0.00165910061926
0.00147361838631
0.00127270899452
0.00103550141501
0.000738450251208
0.000397755808895
0.000738610046381
0.000773300798675
0.000918097016448
0.0010478913319
0.00114909187956
0.00122665092351
0.00129311514115
0.00135414318539
0.00140324003337
0.00143095043229
0.00143089959959