/*--------------------------------*- C++ -*----------------------------------*\
| =========                 |                                                 |
| \\      /  F ield         | OpenFOAM: The Open Source CFD Toolbox           |
|  \\    /   O peration     | Version:  3.0.1                                 |
|   \\  /    A nd           | Web:      www.OpenFOAM.org                      |
|    \\/     M anipulation  |                                                 |
\*---------------------------------------------------------------------------*/
FoamFile
{
    version     2.0;
    format      ascii;
    class       volScalarField;
    location    "8.6";
    object      k;
}
// * * * * * * * * * * * * * * * * * * * * * * * * * * * * * * * * * * * * * //

dimensions      [0 2 -2 0 0 0 0];

internalField   nonuniform List<scalar> 
7968
(
0.000267276056169
0.000322797966538
0.000359390446401
0.00037686874225
0.000378442444055
0.000371149460146
0.000358928136093
0.000345532535271
0.000334307142879
0.000327005446127
0.000326951973858
0.000334204193939
0.000345407644587
0.000358803868465
0.000371044360436
0.000378364292737
0.000376824080251
0.000359373062473
0.000322797629251
0.000267281889584
0.000322776651464
0.000479149840501
0.000565847346512
0.000603035802929
0.000604918292398
0.000586849581965
0.000557359964358
0.000524284373321
0.000495932357701
0.000478927153912
0.000478847110459
0.00049575431434
0.000524055804519
0.000557128055408
0.000586645154288
0.000604752112956
0.000602927582178
0.000565791305732
0.00047913610125
0.000322786652138
0.000359353912091
0.000565818236349
0.000679067329902
0.00072824878164
0.000732646661818
0.000709999076204
0.000672098713979
0.000628618094157
0.000590170358366
0.000566404107981
0.000566307929108
0.000589957557775
0.000628343678737
0.000671817670261
0.000709746449517
0.000732435563297
0.000728103505897
0.000678985268734
0.000565791596198
0.000359362819193
0.000376816999242
0.000602977583449
0.000728215633554
0.000785095916346
0.000793391886142
0.000771111539758
0.000732308242639
0.000697145798276
0.000665710315463
0.000644906763386
0.000644824444645
0.000665534727659
0.000696912728719
0.000732016763758
0.000770826129716
0.000793149918048
0.00078492219653
0.000728109717673
0.000602933047943
0.000376818200302
0.000378381658034
0.000604843272624
0.000732593262096
0.000793370914219
0.000805875378144
0.000796597017347
0.000779682298963
0.000755211443201
0.000728867007645
0.000709811770735
0.000709730538873
0.000728697314513
0.000754996732836
0.000779445711497
0.000796362451535
0.000805612150284
0.000793170257877
0.00073245867834
0.000604769709223
0.000378365864163
0.000371106433593
0.00058679765328
0.000709965010862
0.000771107570669
0.000796601571164
0.000810250992247
0.000808458323059
0.000792790803301
0.000770539240685
0.00075273732164
0.000752653725172
0.000770366633871
0.000792580481869
0.000808243029021
0.000810043697027
0.000796392116121
0.000770886478026
0.00070980460408
0.000586694321071
0.000371069094352
0.000358925238212
0.000557359494781
0.000672115155128
0.000732350174925
0.000779720256553
0.000808489191494
0.000816871838134
0.000807175988432
0.000787446874347
0.00077023572576
0.000770150728969
0.00078727270359
0.000806967364565
0.000816665818206
0.000808295725074
0.000779527667853
0.000732133123913
0.000671935033397
0.000557229467965
0.000358864762159
0.00034557899029
0.000524356084736
0.000628711674661
0.000697223150232
0.000755295792991
0.000792879716351
0.000807242453073
0.00080072322174
0.000781787971677
0.00076401572638
0.000763932965731
0.000781622218889
0.000800530445754
0.000807056221636
0.000792711189866
0.000755137641581
0.000697062179892
0.00062853270818
0.000524216816551
0.000345504705659
0.000334381349799
0.000496060553238
0.000590330046522
0.000665833222539
0.0007290034809
0.000770695914796
0.000787594770023
0.000781881512556
0.000761775454558
0.00074181963184
0.000741746333381
0.000761638218132
0.000781733614853
0.000787461983937
0.000770582347208
0.000728900966232
0.000665729642632
0.000590198901689
0.000495955446041
0.000334319404602
0.000327065968348
0.000479051547029
0.000566569400828
0.000645037039344
0.000709961353033
0.000752919083702
0.000770423792088
0.000764169294819
0.000741899695548
0.000718825604841
0.000718773470389
0.000741819876614
0.00076410473976
0.000770387006776
0.000752903570066
0.000709953252065
0.000645027018787
0.000566546674007
0.000479039235291
0.000327057925801
0.000327012787849
0.000478929673269
0.000566414078812
0.000644896548332
0.000709812027033
0.000752759411733
0.000770267729875
0.000764037967666
0.000741816110056
0.000718799669451
0.000718785554937
0.000741820013061
0.000764083358598
0.000770352869974
0.000752868060375
0.00070992535072
0.00064500952078
0.000566537462497
0.000479045003358
0.000327089491412
0.000334263824539
0.000495797470377
0.000590002446786
0.000665544429722
0.000728701303343
0.00077037739133
0.000787289274936
0.00078163644976
0.000761642456137
0.000741817639519
0.000741821870879
0.000761677315096
0.000781714008148
0.000787404191519
0.000770513644863
0.000728842240963
0.000665687705644
0.000590168858336
0.000495954520419
0.000334366434865
0.000345451744283
0.000524059431224
0.000628334294877
0.000696871729624
0.000754941415449
0.000792520099597
0.000806907141032
0.000800471954699
0.000781682672712
0.000764075071174
0.000764084742716
0.000781720137681
0.000800540612872
0.000807002125522
0.000792629859701
0.000755054214511
0.000696985934511
0.000628468526865
0.000524189046665
0.000345533968135
0.000358816405444
0.000557092233204
0.000671762098498
0.000731941146719
0.00077935620534
0.00080814802323
0.000816571906096
0.000806970328455
0.000787396671087
0.000770359022134
0.000770369309883
0.000787428060629
0.000807018369078
0.000816632346519
0.000808213505935
0.000779418895373
0.000731998842299
0.000671833065148
0.000557164434852
0.00035885667136
0.000371020734344
0.000586577418932
0.000709659641251
0.000770725023925
0.000796257576528
0.000809943185757
0.000808204750949
0.000792638622081
0.000770540863256
0.000752908580802
0.00075291850416
0.000770566306109
0.000792668931551
0.000808233185312
0.00080996510379
0.000796265611449
0.000770721312864
0.000709674031353
0.000586595643394
0.000371020059284
0.000378306801708
0.00060466322205
0.000732332568885
0.00079304177871
0.000805503610861
0.000796302063743
0.000779457087291
0.000755098735672
0.000728903960971
0.000710008383142
0.00071001783675
0.000728924445278
0.000755112870347
0.000779453230627
0.000796280433904
0.000805444578127
0.000793001902652
0.000732308805533
0.000604642546202
0.000378276450172
0.000376732463067
0.000602821709162
0.000727992491578
0.000784819707729
0.000793085715788
0.000770816047853
0.000732084284835
0.00069705732966
0.000665775139234
0.000645128752342
0.000645136474161
0.000665787815348
0.000697050905346
0.000732035164797
0.000770742824624
0.000793010915023
0.000784760123279
0.000727945588106
0.000602777448595
0.00037668591204
0.000359252747625
0.000565674291047
0.000678877842827
0.000728024548208
0.000732404255207
0.000709769986498
0.000671921966039
0.00062854981621
0.000590266562999
0.000566678193966
0.000566682752247
0.000590265501108
0.000628517984684
0.000671860916801
0.000709693421733
0.000732320694781
0.000727952073209
0.000678815838346
0.00056561641305
0.000359199600929
0.00032266224513
0.000479022141641
0.000565703343186
0.000602875804437
0.000604746421254
0.00058668397822
0.000557230045634
0.000524237367666
0.000496015310327
0.000479149997306
0.000479151782886
0.000496008276397
0.00052419822221
0.000557160455979
0.000586597269353
0.000604650609256
0.000602789743898
0.000565629690893
0.000478956593631
0.000322608342213
0.000267162609059
0.000322698479026
0.000359313054181
0.000376800946103
0.000378376555073
0.000371086154522
0.000358879974117
0.000345524830579
0.000334362672624
0.000327132209528
0.000327124155267
0.000334343893427
0.000345479180073
0.000358808476333
0.000371001271423
0.000378288917819
0.00037672296367
0.000359249828786
0.000322646946261
0.000267119234613
0.000386704138024
0.00050505574538
0.000583524999823
0.000624499193326
0.000637579613548
0.000633198420595
0.000622578935787
0.00061524954586
0.000616109909657
0.000621289575512
0.000621206283911
0.000615892572143
0.000614942474062
0.00062224765323
0.000632903487856
0.000637354043337
0.000624353010534
0.000583444394689
0.000505016976801
0.000386681735958
0.000505046023227
0.00084752637901
0.00101522177358
0.00108276083364
0.00108993183936
0.00106263311315
0.00102133196845
0.000980066177732
0.00094890702584
0.000932252930404
0.000932145083906
0.00094864250407
0.000979694340106
0.00102091426665
0.00106222753153
0.00108958804899
0.00108250765083
0.00101506765276
0.000847459276244
0.000505030939083
0.000583501162964
0.00101516818102
0.00123779252777
0.00133563744275
0.00135598225133
0.00133063245397
0.0012833578849
0.00122938249763
0.00118521960292
0.00115970421795
0.00115960624479
0.00118498666762
0.00122901937145
0.00128294519749
0.00133021252182
0.00135560548188
0.0013353452186
0.00123760859033
0.00101508772146
0.000583482332566
0.000624456159176
0.0010826614535
0.0013355757423
0.00146198411351
0.00150789171018
0.00150482048144
0.00148221122721
0.00143637587885
0.0013889863165
0.00135812200804
0.00135800814832
0.00138872433545
0.00143603280707
0.00148186668139
0.00150443163392
0.00150752420893
0.00146167799029
0.00133536770623
0.00108255581372
0.000624420490393
0.000637533551853
0.00108982425576
0.00135589125918
0.00150785090265
0.00158794621746
0.001623253407
0.00161508552711
0.00157896988503
0.00153515676705
0.00150447498842
0.00150435133362
0.00153487432722
0.00157860978769
0.00161472036395
0.00162289869839
0.00158764870332
0.00150754621522
0.00135565492664
0.00108967579407
0.000637465733385
0.000633209797063
0.00106258018813
0.00133056659458
0.00150478435018
0.00162325841922
0.0016795352182
0.00168751512638
0.00166165555441
0.00162235713605
0.00159293430828
0.00159280464782
0.00162205840001
0.00166127939534
0.00168713690466
0.00167918355149
0.00162293872874
0.00150448610329
0.0013303036475
0.00106237949711
0.000633092590039
0.000622723587191
0.00102139487956
0.0012833658957
0.00148222151484
0.00161514477896
0.00168758162253
0.00170824656944
0.00168954243935
0.00165336606566
0.00162526497401
0.001625138346
0.00165307394116
0.0016891598521
0.00170786811568
0.00168724019262
0.00161484194953
0.00148196988623
0.00128309687774
0.00102115759477
0.000622559258602
0.000615560070713
0.000980270026244
0.001229487845
0.00143648606335
0.00157913985507
0.00166185642292
0.00168969448386
0.00167556166877
0.00164201777161
0.0016140652571
0.00161394912018
0.00164175525692
0.00167522774028
0.00168934915652
0.0016615512709
0.00157886692158
0.00143624634052
0.00122924497908
0.000980041611601
0.000615395754242
0.000616526341691
0.000949201690647
0.00118535765395
0.00138917064254
0.00153542803138
0.00162269949218
0.00165366608134
0.0016421902192
0.00160875461536
0.00157919940196
0.00157910558804
0.00160855376172
0.00164195267693
0.00165343955556
0.00162250096151
0.00153525210907
0.00138901375158
0.0011852225493
0.000949060950606
0.000616452922431
0.000621674841902
0.000932535795605
0.00115983114306
0.00135830723109
0.00150475893699
0.00159330837574
0.00162562634827
0.00161433378374
0.00157932915557
0.00154763196876
0.00154757725665
0.00157923088162
0.0016142461736
0.00162557933433
0.00159329747
0.00150475420318
0.0013583002836
0.00115983039964
0.000932557663503
0.000621780606411
0.000621454504628
0.000932322499554
0.00115966087028
0.00135810607753
0.00150452290374
0.00159305246467
0.00162539440406
0.00161416304405
0.00157925062354
0.00154764944711
0.00154764608881
0.00157927782976
0.00161424974357
0.00162554877
0.00159325158068
0.00150471639214
0.00135827820392
0.00115981623515
0.000932530875478
0.000621749416218
0.000616007203889
0.000948698821607
0.00118496047002
0.00138871806988
0.00153490148753
0.00162212882541
0.00165315884192
0.00164183829439
0.00160863106343
0.00157930331718
0.00157932666578
0.0016087175949
0.00164199930803
0.00165338964063
0.00162240265731
0.00153516797102
0.00138896193986
0.00118518362387
0.00094898624348
0.000616364269106
0.000614944076313
0.000979639331519
0.00122892273748
0.00143593208502
0.00157851282261
0.00166119536661
0.00168909203767
0.0016751781999
0.00164193912097
0.00161427939734
0.00161431164419
0.00164203717604
0.00167533723718
0.00168930244355
0.00166143761257
0.001578751583
0.00143615999152
0.00122914714795
0.000979907305066
0.000615248201011
0.000622156904586
0.00102075671772
0.00128275981434
0.00148168177767
0.00161454024126
0.00168696672893
0.00170771469274
0.00168922352129
0.00165337438286
0.00162559084603
0.00162562424709
0.00165346493403
0.00168934801283
0.00170787243328
0.00168714273147
0.00161471294721
0.00148185075934
0.00128292449706
0.00102094682947
0.000622350666758
0.000632740642313
0.00106197988782
0.00132994371613
0.00150418035642
0.00162267705607
0.00167899102503
0.00168708357223
0.00166144090661
0.00162245901093
0.00159334984791
0.00159338311461
0.00162254175688
0.00166154768479
0.00168720360689
0.00167911374517
0.00162279262323
0.00150427901587
0.00133003850024
0.00106208378526
0.000632828000242
0.000637136920755
0.0010892646825
0.00135526400506
0.00150722106353
0.00158741551166
0.00162276286729
0.00161473297148
0.00157883000858
0.00153530353469
0.00150491139556
0.00150494697023
0.00153539055135
0.00157893207152
0.00161483696162
0.00162285397082
0.00158750769172
0.00150726676376
0.00135529981944
0.00108929697839
0.000637146208252
0.000624096059324
0.00108212996753
0.00133495069284
0.00146134069141
0.00150730151222
0.00150434121463
0.00148192451164
0.00143629178385
0.00138916337297
0.00135855532975
0.00135859131951
0.00138924932656
0.00143638905884
0.00148202008562
0.0015043890649
0.00150731800652
0.00146133795271
0.00133493911693
0.00108211006798
0.000624056663098
0.00058315975176
0.00101466383409
0.001237195951
0.00133502751609
0.00135541582124
0.00133016471812
0.00128305024545
0.00122928583206
0.00118535689612
0.00116004866165
0.00116008038409
0.00118543012161
0.00122934823636
0.00128308086864
0.00133015442299
0.00135537582202
0.00133497469379
0.00123713845976
0.00101459977225
0.000583088234389
0.000504731202868
0.000847087942957
0.00101471882847
0.00108225526928
0.001089454084
0.00106221760824
0.00102103227389
0.000979943347708
0.000948998515817
0.000932545796506
0.000932563555406
0.000949027784449
0.000979944835859
0.00102098965864
0.00106213591278
0.00108935205134
0.00108215206481
0.00101462037438
0.000846988512796
0.00050463856133
0.000386429344371
0.000504762102885
0.000583233967443
0.000624208378753
0.000637281010596
0.00063289966334
0.00062231678012
0.000615087987001
0.000616097365071
0.000621421715545
0.000621425472035
0.000616075939098
0.00061500873836
0.000622182310993
0.00063273703313
0.000637117419155
0.000624063465753
0.000583111328838
0.000504657706456
0.000386336377487
0.000531269436782
0.000721288153269
0.000851016955476
0.000923676207667
0.000960296814191
0.000979811649
0.00100277582435
0.00104142576172
0.00108881867677
0.00112253749332
0.00112245101051
0.00108855505843
0.0010409896547
0.00100224046053
0.000979308375917
0.000959909549999
0.000923437553259
0.000850892790731
0.000721231373975
0.000531218969801
0.000721339123905
0.00119305113755
0.00142433922297
0.00151042549657
0.00151131929663
0.00146751310208
0.00141318292293
0.00137278086843
0.00135448137613
0.00135028441113
0.00135012639031
0.00135405076881
0.00137213009521
0.00141240777692
0.00146675916726
0.001510698844
0.001509990238
0.00142408470299
0.00119294459826
0.000721279074028
0.000851058380711
0.00142427179398
0.00171507100288
0.00182654948144
0.00183123462442
0.00177724599974
0.00169928432138
0.00162759892678
0.00157887053326
0.0015518856412
0.00155173568587
0.00157849278755
0.00162707225314
0.00169856464653
0.0017765210826
0.00183059741797
0.00182607460241
0.00171478809045
0.0014241609191
0.000851007827507
0.000923703950791
0.00151031519228
0.0018264646388
0.0019707151674
0.00201428348531
0.00200630313788
0.00196139421104
0.00189927089709
0.00184277395843
0.00180761059271
0.00180746713233
0.00184242599778
0.00189879415223
0.00196084892941
0.00200579146575
0.00201373523332
0.00197026113593
0.00182616677973
0.00151017461237
0.000923655960554
0.00096034490452
0.00151122098715
0.00183111868895
0.00201422706272
0.00212585157441
0.0021696988676
0.00216174556263
0.00212121135457
0.00207148275481
0.00203655722284
0.00203641942922
0.00207115294961
0.00212077435538
0.00216127979349
0.00216925896698
0.00212542650669
0.00201381521963
0.00183078581003
0.00151101911604
0.000960282184845
0.00098000218393
0.00146754480441
0.00177719490824
0.00200626394134
0.0021697005771
0.00225932856631
0.00228632467208
0.00226800922456
0.00222837602014
0.00219603717296
0.00219590643809
0.00222806062684
0.00226759150903
0.00228588658905
0.00225893255703
0.00216934755794
0.0020059440958
0.00177681667965
0.00146725166253
0.000979893977728
0.00100322858053
0.00141346586762
0.00169939432454
0.00196145301454
0.00216182508189
0.00228640635361
0.00234082294805
0.00233890915905
0.00230513697694
0.00227400288741
0.00227388172633
0.00230483446902
0.00233849943642
0.00234038766938
0.00228602070637
0.00216149590818
0.00196112012667
0.00169898411457
0.00141310542577
0.00100310646866
0.00104211972412
0.00137333056771
0.00162787268644
0.00189947004092
0.00212142957533
0.00226825093998
0.00233908971746
0.00234446658054
0.00231190066045
0.00227990885161
0.00227980276219
0.00231162805325
0.00234408335185
0.00233867787392
0.00226789062502
0.00212113652732
0.00189917864168
0.0016275579904
0.00137301561546
0.00104211127216
0.00108956997125
0.00135517437662
0.00157928337779
0.00184309360191
0.00207183587999
0.00222878901206
0.00230552692279
0.00231213077788
0.00227768890004
0.00224321774143
0.00224313830727
0.00227748288872
0.00231183709849
0.0023052097393
0.00222852587612
0.00207164012099
0.00184290105188
0.00157907434975
0.00135503780377
0.00108981753396
0.00112315854818
0.00135093581536
0.00155228811772
0.00180794169473
0.00203694247613
0.00219651595485
0.00227448880567
0.00228027343011
0.00224338953398
0.0022065502098
0.00220651389659
0.0022432949661
0.00228013738414
0.00227435322215
0.00219643891354
0.00203692875283
0.00180793107399
0.00155228372347
0.00135106747631
0.00112370901573
0.00112284883907
0.00135058450813
0.0015519995844
0.00180767986969
0.00203667931323
0.0021962517713
0.00227425444269
0.00228011082675
0.00224333256517
0.00220659746831
0.00220661170622
0.00224336567958
0.00228015301799
0.00227432383669
0.00219638907222
0.00203687865595
0.0018078843316
0.0015522254836
0.00135097892217
0.00112363664115
0.00108873203756
0.00135426253099
0.00157857030507
0.00184246977873
0.00207122397136
0.00222818621332
0.00230499450877
0.00231177336227
0.00227759495896
0.00224337882198
0.00224341872099
0.00227769119761
0.00231190037957
0.00230515553298
0.00222841530932
0.00207151755175
0.00184277661802
0.0015789122565
0.0013547863887
0.00108960512359
0.0010409689722
0.0013721007075
0.00162695450487
0.00189866871774
0.00212067118147
0.00226752720031
0.00233846850825
0.0023440692382
0.00231184730954
0.00228018646125
0.002280231517
0.00231195410444
0.00234420667017
0.00233863703741
0.00226775629949
0.00212095920501
0.00189896952974
0.00162728500013
0.00137260613604
0.00104176044314
0.00100204942052
0.00141215324702
0.00169826416051
0.00196056329549
0.00216103510602
0.00228569507232
0.00234024590306
0.0023385814058
0.00230517470524
0.00227439941341
0.00227444095317
0.00230527364013
0.00233870969122
0.00234039950549
0.00228589671389
0.00216127486126
0.0019608045696
0.00169851663862
0.00141254017127
0.00100263720729
0.000978985054403
0.00146630561901
0.00177602660156
0.00200534963714
0.00216889521627
0.0022586605234
0.00228583525174
0.00226778889676
0.0022285231555
0.0021965488088
0.00219659026559
0.00222862407285
0.00226791766008
0.0022859836098
0.00225883638738
0.00216908069886
0.00200552915004
0.00177618655511
0.0014665515824
0.00097935123306
0.00095950347702
0.00151008033026
0.00182992094789
0.00201313088246
0.00212495413268
0.00216902002711
0.00216130452088
0.00212107644773
0.00207172013586
0.00203714725224
0.00203719193905
0.00207182827738
0.00212120975711
0.00216144518563
0.00216916359503
0.0021250740205
0.00201321352191
0.00183000763002
0.0015102165822
0.000959689129549
0.00092298738134
0.00150925496781
0.00182525653136
0.00196952547504
0.00201324999167
0.00200556903943
0.00196091793733
0.00189913976897
0.00184301850695
0.00180819526476
0.00180824083255
0.00184312589114
0.0018992599382
0.00196101984749
0.00200566461109
0.00201327853566
0.00196954479602
0.00182528977523
0.00150931189331
0.00092304739351
0.000850436538859
0.00142329873023
0.00171390927045
0.00182536627661
0.00183014610209
0.00177635169221
0.00169867127422
0.0016273830857
0.00157901221378
0.00155233872587
0.00155237329067
0.00157908640507
0.00162744942226
0.00169865848302
0.00177629771808
0.00183008025367
0.00182532060412
0.00171389061505
0.00142328898289
0.000850409838006
0.00072083177175
0.00119222449233
0.00142335373751
0.00150940776895
0.00151034217248
0.00146664238242
0.00141251232374
0.00137240760322
0.00135442637428
0.00135049917408
0.00135050414311
0.00135441429439
0.00137233926384
0.00141237550433
0.00146647215011
0.00151018670807
0.00150929734619
0.00142327902571
0.00119215879452
0.00072074573341
0.000530900420865
0.000720791500477
0.000850462852871
0.000923096159182
0.000959688256958
0.000979206150884
0.00100225180687
0.00104108569265
0.00108869298463
0.00112258133384
0.00112258094897
0.00108865293892
0.00104095992213
0.00100203652321
0.000978953143299
0.000959450761729
0.000922900183927
0.000850309168702
0.000720668171605
0.000530788095513
0.000684848488985
0.000977499892624
0.00118646817927
0.00132181619873
0.00141829043693
0.00150335269255
0.00159616317063
0.00169589673174
0.00178363806684
0.00183595492584
0.00183589386858
0.00178346450153
0.0016955930965
0.00159573505061
0.00150289953411
0.00141791799236
0.00132162137355
0.00118640051417
0.000977508246127
0.000684796846082
0.000977676294107
0.00163853082974
0.00196633663454
0.00209565086519
0.00211007296944
0.00207161584489
0.00203312817327
0.00202542966292
0.00204220541223
0.00205938508307
0.00205918949422
0.00204164209695
0.00202453186961
0.00203200149756
0.00207050351817
0.00210919812665
0.00209509713943
0.00196606661639
0.00163845227512
0.000977571655654
0.00118663317018
0.00196628428669
0.00234175524163
0.0024692150062
0.00245087159216
0.00235761109451
0.00224193945535
0.00215665347039
0.00210324971265
0.00207873297623
0.0020785096702
0.00210264425511
0.00215572384336
0.00224072754584
0.00235642974437
0.00244991888058
0.00246858748769
0.00234146101809
0.00196624175451
0.00118659499977
0.00132199785309
0.00209557326439
0.00246914568331
0.0026045835259
0.00261294088316
0.00257058835623
0.00248587105232
0.00239565526703
0.00232197493235
0.00227970345875
0.00227950609985
0.0023214570243
0.00239488740528
0.002484947294
0.00256968797238
0.00261212881435
0.00260397699506
0.00246882198452
0.00209552822374
0.00132204189235
0.0014185115068
0.00211007120019
0.00245080441632
0.00261290687585
0.0027051312018
0.00272708299123
0.00269703227914
0.00263705486717
0.00257211435646
0.00252888228378
0.0025287341137
0.00257171770927
0.00263646320451
0.00269632427475
0.00272638292973
0.00270450640897
0.00261234822365
0.00245040638254
0.00210995317266
0.00141866747741
0.00150376228635
0.00207186591517
0.00235769436203
0.00257062972801
0.00272712631495
0.00281654753655
0.00284173136274
0.00281589336852
0.00276583901151
0.00272658125834
0.00272648146073
0.0027655449435
0.00281542093246
0.00284113174087
0.00281593214718
0.00272657340279
0.00257011691795
0.00235717473875
0.00207162254426
0.00150401738884
0.00159676804752
0.00203378162659
0.00224232861215
0.00248610575589
0.00269722332619
0.00284187381328
0.00290945551784
0.00290840923706
0.00286819696739
0.00283131848815
0.00283125547073
0.00286796952192
0.00290799435546
0.00290888350639
0.00284125645859
0.00269665401234
0.00248556002111
0.00224170688422
0.00203345791926
0.00159721779412
0.0016965721425
0.00202641970556
0.0021573575715
0.00239613774281
0.00263746028204
0.00281625451416
0.00290864284274
0.00291973901941
0.00288230804514
0.00284494623142
0.00284490869739
0.00288212925542
0.00291936470485
0.00290808830252
0.00281563632798
0.00263689019784
0.00239561331627
0.00215683838219
0.00202621978942
0.001697366373
0.0017842177567
0.00204329247691
0.00210413714921
0.00232264188793
0.00257270252146
0.00276640600068
0.00286866988256
0.00288256752321
0.00284301473922
0.00280312996044
0.0028031194751
0.00284289919737
0.00288227366244
0.00286819496065
0.00276586546896
0.00257222108197
0.00232223351744
0.00210380249453
0.00204338459346
0.00178541386161
0.00183634890596
0.00206034739161
0.00207957983334
0.00228038226968
0.00252951210226
0.00272722161903
0.00283190234883
0.00284535772897
0.00280331407219
0.00276132202728
0.00276135027837
0.00280329697208
0.00284519891976
0.0028315863622
0.00272685563229
0.00252922776668
0.00228020541666
0.00207953867456
0.00206079679778
0.00183788600665
0.00183608121473
0.0020598866934
0.0020791287415
0.00228000121928
0.00252919679506
0.00272696396438
0.00283171347582
0.00284525294597
0.00280331164828
0.00276141439911
0.00276148513711
0.00280340345127
0.00284524564454
0.00283157749024
0.00272680924229
0.00252915370935
0.00228010173475
0.00207940353053
0.00206065211948
0.00183780851998
0.0017834482698
0.00204201371812
0.00210294638973
0.00232167030968
0.00257191096465
0.00276575888966
0.00286818539511
0.0028822930681
0.00284300290172
0.00280335774201
0.00280344902962
0.00284315030498
0.00288237050096
0.00286815368081
0.00276572813902
0.00257200779952
0.00232193608493
0.00210341320775
0.00204296101651
0.00178519745168
0.00169539598396
0.00202456188747
0.00215568537019
0.00239480121422
0.00263638873935
0.00281538494661
0.00290798495881
0.0029193611707
0.00288228902255
0.00284524777161
0.00284533774197
0.00288244361196
0.00291946797235
0.00290800893388
0.00281541831997
0.00263654102602
0.00239511405856
0.00215618635305
0.00202551764952
0.00169699732371
0.00159536654856
0.00203167593373
0.00224034292477
0.0024845582709
0.00269600270573
0.00284090048585
0.00290872342112
0.00290798891768
0.00286817710859
0.00283165590545
0.00283173291112
0.00286831592387
0.00290810801588
0.00290879376083
0.00284098592607
0.00269618159943
0.00248485370737
0.00224075425816
0.0020324996094
0.00159669062166
0.00150238634602
0.00206984807916
0.00235568302588
0.00256898476764
0.00272580992167
0.00281551925417
0.0028409817651
0.00281548199193
0.00276584299333
0.00272696940153
0.00272703811111
0.00276597717181
0.00281561316454
0.00284108695282
0.00281564292808
0.00272600515519
0.00256924520127
0.0023560185181
0.0020704787885
0.00150336087468
0.00141730535064
0.00210826474685
0.00244884465257
0.00261111807469
0.00270366912903
0.00272595460389
0.00269624456004
0.002636674235
0.00257219610092
0.00252938232948
0.00252943997793
0.00257231493176
0.00263679246939
0.00269634327776
0.00272607444056
0.00270383742031
0.00261131012301
0.00244913142873
0.00210872945553
0.00141794105145
0.00132097302704
0.00209397954602
0.00246726565559
0.00260269355084
0.0026112608024
0.00256926789855
0.00248495203727
0.00239523664605
0.0023220747248
0.00228024793331
0.00228028924072
0.00232215793129
0.00239530171811
0.0024849802652
0.0025693104824
0.00261132904934
0.00260283654836
0.00246750865068
0.00209429978146
0.00132132709983
0.00118578646124
0.00196487489733
0.00234002376037
0.00246737568857
0.00244910101193
0.00235605930003
0.00224076963152
0.00215606864347
0.0021031906423
0.00207909612741
0.002079113779
0.00210321045627
0.00215603439266
0.0022406406553
0.0023559336085
0.00244905919725
0.00246745592165
0.00234020155304
0.0019650672251
0.00118592608669
0.000977014121939
0.00163734660689
0.00196490139947
0.00209412469949
0.00210856094499
0.00207023708315
0.00203204424515
0.00202478356379
0.00204198142129
0.00205948826307
0.00205947756509
0.002041924537
0.00202464090506
0.00203181741179
0.0020700051913
0.00210841569493
0.00209410513511
0.00196497101546
0.00163742089127
0.000977006892006
0.000684427217369
0.000976838345275
0.00118572105163
0.00132104209017
0.00141752096852
0.00150269568731
0.00159572086026
0.00169575380021
0.00178376846807
0.00183628114051
0.00183630153485
0.00178379626169
0.00169573249972
0.00159561442008
0.00150253176214
0.00141735966935
0.00132091386546
0.00118563230672
0.000976769768777
0.000684343416635
0.000850505082757
0.00128344132177
0.00160775908852
0.00184524875975
0.00203518962516
0.00220314174303
0.00236054627063
0.00250348077157
0.00261612229081
0.00268002333037
0.00268004561264
0.00261615361544
0.00250348760645
0.00236050447166
0.00220308489473
0.00203519128067
0.00184539472259
0.00160793948165
0.0012836497543
0.000850494029209
0.00128383559293
0.00221695085457
0.00269785588174
0.0029272968398
0.0030103453069
0.00302224531769
0.00302629705632
0.00305470387293
0.00309737056199
0.00312810065077
0.00312792248851
0.003096833132
0.00305383617868
0.00302521007434
0.00302121621909
0.00300964893714
0.00292701702979
0.00269787623759
0.00221707482282
0.00128372932967
0.00160810974021
0.00269790417462
0.00319668168599
0.00336349355512
0.00333788184827
0.00321655531883
0.00307375028661
0.00297056961729
0.00290775964915
0.00287919529036
0.00287891722641
0.00290697865574
0.00296935418083
0.00307220746524
0.00321513833588
0.00333692065395
0.0033630782226
0.00319673544358
0.00269817519056
0.0016082351332
0.00184566165212
0.00292739588002
0.00336348807923
0.00347266005656
0.00342939540447
0.00332599990303
0.00319082857718
0.0030610791202
0.00295933916425
0.00290244318326
0.0029022166702
0.00295869800445
0.00306008025663
0.00318959682011
0.00332483860597
0.00342863093129
0.00347218930886
0.0033635093774
0.0029277842062
0.00184606617601
0.0020355627674
0.00301056691242
0.00333793420432
0.00342942810806
0.00344860942177
0.00341450943649
0.00333793506396
0.00323687002698
0.00313964759655
0.00307877430791
0.00307866717581
0.00313928736675