/*--------------------------------*- C++ -*----------------------------------*\
| =========                 |                                                 |
| \\      /  F ield         | OpenFOAM: The Open Source CFD Toolbox           |
|  \\    /   O peration     | Version:  3.0.1                                 |
|   \\  /    A nd           | Web:      www.OpenFOAM.org                      |
|    \\/     M anipulation  |                                                 |
\*---------------------------------------------------------------------------*/
FoamFile
{
    version     2.0;
    format      ascii;
    class       volScalarField;
    location    "8.6";
    object      p;
}
// * * * * * * * * * * * * * * * * * * * * * * * * * * * * * * * * * * * * * //

dimensions      [1 -1 -2 0 0 0 0];

internalField   nonuniform List<scalar> 
7968
(
5117.14938293
5117.06938256
5116.86191577
5116.6365052
5116.43773286
5116.30365299
5116.23278315
5116.21144846
5116.21329191
5116.21778912
5116.2174419
5116.21226312
5116.20973409
5116.2303619
5116.30056867
5116.43417478
5116.63266796
5116.85788016
5117.06531541
5117.14535369
5117.06924782
5117.03618538
5116.8536742
5116.62468765
5116.41249247
5116.2612896
5116.17396891
5116.14365168
5116.14038078
5116.14187428
5116.14154708
5116.13942742
5116.1420419
5116.17166352
5116.25833276
5116.40906001
5116.62098044
5116.84977787
5117.03228367
5117.06540864
5116.86169746
5116.85356558
5116.68087725
5116.45047387
5116.23443667
5116.07352136
5115.97563685
5115.93718355
5115.92651903
5115.92220009
5115.92184822
5115.9256654
5115.93574788
5115.97354407
5116.07081356
5116.23124826
5116.44700034
5116.67720856
5116.84989295
5116.85808916
5116.63634652
5116.62456441
5116.45042553
5116.22099778
5116.0127664
5115.86372357
5115.7817259
5115.76174761
5115.77084418
5115.78043274
5115.78022083
5115.7702127
5115.76060749
5115.77991918
5115.86137549
5116.00993616
5116.21785495
5116.44705638
5116.62116992
5116.63297319
5116.4376515
5116.4124001
5116.23436257
5116.01271213
5115.82755811
5115.70986964
5115.66154966
5115.67327618
5115.70773212
5115.73209903
5115.73195998
5115.70727936
5115.67241335
5115.66014324
5115.70789413
5115.82508925
5116.00989714
5116.23128344
5116.40927289
5116.43451691
5116.30370407
5116.2613018
5116.07346648
5115.86362788
5115.70980331
5115.63253243
5115.62544881
5115.67381521
5115.73434426
5115.77367639
5115.7735905
5115.73403276
5115.67316589
5115.62432858
5115.6308704
5115.70766969
5115.86113057
5116.07067145
5116.2584324
5116.30082445
5116.23301264
5116.17412993
5115.97562201
5115.78156059
5115.66140418
5115.62535947
5115.65967626
5115.74357224
5115.83346302
5115.8886356
5115.88859026
5115.83327125
5115.74308018
5115.65876614
5115.62394419
5115.65954987
5115.77937582
5115.97309603
5116.17151949
5116.23040292
5116.21178183
5116.14390273
5115.93719103
5115.76156512
5115.67303336
5115.67359814
5115.74343276
5115.86278777
5115.98121856
5116.04900689
5116.04897574
5115.9810879
5115.8624084
5115.74262603
5115.67232306
5115.67135014
5115.75954685
5115.93487916
5116.14153991
5116.20944685
5116.21371315
5116.1406536
5115.92655973
5115.77063811
5115.70741484
5115.73400616
5115.83314119
5115.98102625
5116.11711582
5116.19162685
5116.19158163
5116.116954
5115.98063859
5115.83235443
5115.73275586
5115.70578137
5115.7686998
5115.92438409
5116.13849352
5116.21160305
5116.21828787
5116.14224047
5115.92253805
5115.7803314
5115.73183668
5115.77335062
5115.88831091
5116.04880475
5116.19158746
5116.26900507
5116.26893588
5116.19135297
5116.04831217
5115.88742612
5115.77202829
5115.73016028
5115.77839144
5115.9204135
5116.14021071
5116.21635383
5116.21798133
5116.14198701
5115.92228209
5115.78029287
5115.73191233
5115.7735013
5115.88850359
5116.04897254
5116.19167731
5116.26903125
5116.26894352
5116.19138602
5116.04838945
5115.88751861
5115.77209499
5115.73018098
5115.77834952
5115.92030129
5116.14006578
5116.21617876
5116.21279645
5116.1398992
5115.92602451
5115.770479
5115.7075329
5115.73431024
5115.83357564
5115.98143753
5116.1173326
5116.19167333
5116.19157998
5116.11702813
5115.98083983
5115.83258856
5115.73291759
5115.70582503
5115.76857248
5115.92406832
5116.13807388
5116.21109863
5116.21025983
5116.14256953
5115.93621008
5115.76109764
5115.67297082
5115.6738078
5115.74379813
5115.86316992
5115.98139482
5116.04896815
5116.04888494
5115.98112229
5115.86262569
5115.74289176
5115.67251702
5115.67137338
5115.75930779
5115.93436781
5116.14086501
5116.20864627
5116.23089214
5116.17222045
5115.97410666
5115.78058485
5115.66092452
5115.62523549
5115.65977599
5115.74367881
5115.83339463
5115.88836898
5115.88829729
5115.83315342
5115.74318967
5115.65897747
5115.62407631
5115.65946331
5115.7789183
5115.97236333
5116.17058192
5116.22933135
5116.3010719
5116.25887165
5116.07141753
5115.86212022
5115.70878878
5115.63191192
5115.62510499
5115.67354734
5115.73396392
5115.77315414
5115.77308578
5115.73373378
5115.67310612
5115.62438083
5115.6308433
5115.70741247
5115.86052174
5116.06969653
5116.25719812
5116.29946289
5116.43456328
5116.40951064
5116.23182885
5116.01068615
5115.82600876
5115.7087471
5115.66075456
5115.67264294
5115.70709036
5115.73142043
5115.73134925
5115.70686129
5115.67221829
5115.66004707
5115.70770395
5115.82464352
5116.00907365
5116.23004233
5116.40770287
5116.4327978
5116.6329105
5116.62127821
5116.44749814
5116.21854389
5116.0107624
5115.86214435
5115.78049998
5115.76076587
5115.76997509
5115.77967844
5115.77959991
5115.76973062
5115.76031738
5115.77970997
5115.86105319
5116.00933058
5116.21682518
5116.4455461
5116.61924621
5116.63090665
5116.8579682
5116.84994806
5116.67762791
5116.44766747
5116.23205184
5116.07154615
5115.97403787
5115.93588918
5115.92548815
5115.92165108
5115.92156172
5115.92521411
5115.93540183
5115.97324386
5116.07037868
5116.23050367
5116.44579358
5116.67546504
5116.84765984
5116.85568874
5117.06521727
5117.03233189
5116.85024171
5116.62171228
5116.40995099
5116.25915998
5116.17223604
5116.14226355
5116.13926412
5116.14102514
5116.14092413
5116.13895808
5116.14172617
5116.17137752
5116.2578861
5116.40826844
5116.61968082
5116.84788841
5117.02983018
5117.06271035
5117.14517687
5117.06541758
5116.85841506
5116.63344033
5116.43508675
5116.30142531
5116.2309571
5116.20998598
5116.21214457
5116.21691664
5116.21680505
5116.21180867
5116.20941548
5116.2300721
5116.30013008
5116.43339791
5116.63140021
5116.8560442
5117.06287884
5117.1426125
4627.36131579
4627.26119532
4627.05833723
4626.85896776
4626.70613108
4626.60315613
4626.5580317
4626.55501108
4626.56883138
4626.57774305
4626.57740758
4626.56782933
4626.55333354
4626.55561868
4626.60008625
4626.70259186
4626.85512412
4627.05430848
4627.25712913
4627.35728716
4627.2610956
4627.19263045
4627.00757398
4626.79938053
4626.63216347
4626.51279047
4626.45382355
4626.44512517
4626.45366266
4626.46058686
4626.46029732
4626.45276527
4626.44356351
4626.4515797
4626.50992376
4626.62883668
4626.79573321
4627.00374408
4627.18875714
4627.25724549
4627.0581612
4627.00749142
4626.80562391
4626.5811855
4626.40300963
4626.27465545
4626.20518298
4626.18381904
4626.19188392
4626.20081427
4626.20065513
4626.19119326
4626.18251209
4626.20327334
4626.27213221
4626.40003375
4626.57786116
4626.80208402
4627.00389758
4627.05457952
4626.85886422
4626.79926577
4626.58113842
4626.34906512
4626.17981695
4626.0707506
4626.02857403
4626.0332343
4626.05580624
4626.07172959
4626.07157299
4626.05528838
4626.03227256
4626.02710341
4626.06859224
4626.17724392
4626.34611196
4626.57792664
4626.79598437
4626.85551992
4626.70610413
4626.63208741
4626.40292503
4626.17975076
4626.03759692
4625.9709912
4625.96991805
4626.01477992
4626.06508223
4626.09500962
4626.09490414
4626.06473579
4626.01409961
4625.96875063
4625.96925606
4626.03541246
4626.17714663
4626.40003191
4626.62908978
4626.7030407
4626.6032618
4626.51280324
4626.27453721
4626.0705976
4625.97087704
4625.95101125
4625.99714878
4626.08478238
4626.16753709
4626.21146356
4626.21139647
4626.16731287
4626.0843245
4625.99624963
4625.94958085
4625.96898843
4626.06824141
4626.27192547
4626.51007156
4626.60047312
4626.55823695
4626.45395274
4626.20504532
4626.02836206
4625.96967728
4625.99699653
4626.09099087
4626.21820183
4626.322448
4626.37680426
4626.37675784
4626.32229036
4626.21789573
4626.09029297
4625.99579837
4625.96803021
4626.02626542
4626.20268657
4626.45147673
4626.55575625
4626.55516992
4626.44532116
4626.18362
4626.03286552
4626.01437616
4626.08444075
4626.21800555
4626.36639156
4626.48339312
4626.54623931
4626.54620322
4626.48325006
4626.36606931
4626.21739138
4626.08335887
4626.01286981
4626.03096717
4626.18144975
4626.44308403
4626.55303295
4626.5690835
4626.45372017
4626.19153866
4626.05534399
4626.06459291
4626.16712601
4626.32221117
4626.48330828
4626.61164932
4626.68159444
4626.68155437
4626.61149127
4626.48293156
4626.32149623
4626.1659886
4626.06307765
4626.05350144
4626.18952554
4626.45171601
4626.56714894
4626.57804175
4626.46062277
4626.20029608
4626.07129877
4626.09459537
4626.21114438
4626.37664224
4626.54619834
4626.68161713
4626.75528616
4626.75522807
4626.68140938
4626.54574667
4626.37582297
4626.209897
4626.09299088
4626.06941479
4626.1983163
4626.45872964
4626.57624241
4626.57778455
4626.46044046
4626.20032338
4626.07134549
4626.09471839
4626.21130873
4626.37680784
4626.54634515
4626.68172623
4626.75535252
4626.75527462
4626.68146331
4626.54581518
4626.37589697
4626.20996404
4626.09302942
4626.06939908
4626.19824147
4626.4586005
4626.57607045
4626.56825276
4626.45305973
4626.19125954
4626.05535816
4626.06487078
4626.16755485
4626.32266032
4626.48368513
4626.61191591
4626.68175136
4626.68166206
4626.6116244
4626.48311836
4626.32172266
4626.16619547
4626.06319016
4626.05345051
4626.18929107
4626.45133355
4626.56664353
4626.55374574
4626.44399064
4626.18282845
4626.03262981
4626.01457927
4626.08494254
4626.2186387
4626.36686429
4626.48368835
4626.54639675
4626.54630626
4626.48340031
4626.36633701
4626.2177931
4626.08370747
4626.01303461
4626.03086546
4626.18103852
4626.44245628
4626.55222383
4626.55604405
4626.45204565
4626.20373194
4626.02767138
4625.96949552
4625.99717025
4626.09136558
4626.21853955
4626.32259761
4626.37681616
4626.37673202
4626.32234564
4626.21813042
4626.09066912
4625.99611971
4625.96814261
4626.02609292
4626.20210362
4626.45059892
4626.55466733
4626.60048327
4626.51036835
4626.27264844
4626.06926805
4625.97013442
4625.95065602
4625.99704367
4626.08471032
4626.16736531
4626.21119401
4626.21112037
4626.16715131
4626.08437165
4625.9964591
4625.94974587
4625.96892999
4626.06780192
4626.27111166
4626.50892229
4626.59911483
4626.7029111
4626.62920037
4626.40053106
4626.17793977
4626.03631297
4625.97009387
4625.96931471
4626.01428257
4626.06456209
4626.09444079
4626.09437795
4626.06437648
4626.01397135
4625.9687834
4625.96924696
4626.03518338
4626.17654838
4626.39899363
4626.62765971
4626.70142888
4626.85536449
4626.79600149
4626.57830916
4626.34675633
4626.17797591
4626.06925815
4626.02745378
4626.0322972
4626.05492153
4626.07084005
4626.07077973
4626.05474215
4626.03198314
4626.02695916
4626.06838159
4626.17683188
4626.34533755
4626.57668117
4626.79429355
4626.85369091
4627.05448546
4627.00393339
4626.80246996
4626.57846649
4626.40071203
4626.27274842
4626.20364
4626.18252673
4626.19069458
4626.19945579
4626.19938782
4626.19049384
4626.18215608
4626.20304457
4626.27182762
4626.39947365
4626.57691307
4626.800661
4627.00200358
4627.05255049
4627.2572028
4627.18888292
4627.00423669
4626.79644833
4626.62962518
4626.51065332
4626.45208494
4626.44372913
4626.45247585
4626.45954977
4626.45946377
4626.45221853
4626.44327059
4626.4513608
4626.50958683
4626.62820893
4626.79469535
4627.00221958
4627.18673751
4627.25504162
4627.35736424
4627.25735723
4627.0549135
4626.85588146
4626.70342673
4626.6008586
4626.55614584
4626.55348516
4626.56760736
4626.57674648
4626.5766406
4626.56730519
4626.5530112
4626.55540164
4626.59976522
4626.70197866
4626.85411458
4627.05285227
4627.25514687
4627.3551206
4137.40443653
4137.3073628
4137.11724449
4136.95947497
4136.85019939
4136.79133499
4136.7746895
4136.77735386
4136.77452442
4136.76663735
4136.76633079
4136.77365833
4136.77588401
4136.77252494
4136.78847692
4136.84681393
4136.95576547
4137.11337063
4137.30342878
4137.40056904
4137.30720878
4137.26757919
4137.10687697
4136.95692448
4136.83673573
4136.7581243
4136.72341282
4136.71529605
4136.70116138
4136.68621595
4136.6859514
4136.70037242
4136.71388644
4136.72132337
4136.75540324
4136.83354244
4136.95343899
4137.10324657
4137.26386556
4137.30356478
4137.11708714
4137.10685348
4136.87137874
4136.66657138
4136.50656998
4136.39074105
4136.31357705
4136.26314175
4136.22984608
4136.21231376
4136.21211569
4136.22922044
4136.2620824
4136.31191617
4136.38849392
4136.50383377
4136.66348582
4136.86806823
4137.10344565
4137.11372076
4136.95934877
4136.95676444
4136.66650613
4136.43300373
4136.26905115
4136.16891963
4136.11568327
4136.10125416
4136.10525341
4136.11101682
4136.11087824
4136.10480069
4136.10040646
4136.11434175
4136.16708906
4136.2666909
4136.43027098
4136.66351495
4136.9537494
4136.95627332
4136.85010805
4136.83655765
4136.50637445
4136.26891403
4136.1270923
4136.06221568
4135.87886297
4135.59267349
4135.49575006
4135.52412041
4135.52394381
4135.49518003
4135.59277613
4135.87896955
4136.06063837
4136.12504475
4136.26651832
4136.50372319
4136.83384961
4136.84738256
4136.79126013
4136.75797983
4136.39037051
4136.16859391
4136.06203425
4135.53584437
4134.06133124
4132.61806978
4132.18373384
4132.23060683
4132.23003942
4132.18198992
4132.61917063
4134.06615653
4135.53767162
4136.06026346
4136.16652996
4136.38805744
4136.75557651
4136.78890204
4136.77450924
4136.72326496
4136.31295238
4136.11514613
4135.8785241
4134.06025067
4130.39315369
4127.53678374
4126.75633719
4126.8177219
4126.81660158
4126.75293269
4127.53806358
4130.4032302
4134.06919947
4135.87797726
4136.11324443
4136.31092338
4136.72117066
4136.77251714
4136.77699268
4136.71497577
4136.26218068
4136.10049721
4135.59164798
4132.61495924
4127.53428252
4123.93466012
4122.97599793
4123.04809293
4123.04663473
4122.97158318
4123.93577658
4127.54668163
4132.62901326
4135.59316485
4136.09869808
4136.26035455
4136.71317877
4136.77531745
4136.77407196
4136.70041899
4136.22887199
4136.10442239
4135.49424315
4132.17966657
4126.75262477
4122.97467368
4121.97867617
4122.05811494
4122.05657141
4121.97400477
4122.97567829
4126.76545375
4132.19482764
4135.49660144
4136.10257858
4136.22698355
4136.6988551
4136.77254164
4136.76620284
4136.68544259
4136.21141005
4136.11025482
4135.52274961
4132.22695726
4126.81459466
4123.04732982
4122.05860006
4122.14175065
4122.1401826
4122.05385788
4123.04813235
4126.82705758
4132.24174538
4135.52492661
4136.10829546
4136.209407
4136.68386037
4136.76468875
4136.76609668
4136.68541644
4136.21146197
4136.11034834
4135.52288343
4132.22699922
4126.81426205
4123.04661737
4122.05770021
4122.14079982
4122.13921078
4122.05289809
4123.04723113
4126.82637798
4132.24144128
4135.52490153
4136.10829196
4136.20935434
4136.68375848
4136.76453944
4136.77360961
4136.70014709
4136.22889482
4136.10459132
4135.49453515
4132.1796858
4126.75152451
4122.9724597
4121.97592225
4122.05522594
4122.05362751
4121.97109583
4122.97294923
4126.76339253
4132.19390291
4135.49651642
4136.10256034
4136.22682199
4136.69855497
4136.77212513
4136.77599693
4136.71397181
4136.2620276
4136.10051754
4135.59243664
4132.61691732
4127.53621722
4123.93585844
4122.97670627
4123.0487154
4123.04728631
4122.97239733
4123.93673686
4127.54780982
4132.63013509
4135.59376508
4136.09864191
4136.26008553
4136.71266727
4136.77465419
4136.77273842
4136.7215357
4136.31210086
4136.11470843
4135.87913882
4134.06420507
4130.40024886
4127.54473516
4126.76429079
4126.8257277
4126.8247909
4126.76146554
4127.54649323
4130.41030689
4134.07303787
4135.87885314
4136.11310459
4136.31048153
4136.72041016
4136.77160066
4136.78870578
4136.75560874
4136.38877189
4136.16759562
4136.06140589
4135.53756033
4134.06747046
4132.62702038
4132.19323733
4132.24020552
4132.23985487
4132.19217826
4132.62888541
4134.072779
4135.53984726
4136.06024967
4136.16626753
4136.38741621
4136.75455099
4136.78770318
4136.84695172
4136.83366154
4136.50409968
4136.26721161
4136.12584455
4136.06135559
4135.87896477
4135.594013
4135.49754016
4135.52590913
4135.52582524
4135.49728396
4135.5945446
4135.87962336
4136.0606352
4136.12485252
4136.26604091
4136.50287932
4136.83256966
4136.84594295
4136.95580598
4136.95345775
4136.66369533
4136.43071538
4136.26722967
4136.1675462
4136.11457732
4136.10032412
4136.10439437
4136.11018761
4136.11014641
4136.10427092
4136.10010681
4136.11420835
4136.1669672
4136.26636094
4136.42963435
4136.66249703
4136.95225626
4136.95466918
4137.11335423
4137.10322228
4136.86819642
4136.6638105
4136.50424059
4136.38884116
4136.31204678
4136.2618817
4136.2287669
4136.21133394
4136.21129609
4136.22866356
4136.26172706
4136.31173524
4136.38828602
4136.5034025
4136.66271388
4136.86689378
4137.10186316
4137.11200626
4137.30334704
4137.26382926
4137.10352464
4136.95396015
4136.83414566
4136.75596446
4136.72171253
4136.71399809
4136.70009172
4136.68532989
4136.68528338
4136.6999633
4136.71373321
4136.7212398
4136.75520699
4136.83307306
4136.95259645
4137.10198933
4137.2622347
4137.30177559
4137.40058216
4137.30355695
4137.11375779
4136.95631239
4136.84746651
4136.78910708
4136.77295827
4136.77605097
4136.77351484
4136.76582887
4136.76574691
4136.77330487
4136.77573917
4136.77248723
4136.78837268
4136.84642553
4136.95499006
4137.11219869
4137.3018883
4137.39892241
3647.35938942
3647.25934804
3647.09733473
3646.94128417
3646.81686025
3646.72083434
3646.64572235
3646.58029903
3646.51640872
3646.47512463
3646.47485959
3646.5156156
3646.57894951
3646.64381051
3646.71825337
3646.81371966
3646.93779179
3647.09370247
3647.25564493
3647.35582929
3647.25908189
3647.23610688
3647.10442082
3646.9633754
3646.82715475
3646.68613287
3646.53244898
3646.37132273
3646.23382731
3646.15055846
3646.15030255
3646.23311417
3646.37015778
3646.53075667
3646.68387494
3646.82439162
3646.96025997
3647.10112033
3647.23270007
3647.25582006
3647.09706035
3647.10436365
3646.85194664
3646.61687361
3646.41061335
3646.23279969
3646.08131878
3645.94958547
3645.85155393
3645.79874161
3645.79855176
3645.85095962
3645.94854661
3646.07982074
3646.23074541
3646.40807408
3646.61399969
3646.84889232
3647.10124301
3647.09409008
3646.9408407
3646.96306472
3646.6166533
3646.34734507
3646.14446077
3645.67867183
3644.56694854
3643.49161902
3643.13656583
3643.12270165
3643.12219203
3643.13499698
3643.49161554
3644.56962465
3645.67890921
3646.14218042
3646.34475791
3646.61392672
3646.96038422
3646.93829235
3646.81630239
3646.82649627
3646.41009571
3646.14418435
3645.23968327
3642.21061702
3637.37702062
3633.63502123
3632.51117332
3632.52920088
3632.5274762
3632.50595273
3633.63345263
3637.38542628
3642.22114011
3645.24207018
3646.14184398
3646.40770397
3646.82432363
3646.81414769
3646.72016268
3646.68502519
3646.23194166
3645.67817585
3642.20929009
3633.60888327
3622.82517969
3615.44305921
3613.34858231
3613.39058737
3613.38695165
3613.33762693
3615.43448832
3622.83102812
3633.62831766
3642.22483109
3645.67786214
3646.22982708
3646.68334751
3646.71836576
3646.64480329
3646.5308278
3646.08010138
3644.56539434
3637.37250818
3622.82256591
3606.39343403
3595.77263936
3592.86809056
3592.92879919
3592.92313956
3592.85106294
3595.75494954
3606.38989901
3622.83931237
3637.39995301
3644.57104679
3646.07813465
3646.52950525
3646.64329835
3646.57910904
3646.36924146
3645.94807004
3643.48795165
3633.62742223
3615.43802536
3595.7705101
3583.45079701
3580.1295252
3580.20469419
3580.19780088
3580.10880102
3583.42735026
3595.76050369
3615.4499176
3633.65847047
3643.49963037
3645.94604764
3646.36803027
3646.57780038
3646.51495073
3646.23172419
3645.8499908
3643.13209376
3632.50273798
3613.34311883
3592.86598887
3580.12975733
3576.71582882
3576.80187439
3576.7946545
3576.69411954
3580.10469044
3592.85399309
3613.3532614
3632.53375298
3643.14545891
3645.84775572
3646.23029048
3646.51368257
3646.47378328
3646.14859679
3645.79730341
3643.1186196
3632.52182125
3613.38672818
3592.92880608
3580.20724815
3576.80419355
3576.89610956
3576.88886834
3576.78242205
3580.18197783
3592.91636487
3613.39622314
3632.55210254
3643.13156545
3645.79482876
3646.14685366
3646.47233473
3646.47378676
3646.14874319
3645.79739596
3643.11866543
3632.52132459
3613.38488806
3592.92545422
3580.2028698
3576.79946383
3576.89133406
3576.88407279
3576.7776319
3580.17740084
3592.91259384
3613.39378629
3632.55093243
3643.13126071
3645.79477291
3646.14674612
3646.47219497
3646.51484181
3646.23197447
3645.85015231
3643.13210986
3632.50112914
3613.33748999
3592.85584091
3580.1165482
3576.7015853
3576.78751458
3576.7802405
3576.67971867
3580.09093163
3592.84265934
3613.34593842
3632.53023467
3643.14453711
3645.84757929
3646.22998738
3646.51327053
3646.57845843
3646.36931785
3645.94804936
3643.48902967
3633.62839113
3615.43395729
3595.75971448
3583.43536841
3580.11259474
3580.18771318
3580.18085868
3580.09200338
3583.41166824
3595.74865275
3615.44414111
3633.65739166
3643.49989504
3645.94574558
3646.36757529
3646.57715819
3646.64344169
3646.53015636
3646.07955619
3644.56756965
3637.37912926
3622.82701503
3606.39095139
3595.76503667
3592.85891684
3592.9197655
3592.91435856
3592.84267581
3595.7480111
3606.38734285
3622.84309366
3637.40562862
3644.57334482
3646.07770956
3646.52888355
3646.64244394
3646.71795902
3646.68337626
3646.23058794
3645.67837957
3642.21643522
3633.62142023
3622.83519234
3615.4490901
3613.35341716
3613.39576536
3613.39258047
3613.34384702
3615.44204711
3622.84195051
3633.64126449
3642.23228282
3645.67882569
3646.22919722
3646.68249502
3646.71720594
3646.8133079
3646.82385792
3646.40790183
3646.14242267
3645.24114109
3642.22039605
3637.39372038
3633.65331116
3632.52961352
3632.54813211
3632.54697991
3632.52614943
3633.65389514
3637.40374299
3642.2319929
3645.24457456
3646.14129999
3646.40685907
3646.82320858
3646.81270748
3646.93722625
3646.95965103
3646.61373667
3646.34491332
3646.14247412
3645.67834045
3644.57052549
3643.49871706
3643.14486935
3643.13126567
3643.13106266
3643.14425906
3643.49992733
3644.57418046
3645.67976917
3646.14175903
3646.34406917
3646.61289631
3646.95904195
3646.93663083
3647.09301762
3647.10047427
3646.84851018
3646.61390977
3646.40813601
3646.23080303
3646.07973754
3645.94826256
3645.85042996
3645.79776745
3645.79774465
3645.85036348
3645.9481673
3646.0795931
3646.23051097
3646.40764456
3646.61323025
3646.84771973
3647.09975405
3647.09230652
3647.25487524
3647.23210218
3647.10080372
3646.96021012
3646.82451309
3646.68405635
3646.53087143
3646.37010353
3646.23286387
3646.14978889
3646.14978388
3646.23286839
3646.37017394
3646.5309292
3646.68395556
3646.82413349
3646.95952573
3647.09989282
3647.23115864
3647.25400226
3647.35507346
3647.25525854
3647.09356786
3646.93798553
3646.81412766
3646.71874065
3646.64420435
3646.579227
3646.51561227
3646.47453835
3646.47450792
3646.51554066
3646.57912712
3646.64404625
3646.71841397
3646.81354191
3646.93714412
3647.09254999
3647.25420164
3647.35411019
3157.35291606
3157.23265905
3157.06634938
3156.84424666
3156.62457849
3156.39686925
3156.17766659
3155.97180768
3155.80236538
3155.70380137
3155.70350893
3155.80152106
3155.97040539
3156.175711
3156.39433714
3156.62151583
3156.84077812
3157.06285482
3157.22912463
3157.34959067
3157.23234436
3157.1870934
3157.01835929
3156.76080211
3156.4557546
3156.10976045
3155.73437199
3155.37251788
3155.07847481
3154.91420001
3154.91387884
3155.07760218
3155.37119137
3155.7325656
3156.1074677
3156.45300971
3156.75773965
3157.01517913
3157.18391111
3157.2293501
3157.06593029
3157.01805932
3156.73056511
3156.39839285
3156.07247012
3155.43886184
3154.13598882
3152.87420438
3152.38320209
3152.29863552
3152.29805342
3152.38144851
3152.87393115
3154.13837983
3155.43873729
3156.06981445
3156.39543425
3156.72754525
3157.01521448
3157.06324216
3156.84333034
3156.75996009
3156.39800951
3156.036214
3154.40565751
3149.81903304
3143.16108066
3138.14446183
3136.6288222
3136.59672123
3136.59438639
3136.62176738
3138.13965529
3143.16514412
3149.8283748
3154.41099035
3156.03353264
3156.39521648
3156.75762145
3156.84122775
3156.62346589
3156.45432817
3156.07166095
3154.40536081
3147.03940813
3132.2855709
3115.62795556
3104.84340495
3101.83488211
3101.84571076
3101.83987281
3101.8173089
3104.82357641
3115.61948227
3132.29464607
3147.05775296
3154.41031981
3156.06906538
3156.45246084
3156.62167947
3156.39546008
3156.10772283
3155.43773801
3149.81582932
3132.28355167
3104.87137657
3078.05803163
3061.95870731
3057.63583116
3057.68035525
3057.6700461
3057.60484074
3061.91776217
3078.02506989
3104.85999915
3132.30009032
3149.83678614
3155.43691613
3156.10618745
3156.39395181
3156.17586162
3155.73181337
3154.13381379
3143.15461406
3115.62459117
3078.05731978
3043.92121791
3024.06986706
3018.83520306
3018.90594169
3018.89169154
3018.79238181
3024.00969096
3043.86449246
3078.02336276
3115.62656144
3143.18394396
3154.13848852
3155.73031413
3156.17455009
3155.96968731
3155.3697122
3152.87009337
3138.13594148
3104.83905269
3061.95815852
3024.07079922
3002.33321804
2996.65626532
2996.74697674
2996.73050068
2996.60675183
3002.26190893
3023.9997926
3061.90995474
3104.8305391
3138.16434715
3152.88015731
3155.36788611
3155.96836738
3155.80016376
3155.07572929
3152.37844846
3136.61998451
3101.8311878
3057.63727136
3018.83924568
2996.65986477
2990.89959563
2991.00814617
2990.99112738
2990.84838659
2996.58564772
3018.76427406
3057.58484655
3101.81923689
3136.64696513
3152.38982676
3155.07338439
3155.79861927
3155.70176983
3154.91174587
3152.2943267
3136.58921543
3101.84443232
3057.68552897
3018.91481707
2996.75595905
2991.01365638
2991.13142833
2991.11442585
2990.96238533
2996.68164298
3018.83951509
3057.6324497
3101.83162533
3136.61526465
3152.30514094
3154.90886625
3155.6998941
3155.70182441
3154.91185764
3152.29427559
3136.58832885
3101.84114702
3057.67912238
3018.90558935
2996.74507961
2991.00230501
2991.12005518
2991.10303413
2990.95098151
2996.67060452
3018.82994252
3057.62548262
3101.82764639
3136.61363547
3152.30475884
3154.9086901
3155.69970459
3155.80019244
3155.07595922
3152.3782279
3136.61723121
3101.82123844
3057.61796567
3018.81149284
2996.62713797
2990.8654283
2990.97388318
2990.95681544
2990.81408806
2996.55247581
3018.73553162
3057.56394889
3101.80729548
3136.64206937
3152.38867796
3155.07288714
3155.79806877
3155.9693522
3155.36983081
3152.87084826
3138.13486052
3104.82759549
3061.93208894
3024.03122467
3002.28551581
2996.60621305
2996.69693101
2996.68049397
2996.55684318
3002.21401079
3023.95931238
3061.88228424
3104.81699491
3138.16088999
3152.88008459
3155.36720186
3155.96751939
3156.17479013
3155.73140665
3154.13562668
3143.15857115
3115.61957117
3078.03543283
3043.8828338
3024.0212368
3018.78364917
3018.85456712
3018.840563
3018.74159661
3023.96168951
3043.8260555
3078.00087019
3115.62052842
3143.186454
3154.14040255
3155.72946868
3156.17344363
3156.39339686
3156.10636291
3155.43742047
3149.82214323
3132.28916784
3104.86283163
3078.0338379
3061.92434527
3057.59865257
3057.64354467
3057.63366625
3057.56896662
3061.88481037
3078.0017146
3104.85187954
3132.3057961
3149.84312273
3155.43740147
3156.10515345
3156.39257668
3156.62039446
3156.45181276
3156.06920008
3154.40801936
3147.05050563
3132.29481031
3115.62698792
3104.83488472
3101.82429487
3101.83562626
3101.83037607
3101.8085239
3104.81721118
3115.62021856
3132.30528408
3147.06998165
3154.41448063
3156.06799042
3156.45118095
3156.62001552
3156.83941071
3156.7563757
3156.39466019
3156.03336271
3154.40814064
3149.83122306
3143.17793088
3138.16034173
3136.64424607
3136.612784
3136.61114756
3136.63933057
3138.15829132
3143.18457382
3149.84263373
3154.41502251
3156.03264607
3156.39394237
3156.75608286
3156.83927158
3157.06133367
3157.01369198
3156.72657867
3156.39488085
3156.06948563
3155.43759416
3154.13863131
3152.88022153
3152.39044436
3152.30621976
3152.30601772
3152.38984356
3152.88144739
3154.142373
3155.43924462
3156.0691414
3156.39445473
3156.72615731
3157.01348145
3157.06119016
3157.22742841
3157.1824471
3157.01418585
3156.75716845
3156.45273795
3156.10735747
3155.73248256
3155.3710147
3155.07725161
3154.91320134
3154.9131951
3155.07723841
3155.37112939
3155.73271796
3156.10760031
3156.45283818
3156.75704796
3157.01385177
3157.18211067
3157.2271988
3157.34789292
3157.22792676
3157.06206204
3156.84047434
3156.6215091
3156.39452187
3156.17597773
3155.97063859
3155.80158317
3155.70329622
3155.70329397
3155.8015886
3155.97069656
3156.17606663
3156.39454332
3156.62136889
3156.84014178
3157.06155897
3157.22744105
3157.34757149
2667.54456884
2667.3676622
2667.12377479
2666.73628461
2666.32429975
2665.89789581
2665.49671591
2665.15349146
2664.90236194
2664.76900449
2664.76856787
2664.90121961
2665.15159854
2665.49413931
2665.89474709
2666.3206966
2666.73243794
2667.11988564
2667.3640077
2667.54124791
2667.36718148
2667.22252989
2666.91599705
2666.41143218
2665.82631206
2665.19081817
2664.38566902
2663.51587171
2662.9699781
2662.75995021
2662.7593866
2662.96824517
2663.51464164
2664.38422603
2665.18772914
2665.82287396
2666.40777427
2666.91236189
2667.21927744
2667.36431236
2667.12273872
2666.91526943
2666.54377659
2666.02746389
2664.77027616
2661.3476333
2656.11811667
2652.03353247
2650.67929284
2650.58554868
2650.5836598
2650.67367416
2652.0287568
2656.11819597
2661.3522682
2664.77132304
2666.02384934
2666.54027853
2666.9124193
2667.12040358
2666.73480639
2666.41008079
2666.0270232
2664.1820331
2656.61849664
2641.63888811
2624.77252684
2613.82719075
2610.71805731
2610.68069884
2610.67483237
2610.70037505
2613.80572986
2624.75947801
2641.64064667
2656.62773377
2664.18568224
2666.02347073
2666.40751785
2666.73297322
2666.32272463
2665.82437213
2664.76967379
2656.61679596
2634.16486073
2601.52553157
2570.88261957
2552.77533105
2547.91783864
2547.94015152
2547.92791798
2547.88101156
2552.72347181
2570.83364741
2601.49577501
2634.16456279
2656.632044