/*--------------------------------*- C++ -*----------------------------------*\
| =========                 |                                                 |
| \\      /  F ield         | OpenFOAM: The Open Source CFD Toolbox           |
|  \\    /   O peration     | Version:  3.0.1                                 |
|   \\  /    A nd           | Web:      www.OpenFOAM.org                      |
|    \\/     M anipulation  |                                                 |
\*---------------------------------------------------------------------------*/
FoamFile
{
    version     2.0;
    format      ascii;
    class       volScalarField;
    location    "8.6";
    object      rAU;
}
// * * * * * * * * * * * * * * * * * * * * * * * * * * * * * * * * * * * * * //

dimensions      [-1 3 1 0 0 0 0];

internalField   nonuniform List<scalar> 
7968
(
1.05288885945e-05
1.0524018477e-05
1.05272473756e-05
1.05326481318e-05
1.05040593373e-05
1.04886981629e-05
1.05094331691e-05
1.05179490153e-05
1.05217014315e-05
1.05230697753e-05
1.05230719956e-05
1.052171047e-05
1.05179718698e-05
1.05094751841e-05
1.04887425743e-05
1.05040731401e-05
1.05326439009e-05
1.05272484833e-05
1.05240193442e-05
1.05288872362e-05
1.05240243786e-05
1.05123315692e-05
1.05114864254e-05
1.05153328356e-05
1.04951172519e-05
1.04813297426e-05
1.04952123607e-05
1.05041977648e-05
1.05088924144e-05
1.05107026786e-05
1.05107065071e-05
1.05089059113e-05
1.05042265233e-05
1.04952501567e-05
1.04813030259e-05
1.04950641293e-05
1.05153278305e-05
1.05114891223e-05
1.05123320119e-05
1.05240208746e-05
1.05272517007e-05
1.05114848568e-05
1.05084341065e-05
1.05111255027e-05
1.04987489172e-05
1.04863806915e-05
1.04935893974e-05
1.05033482558e-05
1.05097748102e-05
1.05127071242e-05
1.05127133084e-05
1.0509794176e-05
1.05033836001e-05
1.04936279315e-05
1.04863293495e-05
1.04986781456e-05
1.05111259096e-05
1.05084373833e-05
1.05114830059e-05
1.05272449479e-05
1.05326481554e-05
1.05153266682e-05
1.05111225471e-05
1.05122367161e-05
1.05027775839e-05
1.04907735027e-05
1.04941900191e-05
1.05037430195e-05
1.05109162374e-05
1.0514349667e-05
1.05143560185e-05
1.05109361615e-05
1.05037762587e-05
1.04942308578e-05
1.04907189166e-05
1.05027127214e-05
1.05122349884e-05
1.0511124518e-05
1.051532044e-05
1.05326397523e-05
1.05040693284e-05
1.0495086446e-05
1.04987220734e-05
1.05027598035e-05
1.0493946279e-05
1.04755960061e-05
1.04742056508e-05
1.04797318595e-05
1.04892321282e-05
1.04924370351e-05
1.04924455556e-05
1.04892574999e-05
1.0479758636e-05
1.04742318715e-05
1.04755254815e-05
1.0493849542e-05
1.05027551047e-05
1.04987207805e-05
1.04950934398e-05
1.05040626264e-05
1.04887270586e-05
1.04813174012e-05
1.04863725393e-05
1.04907731667e-05
1.04756092734e-05
1.04561905385e-05
1.04559160298e-05
1.04621562221e-05
1.04673067474e-05
1.04731234541e-05
1.04731416332e-05
1.04673845437e-05
1.0462196729e-05
1.0455953501e-05
1.04561427568e-05
1.0475525972e-05
1.04907660852e-05
1.04863742453e-05
1.04813298951e-05
1.04887201388e-05
1.05094616193e-05
1.04952362853e-05
1.04936212947e-05
1.0494224499e-05
1.04742377592e-05
1.04559276042e-05
1.04567773792e-05
1.04630490345e-05
1.04756442141e-05
1.0480506355e-05
1.04805208876e-05
1.04757034084e-05
1.04630863486e-05
1.045681712e-05
1.04559046494e-05
1.04741838284e-05
1.049422685e-05
1.04936290034e-05
1.04952378762e-05
1.05094540802e-05
1.05179622457e-05
1.05042104773e-05
1.05033729625e-05
1.0503772722e-05
1.04797511142e-05
1.04621535643e-05
1.04630433956e-05
1.04778301615e-05
1.04877606287e-05
1.0491361669e-05
1.0491371692e-05
1.04877938355e-05
1.04779114106e-05
1.04630765873e-05
1.04621392082e-05
1.04797061606e-05
1.05037707567e-05
1.05033827444e-05
1.05042137211e-05
1.0517958513e-05
1.05217038789e-05
1.05088942355e-05
1.05097879234e-05
1.05109304651e-05
1.04892231636e-05
1.0467192963e-05
1.04755692013e-05
1.04877355995e-05
1.04956406998e-05
1.04987990485e-05
1.04988055382e-05
1.04956627028e-05
1.04877752346e-05
1.04756266234e-05
1.04672219579e-05
1.04891986366e-05
1.05109300831e-05
1.05097980873e-05
1.050889914e-05
1.05217037809e-05
1.05230689827e-05
1.05107001653e-05
1.05127138225e-05
1.05143550267e-05
1.04924139659e-05
1.04730374947e-05
1.04804451424e-05
1.04913289986e-05
1.04987872906e-05
1.05018778157e-05
1.05018819907e-05
1.04988013029e-05
1.04913539105e-05
1.04804697096e-05
1.0473023936e-05
1.04923823796e-05
1.05143511955e-05
1.05127219401e-05
1.05107041168e-05
1.05230699023e-05
1.05230671209e-05
1.0510700601e-05
1.05127168388e-05
1.05143595594e-05
1.04924269386e-05
1.04730747347e-05
1.04804746986e-05
1.0491347495e-05
1.04987960161e-05
1.05018813774e-05
1.05018844656e-05
1.0498806122e-05
1.04913644479e-05
1.04804862614e-05
1.04730430582e-05
1.04923871757e-05
1.05143510042e-05
1.05127209963e-05
1.05107004487e-05
1.05230661651e-05
1.05216955964e-05
1.05088927763e-05
1.05097941324e-05
1.05109384922e-05
1.04892506968e-05
1.04673377724e-05
1.04756786928e-05
1.04877909199e-05
1.0495669499e-05
1.04988134898e-05
1.04988166526e-05
1.04956799773e-05
1.04878091196e-05
1.04756930716e-05
1.04673098785e-05
1.04892168077e-05
1.05109326363e-05
1.05097984031e-05
1.05088917596e-05
1.05216949513e-05
1.05179473363e-05
1.05042089388e-05
1.0503382928e-05
1.05037793169e-05
1.04797559327e-05
1.04621989765e-05
1.0463102206e-05
1.04779428454e-05
1.04878069251e-05
1.04913846698e-05
1.04913894507e-05
1.04878232194e-05
1.04779827363e-05
1.0463123411e-05
1.04621806943e-05
1.04797211705e-05
1.0503779266e-05
1.05033917012e-05
1.05042116651e-05
1.05179505583e-05
1.05094458383e-05
1.04952397712e-05
1.04936342408e-05
1.04942414033e-05
1.04742358421e-05
1.04559636864e-05
1.04568421866e-05
1.04631053565e-05
1.04756774506e-05
1.04805141022e-05
1.04805218006e-05
1.04757138862e-05
1.04631298953e-05
1.04568716513e-05
1.0455953155e-05
1.04742082066e-05
1.04942502697e-05
1.04936506712e-05
1.04952505361e-05
1.05094562987e-05
1.04887186418e-05
1.04813271845e-05
1.04863564261e-05
1.04907402433e-05
1.04755322659e-05
1.04561453513e-05
1.04559184109e-05
1.04621560405e-05
1.04672486983e-05
1.04730575279e-05
1.04730682597e-05
1.0467308903e-05
1.04621880632e-05
1.04559594333e-05
1.04561444514e-05
1.04755120939e-05
1.0490764533e-05
1.04863874264e-05
1.04813441333e-05
1.04887401646e-05
1.05040670434e-05
1.0495083957e-05
1.04986933116e-05
1.0502722068e-05
1.04938521608e-05
1.04755195999e-05
1.0474173999e-05
1.04796956503e-05
1.04891653408e-05
1.04923572376e-05
1.0492363528e-05
1.04891924796e-05
1.04797211158e-05
1.04742095741e-05
1.04755062986e-05
1.04938178049e-05
1.05027406438e-05
1.04987131698e-05
1.04950931377e-05
1.05040826044e-05
1.05326443904e-05
1.05153200221e-05
1.05111179269e-05
1.05122318736e-05
1.05027609167e-05
1.04907678204e-05
1.04942116928e-05
1.05037490716e-05
1.05108945119e-05
1.05143115406e-05
1.05143151522e-05
1.05109093678e-05
1.05037726365e-05
1.04942424398e-05
1.04907389193e-05
1.05027173223e-05
1.0512227627e-05
1.05111157298e-05
1.05153185931e-05
1.05326448194e-05
1.05272485549e-05
1.05114854963e-05
1.05084318747e-05
1.05111200239e-05
1.04987385512e-05
1.04863904025e-05
1.0493619082e-05
1.0503368509e-05
1.05097815187e-05
1.05127015057e-05
1.05127035494e-05
1.05097913899e-05
1.05033918096e-05
1.04936482156e-05
1.04863587513e-05
1.04986883369e-05
1.05111144039e-05
1.05084323026e-05
1.05114857709e-05
1.0527248749e-05
1.05240285582e-05
1.05123317653e-05
1.05114798652e-05
1.05153174491e-05
1.04951254485e-05
1.04813625581e-05
1.04952357515e-05
1.0504209051e-05
1.050889372e-05
1.05106954185e-05
1.0510696411e-05
1.05089016693e-05
1.05042323516e-05
1.04952696564e-05
1.04813357873e-05
1.04950784911e-05
1.05153168039e-05
1.05114844335e-05
1.05123353434e-05
1.05240317234e-05
1.05288998895e-05
1.05240212368e-05
1.05272374391e-05
1.0532632244e-05
1.05040769145e-05
1.04887336779e-05
1.05094503216e-05
1.05179569914e-05
1.05217047269e-05
1.05230693741e-05
1.05230710716e-05
1.05217142864e-05
1.05179833287e-05
1.0509499705e-05
1.0488794153e-05
1.05041073898e-05
1.05326349484e-05
1.05272419389e-05
1.05240249733e-05
1.05289024238e-05
1.05189181793e-05
1.05127634257e-05
1.05146609915e-05
1.05164596343e-05
1.05130544197e-05
1.0509544828e-05
1.05099027506e-05
1.0512962095e-05
1.05155482607e-05
1.0516482736e-05
1.05164841939e-05
1.05155543433e-05
1.05129723392e-05
1.05099091331e-05
1.05095402496e-05
1.05130388547e-05
1.05164444545e-05
1.05146554123e-05
1.05127582589e-05
1.05189187985e-05
1.05127617091e-05
1.04789821303e-05
1.04589648591e-05
1.04540690256e-05
1.0451953351e-05
1.04521394763e-05
1.04562952968e-05
1.04623075802e-05
1.04671965868e-05
1.0469740361e-05
1.04697444152e-05
1.04672082157e-05
1.0462328062e-05
1.04563149692e-05
1.04521472385e-05
1.04519487007e-05
1.04540643696e-05
1.04589616693e-05
1.04789752097e-05
1.0512759266e-05
1.05146669542e-05
1.04589686813e-05
1.04211101693e-05
1.04065132883e-05
1.04019405718e-05
1.04040029362e-05
1.0410317181e-05
1.04190012444e-05
1.04262903915e-05
1.04303796844e-05
1.04303873512e-05
1.04263104827e-05
1.04190359471e-05
1.04103539588e-05
1.04040359774e-05
1.04019621294e-05
1.0406519355e-05
1.0421107579e-05
1.0458961046e-05
1.0514655612e-05
1.05164535925e-05
1.04540786356e-05
1.0406522883e-05
1.03763467469e-05
1.03770279232e-05
1.0374691569e-05
1.03776590206e-05
1.03872547957e-05
1.03965685589e-05
1.04021754587e-05
1.04021886538e-05
1.03966019098e-05
1.03872985312e-05
1.03776957658e-05
1.03747086345e-05
1.03770580816e-05
1.03763299312e-05
1.04065160654e-05
1.04540677756e-05
1.05164459485e-05
1.05130471972e-05
1.04519685653e-05
1.04019587492e-05
1.03770353527e-05
1.03604959055e-05
1.03495625819e-05
1.03489393825e-05
1.03546565422e-05
1.0368516583e-05
1.03752918964e-05
1.03753103425e-05
1.03685653057e-05
1.03547049177e-05
1.03489786633e-05
1.03495820972e-05
1.03604927582e-05
1.03770558238e-05
1.04019575765e-05
1.04519615004e-05
1.05130452861e-05
1.05095467447e-05
1.04521606877e-05
1.04040293593e-05
1.03747139052e-05
1.03495695964e-05
1.03375155077e-05
1.03363999733e-05
1.03415236738e-05
1.03496510814e-05
1.03592553751e-05
1.03592845903e-05
1.03497493392e-05
1.03415785531e-05
1.03364508068e-05
1.03375507926e-05
1.03495749388e-05
1.03747154098e-05
1.0404036084e-05
1.04521597678e-05
1.05095461378e-05
1.05099133333e-05
1.04563188696e-05
1.04103480347e-05
1.0377685033e-05
1.0348942016e-05
1.03363922624e-05
1.03350262843e-05
1.03395375367e-05
1.03540219738e-05
1.03621509591e-05
1.03621771068e-05
1.03541058835e-05
1.03395897903e-05
1.03350782921e-05
1.03364283984e-05
1.03489518773e-05
1.03776892613e-05
1.04103549767e-05
1.04563214921e-05
1.05099116969e-05
1.05129754895e-05
1.04623254326e-05
1.041902853e-05
1.03872737351e-05
1.03546463806e-05
1.03415005652e-05
1.0339522409e-05
1.03536822817e-05
1.03670261232e-05
1.03733179217e-05
1.03733371849e-05
1.03670828593e-05
1.03537842377e-05
1.03395671435e-05
1.03415333078e-05
1.03546577677e-05
1.03872787483e-05
1.04190355009e-05
1.04623330235e-05
1.05129766871e-05
1.05155524863e-05
1.04672077589e-05
1.04263125064e-05
1.03965714129e-05
1.03684768682e-05
1.03495095396e-05
1.03539169319e-05
1.03669844105e-05
1.03776929012e-05
1.03834194643e-05
1.03834334792e-05
1.03777311293e-05
1.03670423314e-05
1.03539882544e-05
1.03495738407e-05
1.03684926817e-05
1.03965729097e-05
1.04263149329e-05
1.04672161586e-05
1.05155559838e-05
1.05164790498e-05
1.04697469785e-05
1.04303971879e-05
1.04021686591e-05
1.03752419508e-05
1.03591291351e-05
1.03620451183e-05
1.03732628772e-05
1.03833984618e-05
1.03890667274e-05
1.03890757593e-05
1.0383421849e-05
1.0373292834e-05
1.03620680815e-05
1.03591346795e-05
1.03752353058e-05
1.04021600861e-05
1.04303940397e-05
1.04697511302e-05
1.05164793356e-05
1.05164844478e-05
1.04697523687e-05
1.04304009047e-05
1.04021803967e-05
1.03752723196e-05
1.03591892e-05
1.03620947228e-05
1.03732912118e-05
1.0383410441e-05
1.03890672863e-05
1.03890723034e-05
1.03834221989e-05
1.03733015357e-05
1.03620878617e-05
1.03591594298e-05
1.03752441142e-05
1.04021590411e-05
1.04303902114e-05
1.04697490673e-05
1.05164804752e-05
1.05155610559e-05
1.04672157988e-05
1.04263190314e-05
1.03965960474e-05
1.03685486904e-05
1.03496951323e-05
1.03540635297e-05
1.03670625006e-05
1.03777224375e-05
1.03834189756e-05
1.03834223935e-05
1.03777295107e-05
1.03670674347e-05
1.03540548059e-05
1.03496671862e-05
1.03685195614e-05
1.03965704868e-05
1.04263046503e-05
1.0467210851e-05
1.05155592757e-05
1.05129773201e-05
1.04623303521e-05
1.04190379318e-05
1.03872975925e-05
1.03547023709e-05
1.03415814698e-05
1.03395972408e-05
1.03538036324e-05
1.03670599e-05
1.03733049346e-05
1.03733087095e-05
1.036707156e-05
1.03538282039e-05
1.03395908958e-05
1.03415639382e-05
1.03546763099e-05
1.03872790134e-05
1.04190252637e-05
1.0462326639e-05
1.05129790175e-05
1.05099067382e-05
1.04563143444e-05
1.04103529585e-05
1.03776988427e-05
1.03489834413e-05
1.03364640079e-05
1.03350957875e-05
1.03395827591e-05
1.03540242509e-05
1.0362089185e-05
1.03620965966e-05
1.03540551629e-05
1.0339586033e-05
1.0335095044e-05
1.03364547135e-05
1.03489653768e-05
1.03776877919e-05
1.04103479481e-05
1.04563140514e-05
1.05099070389e-05
1.05095325526e-05
1.04521471733e-05
1.04040332638e-05
1.03747116497e-05
1.03495859235e-05
1.03375616311e-05
1.03364423416e-05
1.03415442115e-05
1.03495682678e-05
1.03591254754e-05
1.03591364053e-05
1.03496241714e-05
1.03415501235e-05
1.03364460366e-05
1.0337559456e-05
1.03495726581e-05
1.03747042477e-05
1.04040342169e-05
1.04521497061e-05
1.05095315486e-05
1.05130353263e-05
1.045195106e-05
1.04019580523e-05
1.03770550669e-05
1.03604876725e-05
1.03495671916e-05
1.03489414151e-05
1.03546409646e-05
1.03684356577e-05
1.03751771789e-05
1.0375181354e-05
1.03684553417e-05
1.03546443406e-05
1.03489409956e-05
1.03495586372e-05
1.03604682096e-05
1.03770545561e-05
1.04019572115e-05
1.04519543801e-05
1.05130374311e-05
1.05164530474e-05
1.04540740768e-05
1.0406524597e-05
1.0376344148e-05
1.03770532095e-05
1.03746911665e-05
1.03776482418e-05
1.03872212976e-05
1.03965030227e-05
1.04020788716e-05
1.04020774139e-05
1.03965003388e-05
1.03872215475e-05
1.03776441242e-05
1.03746771089e-05
1.03770482172e-05
1.03763559934e-05
1.0406519032e-05
1.04540760301e-05
1.0516456995e-05
1.05146860389e-05
1.04589840697e-05
1.04211254974e-05
1.04065219228e-05
1.04019554297e-05
1.04040181188e-05
1.04103167529e-05
1.04189776367e-05
1.04262412568e-05
1.04303105986e-05
1.04303076307e-05
1.04262345452e-05
1.04189733137e-05
1.04103127025e-05
1.04040120644e-05
1.04019467411e-05
1.04065124666e-05
1.04211223949e-05
1.04589874844e-05
1.05146915704e-05
1.05128076286e-05
1.04790062525e-05
1.04589809513e-05
1.04540676171e-05
1.045195179e-05
1.04521467392e-05
1.04563013887e-05
1.04623027233e-05
1.04671769823e-05
1.04697070635e-05
1.04697053972e-05
1.04671740287e-05
1.04623022908e-05
1.04562989619e-05
1.04521369501e-05
1.04519403975e-05
1.04540620854e-05
1.0458979871e-05
1.04790119652e-05
1.05128142232e-05
1.05189875048e-05
1.05128162082e-05
1.05146749465e-05
1.0516444835e-05
1.0513045405e-05
1.05095502456e-05
1.05099138873e-05
1.051297293e-05
1.05155548207e-05
1.05164830248e-05
1.05164836597e-05
1.0515559036e-05
1.0512981229e-05
1.05099185521e-05
1.0509545495e-05
1.05130361813e-05
1.05164384263e-05
1.05146738236e-05
1.0512817293e-05
1.05189902705e-05
1.04869025206e-05
1.04748444246e-05
1.04814777941e-05
1.04873570942e-05
1.04917182096e-05
1.04939112031e-05
1.04914697894e-05
1.04783966476e-05
1.04763974884e-05
1.0475220023e-05
1.04752120734e-05
1.04763871907e-05
1.04784394256e-05
1.04915156831e-05
1.04939552146e-05
1.04917546313e-05
1.04873886532e-05
1.04814830371e-05
1.04748669055e-05
1.04869195953e-05
1.04748579146e-05
1.04177387642e-05
1.04014072745e-05
1.04028906518e-05
1.04104556134e-05
1.04174384996e-05
1.04215470462e-05
1.04150757878e-05
1.04179261305e-05
1.04196174303e-05
1.04196205605e-05
1.04179376737e-05
1.04151467785e-05
1.042161999e-05
1.04175023508e-05
1.04105094478e-05
1.04029438026e-05
1.04014269422e-05
1.04177596095e-05
1.04748643483e-05
1.04814741546e-05
1.0401401391e-05
1.0369419233e-05
1.03533934283e-05
1.03475486993e-05
1.03558586217e-05
1.03720231636e-05
1.03853306593e-05
1.03936385407e-05
1.0398656973e-05
1.0398666996e-05
1.03936639428e-05
1.03853761065e-05
1.03721066267e-05
1.03559480332e-05
1.03476103332e-05
1.03534054824e-05
1.03694376086e-05
1.04014236479e-05
1.04814782771e-05
1.04874267447e-05
1.04029829599e-05
1.03534019898e-05
1.03119808063e-05
1.03202724738e-05
1.03162879029e-05
1.03206443854e-05
1.03298131479e-05
1.03392200389e-05
1.03452617051e-05
1.03452748715e-05
1.03392512235e-05
1.03298501796e-05
1.03206788133e-05
1.03163193875e-05
1.03203194337e-05
1.03120093477e-05
1.03534015434e-05
1.04029225866e-05
1.04873678158e-05
1.0491731757e-05
1.04104929546e-05
1.03475563982e-05
1.0320283587e-05
1.02897466222e-05
1.0275004857e-05
1.02744082519e-05
1.02813711761e-05
1.02906243988e-05
1.02970326562e-05
1.02970507562e-05
1.02906687377e-05
1.02814245623e-05
1.02744582451e-05
1.02750444398e-05
1.02897698821e-05
1.03203229423e-05
1.03475391824e-05
1.04104953658e-05
1.04917385792e-05
1.04938835177e-05
1.04174278998e-05
1.03558929653e-05
1.03163144648e-05
1.02750127533e-05
1.02548761834e-05
1.02512218854e-05
1.02566335778e-05
1.0264731421e-05
1.02708724851e-05
1.02708944827e-05
1.02647853926e-05
1.02566978524e-05
1.02512802312e-05
1.02549231557e-05
1.02750409904e-05
1.03163298413e-05
1.03559346452e-05
1.04174744343e-05
1.04939194185e-05
1.04913447086e-05
1.04214385375e-05
1.03720402661e-05
1.03206702586e-05
1.02744097557e-05
1.02512119118e-05
1.02461733763e-05
1.02509325072e-05
1.0259129789e-05
1.02652487254e-05
1.02652721758e-05
1.0259190207e-05
1.02509981722e-05
1.0246229431e-05
1.02512563335e-05
1.02744394954e-05
1.03206839988e-05
1.03720910261e-05
1.04215339649e-05
1.04914188471e-05
1.04780637864e-05
1.04147351112e-05
1.03853174555e-05
1.03298284197e-05
1.02813575831e-05
1.02566020556e-05
1.02509092669e-05
1.02564026459e-05
1.02652391415e-05
1.02714085519e-05
1.02714300542e-05
1.02652964176e-05
1.02564702069e-05
1.02509572029e-05
1.02566384264e-05
1.02813843093e-05
1.03298430613e-05
1.03853599594e-05
1.04149015626e-05
1.04781939474e-05
1.04763418565e-05
1.04178687916e-05
1.03936271428e-05
1.03392134877e-05
1.02905903404e-05
1.02646762482e-05
1.02590718642e-05
1.02652054246e-05
1.02742867233e-05
1.02805876429e-05
1.02806050036e-05
1.02743328201e-05
1.02652592055e-05
1.02591102543e-05
1.02646996149e-05
1.02906102459e-05
1.03392290204e-05
1.03936587612e-05
1.04179062364e-05
1.04763492316e-05
1.04751702658e-05
1.04195715239e-05
1.03986407991e-05
1.03452436127e-05
1.02969873218e-05
1.02708013193e-05
1.0265175102e-05
1.02713557511e-05
1.02805626706e-05
1.02869757291e-05
1.02869871264e-05
1.02805927297e-05
1.02713864598e-05
1.02651879099e-05
1.02708024621e-05
1.02969919828e-05
1.03452511836e-05
1.0398660912e-05
1.04195874275e-05
1.04751672071e-05
1.04751809179e-05
1.04195952216e-05
1.0398654894e-05
1.03452522349e-05
1.02970078301e-05
1.02708347845e-05
1.02652105125e-05
1.02713815182e-05
1.02805729904e-05
1.02869728922e-05
1.02869788282e-05
1.02805881953e-05
1.02713893485e-05
1.0265196181e-05
1.02708103016e-05
1.02969942912e-05
1.0345248549e-05
1.0398660157e-05
1.04195898916e-05
1.04751662515e-05
1.04763756959e-05
1.04179330778e-05
1.03936583017e-05
1.03392304124e-05
1.02906373426e-05
1.0264752063e-05
1.02591563643e-05
1.02652673895e-05
1.0274309802e-05
1.02805767619e-05
1.02805798591e-05
1.02743162708e-05
1.02652628461e-05
1.02591283704e-05
1.02647161072e-05
1.02906154603e-05
1.03392210756e-05
1.03936555095e-05
1.04179136165e-05
1.04763515605e-05
1.04783673451e-05
1.04150811565e-05
1.03853669017e-05
1.03298350873e-05
1.02814059983e-05
1.02566872421e-05
1.02509933053e-05
1.02564651889e-05
1.02652504757e-05
1.02713734993e-05
1.02713750569e-05
1.02652544478e-05
1.02564580662e-05
1.02509631989e-05
1.02566515414e-05
1.02813867869e-05
1.03298312624e-05
1.03853589556e-05
1.0414920818e-05
1.04782071253e-05
1.0491503199e-05
1.04216167411e-05
1.03721030134e-05
1.03206675921e-05
1.02744465074e-05
1.02512805445e-05
1.02462371878e-05
1.02509603622e-05
1.02591047436e-05
1.02651708231e-05
1.02651721671e-05
1.02591082e-05
1.02509516167e-05
1.02462137908e-05
1.02512565277e-05
1.02744347885e-05
1.03206692635e-05
1.03721125219e-05
1.04215667e-05
1.04914410482e-05
1.04939595666e-05
1.04175174342e-05
1.03559514023e-05
1.0316310967e-05
1.02750312528e-05
1.02549147398e-05
1.02512516876e-05
1.02566263864e-05
1.02646698909e-05
1.02707576827e-05
1.02707579368e-05
1.02646693458e-05
1.02566184631e-05
1.02512370237e-05
1.02549023866e-05
1.02750242912e-05
1.03163157711e-05
1.03559703162e-05
1.04175130242e-05
1.04939432009e-05
1.04917585059e-05
1.04105289917e-05
1.03476013157e-05
1.03203132983e-05
1.02897504715e-05
1.02750108108e-05
1.02743994912e-05
1.02813286667e-05
1.02905323247e-05
1.0296897373e-05
1.02968950592e-05
1.0290525921e-05
1.02813161946e-05
1.0274384308e-05
1.02749968516e-05
1.02897381365e-05
1.03203179818e-05
1.03475882612e-05
1.04105488633e-05
1.0491767258e-05
1.04874113993e-05
1.04029817722e-05
1.03534244004e-05
1.03120256253e-05
1.03203085072e-05
1.03162841716e-05
1.03206125306e-05
1.03297469708e-05
1.03391124084e-05
1.03451181819e-05
1.03451130297e-05
1.03390981127e-05
1.03297265403e-05
1.03205897913e-05
1.03162638812e-05
1.03203038803e-05
1.03120565361e-05
1.0353418315e-05
1.04030199269e-05
1.048744431e-05
1.04815057521e-05
1.04014516003e-05
1.03694602331e-05
1.03534140997e-05
1.03475943455e-05
1.03559074001e-05
1.03720415593e-05
1.03852911811e-05
1.03935622926e-05
1.03985517178e-05
1.03985467761e-05
1.0393549377e-05
1.03852807333e-05
1.03720474668e-05
1.03559427141e-05
1.034761416e-05
1.03534171759e-05
1.03694637253e-05
1.04014634235e-05
1.04815192884e-05
1.04748785406e-05
1.04177716312e-05
1.04014498631e-05
1.04028911144e-05
1.04104807912e-05
1.04174735079e-05
1.04215666017e-05
1.04150274341e-05
1.04179099772e-05
1.0419588015e-05
1.04195869828e-05
1.0417908178e-05
1.04150771451e-05
1.04216228892e-05
1.04175323406e-05
1.04105433004e-05
1.04029728865e-05
1.04014639988e-05
1.04177918766e-05
1.04748985621e-05
1.04869209228e-05
1.04748594264e-05
1.04814950427e-05
1.04873297927e-05
1.04917264974e-05
1.04939325539e-05
1.04914817456e-05
1.04783553981e-05
1.04764022179e-05
1.04752225234e-05
1.04752210917e-05
1.04764025075e-05
1.04784049563e-05
1.04915358119e-05
1.04939900736e-05
1.04917855856e-05
1.04874110114e-05
1.04815132966e-05
1.04748783122e-05
1.04869423444e-05
1.04757038585e-05
1.0466829004e-05
1.04711212527e-05
1.04693549393e-05
1.04661900434e-05
1.04619445641e-05
1.04584224522e-05
1.04554692841e-05
1.04525121007e-05
1.04519455637e-05
1.04519351811e-05
1.04525022753e-05
1.04554783777e-05
1.04584320091e-05
1.04619487582e-05
1.04662013378e-05
1.04693717395e-05
1.04711382253e-05
1.04668669121e-05
1.04757392342e-05
1.04668574481e-05
1.03925998377e-05
1.03734535091e-05
1.03669438423e-05
1.03689095657e-05
1.03759501574e-05
1.0384357828e-05
1.03909876732e-05
1.03947348192e-05
1.03963736722e-05
1.03963703866e-05
1.03947373224e-05
1.03910115787e-05
1.03844056405e-05
1.03760023066e-05
1.03689507693e-05
1.03669750333e-05
1.03734821656e-05
1.03926356234e-05
1.04668714035e-05
1.04711215708e-05
1.03734498615e-05
1.03395066088e-05
1.03245719725e-05
1.03244423233e-05
1.03341458085e-05
1.03516223778e-05
1.03646106262e-05
1.03713841246e-05
1.0374548716e-05
1.03745550379e-05
1.03714021384e-05
1.03646445745e-05
1.03517210476e-05
1.03342231277e-05
1.03244706054e-05
1.03245696275e-05
1.03395361522e-05
1.0373491897e-05
1.04711464115e-05
1.04693465246e-05
1.03669427195e-05
1.03246018687e-05
1.02835931358e-05
1.02779534422e-05
1.02776471377e-05
1.02866601817e-05
1.02987189786e-05
1.03090486672e-05
1.03150512611e-05
1.03150700183e-05
1.03090988742e-05
1.02987907119e-05
1.02867405643e-05
1.02777286044e-05
1.02780339365e-05
1.02834723505e-05
1.0324596609e-05
1.03669884303e-05
1.04693784601e-05
1.0466162213e-05
1.03689133813e-05
1.0324488962e-05
1.02779667333e-05
1.02423905614e-05
1.0227493498e-05
1.0227950773e-05
1.02358594664e-05
1.02448420136e-05
1.02508502562e-05
1.02508705108e-05
1.02448956473e-05
1.02359230379e-05
1.02280068502e-05
1.02275499061e-05
1.02424544618e-05
1.02780363443e-05
1.03245030685e-05
1.03689588234e-05
1.04662009843e-05
1.04619103888e-05
1.03759469054e-05
1.03341621872e-05
1.0277653686e-05
1.02274939135e-05
1.02014622836e-05
1.01952060721e-05
1.01993469792e-05
1.02065860501e-05
1.02118785477e-05
1.02119013838e-05
1.0206647891e-05
1.01994105148e-05
1.01952420547e-05
1.02014867109e-05
1.02275334829e-05
1.02777179673e-05
1.03342437459e-05
1.03759978859e-05
1.04619515688e-05
1.04583879474e-05
1.03843282491e-05
1.03516135182e-05
1.0286644452e-05
1.02279370754e-05
1.01951944544e-05
1.01845326869e-05
1.01863856032e-05
1.01925714883e-05
1.01976075878e-05
1.01976315305e-05
1.01926380361e-05
1.0186448709e-05
1.01845537979e-05
1.01951988711e-05
1.02279621172e-05
1.02867136638e-05
1.03517053069e-05
1.03843894566e-05
1.04584235516e-05
1.04554225436e-05
1.03909229888e-05
1.03645772816e-05
1.02986696478e-05
1.02358218336e-05
1.01993149461e-05
1.01863664449e-05
1.01872338831e-05
1.01934866828e-05
1.01987581265e-05
1.01987813853e-05
1.01935517187e-05
1.0187290862e-05
1.01863778284e-05
1.01993084984e-05
1.02358423121e-05
1.02987439202e-05
1.03646472977e-05
1.03909863495e-05
1.045544947e-05
1.04524583771e-05
1.03946598062e-05
1.03713277664e-05
1.03089726473e-05
1.02447807731e-05
1.02065308209e-05
1.01925286042e-05
1.01934607873e-05
1.02005223911e-05
1.02063349938e-05
1.02063555437e-05
1.02005797768e-05
1.01935062932e-05
1.01925269604e-05
1.02065146008e-05
1.0244795684e-05
1.03090431734e-05
1.03713962026e-05
1.03947051658e-05
1.04524770276e-05
1.04519045093e-05
1.03963141823e-05
1.03744902639e-05
1.03149664235e-05
1.02507753515e-05
1.02118086699e-05
1.01975455792e-05
1.01987079317e-05
1.02063061913e-05
1.02123677491e-05
1.02123845212e-05
1.02063505566e-05
1.01987358206e-05
1.01975252239e-05
1.02117751772e-05
1.02507758351e-05
1.03150216782e-05
1.03745436737e-05
1.03963335901e-05
1.04519091583e-05
1.04519220443e-05
1.03963392513e-05
1.03745102434e-05
1.03149901287e-05
1.02507979214e-05
1.02118352044e-05
1.01975713145e-05
1.01987276638e-05
1.02063151122e-05
1.02123660593e-05
1.02123771679e-05
1.02063443251e-05
1.01987350405e-05
1.01975287539e-05
1.02117787454e-05
1.02507772132e-05
1.0315023508e-05
1.03745446632e-05
1.03963351456e-05
1.0451902853e-05
1.04525035153e-05
1.03947333195e-05
1.03713762143e-05
1.03090336669e-05
1.02448368346e-05
1.02065978282e-05
1.01925935852e-05
1.0193507984e-05
1.02005397727e-05
1.02063227184e-05
1.0206329052e-05
1.02005587474e-05
1.01935005533e-05
1.01925336661e-05
1.02065234391e-05
1.02447996946e-05
1.03090503894e-05
1.03714000017e-05
1.03947141072e-05
1.04524697003e-05
1.04554842046e-05
1.03910282484e-05
1.0364631598e-05
1.02987444186e-05
1.02358833452e-05
1.0199384859e-05
1.01864303581e-05
1.01872662398e-05
1.01934737774e-05
1.01987044418e-05
1.01987082984e-05
1.01934869892e-05
1.01872506635e-05
1.01863618981e-05
1.01993033636e-05
1.02358409562e-05
1.02987572798e-05
1.03646576753e-05
1.03910075975e-05
1.04554518957e-05
1.04584486214e-05
1.03844329649e-05
1.0351715623e-05
1.02867100702e-05
1.02279815829e-05
1.01952331462e-05
1.01845528663e-05
1.0186365731e-05
1.01924959091e-05
1.01974864681e-05
1.01974895868e-05
1.01925067803e-05
1.01863496266e-05
1.01844888609e-05
1.01951609393e-05
1.022794839e-05
1.02867312942e-05
1.03517521654e-05
1.03844247834e-05
1.04584302705e-05
1.04619676611e-05
1.03760361334e-05
1.03342382086e-05
1.02777096719e-05
1.0227527151e-05
1.02014725895e-05
1.01951865588e-05
1.01992812636e-05
1.02064659347e-05
1.0211711135e-05
1.02117116059e-05
1.02064694117e-05
1.01992656979e-05
1.0195138811e-05
1.0201425061e-05
1.02275142247e-05
1.02777388239e-05
1.03342779939e-05
1.03760378038e-05
1.04619586138e-05
1.0466214863e-05
1.03689901069e-05
1.03245130891e-05
1.02780328611e-05
1.02424324109e-05
1.02275012201e-05
1.02279187649e-05
1.02357772691e-05
1.02447053624e-05
1.02506657675e-05
1.02506631856e-05
1.02447001292e-05
1.02357624725e-05
1.0227892314e-05
1.02274838274e-05
1.02424377322e-05
1.02780611207e-05
1.03245075885e-05
1.03689954277e-05
1.04662074763e-05
1.04693829663e-05
1.03670160287e-05
1.03246306368e-05
1.02835061253e-05
1.02780223895e-05
1.02776822606e-05
1.02866565451e-05
1.02986637852e-05
1.03089390247e-05
1.03148979611e-05
1.03148940667e-05
1.03089305861e-05
1.02986552141e-05
1.02866509776e-05
1.02776834941e-05
1.02780325819e-05
1.02833857215e-05
1.03245922702e-05
1.0367020997e-05
1.04693828978e-05
1.04711436168e-05
1.0373515711e-05
1.03395736179e-05
1.0324606001e-05
1.03244745117e-05
1.03341963675e-05
1.03516677103e-05
1.03645858751e-05
1.03713197603e-05
1.03744572103e-05
1.03744517586e-05
1.03713062673e-05
1.03645711453e-05
1.03516780368e-05
1.03342223369e-05
1.03244455977e-05
1.0324563179e-05
1.03395642348e-05
1.03735218807e-05
1.0471149824e-05
1.04668643943e-05
1.03926452149e-05
1.03735147157e-05
1.0367007297e-05
1.03689707614e-05
1.03760079496e-05
1.03844018608e-05
1.03910040711e-05
1.03947261057e-05
1.03963522193e-05
1.03963511368e-05
1.03947269002e-05
1.03910133532e-05
1.03844217725e-05
1.03760306946e-05
1.03689903883e-05
1.03670248048e-05
1.03735331895e-05
1.03926664374e-05
1.04668813016e-05
1.04756994729e-05
1.04668398252e-05
1.04711395577e-05
1.04693810161e-05
1.04662187312e-05
1.04619690106e-05
1.04584467876e-05
1.04554889199e-05
1.04525214684e-05
1.04519584692e-05
1.04519584052e-05
1.04525261409e-05
1.04555018332e-05
1.04584681715e-05
1.04619942368e-05
1.04662427382e-05
1.0469406081e-05
1.04711663819e-05
1.04668685983e-05
1.04757313363e-05
1.04453440895e-05
1.0451528964e-05
1.04588339498e-05
1.04549376282e-05
1.0448780946e-05
1.0443369249e-05
1.04375908478e-05
1.04323845749e-05
1.0429496895e-05
1.04290695669e-05
1.04290644987e-05
1.04294942127e-05
1.04323917064e-05
1.0437608747e-05
1.0443390506e-05
1.04487881024e-05
1.04549398566e-05
1.04588625015e-05
1.04516063842e-05
1.04454088016e-05
1.04516393781e-05
1.03555285784e-05
1.03435313346e-05
1.03384451916e-05
1.03418880904e-05
1.03490731117e-05
1.03565845171e-05
1.03620996975e-05
1.03653995973e-05
1.0367052652e-05