/*--------------------------------*- C++ -*----------------------------------*\
| =========                 |                                                 |
| \\      /  F ield         | OpenFOAM: The Open Source CFD Toolbox           |
|  \\    /   O peration     | Version:  3.0.1                                 |
|   \\  /    A nd           | Web:      www.OpenFOAM.org                      |
|    \\/     M anipulation  |                                                 |
\*---------------------------------------------------------------------------*/
FoamFile
{
    version     2.0;
    format      ascii;
    class       surfaceVectorField;
    location    "4";
    object      ddt0(Uf);
}
// * * * * * * * * * * * * * * * * * * * * * * * * * * * * * * * * * * * * * //

dimensions      [0 1 -2 0 0 0 0];

internalField   nonuniform List<vector> 
22672
(
(0.00115288561037 0.000506194692504 -0.000940311301315)
(0.000507474656241 0.00115072852107 -0.000940269951874)
(0.00069708672519 0.000695902820544 -0.00230288070201)
(0.00237318526088 0.000393597133411 -0.000867975820225)
(0.0017320035488 0.00105828680602 -0.00117763983416)
(0.00205833425013 0.000731449561102 -0.00227800836851)
(0.00340182643404 0.000307175173928 -0.000691047231449)
(0.00296028020212 0.00098837250132 -0.00114577474223)
(0.00325484381119 0.000742753142943 -0.00201693611751)
(0.00405132377562 0.000261014137478 -0.0004394458555)
(0.00384903786613 0.000946137412784 -0.000935980282551)
(0.00407280363268 0.000746048326298 -0.00159635331765)
(0.00419504494938 0.00025671963589 -0.00019513595342)
(0.00431136086202 0.000962579720291 -0.000642882172105)
(0.00445654037171 0.000766287405805 -0.00110803463142)
(0.00389100140597 0.000275964801472 -1.47551167615e-05)
(0.00417589027713 0.00100157020532 -0.000384158512101)
(0.00428033664713 0.000776720765349 -0.000700410932591)
(0.00325115098424 0.000320934975672 0.00011342755669)
(0.0037205266601 0.00102970977851 -0.000189718897632)
(0.00378477521586 0.00079186890829 -0.000393947575007)
(0.00232329841921 0.000386140090527 0.00019364109177)
(0.00290573715776 0.00108832645902 -3.42621235685e-05)
(0.00294556050749 0.000826838484105 -0.000165732447658)
(0.00120692115683 0.000442113702922 0.000226730950886)
(0.00183056432933 0.00115264252047 5.49057405485e-05)
(0.00185085329386 0.000873861171562 -4.25653168055e-05)
(7.10593214346e-06 0.000463118650383 0.000233968336265)
(0.000628327399515 0.00119128344511 8.97734873235e-05)
(0.000634150220755 0.000904297357212 1.40662635903e-06)
(-0.00119291853057 0.000442102488435 0.000226515387404)
(-0.000613493934178 0.00119111489447 8.97138989564e-05)
(-0.00061967981083 0.000904234400317 1.24270870809e-06)
(-0.0023098992387 0.00038610914312 0.000193190449108)
(-0.00181611766383 0.00115218690984 5.47592328256e-05)
(-0.00183676822725 0.000873683402634 -4.30995216351e-05)
(-0.00323870698276 0.000320827721366 0.000112806705117)
(-0.00289211999652 0.00108768296078 -3.4477283399e-05)
(-0.00293225916063 0.00082656923569 -0.000166681818914)
(-0.00387995260431 0.000275670730847 -1.55699883919e-05)
(-0.00370822578213 0.0010289017289 -0.000190019899245)
(-0.00377272984298 0.000791488217841 -0.000395090098655)
(-0.00418545375379 0.000256446195984 -0.000196000395167)
(-0.00416511803411 0.00100063859734 -0.000384735711452)
(-0.00426982248478 0.000776194601236 -0.000701959152704)
(-0.00404381116419 0.00026085578274 -0.000440366928008)
(-0.00430248713288 0.000961996446796 -0.000643368896135)
(-0.004447803017 0.00076603518717 -0.00110966657129)
(-0.0033963234217 0.000307026427357 -0.000692173846974)
(-0.00384237662779 0.000945645130061 -0.000936677509298)
(-0.00406619703459 0.00074583063164 -0.00159828552603)
(-0.00236974269323 0.00039350744332 -0.00086910641398)
(-0.0029558857425 0.000988087616189 -0.00114664301529)
(-0.00325035730456 0.000742644633222 -0.00201908895373)
(-0.00115174528274 0.000506103905415 -0.00094129770657)
(-0.00172974581166 0.00105806851887 -0.00117855647779)
(-0.00205592990464 0.000731343596815 -0.00228023472413)
(-0.000507103016839 0.00115035467695 -0.000941133802105)
(-0.00069660822187 0.00069574489263 -0.00230495669293)
(0.00106042127158 0.00172890428587 -0.00117759848472)
(0.000394861134445 0.00236884711446 -0.000867984789844)
(0.000732871627829 0.00205510627412 -0.00227782952775)
(0.00239579470144 0.00170151486544 -0.00145543875617)
(0.00170437402662 0.00239176321655 -0.00145541168991)
(0.00217940168297 0.00217614943429 -0.00266839413517)
(0.00352821734112 0.00167938895513 -0.00139070779333)
(0.00301159703493 0.00238356923908 -0.00151444719287)
(0.0033749456236 0.00224412530559 -0.00252773364296)
(0.00421976996412 0.00168848462645 -0.00113941659916)
(0.00395081975769 0.0023758631709 -0.00130140703187)
(0.00417922766187 0.00230718365512 -0.00212222339226)
(0.00438349857666 0.00172937644288 -0.000831904730786)
(0.00441485441876 0.00240954330222 -0.000973707292144)
(0.00452678860718 0.00238367597462 -0.0016126521886)
(0.00406943863983 0.00175856113535 -0.000559122292971)
(0.00430103691192 0.00244645533973 -0.000656487021335)
(0.0043602771227 0.00244517152514 -0.00113390245998)
(0.00339038322783 0.00178682647644 -0.00033740857789)
(0.00382266863712 0.00244476718955 -0.000405771216917)
(0.00384273234548 0.00247436327471 -0.000740219818573)
(0.00241576045489 0.00183597312739 -0.00017299747479)
(0.00298589603267 0.00248409603922 -0.000200540268748)
(0.00298497511415 0.00252592181062 -0.000426446990949)
(0.00125436546129 0.0018782969321 -8.20517230136e-05)
(0.00188475930335 0.00253359344489 -7.09116882349e-05)
(0.00188026879473 0.00258157185501 -0.000225792757328)
(7.74376521571e-06 0.00189429927603 -5.44809499851e-05)
(0.00064763056057 0.00256523657984 -1.2479779329e-05)
(0.000645513580844 0.00261699290697 -0.000134281122896)
(-0.00123903165221 0.00187775221668 -8.20422556218e-05)
(-0.00063186169449 0.00256490778971 -1.24871112107e-05)
(-0.00063095338646 0.00261667241558 -0.00013440393511)
(-0.00240098948831 0.00183500122319 -0.000172908499682)
(-0.001869356567 0.00253264743171 -7.08577809476e-05)
(-0.00186603744567 0.00258069276354 -0.000226035249597)
(-0.00337670771294 0.00178559092815 -0.000337303887761)
(-0.00297136730274 0.00248266059109 -0.000200401202512)
(-0.00297153545246 0.00252466448878 -0.000426663392273)
(-0.00405723719786 0.00175722428714 -0.000559185622305)
(-0.00380953470078 0.00244305017627 -0.000405665182733)
(-0.00383058501965 0.00247286681279 -0.000740651465124)
(-0.00437309649135 0.00172823868555 -0.00083210421242)
(-0.00428947776851 0.00244471982849 -0.000656415843513)
(-0.00434964600708 0.00244368839366 -0.00113468239794)
(-0.00421153590843 0.00168764867598 -0.00113967947742)
(-0.00440539741091 0.00240819929355 -0.000973689296655)
(-0.00451806479994 0.00238263500722 -0.0016135133458)
(-0.00352244459603 0.0016787635177 -0.00139114667762)
(-0.00394368336016 0.00237465375961 -0.00130154947034)
(-0.00417269137669 0.00230647305726 -0.00212310805918)
(-0.00239248152072 0.00170099642959 -0.0014560930791)
(-0.00300697795884 0.0023826162677 -0.00151478113634)
(-0.00337070993958 0.00224366715458 -0.00252892702951)
(-0.00105954502627 0.00172822199985 -0.00117839257332)
(-0.00170219542278 0.00239083708414 -0.00145599166233)
(-0.00217737832632 0.00217564343509 -0.00266996966197)
(-0.000394526098688 0.00236761854733 -0.000868809848125)
(-0.000732562372114 0.00205425772427 -0.00227970694719)
(0.000990231945036 0.00295536462216 -0.00114579799503)
(0.000308299559413 0.0033962197409 -0.000691310258272)
(0.000744002267056 0.00324971569775 -0.00201700648221)
(0.0023869184207 0.00300740173229 -0.00151442012661)
(0.00168186926703 0.00352322141079 -0.00139070474944)
(0.00224688927297 0.003370365718 -0.00252780374911)
(0.00355980930632 0.00301718885713 -0.00142514643141)
(0.00302060694919 0.00355595391284 -0.00142521189878)
(0.00345922692807 0.00345560107672 -0.00234541747463)
(0.00426042338625 0.00303032192628 -0.00113569772486)
(0.00397075136163 0.00355974737327 -0.0011757239389)
(0.004249183217 0.00352858003803 -0.00188530586076)
(0.0044291623571 0.00305263881123 -0.000798289582693)
(0.00442484709023 0.00357555814649 -0.000827130343517)
(0.00457011471315 0.00360477980815 -0.00133634948534)
(0.00412113064864 0.00304856188013 -0.000503135945281)
(0.00432296062505 0.00357364121021 -0.000503890502)
(0.00440638268327 0.00365783165232 -0.000821598657084)
(0.00343884283 0.00304372120875 -0.000268902907775)
(0.00384027057777 0.00351989879929 -0.000255068435368)
(0.00387781277437 0.00367434354705 -0.000396141878042)
(0.00246057758646 0.00306926249444 -9.84544821926e-05)
(0.0030090256045 0.00351660336334 -5.52694057643e-05)
(0.00302044100998 0.00371570187489 -5.83382977659e-05)
(0.00128310473275 0.00309813320355 -1.33974455032e-06)
(0.00190640485975 0.0035375999405 6.37267778672e-05)
(0.00191201367657 0.00375715134925 0.000168692736411)
(8.01010649163e-06 0.00310999212144 2.95140594454e-05)
(0.000656436824119 0.00355476911504 0.000123154308205)
(0.000658763891364 0.00378754790871 0.00028028537136)
(-0.00126726121825 0.00309741209919 -1.3026365366e-06)
(-0.000640250340677 0.00355439017781 0.000123135057493)
(-0.00064437679733 0.00378717558228 0.000280213140613)
(-0.00244535251877 0.00306792675697 -9.83504837781e-05)
(-0.00189058162623 0.00353648850308 6.38001646939e-05)
(-0.00189792718445 0.00375611376959 0.000168575179841)
(-0.0034247097565 0.00304191945766 -0.000268762497484)
(-0.00299411338807 0.00351498095402 -5.49275536434e-05)
(-0.00300718559319 0.00371431487818 -5.85630147258e-05)
(-0.00410837562898 0.00304650934462 -0.000502895403941)
(-0.00382678782886 0.0035177761632 -0.000254867980781)
(-0.0038658322163 0.00367248485341 -0.000396439003695)
(-0.00441830782968 0.00305072268296 -0.000798000927748)
(-0.00431098724327 0.00357130513901 -0.000503630007774)
(-0.00439580101376 0.00365592152096 -0.000821695128774)
(-0.00425174638576 0.00302866440794 -0.00113555928957)
(-0.00441496008212 0.00357354348512 -0.000826863357587)
(-0.00456136549515 0.00360324611818 -0.00133653730984)
(-0.00355356940543 0.00301572495819 -0.00142518392906)
(-0.00396315730499 0.00355786739224 -0.00117552845927)
(-0.00424251016357 0.00352731795882 -0.00188561861377)
(-0.0023832977533 0.00300604913276 -0.00151467971956)
(-0.00301558357854 0.00355426271975 -0.00142512809363)
(-0.0034548127153 0.00345455227203 -0.00234590132816)
(-0.000989226501545 0.00295385060825 -0.00114640893713)
(-0.00167950120394 0.0035214703769 -0.00139095244637)
(-0.00224477320819 0.00336921255063 -0.00252875354587)
(-0.000307877599348 0.00339421572499 -0.000692070640036)
(-0.000743607113143 0.00324812188601 -0.00201861481768)
(0.000947729442013 0.00384375445385 -0.000936217012679)
(0.000262159745549 0.0040456768418 -0.000439856114145)
(0.000747066792427 0.00406735534166 -0.00159676965263)
(0.00237871206234 0.00394658873906 -0.00130149652161)
(0.00169084736551 0.00421497292578 -0.00113960609213)
(0.00230950470122 0.00417463159311 -0.00212252207847)
(0.00356279223827 0.0039677586663 -0.00117578940628)
(0.0030334868789 0.0042573619757 -0.00113583953121)
(0.00353149311043 0.00424600312323 -0.00188558986989)
(0.00425589237054 0.00396716488767 -0.000867156557564)
(0.00396953568509 0.00425419313069 -0.000867159133789)
(0.00429887683909 0.00429685284963 -0.00138804917145)
(0.00441641494292 0.00395321252812 -0.000532731262823)
(0.00440601288365 0.00424164180078 -0.000522050947188)
(0.00458870332735 0.00433337290308 -0.00082756506841)
(0.00410921380695 0.00389864090756 -0.000255822992086)
(0.00430322126967 0.00420341513969 -0.000218618134633)
(0.00441153502791 0.00433635488447 -0.000324011461434)
(0.00343189057731 0.0038438961671 -4.14349333569e-05)
(0.00382474227031 0.00411115706671 1.04281733345e-05)
(0.00387913324762 0.00430156466896 8.41504176918e-05)
(0.00245702823926 0.00383576775715 0.000106911854296)
(0.00300835804252 0.00407121082828 0.000201633306856)
(0.00302131750447 0.00429429242277 0.000417900114348)
(0.00128423305962 0.00384720516848 0.000188220830623)
(0.00191321264571 0.00407330857261 0.000326746097842)
(0.00191255133936 0.00431065584544 0.000634362373285)
(8.14105602018e-06 0.00385313104367 0.000216775306253)
(0.000659783885632 0.00408111805611 0.000393192409332)
(0.000661035119121 0.00432508510051 0.000746748300531)
(-0.0012681513032 0.00384654236421 0.000188237858723)
(-0.000643351413468 0.00408081066488 0.000393260663856)
(-0.000646791582855 0.00432476311515 0.000746712963324)
(-0.00244144181889 0.0038344868662 0.000107223094829)
(-0.00189715002718 0.00407241078613 0.000326994528762)
(-0.00189840844486 0.00430975322431 0.000634131427001)
(-0.00341755099617 0.00384210149105 -4.10330369411e-05)
(-0.00299324516613 0.00406967135587 0.000202288798309)
(-0.00300808379433 0.00429289705778 0.000418158825273)
(-0.00409620799313 0.00389651461462 -0.000255602584615)
(-0.00381114407358 0.00410920371666 1.10060767429e-05)
(-0.00386730334149 0.00429985329877 8.39751973514e-05)
(-0.00440514284598 0.0039510874718 -0.000532492437614)
(-0.00429114566843 0.00420128030615 -0.000218147634541)
(-0.00440087747882 0.00433455670678 -0.000324269520374)
(-0.00424673262973 0.00396512662931 -0.000866832527285)
(-0.00439596761887 0.0042396041996 -0.000521414465334)
(-0.00457974975747 0.00433178211686 -0.000827671753477)
(-0.00355609197206 0.00396572671166 -0.00117547262384)
(-0.00396173837135 0.00425189530335 -0.000866705236932)
(-0.00429191894597 0.00429534593038 -0.0013878802663)
(-0.00237476438959 0.00394453230842 -0.00130140082044)
(-0.00302821776288 0.00425498648178 -0.00113543997482)
(-0.0035267842489 0.00424452533627 -0.00188540195545)
(-0.000946555042581 0.00384156533095 -0.000936614149277)
(-0.00168831274684 0.00421244721744 -0.00113948245523)
(-0.00230716171988 0.00417289885255 -0.00212286892412)
(-0.00026176401713 0.00404307029991 -0.000440368292996)
(-0.000746543356496 0.00406520777832 -0.00159800381209)
(0.000964295632016 0.00430651847659 -0.000643245193596)
(0.00025790359423 0.00419038356298 -0.00019596207129)
(0.000767420886019 0.0044515041958 -0.00110880025249)
(0.00241255337007 0.00441161894566 -0.000973949101736)
(0.00173199317023 0.00438017384372 -0.000832409277295)
(0.00238607318495 0.00452322589457 -0.00161338857478)
(0.0035785573279 0.00442347522302 -0.000827209258725)
(0.00305625200471 0.0044279093357 -0.000798425515023)
(0.00360772779124 0.00456850490372 -0.0013366052862)
(0.00424281178813 0.00440597664024 -0.000522053523413)
(0.00395590734309 0.00441726117764 -0.000532514004231)
(0.00433509752136 0.00458901932327 -0.000827502002338)
(0.004386132769 0.0043738367479 -0.000207937818998)
(0.00437356906329 0.00438822600911 -0.000207414214033)
(0.00458221582148 0.00458363284385 -0.000290211457246)
(0.00407756167795 0.00430791059237 4.76330307878e-05)
(0.00426431543049 0.0043352051915 8.25548630627e-05)
(0.00438467018016 0.00455673611812 0.000176348109798)
(0.0034098474267 0.00424097542687 0.000253496413547)
(0.00379692646845 0.00423038499115 0.000300940021506)
(0.00384872655606 0.00449499321598 0.000547923629126)
(0.00245694305303 0.00421772630354 0.000421467550403)
(0.00299926815038 0.00416870401004 0.000497347611785)
(0.00301179095384 0.00445709241545 0.000854723408955)
(0.00128999943418 0.00421883257609 0.000531717676551)
(0.00191393611366 0.00414918701207 0.000649471636175)
(0.0019192944869 0.00445644498311 0.00109026485007)
(8.23485497701e-06 0.00422132826777 0.000569677766935)
(0.00066026347338 0.00414581353534 0.000725655856488)
(0.000663447281456 0.00445935211712 0.00121618515303)
(-0.00127375752772 0.00421830747891 0.000532017333895)
(-0.000643676783145 0.0041455692121 0.000725859538008)
(-0.000649107155658 0.00445916413833 0.00121628985405)
(-0.00244133071026 0.00421665751095 0.000422060232242)
(-0.00189777573985 0.00414850991345 0.000650036476443)
(-0.00190523460264 0.00445589094552 0.00109046306451)
(-0.00339539269969 0.00423941983342 0.000254327911993)
(-0.00298410330517 0.00416742784343 0.000498209247146)
(-0.00299855942243 0.00445593598606 0.000855181145495)
(-0.00406460087679 0.00430609771884 4.84610268171e-05)
(-0.00378327736393 0.004228618499 0.000302026510495)
(-0.0038367949834 0.00449373658875 0.000548489355105)
(-0.00437492017995 0.00437192632355 -0.000207069662261)
(-0.004252307891 0.0043332478146 8.36325459983e-05)
(-0.0043740969337 0.00455548103742 0.000176806470928)
(-0.00423376607886 0.00440384138342 -0.000521287174982)
(-0.00436371045445 0.00438620005833 -0.000206272191312)
(-0.00457337077162 0.00458237410529 -0.000289598948157)
(-0.00357182904983 0.00442103863499 -0.000826672587911)
(-0.00394822081414 0.00441475519756 -0.000531800000176)
(-0.00432815546542 0.00458745795136 -0.000827016509472)
(-0.00240849436087 0.00440893103421 -0.000973521609605)
(-0.00305095063228 0.00442506859132 -0.000797802610743)
(-0.00360294563891 0.00456667208844 -0.00133611597142)
(-0.000963121584942 0.00430362032477 -0.000643236598945)
(-0.00172933591723 0.00437697881679 -0.000832051172291)
(-0.00238359705379 0.00452093098585 -0.00161316365482)
(-0.00025749213687 0.00418712101861 -0.000196382608138)
(-0.000766931611083 0.00444874395183 -0.00110952596464)
(0.00100341071357 0.00417311381013 -0.000385126154989)
(0.000277309769587 0.00388880969885 -1.58672247136e-05)
(0.000777963630383 0.00427729687937 -0.000701862278538)
(0.00245002010328 0.00429986535242 -0.000656885690581)
(0.00176187991836 0.00406822343282 -0.000559743059948)
(0.00244820000636 0.00435874084137 -0.00113475235957)
(0.00357748355239 0.00432402161145 -0.000503730260529)
(0.00305335640024 0.00412188190155 -0.000503150361945)
(0.00366174845667 0.00440700827168 -0.000821491431459)
(0.00420521262839 0.00430618902096 -0.00021787469485)
(0.00390265238433 0.0041123843775 -0.000254678051734)
(0.00433904886846 0.00441471187601 -0.00032281210751)
(0.00433312799559 0.00426809094199 8.30784680279e-05)
(0.00430826170574 0.00408214814041 4.97328786702e-05)
(0.00455559101017 0.00438961563211 0.00017832636667)
(0.00402720841466 0.00419130303649 0.000335861853781)
(0.00418747181608 0.00403173956316 0.000336756949999)
(0.00434219820808 0.0043475072285 0.000609668874081)
(0.00337550705977 0.00410494837212 0.000544791219743)
(0.00373387866396 0.00392661755905 0.000546956463147)
(0.00381432423044 0.0042684328702 0.000955849669748)
(0.00244281686299 0.00405785440287 0.000725351697557)
(0.00295876286798 0.00384796729788 0.000747008518045)
(0.00299310205601 0.0042074706089 0.00125386100019)
(0.0012838244885 0.00404252745893 0.000843409816112)
(0.00189016718451 0.00382016291778 0.00092302152448)
(0.00191086174221 0.00418337930784 0.00148848132681)
(8.28565251216e-06 0.00403971057387 0.000881837627561)
(0.000650860487154 0.00381346975572 0.0010099023505)
(0.000659840772434 0.0041755968673 0.00160837122463)
(-0.00126748658585 0.00404212397148 0.000843878680556)
(-0.00063421062395 0.00381323145222 0.00101018647948)
(-0.000645217580012 0.00417554239365 0.00160860546408)
(-0.00242725457123 0.00405696840937 0.000726185491347)
(-0.00187400958347 0.00381950541399 0.00092391485368)
(-0.00189668942384 0.00418317620313 0.00148922030299)
(-0.00336102177711 0.00410349084091 0.000545907845649)
(-0.00294373806878 0.00384670901879 0.000748183468333)
(-0.00297981685988 0.004206785235 0.00125478989384)
(-0.00401421767265 0.00418944402257 0.000337198029676)
(-0.00372039006338 0.0039247772187 0.000548382062192)
(-0.00380224728135 0.00426747796493 0.000957085286874)
(-0.00432202668316 0.00426607383049 8.4430016947e-05)
(-0.00417570044091 0.00402958933084 0.000338304067764)
(-0.00433163025192 0.00434642429162 0.000611139061789)
(-0.00419634998889 0.00430382787152 -0.000216785016507)
(-0.00429879148253 0.0040799210653 5.12797584505e-05)
(-0.00454699909771 0.00438843994261 0.000179785148756)
(-0.0035708539282 0.00432114235033 -0.000502930023008)
(-0.00389534685767 0.00410954197068 -0.000253660011157)
(-0.00433237191967 0.0044129939819 -0.000321704229072)
(-0.00244591757833 0.00429660654834 -0.000656332173429)
(-0.00304828237323 0.00411853860923 -0.000502305152172)
(-0.00365706948883 0.00440477334397 -0.000820538740117)
(-0.0010020521407 0.00416976138287 -0.000385197181484)
(-0.00175928118437 0.00406454866768 -0.000559210296107)
(-0.00244563086393 0.00435593565899 -0.001134286228)
(-0.000276928275817 0.00388540309724 -1.62262775748e-05)
(-0.000777356739731 0.00427420520906 -0.000702453395168)
(0.00103224689387 0.00371989270057 -0.000190484129673)
(0.000322615923669 0.00325150170218 0.000112529708716)
(0.00079361820738 0.00378396094889 -0.000395211008494)
(0.0024495730038 0.0038233697195 -0.000406007731312)
(0.00179100799784 0.00339131208351 -0.000337967116468)
(0.00247860316721 0.00384315994184 -0.000740721620636)
(0.00352551092 0.00384292511712 -0.00025409815315)
(0.00304983354726 0.00344113705272 -0.000268619926657)
(0.00367996255983 0.00388002039013 -0.000395355816245)
(0.00411432807459 0.00382902669588 1.29295217864e-05)
(0.0038493165266 0.00343583696348 -3.94646495914e-05)
(0.00430611779066 0.00388325095983 8.78015039736e-05)
(0.00422875071083 0.00380153387534 0.000303411360641)
(0.00424179960285 0.00341477290445 0.000257368925411)
(0.00449491203404 0.00385465492393 0.000553282516855)
(0.00392265403979 0.00373755101427 0.000547851559365)
(0.00410013993003 0.00337938383765 0.000546619193285)
(0.00426331776521 0.00382007359356 0.00095901791277)
(0.00329223255578 0.00365335289589 0.00074917376145)
(0.00364959720294 0.00329377094616 0.000747787906474)
(0.00373648383762 0.00374065169401 0.00126399413737)
(0.00239133683366 0.00359274644712 0.000944678344968)
(0.00288924984618 0.00322265416478 0.000962128761336)
(0.00293900870712 0.00367325712033 0.0015270321116)
(0.0012575782662 0.00355964005122 0.00108951405887)
(0.00185231324986 0.00318935487684 0.00106523698502)
(0.00188087459573 0.0036429537197 0.00176545179352)
(8.3031585481e-06 0.00354957136157 0.00113825120242)
(0.000638461425904 0.0031761912062 0.0011211397977)
(0.000648899213927 0.00363456157097 0.00188749595041)
(-0.00124126822572 0.00355915045307 0.00109022265261)
(-0.000622005112461 0.00317585425343 0.00112136764538)
(-0.000633904379242 0.00363451771984 0.00188793617567)
(-0.00237599748656 0.00359170441715 0.000945912830665)
(-0.00183649064774 0.00318839297285 0.00106592597393)
(-0.00186658685393 0.00364273339028 0.00176682395309)
(-0.00327802588261 0.00365173934844 0.000750657684875)
(-0.00287481416525 0.00322122300034 0.000962715272383)
(-0.00292585577751 0.00367251646798 0.00152840537777)
(-0.00391008557889 0.00373552768089 0.000549488100279)
(-0.00363655815956 0.00329174972944 0.000749373895166)
(-0.00372464628404 0.0037397375501 0.00126576249111)
(-0.00421812243347 0.00379931164714 0.000305153809268)
(-0.00408893902317 0.00337700389911 0.000548466496027)
(-0.00425312950649 0.00381902066302 0.000960943737985)
(-0.0041060411614 0.00382643046287 1.44047637997e-05)
(-0.00423305040676 0.00341216408362 0.000259406367001)
(-0.0044868359911 0.0038534353524 0.000555476077895)
(-0.00351941896884 0.00383968768391 -0.000253035140321)
(-0.00384283117685 0.0034325771902 -3.80315589888e-05)
(-0.00430008450521 0.00388141292088 8.9451064592e-05)
(-0.00244583289861 0.00381964804326 -0.000405183274851)
(-0.00304538545275 0.00343719359589 -0.000267600120432)
(-0.0036758090901 0.00387734334981 -0.000393963654188)
(-0.0010310982497 0.00371617069213 -0.000190239392198)
(-0.00178869964954 0.00338709133144 -0.000337249232932)
(-0.00247632074218 0.00383982522839 -0.000739807595079)
(-0.000322423111197 0.00324770999062 0.000112443640918)
(-0.000793166488482 0.00378043364163 -0.000395349121335)
(0.00109132646669 0.00290749788256 -3.49532780784e-05)
(0.000387887139169 0.00232644114022 0.000193110758874)
(0.000828958032203 0.00294730098066 -0.00016683199764)
(0.0024898193772 0.00298826227096 -0.000200579311813)
(0.00184061669453 0.00241880274166 -0.000173484243522)
(0.00253094528403 0.00298724376312 -0.00042658962002)
(0.00352317270889 0.00301254954401 -5.39864230988e-05)
(0.00307615166169 0.00246409391963 -9.78181643122e-05)
(0.00372208051374 0.0030236196181 -5.67196788227e-05)
(0.00407501922944 0.00301273943663 0.000204974754033)
(0.00384186560859 0.00246155603333 0.000109877443954)
(0.00430001900662 0.00302588259816 0.000422322539887)
(0.00416602468262 0.00300313247765 0.000500576758056)
(0.00421834022241 0.00246144650263 0.000426581924549)
(0.00445760352063 0.00301704142194 0.000862516481776)
(0.0038420646278 0.00296033929943 0.000746555540394)
(0.00405086086084 0.00244595181605 0.0007271768791)
(0.00420049672181 0.00299724278283 0.00125782410804)
(0.00322108287415 0.00288854397488 0.00096074290636)
(0.0035868467577 0.00239180383712 0.000940224703765)
(0.00366759824657 0.00293968868642 0.0015235194078)
(0.00232841657698 0.00284585023371 0.00108268740139)
(0.0028470061737 0.00232697321852 0.00108112854248)
(0.00288644672071 0.00288536956402 0.0017889699667)
(0.00123060607786 0.00284138639397 0.00109686272386)
(0.001837255141 0.00232170258408 0.00109892943078)
(0.00186483839956 0.00288850258836 0.00196611316053)
(8.12668376637e-06 0.00284118983381 0.00110425624066)
(0.00063395240263 0.00232716623026 0.00112239902239)
(0.000646918640785 0.0028990619352 0.00207220293248)
(-0.00121488081257 0.00284068282285 0.0010970709667)
(-0.000618309282928 0.00232692841092 0.00112236317721)
(-0.000631973496046 0.0028988120254 0.00207269972144)
(-0.00231395003536 0.00284472429396 0.00108272841565)
(-0.00182200701805 0.00232092060509 0.00109909321511)
(-0.00185089345892 0.00288783099254 0.00196736817756)
(-0.00320738282922 0.00288681890785 0.000961431482673)
(-0.0028332873302 0.00232586869426 0.00108124272243)
(-0.00287370078558 0.00288460570444 0.00178961825222)
(-0.00383005528767 0.00295787314969 0.000748352290914)
(-0.00357464039255 0.0023895981862 0.000941783015978)
(-0.00365589934636 0.00293851906486 0.00152556719544)
(-0.00415624775122 0.00300026504189 0.000502719053761)
(-0.00404059741476 0.00244304482362 0.000729049563041)
(-0.00419079267256 0.00299586126475 0.00126065687716)
(-0.00406771969311 0.00300937886469 0.000206970044213)
(-0.0042106291216 0.00245802941745 0.000428829373647)
(-0.00445037010729 0.00301525433886 0.00086566098556)
(-0.00351807089649 0.00300852004212 -5.2596539099e-05)
(-0.00383649444802 0.00245742504476 0.000111530767587)
(-0.00429511578606 0.00302331413073 0.000424868939782)
(-0.00248665327729 0.00298382063878 -0.000199666078513)
(-0.00307260843011 0.00245936754025 -9.68150633606e-05)
(-0.00371896846093 0.00302016191917 -5.50966530644e-05)
(-0.0010903572119 0.00290322873732 -3.45661998164e-05)
(-0.00183874890046 0.00241399924335 -0.000172795682676)
(-0.00252919815998 0.00298319208508 -0.000425561761906)
(-0.000387801521065 0.00232213280183 0.000193177395062)
(-0.000828703275991 0.00294313861023 -0.000166651335278)
(0.00115569597687 0.00183476242076 5.45797934297e-05)
(0.000443765930558 0.00121255195148 0.000226746172879)
(0.00087599691218 0.00185538461811 -4.27465205681e-05)
(0.00253971845673 0.00188866464024 -7.07230960213e-05)
(0.00188279257177 0.00125926176865 -8.22563585627e-05)
(0.00258678527938 0.00188428932047 -0.000225495576062)
(0.00354465778553 0.00191028576291 6.6045702741e-05)
(0.00310483442461 0.00128737763707 -5.03800233983e-07)
(0.00376433539566 0.00191584709752 0.000170982078604)
(0.00407698590424 0.00191718861713 0.00033148461447)
(0.00385319542631 0.00128779088638 0.000192031113377)
(0.00431683273224 0.00191698606935 0.000640976647702)
(0.00414508374063 0.00191747722574 0.000653182045594)
(0.00421898999933 0.00129346558796 0.00053727022984)
(0.00445633639165 0.00192323742067 0.00109974761325)
(0.00381157654601 0.00189228230599 0.000920846042471)
(0.00403393603918 0.00128638754425 0.000845389293149)
(0.00417408304673 0.00191383783198 0.00149316721452)
(0.00318631937129 0.00185239255533 0.00106061033989)
(0.00355173675326 0.00125873287412 0.00108382092121)
(0.00363412942302 0.00188155582216 0.00175851701513)
(0.00232383438302 0.00183549693861 0.00109737057188)
(0.0028416875958 0.00123016862914 0.0010939747038)
(0.00288854616541 0.00186329720415 0.00195947683065)
(0.00123475878123 0.00184351372334 0.00112446572931)
(0.00184563929801 0.00123272774371 0.00112403198741)
(0.00188138793431 0.001878656875 0.00217821811679)
(7.47919837541e-06 0.00184897657242 0.00114050595893)
(0.000635122183438 0.0012389900625 0.00116307299123)
(0.000652592010496 0.00189276223296 0.00231564492629)
(-0.00121998590713 0.00184305695564 0.00112438542562)
(-0.000620149727769 0.00123894517089 0.00116308845397)
(-0.000638516020373 0.0018926318599 0.00231571782643)
(-0.00230994391356 0.00183459531039 0.00109760752189)
(-0.00183103227653 0.00123237037015 0.00112444961403)
(-0.00186767152296 0.00187819034575 0.00217889495107)
(-0.00317347467427 0.00185072364939 0.00106159425573)
(-0.00282884744062 0.00122926936151 0.00109479108875)
(-0.00287606699759 0.00186276647354 0.00196063157223)
(-0.00380063909646 0.00188953097017 0.000922480288105)
(-0.00354085834848 0.00125657962705 0.00108535509067)
(-0.00362319772869 0.00188015683717 0.00176073061445)
(-0.00413654423544 0.00191384939986 0.000655159882927)
(-0.00402500487449 0.00128324174363 0.000847004612493)
(-0.00416531887373 0.00191183601352 0.00149614185125)
(-0.00407091189829 0.00191283090832 0.000333390097021)
(-0.00421255539209 0.00128940308102 0.000539136284134)
(-0.00445030843707 0.00192042881853 0.00110305822064)
(-0.00354066380529 0.00190535898888 6.73122433253e-05)
(-0.00384899004313 0.00128292792636 0.000193433869863)
(-0.00431319337958 0.00191331441713 0.000643648175069)
(-0.00253731965433 0.00188351583492 -6.9944667524e-05)
(-0.00310228907227 0.00128209032775 2.94705512673e-07)
(-0.00376230780106 0.0019115229438 0.000172446067894)
(-0.00115501024884 0.00182989152962 5.49479122023e-05)
(-0.00188154775902 0.00125397649915 -8.18269742077e-05)
(-0.00258579976397 0.00187951490543 -0.000224657797522)
(-0.000443719836156 0.00120778896818 0.000226889256287)
(-0.000875960180014 0.00185051533465 -4.25919516332e-05)
(0.00119408875638 0.00063457183797 8.9910020887e-05)
(0.00046469107837 1.48481239066e-05 0.00023431652494)