/*--------------------------------*- C++ -*----------------------------------*\
| =========                 |                                                 |
| \\      /  F ield         | OpenFOAM: The Open Source CFD Toolbox           |
|  \\    /   O peration     | Version:  3.0.1                                 |
|   \\  /    A nd           | Web:      www.OpenFOAM.org                      |
|    \\/     M anipulation  |                                                 |
\*---------------------------------------------------------------------------*/
FoamFile
{
    version     2.0;
    format      ascii;
    class       volScalarField;
    location    "4";
    object      epsilon_0;
}
// * * * * * * * * * * * * * * * * * * * * * * * * * * * * * * * * * * * * * //

dimensions      [0 2 -3 0 0 0 0];

internalField   nonuniform List<scalar> 
7968
(
0.000408572862365
0.000493234577774
0.000560825104514
0.000600963694229
0.000619773156634
0.00062440877011
0.000621223669717
0.000613975021647
0.000606295720932
0.000600428203961
0.000600425352593
0.00060629054276
0.000613973864106
0.000621232325593
0.000624431076643
0.000619810517172
0.000601008615593
0.000560870116057
0.000493275873638
0.000408593529464
0.000493216585479
0.000860826413138
0.00113231142817
0.00129283688354
0.00136916918451
0.00138923745684
0.00137853772491
0.00135478924487
0.00133280303158
0.00132010911115
0.0013200750736
0.0013327154266
0.00135466802405
0.00137841357968
0.00138915274959
0.00136915557596
0.00129288945936
0.00113239822976
0.000860913270733
0.000493253698806
0.000560781343891
0.00113225607211
0.00155859166094
0.00181558929298
0.00194299180671
0.00198164322155
0.00196980167946
0.00193737116404
0.00190721967281
0.00189033588027
0.00189026797312
0.00190703761914
0.00193709848437
0.00196949130218
0.00198137788251
0.00194283736493
0.00181555277958
0.00155863502527
0.00113233033449
0.000560821781822
0.000600883862682
0.00129271895592
0.00181554137721
0.00213112377844
0.0022848382418
0.00232628296888
0.00230534520562
0.00226094672604
0.00222248688144
0.00220227603215
0.00220218073938
0.00222221823941
0.00226051300623
0.00230482883192
0.00232580145329
0.00228449075301
0.00213093645441
0.00181548147045
0.00129273704883
0.000600919242353
0.000619660356703
0.00136904297006
0.00194300063515
0.00228494915968
0.00243980284885
0.00246795340092
0.00246876697693
0.00245344216866
0.00242996369603
0.00241415814537
0.00241408389217
0.00242975881612
0.00245312561642
0.00246836791551
0.00246733426685
0.00243927310177
0.00228459020498
0.00194280579033
0.00136897334605
0.000619677924421
0.000624285489932
0.00138921108901
0.00198189045395
0.0023267859219
0.00246842951607
0.00254724083468
0.00257632199998
0.00256662783547
0.00254270289907
0.00252510030902
0.0025250314732
0.00254251311019
0.00256633619678
0.00257596106457
0.00254680403129
0.00246781351025
0.00232629457651
0.00198157810229
0.00138905739458
0.000624277792127
0.000621103732196
0.00137867186147
0.00197041311682
0.0023064479926
0.00246946012916
0.00257671373293
0.00261061234571
0.00259598548713
0.00256515471046
0.00254272993617
0.00254266857818
0.00256498605653
0.00259572692844
0.00261029654236
0.00257636365699
0.00246906701644
0.00230594220982
0.00197005916646
0.00137846769073
0.000621070073776
0.000613859814577
0.00135505890163
0.00193827524914
0.00226254604461
0.0024545125089
0.00256740592371
0.00259635010527
0.00257177447995
0.0025307412623
0.00250138045616
0.0025013304524
0.00253060860005
0.00257158214517
0.00259613182293
0.00256717601337
0.00245426039668
0.00226219858149
0.00193800195794
0.00135487031709
0.000613810531964
0.000606166337613
0.00133308829173
0.00190816748808
0.00222413167739
0.00243119520373
0.00254369034998
0.00256570452641
0.00253089059221
0.00247813080158
0.00244036135673
0.00244033345674
0.00247806962192
0.00253082269732
0.00256565296253
0.00254365593715
0.00243116360413
0.0022240888527
0.0019080900067
0.00133298691947
0.00060611753663
0.000600275253503
0.00132029840335
0.00189110106398
0.00220363264887
0.00241528310184
0.00252606832015
0.00254329682694
0.00250154823377
0.00244037352767
0.0023956144934
0.00239563675574
0.00244043886708
0.00250166379999
0.00254346851791
0.00252628478562
0.00241552719192
0.00220395222307
0.00189129108509
0.00132033855489
0.000600247009282
0.000600300336153
0.00132016653432
0.00189079948792
0.00220320486642
0.00241499505158
0.0025258561944
0.00254317522876
0.00250152815988
0.00244044809246
0.00239577752465
0.00239586519304
0.00244067034507
0.00250185617589
0.0025435968089
0.00252634453006
0.00241552809278
0.00220388176387
0.00189125984625
0.00132036009062
0.000600308184442
0.000606202015445
0.00133275613477
0.00190739144752
0.00222297991371
0.00243046536179
0.0025431874403
0.00256546072017
0.00253092467824
0.00247842917375
0.00244088714143
0.00244099603153
0.00247871486014
0.00253136021399
0.00256602965176
0.00254384723273
0.00243118956028
0.00222391225456
0.00190801884356
0.00133304403459
0.000606229042941
0.000613910378032
0.0013546616058
0.00193727456216
0.00226096450431
0.00245357561994
0.00256681616127
0.00259614821623
0.0025719758454
0.00253132046945
0.00250226152075
0.00250236724891
0.00253160520844
0.00257242610518
0.00259675224938
0.00256752183748
0.0024543523575
0.00226198531134
0.00193793044798
0.00135496248661
0.000613937578737
0.000621183909585
0.00137835879065
0.00196948564457
0.0023049108086
0.002468515764
0.00257618696627
0.0026105465275
0.00259639967516
0.0025659965558
0.00254388776203
0.00254398185263
0.00256625515773
0.00259681513693
0.00261110012998
0.00257683084639
0.00246921550984
0.00230576481596
0.00197001879915
0.0013785913378
0.000621194390083
0.000624399242879
0.00138908767117
0.00198126596543
0.00232562307223
0.00246712388666
0.00254675253393
0.00257638418924
0.00256719374659
0.00254370483647
0.00252640739584
0.00252648904069
0.00254392933698
0.00256754904495
0.0025768478236
0.00254729907925
0.00246782183133
0.00232615270826
0.0019815736753
0.00138920233459
0.000624387249128
0.000619796774
0.00136913479768
0.00194274786158
0.00228428092335
0.00243892258196
0.00246735632057
0.00246888857836
0.00245407065443
0.00243100672871
0.00241547830255
0.00241555214462
0.0024312056065
0.00245437061965
0.00246925832304
0.00246780286103
0.0024392678438
0.00228448511583
0.00194283464228
0.00136913539083
0.000619766993928
0.000601008300502
0.0012929553075
0.00181559228961
0.00213089740837
0.0022844315991
0.00232599077281
0.00230548295931
0.00226162966423
0.00222361249369
0.00220367730583
0.00220375324699
0.00222381088731
0.00226190899029
0.00230578126867
0.00232622985986
0.00228455431749
0.00213092200152
0.00181555595987
0.0012928943512
0.000600973455648
0.00056087495441
0.00113253320595
0.00155880290327
0.00181564473563
0.00194292582989
0.00198161192984
0.00196999112657
0.00193787808942
0.00190801736937
0.00189134702276
0.00189142466085
0.00190820566053
0.00193811602553
0.00197021466754
0.00198176585492
0.00194298304778
0.00181562408894
0.00155874076665
0.00113246767273
0.000560845185577
0.000493275817936
0.000861040598278
0.00113252509814
0.0012929872458
0.00136925452809
0.00138932446237
0.00137871438477
0.00135512113128
0.0013332913548
0.00132072346598
0.00132078442573
0.00133343680612
0.00135530103391
0.00137887863907
0.00138943684329
0.00136930294483
0.00129297661442
0.00113248419892
0.000860998968313
0.000493255625115
0.000408591610292
0.000493299626689
0.000560907537165
0.000601046365673
0.000619847831136
0.000624476764198
0.000621297012082
0.000614070646712
0.000606419301749
0.00060058342567
0.000600612153812
0.000606478457524
0.000614136523424
0.000621351738308
0.000624509895514
0.000619859740878
0.000601038633469
0.000560892364782
0.000493286989063
0.000408581822551
0.000479830437017
0.000763432946824
0.000997160518423
0.00115279359948
0.00124279287201
0.00128486542629
0.00129598551855
0.00129019731275
0.00127959307063
0.00127200893418
0.00127199103378
0.00127954983005
0.0012901432719
0.00129593780977
0.00128484363846
0.00124280908605
0.00115283911506
0.000997218677819
0.000763488185053
0.000479856042866
0.000763386284127
0.000935981177766
0.00114012461281
0.00128613534752
0.00137633345145
0.00142369750896
0.00144227317372
0.00144432608094
0.00144011075839
0.00143629514966
0.00143627463242
0.00144005726875
0.0014442514741
0.00144219454459
0.00142363727676
0.00137630881699
0.0012861467112
0.00114016061668
0.000936026442018
0.000763427705393
0.000997066668584
0.00114008448341
0.00135895132829
0.00152208862171
0.00162570815169
0.00168143066662
0.00170402387903
0.00170725190722
0.00170286056093
0.00169867745435
0.00169865229576
0.00170279235805
0.00170715008867
0.00170390745927
0.00168132701204
0.00162563931452
0.00152205956057
0.00135895379494
0.00114010562782
0.00099709894612
0.0011526461965
0.00128606599693
0.00152206382814
0.00170177074799
0.00181784062919
0.00188163790108
0.00190923194791
0.00191504897606
0.00191231619447
0.00190888038951
0.00190885628368
0.0019122473068
0.00191492962052
0.00190908558928
0.00188149230747
0.00181772016584
0.00170168779464
0.00152201605017
0.00128604521341
0.00115264737868
0.0012426244324
0.00137626825504
0.00162569700889
0.00181786046786
0.00194396781375
0.00201794440808
0.00206101026406
0.00207949328298
0.00208288475741
0.00208139515556
0.00208137581566
0.00208283166932
0.00207941185313
0.00206090603937
0.00201780218157
0.00194380884056
0.00181772274001
0.00162559231576
0.00137619510906
0.00124257534486
0.00128473655236
0.00142368537123
0.00168148848659
0.0018817413503
0.00201801155725
0.00211406595146
0.0021729800688
0.0022005630592
0.00220801843533
0.00220770132831
0.00220768403694
0.00220797261671
0.00220049846609
0.00217289854621
0.00211395562342
0.00201785526189
0.00188156630551
0.00168133718662
0.00142356459175
0.00128463262777
0.00129594520288
0.00144234569579
0.00170418574897
0.00190945806616
0.00206112706049
0.00217303822475
0.00224258990329
0.00227554323804
0.00228457507795
0.002284167491
0.00228415076804
0.0022845335712
0.00227549088146
0.00224252254447
0.00217294741132
0.00206099964804
0.00190927911771
0.00170401821793
0.00144220009168
0.00129580306102
0.00129024558749
0.00144446751571
0.0017074906877
0.00191536008898
0.00207967247963
0.00220069734405
0.0022756481902
0.00231038929991
0.00231893557563
0.0023171284797
0.00231711586733
0.00231890856184
0.0023103609529
0.00227560086107
0.00220062679033
0.00207957460517
0.00191522352782
0.00170735295996
0.001444336565
0.00129010567995
0.00127966539421
0.00144025936765
0.00170310011793
0.00191258501704
0.00208308978616
0.00220821256009
0.00228477277132
0.00231905897908
0.0023243657456
0.00231945957163
0.00231946105764
0.002324373901
0.00231906942216
0.00228476763317
0.00220818576135
0.00208304573286
0.00191252855342
0.00170303555049
0.00144018471178
0.00127957664729
0.0012720347583
0.00143639221329
0.00169885866286
0.00190909469289
0.00208159454679
0.0022079237621
0.0022844141454
0.0023173073121
0.00231952741797
0.00231192123634
0.0023119387229
0.00231957508899
0.00231737320749
0.00228448064079
0.00220796876882
0.0020816262796
0.00190913330012
0.00169889593941
0.00143640476463
0.00127203905868
0.00127196648813
0.00143630985593
0.00169875742691
0.00190900650796
0.00208154238811
0.00220789835865
0.00228441193611
0.00231733524362
0.00231959416542
0.00231201961587
0.00231205679182
0.00231968744101
0.00231746586214
0.00228456036386
0.00220802871867
0.00208166451408
0.00190914948636
0.0016989019736
0.00143641590256
0.00127207570951
0.00127950248062
0.00144005334078
0.00170284034359
0.00191234973381
0.00208296356539
0.00220816345395
0.00228478873406
0.002319150346
0.00232454799018
0.00231971688723
0.00231976229236
0.00232466269244
0.00231931237861
0.00228497645869
0.00220834653097
0.00208315203264
0.0019125738503
0.0017030560993
0.00144021764581
0.00127967341526
0.00129007157246
0.00144421710561
0.00170715335371
0.00191499561206
0.00207950930399
0.0022006587919
0.0022757100154
0.00231056475195
0.00231922663061
0.0023175139006
0.00231755846327
0.00231934330003
0.00231073198405
0.00227590498722
0.00220086070291
0.00207973071437
0.00191528126484
0.00170739205237
0.00144439264343
0.00129024878627
0.00129584545781
0.00144213888525
0.00170387539182
0.00190909558501
0.00206096996405
0.00217303194057
0.00224270813234
0.00227580050192
0.00228496893725
0.00228466802559
0.00228471012852
0.00228508214735
0.00227596364669
0.00224289509562
0.00217322967223
0.00206118656391
0.00190935837298
0.00170408170054
0.00144228107779
0.00129598018473
0.00128476589128
0.00142358938361
0.00168129118609
0.00188147384859
0.00201783568032
0.00211407053826
0.0021731285262
0.00220085241499
0.00220844013739
0.00220822590411
0.00220826632792
0.00220854831262
0.00220100727256
0.00217330580226
0.00211425835642
0.00201803842712
0.00188166296609
0.00168142623554
0.00142367047181
0.00128483334681
0.00124277766092
0.00137630235694
0.00162564596511
0.00181772893545
0.00194383066607
0.00201793199394
0.00206115573658
0.00207977968169
0.00208329355399
0.0020818965445
0.00208193666549
0.00208339949242
0.00207992977566
0.00206132434289
0.00201810326119
0.0019439792105
0.00181783498008
0.00162570687086
0.00137632353427
0.00124278497791
0.00115286868442
0.00128620607731
0.00152214701937
0.00170178054098
0.00181781098187
0.00188165180074
0.00190936515646
0.00191533123238
0.00191271421796
0.00190936995087
0.00190941071502
0.00191282082522
0.00191548151303
0.00190952482642
0.00188178914224
0.00181790557336
0.00170183162834
0.00152216145272
0.0012861921752
0.00115284687324
0.000997290588985
0.00114028633428
0.00135913011471
0.00152221122595
0.00162578397254
0.00168151118762
0.00170417264325
0.00170750775561
0.00170322435665
0.00169913282669
0.00169917504235
0.00170333079992
0.00170764710651
0.00170431075754
0.00168162083838
0.00162585138491
0.00152223910348
0.00135912768921
0.00114026372079
0.000997266379986
0.000763546306335
0.000936199860502
0.00114035536507
0.00128633088818
0.00137648639419
0.00142383890705
0.00144245266296
0.00144458316291
0.001440453628
0.00143671418585
0.0014367544622
0.0014405522602
0.00144470800205
0.00144257220518
0.00142393094264
0.00137654174741
0.00128635204131
0.00114035250091
0.000936182710363
0.000763527636387
0.000479859931632
0.000763648820002
0.000997431048167
0.00115304212871
0.00124300079538
0.00128505992069
0.00129622161216
0.00129052528179
0.0012800232832
0.00127252952956
0.00127258393579
0.00128015392537
0.00129069077779
0.00129638384185
0.00128519210884
0.00124309063347
0.00115308991873
0.000997450392191
0.000763650883024
0.000479845477593
0.000539106310782
0.00095518313613
0.00131268386796
0.00156137511326
0.0017136862879
0.00179308459437
0.0018238882969
0.00182802380069
0.00182309515751
0.00181883212786
0.00181880090981
0.00182301829174
0.00182792242182
0.00182378869668
0.00179302303305
0.00171368838563
0.00156143227699
0.00131277047251
0.00095526666777
0.000539137509239
0.000955121034992
0.00111773896112
0.00135236090475
0.00153335908025
0.00165531857299
0.00172822029768
0.00176564491008
0.00178097683902
0.00178532683368
0.00178584148281
0.00178581930352
0.00178526849794
0.00178089424073
0.00176555429149
0.00172814625163
0.00165528324722
0.00153336607923
0.00135240076977
0.00111779589808
0.000955188147842
0.00131255728936
0.00135232372711
0.00155311670317
0.00172048608645
0.0018381726269
0.00191121664335
0.00195035972322
0.00196739920366
0.001972350844
0.00197273590958
0.00197271754571
0.00197230044724
0.00196732396118
0.00195026713195
0.00191112832324
0.00183811102562
0.00172045790447
0.00155311772123
0.00135234566078
0.00131260589998
0.00156118074753
0.00153329881517
0.00172046599952
0.00188512876699
0.00200477273787
0.0020818784656
0.00212528779996
0.00214724419452
0.00215487359097
0.00215604047427
0.00215602775359
0.00215483743095
0.00214719333125
0.00212519962528
0.00208177723153
0.00200468151433
0.00188505722631
0.00172041505066
0.001533266134
0.00156116981495
0.0017134870445
0.00165526988036
0.00183815894087
0.00200477230456
0.00213033703678
0.00221783364274
0.00227148442004
0.00229909504875
0.00230935089254
0.00231140336945
0.00231139308291
0.00230932108062
0.00229905080025
0.00227142116182
0.00221774901747
0.00213022723124
0.0020046592429
0.00183805295933
0.00165517407365
0.00171339240549
0.00179297481235
0.00172822766108
0.00191124018354
0.00208189742858
0.00221783134115
0.00231674479307
0.00238044325479
0.0024143748741
0.00242742482752
0.0024303737089
0.00243036195766
0.00242739257331
0.00241433236798
0.00238038816575
0.00231667008919
0.00221772797375
0.00208175650718
0.00191109059095
0.00172807628592
0.00179279529657
0.00182394840211
0.00176573709563
0.00195043312205
0.00212532400836
0.0022714762716
0.00238044740499
0.00245251538831
0.00249141716848
0.00250619606238
0.00250935149869
0.00250933764768
0.00250616305866
0.00249138372426
0.00245246548733
0.00238037733893
0.00227137818731
0.00212518260527
0.00195026948642
0.00176555934698
0.00182372020535
0.00182824576185
0.00178113182792
0.00196748885788
0.00214722044962
0.00229907148967
0.0024144188199
0.00249152316403
0.00253272424808
0.00254683643607
0.00254853725074
0.00254852821273
0.00254682200652
0.00253272276129
0.00249148741959
0.00241435339177
0.00229898705353
0.00214711448708
0.00196735114825
0.00178097351653
0.00182804070325
0.00182335671146
0.00178547483557
0.00197242231931
0.00215485729308
0.00230933120299
0.0024275115416
0.00250641263861
0.00254701918956
0.0025583409743
0.00255746301068
0.00255747185014
0.00255836633028
0.00254704590134
0.00250640485804
0.00242747209722
0.00230927472649
0.00215478943882
0.00197234390735
0.00178538290004
0.00182325423997
0.00181899470457
0.00178591473847
0.00197274959466
0.00215599910337
0.00231138655827
0.00243049384701
0.00250962473712
0.00254878367701
0.0025575593014
0.00255470385875
0.00255471842048
0.0025576007865
0.00254883676705
0.00250966874195
0.00243050693039
0.0023113783116
0.00215599053544
0.00197275596062
0.00178592323905
0.0018190532451
0.00181882801968
0.00178579796134
0.00197265102876
0.00215593406925
0.00231134742269
0.00243047391677
0.0025096250989
0.00254881428446
0.00255763215385
0.00255479924844
0.00255482127034
0.00255768815614
0.0025488975351
0.00250972282747
0.00243054549861
0.00231139708147
0.00215599353793
0.00197274561764
0.00178590952823
0.001819052058
0.00182294236352
0.00178517598795
0.00197216704215
0.0021546916068
0.00230922977219
0.00242746027011
0.00250641629658
0.00254709317521
0.00255849867292
0.00255766803368
0.00255769731796
0.00255857171254
0.00254719786943
0.0025065312321
0.00242756012439
0.00230931810382
0.00215479651442
0.00197231667656
0.00178534896711
0.00182326218167
0.00182774206566
0.00178074835194
0.00196715222713
0.00214701626792
0.00229893183904
0.00241434552473
0.00249153233215
0.00253285068739
0.00254705212581
0.00254880657783
0.00254883706833
0.0025471345127
0.00253296790625
0.0024916519268
0.00241445477259
0.00229903670248
0.00214712677205
0.00196731459355
0.00178093042089
0.00182807118134
0.00182352559955
0.00176537801045
0.00195008983052
0.00212503692108
0.00227131097472
0.0023803697309
0.00245253314249
0.00249156792555
0.00250646160961
0.00250969212002
0.00250972200111
0.00250654565441
0.00249168526817
0.00245265170102
0.00238047822284
0.00227141993489
0.00212517230526
0.00195023227579
0.00176552272609
0.00182378673786
0.00179276082068
0.00172798487683
0.00191097819197
0.00208164215924
0.00221766951102
0.00231666983176
0.00238045756469
0.0024145058062
0.00242766737062
0.00243069973825
0.00243073151969
0.00242775414586
0.00241462265696
0.00238057378579
0.00231677087962
0.00221775992374
0.00208173974406
0.0019110660539
0.00172806233362
0.00179290854653
0.00171350065569
0.00165517845862
0.00183802544865
0.00200460773634
0.00213018434433
0.00221775716223
0.00227148416057
0.00229917852043
0.00230952213996
0.00231164482856
0.00231167948187
0.00230961297879
0.0022992962
0.0022715982857
0.00221784774201
0.00213025025727
0.0020046531278
0.00183805379701
0.00165519025692
0.00171354383272
0.00156135856573
0.00153334594674
0.00172046732882
0.00188507901492
0.00200469089556
0.00208181010541
0.00212527832512
0.00214730162175
0.0021550096482
0.00215624542032
0.00215628346953
0.00215510569838
0.0021474224977
0.00212539723232
0.00208189580558
0.00200473484352
0.00188509404379
0.00172046040786
0.00153332136869
0.00156134889133
0.00131280004332
0.00135247332196
0.00155323506023
0.00172054886646
0.00183818206594
0.00191120525637
0.00195037444901
0.00196747203088
0.00197249865358
0.00197296003099
0.00197300275264
0.00197260417815
0.00196760249022
0.0019504920323
0.00191128593768
0.00183821952621
0.00172055381034
0.00155321754856
0.00135244225445
0.00131278268215
0.000955316209159
0.00111795337758
0.00135257407339
0.00153352049502
0.00165541560646
0.00172827938124
0.00176571849863
0.00178111248247
0.00178553908819
0.00178612769332
0.00178617266552
0.00178564726417
0.00178124423583
0.00176583635134
0.00172836141881
0.00165545519034
0.00153352729038
0.00135256128331
0.00111793122519
0.000955300781123
0.000539116010352
0.000955462081959
0.00131302967345
0.00156166852488
0.00171389983761
0.00179326251116
0.00182412367599
0.00182839721557
0.0018236141662
0.00181947129785
0.00181954812358
0.00182380133712
0.00182863941001
0.00182436697436
0.00179346743354
0.00171404278504
0.00156175288344
0.00131307068788
0.000955470654565
0.000539095141595
0.000590625406387
0.00112102650794
0.00158661910346
0.00191662351841
0.00212429468587
0.0022386924812
0.00229241284599
0.0023152481734
0.00232711361965
0.00233389442848
0.00233384232275
0.00232698100679
0.00231506429059
0.0022922176855
0.00223854665556
0.00212424776596
0.00191667091627
0.00158672507273
0.00112113614303
0.000590660042577
0.00112096865362
0.00129010413657
0.00156953629422
0.00179417382435
0.00195224580481
0.00205225630145
0.00210942016894
0.00213969511012
0.00215517668747
0.002162072855
0.00216204584796
0.00215510428723
0.00213959068906
0.00210930273571
0.00205215516857
0.00195219239952
0.00179417541568
0.00156958189141
0.00129017563038
0.00112106535968
0.00158649165467
0.00156951262831
0.00178369064257
0.0019724916181
0.00211122550363
0.00220210967262
0.00225542679431
0.00228310375959
0.00229507895516
0.00229907070178
0.00229905421142
0.00229503073891
0.00228302871211
0.00225533203955
0.00220200948111
0.00211115307748
0.00197245776433
0.00178369115281
0.0015695388612
0.00158655883036
0.00191642462023
0.00179413456263
0.00197248163538
0.00214223515192
0.00227195313555
0.00236068111446
0.00241595532526
0.00244650965884
0.00245833963401
0.00246117488981
0.0024611670051
0.00245831340793
0.00244646863446
0.00241590811073
0.00236057950119
0.00227185676303
0.0021421553213
0.00197242033145
0.00179408996064
0.00191639838972
0.00212412222703
0.00195222624297
0.00211122303139
0.002271943228
0.00240166034222
0.00249957084665
0.00256225311139
0.00259520574595
0.00260674004989
0.00260859920336
0.00260859252544
0.0026067151172
0.00259516682816
0.002562200392
0.00249949234945
0.00240155584458
0.002271822023
0.00211109715877
0.00195210093932
0.00212397233543
0.00223867377951
0.00205229885544
0.00220212735945
0.00236064394468
0.00249951845615
0.00260595715553
0.00267539698848
0.0027101704248
0.00272074751917
0.00272164465793
0.00272162878049
0.00272070002278
0.00271010477268
0.00267531847682
0.00260586955624
0.00249941775037
0.00236049758002
0.00220195256893
0.00205210307437
0.00223840057424
0.00229265263421
0.00210954871646
0.00225545411698
0.00241581869781
0.00256212308626
0.00267536278521
0.0027480462874
0.00278242069012
0.00279089919801
0.00279016361247
0.0027901424925
0.0027908430357
0.00278235766958
0.00274795699969
0.00267526170485
0.00256202150083
0.00241570241632
0.00225526864163
0.00210931878553
0.00229231059031
0.00231571428341
0.00213987877523
0.00228311239446
0.00244633287468
0.00259502224857
0.00271017246743
0.00278255867192
0.00281470206112
0.00281969770284
0.00281612554403
0.00281611166386
0.00281966788333
0.0028146829827
0.00278248441907
0.00271005925638
0.00259491282801
0.0024462153355
0.00228295172597
0.00213966722502
0.00231540451435
0.00232759746163
0.00215532119001
0.00229502973776
0.00245812113004
0.00260654243808
0.00272078811794
0.00279115467726
0.00281990226363
0.00282039350667
0.00281356289638
0.00281357483551
0.0028204196089
0.00281991227836
0.00279111376839
0.00272070554496
0.00260644696281
0.00245802790781
0.00229492712777
0.00215518324091
0.0023274286486
0.00233418442929
0.00216209238502
0.00229893758593
0.0024609300153
0.00260841760116
0.00272172983136
0.00279045015219
0.00281635606935
0.0028136448655
0.0028048025541
0.00280481273654
0.00281367736588
0.00281638566291
0.00279046973745
0.00272171416466
0.00260836551524
0.00246088272427
0.00229891819633
0.00216206843771
0.00233423100061
0.0023338931719
0.00216191314923
0.00229879795145
0.00246084165205
0.0026083574524
0.00272167646125
0.00279042053119
0.00281636978727
0.00281372184355
0.00280490412911
0.00280492055608
0.00281375787668
0.00281642365711
0.0027905009243
0.0027217281788
0.00260835271923
0.00246084975797
0.00229886512996
0.00216200287702
0.00233415037192
0.00232683502936
0.00215484782641
0.00229465767366
0.00245788403061
0.00260636764603
0.00272064138227
0.00279107222888
0.00281991111095
0.00282051048905
0.00281372584338
0.0028137537651
0.00282057121058
0.00281999716744
0.00279117170512
0.00272071213627
0.00260638456519
0.00245792505652
0.00229477498104
0.00215500399654
0.0023272190605
0.00231470378946
0.00213923990992
0.00228259830654
0.00244600109692
0.00259476243915
0.00270993749742
0.00278241970417
0.00281472431639
0.00281982116117
0.00281629556093
0.00281632604121
0.00281990177988
0.00281483834116
0.00278252646166
0.00271000596892
0.00259478296323
0.00244604699589
0.00228272161089
0.00213940290415
0.00231510660547
0.00229166737882
0.0021088970969
0.00225490431529
0.00241547790207
0.00256182510271
0.00267508719762
0.00274786606992
0.00278242560271
0.0027910501095
0.00279039550558
0.00279042601298
0.00279113886908
0.00278254685806
0.00274796778487
0.00267513742094
0.00256183174325
0.00241549184926
0.00225499690535
0.0021090128309
0.00229198142248
0.0022379466278
0.00205176653101
0.00220163007091
0.00236020414764
0.00249918949663
0.00260567488804
0.00267517980592
0.00271010389454
0.0027208294777
0.00272183805078
0.00272187121275
0.00272092296955
0.00271022145438
0.00267526770331
0.00260570102878
0.00249918088092
0.00236022166316
0.00220166726538
0.00205180204563
0.00223809865628
0.00212371916173
0.00195187565316
0.00211085935398
0.00227156857177
0.00240131226496
0.00249927321881
0.00256198979957
0.00259500739142
0.00260663808481
0.00260858257271
0.00260861882393
0.00260673711152
0.00259512043629
0.00256206245093
0.0024992856417
0.0024012854394
0.00227153793442
0.00211083141016
0.00195183221769
0.00212371630529
0.00191628557924
0.00179396425404
0.0019722770819
0.00214197779201
0.00227165025548
0.00236036027035
0.00241566730969
0.00244623748972
0.00245812075674
0.00246102353527
0.00246106443835
0.00245822315178
0.00244635118205
0.00241573892256
0.00236037954404
0.00227161551842
0.00214192495904
0.00197221153152
0.0017938792595
0.00191620822061
0.00158650615521
0.00156948721808
0.00178363290049
0.00197236303853
0.00211101351556
0.0022018308716
0.00225512003464
0.00228280137414
0.0022948194622
0.00229888270847
0.00229892915774
0.00229492961758
0.00228292290351
0.00225520093279
0.00220185321099
0.00211098228588
0.00197230270736
0.0017835560535
0.00156940037346
0.00158642868763
0.00112102155041
0.00129018350192
0.0015695950101
0.00179415011464
0.00195210992782
0.00205201873426
0.00210913048899
0.00213941561765
0.00215493451783
0.00216188265329
0.00216192658012
0.00215503371512
0.00213952152174
0.00210919990303
0.00205203548962
0.00195207568933
0.00179408637735
0.00156952208949
0.00129011378482
0.00112096452631
0.000590546706452
0.00112117916093
0.00158678570137
0.0019166750773
0.00212418936857
0.00223847088801
0.00229219304466
0.00231514099088
0.0023271230763
0.00233399797775
0.00233407529506
0.00232730292569
0.00231535991703
0.00229239361968
0.00223861807819
0.00212425985816
0.00191668869874
0.00158676754201
0.00112114482752
0.000590505523946
0.000653500189825
0.00133340193943
0.00193419409922
0.00236577212201
0.00264715425797
0.00281474318464
0.00291331178064
0.00298297733165
0.003040358137
0.00307654361299
0.00307646498889
0.00304015154471
0.00298268048325
0.00291298284375
0.00281447231356
0.00264702061802
0.00236577702121
0.00193429049104
0.00133351479133
0.000653536002117
0.00133337727304
0.00150547431273
0.00184654653141
0.00213231096966
0.00234067278979
0.00247812226303
0.00256396762321
0.00261910841756
0.00265579494958
0.00267563545117
0.00267560158173
0.00265570216727
0.00261897116829
0.00256381133542
0.00247798490367
0.00234059699449
0.00213230551534
0.00184659342991
0.00150555156371
0.0013334968928
0.00193411981158
0.00184655170029
0.00208595605727
0.00230751192793
0.00247273245011
0.00258220913741
0.00264923247017
0.00268717647889
0.00270641016275
0.00271439105543
0.0027143716713
0.00270635208472
0.00268707963727
0.00264910145079
0.00258206894241
0.0024726349123
0.00230747019721
0.0020859571188
0.00184658005158
0.00193420299267
0.00236563729981
0.00213231712637
0.0023075232177
0.00248713175658
0.00262722701721
0.00272550458199
0.00279055556838
0.00282511599961
0.00283697004986
0.00283877508786
0.00283876661733
0.00283694137194
0.00282506068375
0.00279046236957
0.00272533911055
0.00262708999242
0.00248702944347
0.0023074517608
0.00213226424082
0.00236560246069
0.00264706715207
0.00234070441735
0.00247276470038
0.00262722663312
0.00276087746419
0.00286872718455
0.00293814824454
0.00296972059647
0.00297434582561
0.00297077048657
0.00297076411328
0.00297431664846
0.00296966180733
0.00293805259372
0.00286859780741
0.00276076827417
0.00262706748036
0.002472611764
0.00234055631742
0.00264687608067
0.00281483196548
0.00247820854936
0.00258226227282
0.00272546645072
0.00286866262517
0.00298348522257
0.00305270603147
0.00307603319832
0.00307162520071
0.00306299121941
0.00306297141497
0.00307155650155
0.00307591607398
0.00305254712474
0.00298332020036
0.00286850723476
0.00272526224273