/*--------------------------------*- C++ -*----------------------------------*\
| =========                 |                                                 |
| \\      /  F ield         | OpenFOAM: The Open Source CFD Toolbox           |
|  \\    /   O peration     | Version:  3.0.1                                 |
|   \\  /    A nd           | Web:      www.OpenFOAM.org                      |
|    \\/     M anipulation  |                                                 |
\*---------------------------------------------------------------------------*/
FoamFile
{
    version     2.0;
    format      ascii;
    class       surfaceVectorField;
    location    "4";
    object      Uf_0;
}
// * * * * * * * * * * * * * * * * * * * * * * * * * * * * * * * * * * * * * //

dimensions      [0 1 -1 0 0 0 0];

internalField   nonuniform List<vector> 
22672
(
(0.0028104755232 0.0010181934662 -0.00245494148732)
(0.00101524797129 0.00281438037607 -0.00245468192294)
(0.00187140358856 0.00187491870802 -0.00562485414508)
(0.00644700416799 0.000441637627443 -0.00228333289278)
(0.00413130892504 0.00213325588666 -0.00369000211888)
(0.00542182262753 0.00179652147842 -0.00576978397056)
(0.00987538250724 0.000185162065729 -0.00181542534049)
(0.00842390292752 0.0018833530053 -0.00387504010431)
(0.00936782423856 0.00183194956253 -0.00531173332279)
(0.0122687082209 0.000240599159172 -0.0012172822732)
(0.0117256303658 0.00206180891965 -0.00346622453742)
(0.0123244979752 0.00207958358074 -0.00445514035185)
(0.0131390592656 0.000557867973532 -0.000675583693687)
(0.0136427211044 0.00265664269485 -0.00289715121395)
(0.0139523118316 0.00253117470215 -0.00352700411395)
(0.0124488050617 0.00097187869869 -0.000298848049276)
(0.0136822060684 0.00347369852956 -0.00239551512662)
(0.0138040889341 0.00307597622882 -0.00278345987234)
(0.010509174564 0.00140380322099 -6.90507152898e-05)
(0.0123246299103 0.00423873718946 -0.00206455237331)
(0.0123642400944 0.00356902286863 -0.00229912748451)
(0.00753388579858 0.00180731752156 5.48357390965e-05)
(0.00964774952671 0.0049688934992 -0.00184443895208)
(0.00965242878124 0.00406005835321 -0.001993630389)
(0.00391276949077 0.00207602788178 9.24459061048e-05)
(0.00608737078033 0.00550304327554 -0.00175633586776)
(0.00608313921199 0.00442966412076 -0.00188195669325)
(1.6230806081e-06 0.00216904747575 9.73252597426e-05)
(0.00207735942629 0.00577824393355 -0.0017391556604)
(0.00207457658208 0.0046237456879 -0.00186713025863)
(-0.00391008187739 0.00207677586524 9.24091099728e-05)
(-0.00207211925168 0.00577865143423 -0.00173901561999)
(-0.00207084271353 0.00462394199585 -0.00186698098313)
(-0.00753270565347 0.00180870384861 5.46636983053e-05)
(-0.00608329920297 0.00550421969629 -0.00175599608621)
(-0.0060805114877 0.00443020890118 -0.00188163085709)
(-0.0105101094245 0.00140561126068 -6.94678812884e-05)
(-0.00964571172103 0.00497071830539 -0.00184403133764)
(-0.00965165260771 0.00406085146794 -0.00199334850799)
(-0.0124520096752 0.000973779855761 -0.000299602682001)
(-0.0123251555715 0.00424093501626 -0.00206423723006)
(-0.0123657267856 0.00356987472668 -0.00229906641013)
(-0.0131440003719 0.000559661853019 -0.000676726686656)
(-0.0136851508788 0.00347587587985 -0.00239558474727)
(-0.0138076667732 0.00307662176894 -0.00278391334345)
(-0.0122743263074 0.00024211517213 -0.0012188590114)
(-0.0136474526039 0.00265862230687 -0.00289788513887)
(-0.0139572076252 0.00253160262153 -0.00352832027611)
(-0.00988032349819 0.000186406758702 -0.00181745007877)
(-0.0117304079629 0.00206333196356 -0.00346776017176)
(-0.0123290374486 0.00207970174508 -0.00445735422856)
(-0.00645048082918 0.000442945522821 -0.00228597863924)
(-0.00842766726007 0.0018849065075 -0.00387725168031)
(-0.00937110694931 0.00183222047359 -0.00531476489819)
(-0.00281189722291 0.00101979992973 -0.0024581769628)
(-0.00413342041957 0.00213540400569 -0.00369299910322)
(-0.00542349554619 0.00179737508612 -0.0057740015465)
(-0.00101548435496 0.00281755661961 -0.00245790555628)
(-0.00187145195486 0.00187642266647 -0.00562946317004)
(0.00213095185986 0.00413473182573 -0.0036897425545)
(0.000439372367155 0.00645192178473 -0.00228239889239)
(0.00179450765616 0.00542601222412 -0.00576849233675)
(0.00631260999957 0.00381752246781 -0.00528170933041)
(0.00381654689976 0.00631329435559 -0.00528138315368)
(0.00556617877626 0.00556653246561 -0.00836169741075)
(0.0104500254273 0.00403000012041 -0.00552583930123)
(0.00889335382501 0.00661231447267 -0.00614275599258)
(0.00988607303349 0.00597095452719 -0.00886638061015)
(0.013298119323 0.00479235836147 -0.00514609347816)
(0.01277705469 0.00753361256722 -0.00587095661035)
(0.013084429967 0.00684127015123 -0.00831990523938)
(0.0143667109704 0.00594405896789 -0.00461708264688)
(0.0149810531603 0.00902346560619 -0.00523562256564)
(0.0147726020067 0.00809997687283 -0.00743542701618)
(0.0136643407139 0.00716725262577 -0.00416121945065)
(0.0151352700069 0.0107601366074 -0.00459654370283)
(0.0146799940777 0.00949689406298 -0.00658408541938)
(0.0114801921434 0.00828041202537 -0.0038399406101)
(0.0135832297647 0.0123591454403 -0.00411873789998)
(0.0130817085513 0.0107715455951 -0.00593628235725)
(0.00819622410675 0.00918386047882 -0.00365561055893)
(0.0106037967798 0.0137625740784 -0.00380675551558)
(0.0101878918744 0.0118852949594 -0.00550973980558)
(0.0042462238078 0.00975161848772 -0.00358793743427)
(0.00667274339224 0.0147654723779 -0.00367191357329)
(0.00641481905247 0.0126827396895 -0.00531245980577)
(3.64135747962e-06 0.00994337460876 -0.00357549654013)
(0.00227357329145 0.0152769862472 -0.00364054344069)
(0.00218824193155 0.0130923882662 -0.00525619352062)
(-0.00423951237193 0.0097524845817 -0.00358742081617)
(-0.00226398004539 0.0152774226016 -0.00364014598574)
(-0.00217798243842 0.0130925067805 -0.00525565251897)
(-0.0081911022481 0.00918552962915 -0.00365469112215)
(-0.00666438667 0.014766737979 -0.00367083367507)
(-0.00640570304982 0.0126830672121 -0.00531096359583)
(-0.0114775196166 0.00828270002032 -0.00383880068641)
(-0.010597727575 0.0137645618176 -0.00380506725454)
(-0.0101808559 0.0118858117507 -0.00550746009267)
(-0.0136645603613 0.00716980971433 -0.00416021929533)
(-0.0135803684801 0.0123615412235 -0.00411670412281)
(-0.0130775610315 0.0107721145503 -0.00593359688316)
(-0.0143694837558 0.0059465199298 -0.00461674319948)
(-0.0151356828058 0.0107625827431 -0.00459480987022)
(-0.0146788276171 0.00949726039661 -0.00658181130957)
(-0.0133021722179 0.00479445311469 -0.00514678629924)
(-0.0149840720842 0.00902572528908 -0.00523496968755)
(-0.0147737661915 0.0081000258195 -0.00743443817073)
(-0.0104538721707 0.00403194720643 -0.00552756177331)
(-0.012780813585 0.00753554299208 -0.00587167008131)
(-0.0130864394914 0.00684104083933 -0.00832053054012)
(-0.00631517020004 0.00382006143638 -0.00528427214429)
(-0.00889646121769 0.00661470050106 -0.00614456994436)
(-0.00988779012231 0.00597117722908 -0.00886851207048)
(-0.00213177780194 0.00413861799398 -0.0036927276967)
(-0.00381818088268 0.0063170605584 -0.00528397339749)
(-0.00556696117386 0.00556808533794 -0.00836506348965)
(-0.000439522579937 0.00645813012811 -0.0022851479483)
(-0.00179431101661 0.00542967576625 -0.00577236090222)
(0.00188250248031 0.00842583557215 -0.00387403949158)
(0.000183495978658 0.00987852783407 -0.0018134993127)
(0.00183135986512 0.00937059865668 -0.00530910895261)
(0.00661495823011 0.00889030048837 -0.00614242981586)
(0.00403086908158 0.0104463251357 -0.00552498240675)
(0.00597342242204 0.00988260992833 -0.00886548879155)
(0.0113921940444 0.00988435969615 -0.0064878733017)
(0.00989105619381 0.0113833979901 -0.00648797182465)
(0.0107981327385 0.0107904283543 -0.00954832425366)
(0.0146752302877 0.0115057427168 -0.00596048569782)
(0.0143827144413 0.0130557779459 -0.00600568925376)
(0.0143257085357 0.0123120747811 -0.00880520998464)
(0.0159318867064 0.0135368157857 -0.00521508362159)
(0.0169096828152 0.0153498284022 -0.00505294465483)
(0.0161495789813 0.0143107819674 -0.00758303158111)
(0.0151728580972 0.0155945333632 -0.00455406215216)
(0.0171217506772 0.0178781593513 -0.00409314982763)
(0.0160601356691 0.0164675963742 -0.00635901075045)
(0.0127279526504 0.017421874558 -0.00408555280546)
(0.015325088544 0.020185036641 -0.00334771313586)
(0.014269313392 0.0184470410351 -0.00538100649374)
(0.00907143011044 0.0188657399577 -0.00382305852993)
(0.0119322384712 0.0221399465237 -0.00286154686202)
(0.0110918712657 0.0201222264617 -0.00472087431707)
(0.00469438264007 0.019772071912 -0.00372451957971)
(0.00748779339503 0.0235244872186 -0.00264012443065)
(0.00697649659661 0.021311597884 -0.00438199473208)
(5.98924393516e-06 0.0200781875543 -0.00370519288629)
(0.00254644545499 0.0242270430241 -0.00257881242681)
(0.00237937073904 0.0219211577977 -0.00426169279408)
(-0.00468305339296 0.019772791434 -0.00372355884463)
(-0.00253276200985 0.0242272508108 -0.00257815849772)
(-0.0023638793549 0.0219211861608 -0.00426081602621)
(-0.00906193824911 0.0188671195763 -0.00382120980745)
(-0.00747540997571 0.0235251159349 -0.00263830347272)
(-0.00696227745651 0.0213116379495 -0.00437952353829)
(-0.0127214530132 0.0174237181552 -0.00408297069093)
(-0.0119224665249 0.022140937998 -0.00285847509767)
(-0.0110800687881 0.0201222685667 -0.00471689076778)
(-0.0151700759914 0.015596555718 -0.0045512946977)
(-0.0153192583883 0.0201860851425 -0.00334383634698)
(-0.0142610888365 0.0184468836983 -0.00537594817396)
(-0.0159326216263 0.0135388036966 -0.00521303635828)
(-0.0171201238598 0.0178791949405 -0.00408949999169)
(-0.0160558325325 0.0164670832815 -0.00635409084632)
(-0.014678108747 0.0115076054438 -0.00595985346961)
(-0.0169115580486 0.0153508984372 -0.00505062796)
(-0.0161485357821 0.01430993361 -0.00757970692469)
(-0.0113954838247 0.00988651958666 -0.00648867825235)
(-0.0143860370378 0.0130569526605 -0.00600515741573)
(-0.0143263518033 0.0123111493398 -0.00880405221765)
(-0.00661732281968 0.00889370737949 -0.00614427119755)
(-0.00989414025455 0.0113855971201 -0.006488868317)
(-0.0107991146493 0.0107903568196 -0.00954907277444)
(-0.00188336445505 0.00843169733431 -0.00387639364908)
(-0.00403268074619 0.0104507138314 -0.00552679071254)
(-0.00597383122421 0.00988454482254 -0.00886762577886)
(-0.000183963208578 0.0098867196444 -0.00181572703004)
(-0.0018311576601 0.00937621934095 -0.00531196322407)
(0.00206184948349 0.0117233351859 -0.00346444222788)
(0.000239496591677 0.0122677921213 -0.00121407546674)
(0.00207998280002 0.0123227644939 -0.0044511157776)
(0.00753849312145 0.0127678393688 -0.00587052441554)
(0.0047941129207 0.0132885214694 -0.00514514625051)
(0.00684561238219 0.0130754710313 -0.00831884363594)
(0.013068308313 0.0143683943949 -0.00600578777671)
(0.0115145136975 0.0146593407671 -0.00596137802617)
(0.0123227416832 0.0143118138064 -0.00880576370412)
(0.0168663955646 0.016672473849 -0.00509814821077)
(0.0166900603341 0.0168452546266 -0.00509917938898)
(0.0163018769619 0.0162842161722 -0.00758757218867)
(0.018309748892 0.0194040692594 -0.00393101086088)
(0.0195863263573 0.0196784235326 -0.0036619111716)
(0.0183242200134 0.0187986706557 -0.00577195957403)
(0.0174048313563 0.022114134656 -0.00288680081133)
(0.0198054058689 0.0227327213054 -0.00219037814271)
(0.0181803982037 0.0214805854093 -0.003949658519)
(0.0145591473389 0.024482457936 -0.00212370719242)
(0.0176789184922 0.0254897347176 -0.00101335581036)
(0.0160963927197 0.0239290657724 -0.00245903103317)
(0.0103397820681 0.0263235565557 -0.00167861276275)
(0.0137214900382 0.0277835196907 -0.000204870051314)
(0.0124675740804 0.0259619054432 -0.00142422741302)
(0.00533490077868 0.0274705827196 -0.00149441727776)
(0.00858144287107 0.0293990975107 0.000205784204451)
(0.00781436499284 0.0273903178228 -0.000869750572192)
(7.72939937312e-06 0.0278561211173 -0.00145177803824)
(0.00291143687006 0.0302186108505 0.000345831158624)
(0.00265960426711 0.0281161988952 -0.000664419397767)
(-0.00532009506145 0.0274707344078 -0.00149290312581)
(-0.00289517605783 0.0302182853204 0.000346763545506)
(-0.00264064446871 0.0281158755234 -0.000663233682463)
(-0.0103269311477 0.0263238293802 -0.00167556876294)
(-0.0085665145283 0.0293981657913 0.000208468596215)
(-0.007796678311 0.0273893828341 -0.000866237392142)
(-0.0145497742952 0.0244826492602 -0.00211934075371)
(-0.0137094735883 0.0277820473145 -0.000200329666116)
(-0.0124525555513 0.0259603823459 -0.00141828905699)
(-0.0173999821292 0.0221141433408 -0.00288204164097)
(-0.0176714406648 0.0254876586019 -0.00100766816572)
(-0.0160856038677 0.0239268188254 -0.00245138704387)
(-0.0183093075698 0.0194040833957 -0.00392709159341)
(-0.0198028069063 0.022730547312 -0.0021849524608)
(-0.018174347488 0.0214777464089 -0.00394204626996)
(-0.0168688673221 0.0166727018989 -0.00509593190612)
(-0.0195877619304 0.0196765827355 -0.00365788077774)
(-0.0183222107912 0.0187956700914 -0.00576614156691)
(-0.0130717147329 0.0143694405104 -0.00600534748038)
(-0.0166935304596 0.0168441129103 -0.00509719310546)
(-0.0163021554695 0.016281477103 -0.00758432770366)
(-0.00754124883545 0.0127708609078 -0.00587138783199)
(-0.0115180497336 0.0146599545434 -0.00596108094127)
(-0.0123237508076 0.014310411103 -0.00880483668498)
(-0.00206316237028 0.0117299109481 -0.00346612409349)
(-0.00479652857261 0.0132922121635 -0.00514592077104)
(-0.0068462487322 0.0130768128426 -0.00831959767916)
(-0.000240600988447 0.0122766513777 -0.00121559255445)
(-0.00208009302524 0.0123291912728 -0.00445310237204)
(0.00265715120801 0.0136346984404 -0.00289477948937)
(0.000556582198124 0.0131329973559 -0.000671804387313)
(0.00253252872735 0.0139443340184 -0.00352235981207)
(0.00902914137856 0.0149651868656 -0.00523599986114)
(0.00594525196304 0.0143520947363 -0.00461695221983)
(0.00810512056101 0.0147580135071 -0.00743556808993)
(0.0153640438473 0.0168874224685 -0.00505476963844)
(0.0135454243889 0.0159104267459 -0.00521812976167)
(0.0143228183287 0.0161298626223 -0.00758599445304)
(0.0197027785236 0.0195589643605 -0.00366294234981)
(0.0194219718974 0.0182816603956 -0.00393541672252)
(0.0188183167442 0.0182998004445 -0.00577514797604)
(0.0213202350534 0.0226741802454 -0.00192127845343)
(0.0227036183036 0.0212868396666 -0.00192449143738)
(0.0210662617267 0.021038445702 -0.00322588187136)
(0.0202069663247 0.0257478994696 -0.000316933141736)
(0.0228831817005 0.0244797365176 0.000165051073183)
(0.0208315964662 0.0239589710504 -0.000633757455854)
(0.0168574072062 0.0284132016018 0.000905481330744)
(0.0203669561225 0.0273209257133 0.00187196677062)
(0.0183786624677 0.0266181691774 0.00151835541625)
(0.0119385929135 0.0304670612825 0.00167952691588)
(0.0157613256164 0.0296619545998 0.00307965498616)
(0.0141873936762 0.0287970820637 0.00304036502428)
(0.00614836288197 0.0317452997582 0.00204603264083)
(0.00982658177946 0.0312965549042 0.00372930125173)
(0.00886604006887 0.0303204541809 0.00389275698292)
(8.55416884542e-06 0.0321755297785 0.00214437274237)
(0.00332637142745 0.0321220262859 0.00397083835756)
(0.00301122044453 0.0310948922445 0.00423637675398)
(-0.00613197621791 0.0317440286882 0.00204813526753)
(-0.00330969188522 0.0321210136291 0.00397173592702)
(-0.00299105089064 0.031093939875 0.00423778510398)
(-0.0119243485951 0.0304646282037 0.00168370769304)
(-0.00981107410558 0.0312935318008 0.00373206105201)
(-0.00884715837061 0.0303176808545 0.00389698933479)
(-0.0168469667887 0.028409735302 0.000911342921878)
(-0.0157487159823 0.0296571047685 0.00308456659655)
(-0.0141713542291 0.0287926601012 0.0030475441142)
(-0.0202015029821 0.0257438543176 -0.000310578985545)
(-0.0203590133664 0.027314419208 0.00187833445075)
(-0.0183671631733 0.0266122674517 0.00152775991213)
(-0.0213194707192 0.0226702500842 -0.00191574164513)
(-0.0228801768007 0.0244726395325 0.000171515828227)
(-0.0208251558567 0.0239523002075 -0.00062413884142)
(-0.0197053425063 0.0195557626916 -0.00365914197708)
(-0.0227049245986 0.0212803704966 -0.00191914893241)
(-0.0210641234375 0.021031773795 -0.0032179288891)
(-0.0153679337397 0.0168858116538 -0.00505292656635)
(-0.0194255996595 0.0182765584722 -0.00393213283576)
(-0.0188188929482 0.0182939094947 -0.00576986603693)
(-0.0090326173484 0.0149664078609 -0.00523561388033)
(-0.0135493033422 0.0159079231837 -0.00521667243144)
(-0.0143243560668 0.016125912183 -0.00758329600374)
(-0.00265922916437 0.0136405214185 -0.002895389232)
(-0.00594806529806 0.0143535541254 -0.00461663947489)
(-0.00810633407661 0.0147575682546 -0.00743474094072)
(-0.000558106360392 0.0131404875787 -0.000672603644262)
(-0.0025333138223 0.0139500758289 -0.00352307203765)
(0.00347300328001 0.0136701110927 -0.00239397711777)
(0.000970323071002 0.012439852591 -0.000294882914557)
(0.00307673639515 0.0137919674958 -0.00277986264995)
(0.010764263836 0.0151153837284 -0.00459908212035)
(0.00716723708913 0.0136477026796 -0.00416251299978)
(0.00950127552119 0.0146622246117 -0.00658687344745)
(0.0178909245878 0.0170949149162 -0.00409877684575)
(0.0156015574322 0.0151501999752 -0.00456026928153)
(0.0164787481971 0.0160375456773 -0.0063664395987)
(0.0227563966077 0.0197719172885 -0.00219696581009)
(0.0221300992576 0.0173756350361 -0.0028966095921)
(0.0214993257579 0.0181525029692 -0.00395945293965)
(0.0245139290176 0.0228458182501 0.000161838089235)
(0.0257768500042 0.0201716224778 -0.000327892090256)
(0.0239869762188 0.0207989528705 -0.0006423222515)
(0.0231467144152 0.0258134354517 0.00235395098554)
(0.0258518979059 0.0231099100358 0.00234943841519)
(0.0236378261242 0.0236037391141 0.00273703315753)
(0.0192474059955 0.0283381640409 0.00404614042604)
(0.0229342707085 0.0256762952981 0.0045281442467)
(0.02078940837 0.0261182352679 0.00554392976906)
(0.0135934046299 0.0302646437886 0.00512942932201)
(0.0176856608181 0.0277978869988 0.00608269323754)
(0.0159987676984 0.0281633781733 0.00751805875651)
(0.00698500592706 0.0314509893676 0.00565410696847)
(0.0109790992638 0.0292785741668 0.00693928911364)
(0.00996914363365 0.0295795141761 0.0086263682648)
(8.15004513507e-06 0.0318474599305 0.00579820154221)
(0.00370463731992 0.0300199742736 0.00726538479488)
(0.00337877433722 0.0302958332227 0.00907889608547)
(-0.00696925667232 0.0314482803611 0.0056556617115)
(-0.0036897021002 0.0300184179883 0.00726597882052)
(-0.00335987124102 0.0302942813444 0.00907999019552)
(-0.013579440247 0.0302593313323 0.00513291995552)
(-0.0109651026961 0.0292738154908 0.00694134426495)
(-0.0099512578417 0.029574882856 0.00862988764016)
(-0.0192369776047 0.0283304822504 0.00405155812542)
(-0.0176743716047 0.0277899814101 0.00608693569663)
(-0.0159834983606 0.028155900118 0.00752464878966)
(-0.0231410018214 0.0258041469416 0.00236042926452)
(-0.0229273726207 0.0256653695015 0.00453395430878)
(-0.0207784782884 0.02610808308 0.00555306271596)
(-0.0245128728058 0.0228364172027 0.000168108540945)
(-0.0258493308489 0.0230973388693 0.00235573527226)
(-0.0236316198359 0.0235920480389 0.0027471614598)
(-0.0227588328564 0.019763646348 -0.0021921397911)
(-0.0257782777806 0.0201594340768 -0.000322176966484)
(-0.0239851487072 0.0207872513708 -0.000633112766672)
(-0.0178947987037 0.0170889029023 -0.00409587870085)
(-0.0221336496858 0.0173652986384 -0.00289272911816)
(-0.0215002179766 0.0181419776298 -0.00395278287001)
(-0.0107677881039 0.0151130601712 -0.00459769802599)
(-0.0156053608151 0.0151433358151 -0.00455812417305)
(-0.0164806364102 0.0160296473113 -0.0063624314316)
(-0.00347514210811 0.0136733014221 -0.00239385388714)
(-0.00716997793027 0.0136456736227 -0.00416135154181)
(-0.00950267852142 0.0146585773228 -0.00658477353544)
(-0.000972077548838 0.0124449131656 -0.000295039435075)
(-0.00307758767873 0.0137953906341 -0.00277957232319)
(0.00423779817205 0.0123112003308 -0.00206341879657)
(0.00140241447912 0.010498275899 -6.44936401471e-05)
(0.00357020145205 0.0123503893984 -0.00229622564769)
(0.0123619107427 0.0135640380598 -0.00412370016095)
(0.00827968034655 0.0114655920774 -0.00384243635254)
(0.0107752598095 0.0130647570414 -0.00594200648922)
(0.0201958588927 0.0153001768944 -0.00335810202788)
(0.0174274382951 0.0127099440528 -0.00409447554728)
(0.0184567097733 0.0142491304406 -0.00539369686956)
(0.0255118889568 0.0176478093914 -0.00102753587227)
(0.0244959298443 0.0145367973713 -0.00213872908611)
(0.023945804087 0.016071849199 -0.00247719711483)
(0.0273550312121 0.0203320028413 0.0018597082357)
(0.028440987146 0.0168300012433 0.000886009170361)
(0.0266451987869 0.0183495864693 0.00149847403923)
(0.0257134533446 0.0228984576525 0.00452363167635)
(0.0283779717719 0.0192192841357 0.00403347075787)
(0.0261526560039 0.020759089389 0.00553219819859)
(0.0212925508964 0.0250798081887 0.0065646970582)
(0.0251172330835 0.0212652368119 0.00656266380464)
(0.0229364244704 0.0229063346334 0.00883195435252)
(0.0149743896107 0.0267444512591 0.00789255302916)
(0.0193078123647 0.0229641847417 0.00835592712716)
(0.0175939402689 0.0246731100013 0.0111518557572)
(0.00766610639011 0.0277551391947 0.00855056694006)
(0.0119503645552 0.0241178481232 0.00913031259904)
(0.0109215519138 0.0258924661321 0.0124690004762)
(6.82313585536e-06 0.028088848483 0.0087331620732)
(0.00401896909949 0.0246711632738 0.00942155967305)
(0.00369094058601 0.0265027693685 0.013008084805)
(-0.00765297721026 0.0277515765231 0.00855166137397)
(-0.00400771590202 0.0246693620673 0.0094220576025)
(-0.00367516051317 0.0265008563247 0.0130088464618)
(-0.0149629928006 0.026737237 0.00789536000605)
(-0.0119399986678 0.0241121446386 0.00913217301086)
(-0.010906693322 0.0258866821622 0.012471676628)
(-0.0212845350088 0.0250688664266 0.00656933187999)
(-0.0193002407025 0.0229540744741 0.00835987967266)
(-0.017581703014 0.0246634252565 0.011157439767)
(-0.0257095336972 0.0228844919593 0.00452926031653)
(-0.0251137722245 0.0212507364148 0.00656714675024)
(-0.0229282381648 0.022892540591 0.00883962332824)
(-0.0273548868701 0.0203169442087 0.00186544976484)
(-0.0283776634971 0.0192019043396 0.0040380411982)
(-0.0261483715646 0.0207424665377 0.00554078040286)
(-0.0255144140458 0.0176338460974 -0.00102276629355)
(-0.0284431455409 0.0168122631229 0.000890397524414)
(-0.0266443305452 0.0183323080177 0.00150669181174)
(-0.0201995598886 0.0152891814728 -0.00335497459037)
(-0.0244993613153 0.0145212777752 -0.00213549705406)
(-0.0239471234281 0.0160560892997 -0.00247083898107)
(-0.0123652496705 0.0135575903609 -0.00412177768887)
(-0.0174308464048 0.0126985342613 -0.00409244804163)
(-0.0184587802815 0.0142366781648 -0.00538951400295)
(-0.0042400479785 0.0123110351279 -0.00206253708974)
(-0.00828200638917 0.0114596814515 -0.0038408524527)
(-0.0107766961966 0.0130572920144 -0.00593921449775)
(-0.00140431760714 0.0104997545722 -6.40115356552e-05)
(-0.00357142565703 0.0123505039541 -0.00229489181743)
(0.00496764317556 0.00963549075302 -0.00184351119612)
(0.00180579608273 0.00752183311089 6.01468052165e-05)
(0.00406120483987 0.00963950343383 -0.00199120400194)
(0.0137643901318 0.0105900158631 -0.00381321173887)
(0.00918300014048 0.00818615346609 -0.00365830592925)
(0.0118886719636 0.0101757799215 -0.00551731195832)
(0.0221489263578 0.0119161437572 -0.00287510260551)
(0.0188704734356 0.00906206104912 -0.0038326435268)
(0.0201306827547 0.0110794333603 -0.00473665660427)
(0.0278038277521 0.0137016638915 -0.000225184043488)
(0.0263347441023 0.0103299669353 -0.00169549129343)
(0.0259765180917 0.012453590178 -0.00144807412437)
(0.0296964697338 0.0157390888474 0.00305977169253)
(0.030493117767 0.0119259126703 0.0016547742844)
(0.0288229673107 0.0141703119427 0.00301144329329)
(0.027837299162 0.0176641860976 0.00607250288615)
(0.0303057474709 0.0135804779773 0.00511202202658)
(0.0281993322992 0.0159814899503 0.00749797268471)
(0.0229929937781 0.0192870303182 0.0083538938736)
(0.0267847764241 0.0149623146405 0.00788914304623)
(0.0247053482948 0.0175785547946 0.0111472221601)
(0.0161148103157 0.0205583547047 0.00959368669704)
(0.0205806443584 0.0161017599177 0.0095965624319)
(0.0189217727137 0.0189065224228 0.013740601349)
(0.00825041478928 0.0213441417965 0.010001305332)
(0.0127006436008 0.0169013665812 0.0102330716907)
(0.0117261431679 0.0198325693662 0.0150808688281)
(4.47389576359e-06 0.0215958558584 0.0101104552024)
(0.00425570923569 0.0172874403476 0.0104563456828)
(0.0039520983185 0.0202815234616 0.0156296547215)
(-0.00824192738462 0.0213401280419 0.0100025692394)
(-0.00424922039232 0.0172853341811 0.0104570882432)
(-0.00394088846527 0.0202794996796 0.0156304196609)
(-0.0161081144358 0.0205496833117 0.00959669267747)
(-0.0126956221782 0.0168947243361 0.0102352694202)
(-0.0117158960264 0.019826191222 0.0150835979475)
(-0.0229898432484 0.0192734002765 0.00835769454292)
(-0.0205786040103 0.0160899141727 0.00960010200374)
(-0.0189145320637 0.0188950831147 0.0137458804609)
(-0.0278373286856 0.0176464259783 0.00607592763192)
(-0.0267862505812 0.0149457937918 0.00789160015736)
(-0.0247020692585 0.0175620943081 0.0111524207928)
(-0.0296985825411 0.0157192426064 0.00306298895778)
(-0.0303089531206 0.0135603772793 0.00511370602094)
(-0.0281985936924 0.0159611136276 0.00750277527426)
(-0.0278068690292 0.0136826275644 -0.000222333236096)
(-0.0304965814681 0.0119046226811 0.0016560302845)
(-0.0288237493378 0.0141484873759 0.00301592265794)
(-0.0221522646964 0.0119004619318 -0.00287297050532)
(-0.0263378709637 0.0103108882672 -0.0016942918912)
(-0.0259782170175 0.0124333240665 -0.00144421819951)
(-0.0137670948414 0.0105793709758 -0.00381152280545)
(-0.0188731078487 0.00904721031908 -0.00383162113722)
(-0.0201325746876 0.0110628584181 -0.00473384867299)
(-0.00496951473942 0.00963143686028 -0.00184232689861)
(-0.00918457420881 0.00817693615416 -0.00365694754032)
(-0.0118897587869 0.0101645316541 -0.0055148368971)
(-0.00180736984791 0.00751969619286 6.099107276e-05)
(-0.00406234130432 0.00963576060069 -0.00198945682091)
(0.00550187180041 0.0060771437211 -0.00175464792791)
(0.00207461847816 0.00389865760937 9.85954709225e-05)
(0.00443079645709 0.00607234869381 -0.00187869916688)
(0.0147671066536 0.00666660596185 -0.00367773771718)
(0.00975100031643 0.0042404285706 -0.00358952798761)
(0.0126862212095 0.00640935351921 -0.00531951264632)
(0.0235323629137 0.00748398262634 -0.00265303221471)
(0.019776531136 0.00469404147438 -0.00373250259175)
(0.0213196209812 0.00697417351759 -0.00439723897954)
(0.0294174507579 0.00857763145934 0.000184467034458)
(0.0274801565407 0.00533800584968 -0.00150925084981)
(0.0274033740442 0.00781386413897 -0.000893128780717)
(0.0313305305034 0.00982178786759 0.00370702461845)
(0.0317687480649 0.0061512802551 0.00202183890276)
(0.0303446094108 0.00886478167057 0.0038615503871)
(0.0293196168747 0.0109742445271 0.00692866218666)
(0.0314903862905 0.00698691209401 0.0056371576531)
(0.02961583999 0.00996754722645 0.00860447615667)
(0.0241491604258 0.0119451679835 0.00913181160453)
(0.0277952084187 0.00766642513603 0.00854887453318)
(0.0259268487711 0.0109203166214 0.0124663408378)
(0.0169163230407 0.0126944557474 0.0102359474255)
(0.0213670101602 0.00824760542997 0.0100081756909)
(0.0198495502584 0.0117245038122 0.0150869847887)
(0.00864389504384 0.0131343044724 0.0106881120414)
(0.0131411362915 0.00863854409203 0.0106899388807)
(0.0122520966706 0.0122496238409 0.0165352417557)
(2.02837712175e-06 0.0132749324763 0.0108029787236)
(0.00438893670988 0.00882637156431 0.0109155478863)
(0.00411407134374 0.0124991493213 0.0171029256213)
(-0.00864077156388 0.0131296754958 0.010689788424)
(-0.00438775958818 0.00882403527495 0.0109162782938)
(-0.00410765340382 0.0124968861293 0.017104088515)
(-0.0169155745749 0.0126845991864 0.0102386787464)
(-0.0131418068762 0.00863121704749 0.0106918167893)
(-0.0122475206981 0.0122425161094 0.0165383001709)
(-0.0241517197294 0.0119301481934 0.00913400761818)
(-0.0213705144767 0.00823512790604 0.0100104852898)
(-0.0198481828151 0.0117119328232 0.0150909223999)
(-0.0293242483563 0.0109550031103 0.00692937854637)
(-0.027801493521 0.00764958493354 0.00854910273159)
(-0.0259288406344 0.0109029301812 0.0124687303671)
(-0.0313354069073 0.00979992231195 0.00370674734765)
(-0.0314972293825 0.00696662068322 0.00563571138856)
(-0.0296192298335 0.00994598757677 0.00860491021075)
(-0.0294210606688 0.00855613979043 0.000184071629394)
(-0.0317735862473 0.00612946807129 0.00201897505278)
(-0.0303474114542 0.0088410929969 0.00386080526898)
(-0.0235350075196 0.00746574184222 -0.0026529425231)
(-0.0274826622322 0.00531824221039 -0.0015110383568)
(-0.0274052290898 0.00779151211829 -0.000893408914442)
(-0.01476882273 0.00665326413874 -0.00367704587209)
(-0.0197780858397 0.00467803608953 -0.00373318105241)
(-0.0213209314929 0.0069554373114 -0.00439701144031)
(-0.00550306936218 0.00606996775774 -0.00175362956895)
(-0.00975166733929 0.00422953625523 -0.00358903423897)
(-0.012686743645 0.00639574838909 -0.00531835339362)
(-0.00207555258337 0.00389379462429 9.9469836901e-05)
(-0.00443159348154 0.00606548643145 -0.00187716686858)
(0.00577736167247 0.00206747714609 -0.00173628458878)
(0.0021681309763 -1.62529467839e-05 0.00010362773804)
(0.0046249945429 0.0020644923308 -0.00186245354935)
(0.0152786930941 0.00227340991276 -0.00364429286218)
(0.00994274195611 1.04855191795e-07 -0.00357565758646)
(0.0130958539542 0.00218810338159 -0.00526100996773)
(0.0242342327564 0.00255281353685 -0.00258872122685)
(0.0200821362362 1.22548287179e-05 -0.00371077852544)
(0.0219287666152 0.00238578106661 -0.00427375485067)
(0.0302347056428 0.00292113066186 0.000328121018491)
(0.0278640193118 2.02179214406e-05 -0.00146301159755)
(0.0281280347604 0.00267027821589 -0.00068268655537)
(0.0321525050196 0.00333593677896 0.00395197193741)
(0.0321951578017 2.35618259471e-05 0.00212429542366)
(0.0311164422882 0.00302322185925 0.00420991704983)
(0.0300574527867 0.00371162009473 0.00725736999962)
(0.0318817416299 2.09154635016e-05 0.00578430206234)
(0.0303288178855 0.00338927794305 0.00906104554994)
(0.024700070105 0.004021873292 0.00942523861955)
(0.0281241413226 1.51060479466e-05 0.00873327881795)
(0.0265342605318 0.00369849916978 0.013008696421)
(0.0173016679303 0.00425489327969 0.0104621671461)
(0.0216156610121 6.94572156001e-06 0.0101184896115)