/*--------------------------------*- C++ -*----------------------------------*\
| =========                 |                                                 |
| \\      /  F ield         | OpenFOAM: The Open Source CFD Toolbox           |
|  \\    /   O peration     | Version:  3.0.1                                 |
|   \\  /    A nd           | Web:      www.OpenFOAM.org                      |
|    \\/     M anipulation  |                                                 |
\*---------------------------------------------------------------------------*/
FoamFile
{
    version     2.0;
    format      ascii;
    class       volScalarField;
    location    "2.5";
    object      p_rgh;
}
// * * * * * * * * * * * * * * * * * * * * * * * * * * * * * * * * * * * * * //

dimensions      [1 -1 -2 0 0 0 0];

internalField   nonuniform List<scalar> 
7968
(
4955.04482164
4955.00555726
4954.9167986
4954.78606735
4954.61872486
4954.42400078
4954.21232882
4953.99366964
4953.77726851
4953.5705172
4953.37973292
4953.2092402
4953.06117954
4952.93667648
4952.83476052
4952.75346291
4952.68994242
4952.64165939
4952.60811435
4952.58583858
4955.03347403
4955.00241367
4954.91794483
4954.79031569
4954.62416971
4954.42938601
4954.21681941
4953.99696251
4953.77926436
4953.57154422
4953.38000839
4953.20901743
4953.0609691
4952.93645067
4952.8343081
4952.75209551
4952.68662725
4952.63488084
4952.59701128
4952.56709201
4955.00084025
4954.97431117
4954.89159988
4954.76466453
4954.59766069
4954.40114347
4954.18651948
4953.96473491
4953.74545019
4953.53657128
4953.34424746
4953.17284134
4953.02483687
4952.90064198
4952.79888462
4952.71671476
4952.65050807
4952.59686541
4952.55651554
4952.522149
4954.9502569
4954.92712395
4954.84519538
4954.71789226
4954.54916532
4954.35025025
4954.13315504
4953.90912942
4953.68813493
4953.4779269
4953.28469913
4953.11279765
4952.96475009
4952.84078565
4952.7394836
4952.65761706
4952.59109282
4952.53617119
4952.4939519
4952.45615353
4954.88250717
4954.86091613
4954.7783557
4954.64949855
4954.47838644
4954.27685764
4954.05723681
4953.8313406
4953.60885215
4953.39751885
4953.20345585
4953.03096661
4952.88259909
4952.75881455
4952.65802766
4952.57671748
4952.51048045
4952.45530758
4952.41244376
4952.37296416
4954.80109841
4954.77984411
4954.69591112
4954.56500331
4954.39149202
4954.18741612
4953.96587485
4953.7385688
4953.51513886
4953.30313591
4953.10855848
4952.93563152
4952.7869967
4952.6632952
4952.56290485
4952.48226675
4952.41666739
4952.36194124
4952.31928694
4952.27935866
4954.71034769
4954.68866274
4954.6032077
4954.47041897
4954.29489169
4954.0892411
4953.86657882
4953.63867975
4953.41506272
4953.20304009
4953.00849022
4952.83552136
4952.68684264
4952.56323803
4952.46324938
4952.38322483
4952.31840154
4952.26447453
4952.22251825
4952.18298479
4954.61433171
4954.59201177
4954.50538539
4954.37133341
4954.19482812
4953.98858139
4953.76585195
4953.53825132
4953.31525063
4953.10397113
4952.91019134
4952.73787062
4952.58971212
4952.46656076
4952.36711242
4952.28779169
4952.22378503
4952.17075777
4952.1296656
4952.09088491
4954.51686327
4954.49403984
4954.40686917
4954.27243795
4954.09592074
4953.89012637
4953.66832876
4953.44193852
4953.22045462
4953.01082231
4952.81871993
4952.64793091
4952.50108937
4952.37904927
4952.28060036
4952.2022695
4952.13923078
4952.08721446
4952.04701107
4952.00871584
4954.4211609
4954.39818222
4954.31114125
4954.17720653
4954.00159636
4953.79718324
4953.57718443
4953.35285302
4953.13371911
4952.92661097
4952.73710064
4952.56880339
4952.42424668
4952.30423292
4952.20755272
4952.1307744
4952.06908764
4952.01829737
4951.97909805
4951.94167487
4954.33007501
4954.3072391
4954.22101355
4954.08836729
4953.91452574
4953.71228402
4953.49479064
4953.27327221
4953.05725373
4952.85348284
4952.66740456
4952.50249995
4952.36118514
4952.2441697
4952.15014601
4952.07564297
4952.01586805
4951.96653986
4951.92845652
4951.89196911
4954.24576311
4954.22347701
4954.13870452
4954.00804751
4953.83667515
4953.63724829
4953.42285631
4953.20477581
4952.99248834
4952.79271739
4952.61077901
4952.45006351
4952.3128671
4952.19975384
4952.10921619
4952.03764958
4951.98023009
4951.93265921
4951.89578916
4951.86030037
4954.17033255
4954.14855936
4954.06569313
4953.937647
4953.76942281
4953.57341042
4953.36262752
4953.1484703
4952.94036029
4952.74506403
4952.56779699
4952.41188865
4952.27948312
4952.17092653
4952.08441648
4952.01614536
4951.96125191
4951.91559641
4951.87999826
4951.84585159
4954.10420773
4954.08320669
4954.00265838
4953.87779834
4953.71319805
4953.52113408
4953.31441141
4953.10453272
4952.90090143
4952.71037141
4952.53809617
4952.38733984
4952.26004847
4952.15627767
4952.0738785
4952.00890787
4951.95649156
4951.91264196
4951.87823701
4951.84506522
4954.04777307
4954.02737775
4953.94922293
4953.8276877
4953.66715044
4953.47940073
4953.27709962
4953.07171304
4952.872672
4952.68694608
4952.51966993
4952.37403047
4952.25173231
4952.15246737
4952.07385492
4952.01185697
4951.96176164
4951.919675
4951.88652328
4951.85452572
4954.00075131
4953.9802027
4953.903999
4953.7854947
4953.62884683
4953.44555427
4953.24772689
4953.04681253
4952.85229597
4952.67118923
4952.50861986
4952.36767883
4952.24987902
4952.15449521
4952.07923026
4952.01984285
4951.97191385
4951.93172361
4951.90014531
4951.86992097
4953.96202196
4953.94017037
4953.86495248
4953.74858035
4953.59521277
4953.41584587
4953.22224711
4953.02531943
4952.83513426
4952.65822272
4952.49979236
4952.36272588
4952.24892407
4952.156935
4952.08429781
4952.02721458
4951.98150623
4951.94362217
4951.91418826
4951.88657045
4953.93067387
4953.90578811
4953.83005056
4953.7143827
4953.5632171
4953.38699201
4953.19698828
4953.00392001
4952.81711832
4952.64367979
4952.48869794
4952.35512531
4952.24404974
4952.15453684
4952.08406643
4952.02911244
4951.98581821
4951.95081847
4951.92427197
4951.90038014
4953.90761521
4953.87863988
4953.80139545
4953.68525171
4953.53518002
4953.36106164
4953.17371013
4952.9834419
4952.79927686
4952.62842965
4952.47594337
4952.34475696
4952.23564289
4952.14783744
4952.07899238
4952.02584423
4951.9848364
4951.95278358
4951.92922113
4951.90946116
4953.89039405
4953.85363538
4953.77226646
4953.65321301
4953.50217429
4953.32841246
4953.14232362
4952.95368175
4952.77082839
4952.60169456
4952.45101805
4952.32208892
4952.2141785
4952.12762792
4952.06026667
4952.00916073
4951.97098258
4951.942807
4951.92349098
4951.91022285
4955.09386282
4955.04873104
4954.95280193
4954.81405552
4954.63909595
4954.43729092
4954.21889941
4953.99419979
4953.7722692
4953.56099152
4953.36626782
4953.19245489
4953.04251948
4952.91692309
4952.81496926
4952.73460209
4952.67324985
4952.62841757
4952.59876706
4952.58057068
4955.07794999
4955.04141418
4954.94909026
4954.81416194
4954.64365187
4954.44645495
4954.23220082
4954.01060973
4953.79040484
4953.57917034
4953.38308133
4953.20671872
4953.0529767
4952.92289699
4952.8160135
4952.73061512
4952.66458984
4952.61580015
4952.58254278
4952.55635108
4955.04114002
4955.00838181
4954.91619764
4954.78214362
4954.61353181
4954.41878729
4954.20694115
4953.98719521
4953.76782009
4953.55615489
4953.35858859
4953.17985307
4953.0228893
4952.88915006
4952.7784207
4952.68930982
4952.6201468
4952.56930058
4952.5350395
4952.50506307
4954.98678103
4954.95788953
4954.86655484
4954.73371869
4954.56703879
4954.37436826
4954.16424331
4953.94574312
4953.72649114
4953.51396679
4953.31449302
4953.13299807
4952.97274152
4952.83554836
4952.72121672
4952.62846009
4952.55589542
4952.50239311
4952.46615
4952.43220815
4954.91647267
4954.89198691
4954.80249284
4954.67160613
4954.50718351
4954.31642417
4954.10778309
4953.88934958
4953.66948977
4953.45556993
4953.254047
4953.07001723
4952.90704404
4952.76683539
4952.64914929
4952.55292977
4952.47681099
4952.4201281
4952.38104536
4952.34274317
4954.83337534
4954.81355344
4954.72659823
4954.59798283
4954.43556843
4954.24665391
4954.03814263
4953.81907298
4953.59802189
4953.3825143
4953.17922652
4952.9933229
4952.8284402
4952.68620955
4952.56640354
4952.46738863
4952.3882503
4952.32850358
4952.28627505
4952.24360996
4954.7412393
4954.72585216
4954.64172268
4954.51546393
4954.35528856
4954.16679046
4953.95799659
4953.73794538
4953.51563389
4953.2988125
4953.0944341
4952.90763432
4952.74198382
4952.59897393
4952.47816807
4952.37771353
4952.29633056
4952.2341289
4952.1889975
4952.14246126
4954.64402488
4954.63240293
4954.55100652
4954.4270862
4954.26841363
4954.08040336
4953.87134084
4953.65034175
4953.42698495
4953.20937157
4953.00484034
4952.81841223
4952.65342585
4952.51105223
4952.39057958
4952.28981664
4952.207165
4952.14360989
4952.09629386
4952.0468109
4954.54527737
4954.53635235
4954.45728146
4954.33547355
4954.17814943
4953.9908406
4953.78198722
4953.56065856
4953.33710636
4953.11971553
4952.91620405
4952.73141031
4952.56836105
4952.427864
4952.30891242
4952.20911801
4952.12702221
4952.06253671
4952.01402877
4951.96322088
4954.44799361
4954.44045005
4954.36306295
4954.24294805
4954.08707753
4953.90093849
4953.69308565
4953.47254718
4953.25003587
4953.03415396
4952.83284406
4952.65076953
4952.49070214
4952.35313766
4952.23678546
4952.13907937
4952.05845506
4951.99459971
4951.94620516
4951.89528178
4954.35462829
4954.34724157
4954.2707932
4954.15195478
4953.9976046
4953.8131886
4953.60731738
4953.38903241
4953.16915707
4952.95629605
4952.75831189
4952.57975042
4952.42331262
4952.28939085
4952.17650471
4952.08191598
4952.00386622
4951.94208216
4951.89520821
4951.84562587
4954.2675936
4954.25903908
4954.18273309
4954.06468845
4953.9118005
4953.72959823
4953.52660781
4953.31195052
4953.09619912
4952.88775924
4952.69412841
4952.51981112
4952.36760722
4952.23798123
4952.12934718
4952.03883058
4951.96447956
4951.90597215
4951.86182634
4951.81486565
4954.18849844
4954.17778204
4954.10086302
4953.9831408
4953.83156668
4953.65184749
4953.45235764
4953.24230943
4953.03174828
4952.82879508
4952.64043436
4952.47116631
4952.32393248
4952.19929958
4952.09560038
4952.00989278
4951.93997859
4951.88566374
4951.84514629
4951.80159207
4954.11917114
4954.10508955
4954.0268378
4953.90873496
4953.75827287
4953.58101029
4953.3852405
4953.18020891
4952.9754046
4952.77859938
4952.59625856
4952.43282587
4952.29128211
4952.17223464
4952.07399975
4951.99357792
4951.92877895
4951.87903672
4951.84276265
4951.80377449
4954.06019323
4954.04196178
4953.96188093
4953.84302434
4953.69270114
4953.51744569
4953.32514423
4953.1249414
4952.92583989
4952.73530286
4952.55936526
4952.4023221
4952.2670082
4952.15402884
4952.06158066
4951.98675978
4951.92740362
4951.88262193
4951.85093347
4951.81703803
4954.01143693
4953.98866461
4953.90656903
4953.78646592
4953.63563569
4953.46111464
4953.27150035
4953.0753904
4952.88142635
4952.6968342
4952.52726829
4952.37679502
4952.24791269
4952.14123811
4952.05469163
4951.9857685
4951.93206699
4951.89242389
4951.86532722
4951.83669777
4953.9723835
4953.94525172
4953.8614469
4953.73994257
4953.58800161
4953.41341882
4953.22500508
4953.0319117
4952.84185732
4952.66234834
4952.49862959
4952.35456175
4952.23162251
4952.13114292
4952.050667
4951.98758509
4951.93949757
4951.90477674
4951.88178988
4951.85814454
4953.94248358
4953.91159257
4953.82688489
4953.70434789
4953.55116619
4953.37578215
4953.18745407
4952.99550531
4952.80825134
4952.63260148
4952.47367787
4952.33496379
4952.21813389
4952.12320331
4952.04819533
4951.99042637
4951.94727906
4951.91660936
4951.8966338
4951.87721997
4953.92193103
4953.8874906
4953.8025846
4953.67921091
4953.5245335
4953.34754677
4953.15810306
4952.96602307
4952.77992375
4952.60664753
4952.45126406
4952.31693232
4952.20511582
4952.11524006
4952.04521072
4951.99213798
4951.95307567
4951.92538947
4951.90709911
4951.89121363
4953.90824012
4953.8655715
4953.77704498
4953.64995149
4953.49119809
4953.31026735
4953.11760709
4952.92356287
4952.73742922
4952.56539854
4952.41262287
4952.28160546
4952.17468374
4952.09005337
4952.02542869
4951.97768618
4951.9435633
4951.92008016
4951.90533101
4951.89615962
4955.21715317
4955.16744246
4955.06215494
4954.91030171
4954.72005662
4954.50186867
4954.26706134
4954.02685689
4953.7913725
4953.56907094
4953.36650296
4953.18807803
4953.03621327
4952.91113997
4952.81144851
4952.73455335
4952.67729658
4952.63655381
4952.61003414
4952.59325534
4955.19980942
4955.16405484
4955.06592537
4954.92063331
4954.73820756
4954.52800641
4954.30016461
4954.06506138
4953.8323184
4953.61019697
4953.40543503
4953.22280905
4953.06506863
4952.93290805
4952.82533903
4952.74027803
4952.67534781
4952.62815919
4952.59469862
4952.56484683
4955.16067327
4955.13243578
4955.03569597
4954.89077399
4954.71041223
4954.50352455
4954.27922515
4954.0469551
4953.81558212
4953.59311254
4953.38611345
4953.199768
4953.03719052
4952.89953876
4952.78640129
4952.69632821
4952.62769126
4952.57853002
4952.54269997
4952.50559358
4955.1030779
4955.08165865
4954.98543328
4954.83912124
4954.65870759
4954.45293702
4954.23011754
4953.99930922
4953.76841223
4953.54488166
4953.33538918
4953.14521952
4952.97806658
4952.83562303
4952.71809588
4952.62439593
4952.55334215
4952.50319036
4952.46538887
4952.42175042
4955.02915505
4955.01562289
4954.9214798
4954.77509411
4954.59530269
4954.39064943
4954.16885478
4953.93827918
4953.70686026
4953.48164033
4953.26940395
4953.07562517
4952.9044426
4952.75777992
4952.63566059
4952.53831656
4952.46417993
4952.41175996
4952.37054268
4952.31962001
4954.94197047
4954.93662531
4954.84594921
4954.70086205
4954.52249527
4954.31858907
4954.09718995
4953.86605535
4953.63347928
4953.40627492
4953.19146756
4952.99464141
4952.82031092
4952.67058867
4952.54543099
4952.44397151
4952.36650278
4952.31089964
4952.26531992
4952.20718954
4954.8452348
4954.84739696
4954.76085498
4954.61788711
4954.44115852
4954.23828629
4954.01687403
4953.78463097
4953.55075441
4953.32175524
4953.10503379
4952.90614335
4952.72987983
4952.57837801
4952.45141715
4952.34759746
4952.26675437
4952.20775716
4952.15776646
4952.09342509
4954.7429654
4954.75123603
4954.66879175
4954.52874668
4954.35380513
4954.15183587
4953.93036221
4953.69680932
4953.46192874
4953.23171183
4953.01418644
4952.8147238
4952.63819291
4952.48651197
4952.35916592
4952.25432052
4952.17167253
4952.10966279
4952.05604715
4951.98715519
4954.63883075
4954.6513567
4954.57230393
4954.43503259
4954.26217298
4954.0614202
4953.84050607
4953.6065552
4953.37245024
4953.14274346
4952.9260457
4952.72740603
4952.5516552
4952.40084937
4952.27420496
4952.16951853
4952.08604887
4952.0227567
4951.96704589
4951.89567269
4954.53594782
4954.55066162
4954.47386785
4954.3388999
4954.1679636
4953.96869912
4953.74899441
4953.5157711
4953.28332358
4953.05538122
4952.84098706
4952.64489986
4952.47181471
4952.32370105
4952.19948528
4952.0966813
4952.01433396
4951.95136676
4951.89544516
4951.82371589
4954.43714407
4954.45188369
4954.37605558
4954.24258899
4954.07329878
4953.8757823
4953.65803003
4953.4270719
4953.19751425
4952.97293693
4952.76231504
4952.57025614
4952.40135179
4952.25745025
4952.13725972
4952.03803879
4951.95861163
4951.89782659
4951.84382816
4951.77394242
4954.34484498
4954.35747007
4954.28129261
4954.14836695
4953.98037481
4953.78480776
4953.56964997
4953.34238114
4953.11677567
4952.89699273
4952.69147156
4952.50484354
4952.34160506
4952.20339958
4952.08874676
4951.9946982
4951.91992144
4951.8632835
4951.81283371
4951.74670049
4954.26104838
4954.26960931
4954.1918595
4954.05876167
4953.8917958
4953.69838786
4953.48644739
4953.26404173
4953.04313877
4952.82917891
4952.6298671
4952.44994396
4952.2936897
4952.16239558
4952.05438313
4951.9666073
4951.89768564
4951.84641754
4951.80094124
4951.74009503
4954.18741498
4954.19010655
4954.10978034
4953.9759777
4953.80988683
4953.61877542
4953.41051514
4953.19360844
4952.97850297
4952.7714387
4952.57935875
4952.4070118
4952.25832259
4952.13434393
4952.03324362
4951.9521837
4951.88974257
4951.8444058
4951.80481408
4951.75061543
4954.12477954
4954.12022027
4954.03679682
4953.90246178
4953.73663128
4953.54742884
4953.34274671
4953.13110148
4952.92192754
4952.72194142
4952.53754615
4952.37333868
4952.23269736
4952.11630877
4952.02232981
4951.9482451
4951.89253242
4951.85313048
4951.8197615
4951.77323532
4954.07325135
4954.06070569
4953.97428601
4953.8395506
4953.67384257
4953.48577177
4953.28368519
4953.07630231
4952.87244632
4952.67911099
4952.50228389
4952.34626215
4952.21369379
4952.10522392
4952.01862546
4951.95170203
4951.90228228
4951.86827457
4951.84081174
4951.80249009
4954.0325267
4954.01223598
4953.92374792
4953.78932684
4953.62386178
4953.43620051
4953.23550863
4953.03068056
4952.83084455
4952.64312468
4952.47311659
4952.32472056
4952.19921934
4952.09939118
4952.02026021
4951.95983999
4951.91587354
4951.8861357
4951.86348761
4951.8330289
4954.00202405
4953.97515715
4953.88597651
4953.75274381
4953.58764859
4953.39981934
4953.19904226
4952.99527891
4952.79782869
4952.6142899
4952.44989051
4952.30841333
4952.19110733
4952.09753682
4952.02484363
4951.97001227
4951.93033075
4951.90338029
4951.88387452
4951.86003961
4953.98129905
4953.94729058
4953.85653079
4953.72268128
4953.55575272
4953.36539994
4953.16238405
4952.95762078
4952.76089919
4952.57992191
4952.42002378
4952.28437294
4952.17384181
4952.08711103
4952.02113885
4951.9723653
4951.93749857
4951.91371109
4951.89717241
4951.87978304
4953.96748173
4953.91993961
4953.82190882
4953.68153761
4953.50727343
4953.30985598
4953.10119434
4952.89301945
4952.69545082
4952.5160019
4952.3599014
4952.22971646
4952.12598353
4952.0468425
4951.98897032
4951.94847962
4951.92141916
4951.90426909
4951.89422222
4951.88762345
4955.41500772
4955.35882358
4955.24088431
4955.07074921
4954.858324
4954.61543423
4954.35517478
4954.09074802
4953.83413844
4953.5950463
4953.38074348
4953.19568135
4953.04182284
4952.91837649
4952.822708
4952.75100029
4952.69903062
4952.66297463
4952.63966596
4952.62445829
4955.39666511
4955.35899249
4955.25263202
4955.0933501
4954.89350531
4954.66314174
4954.41338338
4954.15613289
4953.90292126
4953.66361967
4953.44603856
4953.25511541
4953.09318759
4952.95972173
4952.85243476
4952.76824646
4952.70416567
4952.65750345
4952.62287968
4952.59011999
4955.35649791
4955.33113025
4955.2285111
4955.06866618
4954.86899117
4954.63985864
4954.39186662
4954.13604692
4953.88330984
4953.64303502
4953.42250242
4953.22693179
4953.05986437
4952.92086288
4952.80836705
4952.71981493
4952.65268237
4952.60404167
4952.56445432
4952.51999244
4955.29690113
4955.28305346
4955.18028706
4955.01365148
4954.80753904
4954.57381417
4954.32342978
4954.06630465
4953.81261743
4953.57029289
4953.34668253
4953.14724631
4952.97581414
4952.83296202
4952.7187088
4952.62960084
4952.56373631
4952.5173515
4952.47567291
4952.42055034
4955.21989494
4955.21893726
4955.11653122
4954.94342746
4954.73109509
4954.49299689
4954.23971696
4953.98076497
4953.72542236
4953.48056308
4953.25347023
4953.04975933
4952.87417311
4952.72841973
4952.61207349
4952.5216438
4952.45592629
4952.41063485
4952.36603711
4952.29950527
4955.12795495
4955.14000803
4955.03914809
4954.86161356
4954.6451846
4954.40394986
4954.14831814
4953.88699552
4953.6298621
4953.38240916
4953.15192727
4952.94401515
4952.764442
4952.61544599
4952.49653467
4952.40528011
4952.33826808
4952.29211474
4952.24360152
4952.16622034
4955.02475624
4955.04832936
4954.95008885
4954.77078713
4954.55248108
4954.30961677
4954.05224127
4953.78850504
4953.53047427
4953.28116077
4953.04812776
4952.83668192
4952.65373482
4952.50189033
4952.38076229
4952.28766098
4952.2191028
4952.17099919
4952.11823145
4952.03189938
4954.91478156
4954.94731638
4954.85223418
4954.67348678
4954.45524554
4954.2119752
4953.95383775
4953.68775057
4953.43007391
4953.17968264
4952.94547452
4952.73213877
4952.5475083
4952.39419908
4952.27177018
4952.17741317
4952.10756841
4952.05698546
4952.00052975
4951.90792083
4954.80222931
4954.84072296
4954.74862492
4954.57185454
4954.35503211
4954.11279215
4953.8559193
4953.58950438
4953.33747255
4953.08956615
4952.85661419
4952.64236594
4952.45537888
4952.3002328
4952.17658929
4952.08131819
4952.01041233
4951.95834973
4951.8996345
4951.80369902
4954.6906477
4954.73200913
4954.64227955
4954.4675556
4954.25260859
4954.01206186
4953.75723614
4953.49179807
4953.24424372
4952.99940611
4952.76941522
4952.55736444
4952.37195389
4952.21842716
4952.09635375
4952.00239344
4951.93226187
4951.88041142
4951.82147932
4951.72519164
4954.58326626
4954.62449191
4954.53592868
4954.36296895
4954.14983437
4953.91112502
4953.65850976
4953.39576925
4953.15203195
4952.91168969
4952.68656014
4952.47952081
4952.29908934
4952.15038385
4952.03280312
4951.94273506
4951.87561753
4951.82537924
4951.76918398
4951.67538692
4954.48259413
4954.52082494
4954.43195404
4954.26041733
4954.04897172
4953.81212675
4953.56164324
4953.30298623
4953.0621329
4952.82717009
4952.60849084
4952.40923216
4952.23728162
4952.09673177
4951.98658744
4951.90296111
4951.84122166
4951.79579879
4951.74306472
4951.6540976
4954.3910839
4954.4234348
4954.33366172
4954.16325465
4953.95378508
4953.71949391
4953.47195581
4953.21901536
4952.98002689
4952.75065702
4952.53945198
4952.35006463
4952.18918573
4952.05911311
4951.95825398
4951.88254799
4951.82743805
4951.78762371
4951.74025026
4951.65829292
4954.31038554
4954.33399114
4954.24268298
4954.07449962
4953.86791372
4953.6373653
4953.39422746
4953.14813526
4952.91360152
4952.69167409
4952.48918154
4952.31014988
4952.15988201
4952.03974284
4951.94768125
4951.87943986
4951.83049844
4951.7965352
4951.75557616
4951.68266872
4954.24143496
4954.25376872
4954.16072962
4953.99582288
4953.79379411
4953.56808296
4953.33033805
4953.0910509
4952.86205777
4952.64768904
4952.4541398
4952.28552273
4952.14568995
4952.03500999
4951.95090854
4951.88904934
4951.84562807
4951.81662297
4951.78225146
4951.72027347
4954.18444098
4954.1839396
4954.08952994
4953.92945907
4953.73278085
4953.51260591
4953.28030778
4953.04718248
4952.82390365
4952.61675995
4952.43178606
4952.27302671
4952.14303815
4952.04078285
4951.96330316
4951.90675038
4951.86775358
4951.84229799
4951.81392229
4951.76415512
4954.13924481
4954.12599984
4954.03098635
4953.87686149
4953.68627381
4953.47126106
4953.24365666
4953.0153679
4952.79683665
4952.59590473
4952.41847197
4952.26855617
4952.14813606
4952.05246974
4951.98092622
4951.928857
4951.89283732
4951.86911099
4951.84559669
4951.80792619
4954.10550204
4954.08112073
4953.98598958
4953.83774235
4953.65283936
4953.442151
4953.21768614
4952.99203083
4952.77639239
4952.58044132
4952.40875888
4952.26609385
4952.15227291
4952.06443352
4951.99862266
4951.95040634
4951.91622084
4951.89306616
4951.87321886
4951.84600492
4954.082435
4954.04626412
4953.94717923
4953.79887808
4953.61351766
4953.40178479
4953.17624425
4952.9503059
4952.73603163
4952.54285495
4952.37666538
4952.24044348
4952.13386608
4952.05383211
4951.99536453
4951.95348464
4951.92430694
4951.90496443
4951.89064948
4951.87359717
4954.06754154
4954.0131481
4953.90211204
4953.74287335
4953.54558076
4953.32268711
4953.08857694
4952.85770772
4952.64237007
4952.45146791
4952.2906143
4952.16190259
4952.06447203
4951.99491183
4951.94803257
4951.91849352
4951.90140137
4951.89268798
4951.88871127
4951.88576228
4955.69666103
4955.63109301
4955.49751602
4955.30465433
4955.0638964
4954.78866695
4954.4942694
4954.19673976
4953.91103922
4953.64904853
4953.41938106
4953.22631594
4953.07086761
4952.95029436
4952.8600149
4952.79450466
4952.74823274
4952.71664772
4952.69623775
4952.6834147
4955.67782968
4955.63035072
4955.51045309
4955.33243609
4955.10979537
4954.85263662
4954.57311805
4954.28542756
4954.00413368
4953.74141461
4953.50702182
4953.3059836
4953.13969998
4953.00548504
4952.89892434
4952.81557357
4952.75191082
4952.70551819
4952.67111185
4952.64056432
4955.63962687
4955.60696502
4955.49050202
4955.30811519
4955.0803224
4954.81844464
4954.53539754
4954.24505902
4953.96235763
4953.69711005
4953.45886883
4953.2529067
4953.08227268
4952.94476665
4952.83585317
4952.75135332
4952.68759289
4952.64128587
4952.6015273
4952.55652284
4955.58166085
4955.56502061
4955.44476191
4955.24565078
4954.99977788
4954.72276509
4954.42960726
4954.13306037
4953.84604696
4953.577296
4953.335338
4953.12562536
4952.95214471
4952.81463886
4952.70847137
4952.63017554
4952.57479981
4952.53671374
4952.49674292
4952.43688622
4955.5047834
4955.50666435
4955.38135543
4955.16405802
4954.90020316
4954.60985009
4954.30664149
4954.00377637
4953.7132786
4953.44106502
4953.19500694
4952.98054225
4952.80331405
4952.66399633
4952.55980619
4952.48598243
4952.43744434
4952.40685851
4952.36648785
4952.2902807
4955.41009686
4955.43067849
4955.30086295
4955.06860907
4954.79170309
4954.48998494
4954.17961512
4953.87179283
4953.57952424
4953.30446626
4953.0543968
4952.83440749
4952.65241779
4952.50977798
4952.40462694
4952.33242483
4952.28736846
4952.26110265
4952.2192879
4952.12764772
4955.30062593
4955.3376645
4955.20559134
4954.96407874
4954.67791577
4954.36967072
4954.05612527
4953.74467514
4953.45366265
4953.17701974
4952.92361069
4952.69751232
4952.50990746
4952.36269649
4952.25469739
4952.1813519
4952.1369732
4952.11177664
4952.06763615
4951.96352403
4955.18150037
4955.23129192
4955.09893017
4954.85316717
4954.56291639
4954.25219055
4953.93814859
4953.62163966
4953.33450714
4953.05595222
4952.8006287
4952.5706024
4952.37991871
4952.22976485
4952.11925961
4952.04412286
4951.99879959
4951.97272732
4951.92616512
4951.81347435
4955.05795081
4955.11630854
4954.98532896
4954.73902681
4954.44850801
4954.13875088
4953.82845773
4953.50949044
4953.24484814
4952.97281768
4952.71974684
4952.48392692
4952.28255356
4952.12442192
4952.00891331
4951.93078257
4951.88370569
4951.85661536
4951.80785711
4951.69058268
4954.9343402
4954.99683297
4954.86825471
4954.62269296
4954.33365274
4954.026152
4953.72024514
4953.40120695
4953.14785761
4952.88048797
4952.63142958
4952.39706903
4952.19521317
4952.03679666
4951.9212393
4951.84329145
4951.79649509
4951.76953302
4951.7204186
4951.60265842
4954.81477363
4954.87719986
4954.75014892
4954.50665412
4954.21970095
4953.91419487
4953.61101477
4953.29542841
4953.04714983
4952.78655319
4952.54429209
4952.31656209
4952.12087469
4951.96804169
4951.85748686
4951.78371537
4951.74021387
4951.71605681
4951.66838521
4951.55345454
4954.70184669
4954.76029357
4954.63386654
4954.39327369
4954.10864223
4953.80471122
4953.50200801
4953.1922275
4952.9425857
4952.6886649
4952.45517195
4952.23962469
4952.05768351
4951.91718142
4951.81707122
4951.75153848
4951.71402323
4951.69310114
4951.65032945
4951.54164253
4954.59834545
4954.64865963
4954.52316716
4954.28698469
4954.00630689
4953.70543681
4953.4041656
4953.10374124
4952.84593277
4952.59672708
4952.37254322
4952.1731855
4952.01051976
4951.88691027
4951.80037671
4951.74519003
4951.71517878
4951.69977555
4951.66199566
4951.56226232
4954.50587436
4954.54387176
4954.4207153
4954.19196844
4953.91865495
4953.62360506
4953.32655999
4953.03669774
4952.77808746
4952.53806139
4952.32506435
4952.14089757
4951.99353236
4951.88359157
4951.80826564
4951.76175467
4951.7376192
4951.72702635
4951.69494559
4951.60709752
4954.4255005
4954.44722988
4954.32723166
4954.11006951
4953.84871511
4953.56327099
4953.2730196
4952.99187855
4952.73624698
4952.50432499
4952.3020013
4952.13196833
4951.99859147
4951.90073647
4951.83462439
4951.79456348
4951.77413082
4951.76536205
4951.73874623
4951.6659075
4954.35769659
4954.36065595
4954.24458061
4954.04264266
4953.79584638
4953.5238415
4953.24309125
4952.97008719
4952.71932046
4952.49448906
4952.30148957
4952.14327757
4952.02155123
4951.93340258
4951.873953
4951.8368851
4951.81675216
4951.80712858
4951.78502191
4951.72956109
4954.30293003
4954.28729211
4954.17526717
4953.9897159
4953.76002409
4953.50175194
4953.23214105
4952.96728922
4952.72166072
4952.50290291
4952.31761474
4952.16865204
4952.05605369
4951.97490263
4951.91925455
4951.88263355
4951.86019758
4951.84736623
4951.82870721
4951.79054585
4954.26140997
4954.23017314
4954.12136286
4953.95018475
4953.7359182
4953.49086644
4953.23063037
4952.97227002
4952.73143122
4952.51734812
4952.33824936
4952.19593103
4952.09015129
4952.01446179
4951.96123957
4951.92398337
4951.8985552
4951.88227065
4951.86651021
4951.84282321
4954.23252876
4954.18689208
4954.07448664
4953.90639067
4953.69588448
4953.45432378
4953.1967819
4952.94071127
4952.7017534
4952.49169545
4952.31813908
4952.18286614
4952.08382931
4952.01504665
4951.96810818
4951.93592619
4951.91425271
4951.90110628
4951.89198024
4951.88077286
4954.21593529
4954.15199934
4954.02483029
4953.84139932
4953.61349162
4953.35561486
4953.08567514
4952.82264118
4952.5823206
4952.37574757
4952.20929225
4952.08412838
4951.9971783
4951.94233566
4951.91120123
4951.89637375
4951.89188785
4951.89347238
4951.89721651
4951.89975687
4956.07192848
4955.99185809
4955.8390114
4955.61870063
4955.34340026
4955.02763875
4954.68967714
4954.34952
4954.02653932
4953.73562056
4953.48758582
4953.28597445
4953.13010891
4953.01430215
4952.9313915
4952.87347514
4952.83345563
4952.80635846
4952.78888202
4952.78078063
4956.0519186
4955.98162326
4955.84011912
4955.63628606
4955.38314762
4955.09009282
4954.77068715
4954.44197646
4954.12354066
4953.83091074
4953.57657642
4953.36530235
4953.19672829
4953.06455866
4952.961068
4952.880341
4952.81855566
4952.774095
4952.74324651
4952.72435554
4956.01974113
4955.96212878
4955.82033327
4955.60521055
4955.33747998
4955.02837195
4954.6943648
4954.35462109
4954.03004197
4953.73234014
4953.47332268
4953.2579728
4953.08730709
4952.95765395
4952.85916337
4952.78472509
4952.72880905
4952.68861292
4952.65485651
4952.62243504
4955.96945523
4955.9293988
4955.77679981
4955.52958045
4955.22531163
4954.8829674
4954.5261226
4954.17288377
4953.84052337
4953.53792393
4953.27487169
4953.05608141
4952.88555127
4952.76043568
4952.67322808
4952.6157968
4952.57960581
4952.55683932
4952.52656847
4952.47665949
4955.89870726
4955.8807402
4955.71302962
4955.42862241
4955.0888004
4954.71878063
4954.34407576
4953.98108654
4953.64485498
4953.33843278
4953.07072509
4952.84625912
4952.67236497
4952.54722997
4952.46529574
4952.41848228
4952.39789313
4952.39243527
4952.36675712