/*--------------------------------*- C++ -*----------------------------------*\
| =========                 |                                                 |
| \\      /  F ield         | OpenFOAM: The Open Source CFD Toolbox           |
|  \\    /   O peration     | Version:  3.0.1                                 |
|   \\  /    A nd           | Web:      www.OpenFOAM.org                      |
|    \\/     M anipulation  |                                                 |
\*---------------------------------------------------------------------------*/
FoamFile
{
    version     2.0;
    format      ascii;
    class       volScalarField;
    location    "8.3";
    object      epsilon;
}
// * * * * * * * * * * * * * * * * * * * * * * * * * * * * * * * * * * * * * //

dimensions      [0 2 -3 0 0 0 0];

internalField   nonuniform List<scalar> 
7968
(
5.37997780629e-05
6.8696737335e-05
8.19793067724e-05
9.09185855889e-05
9.61881901231e-05
9.89500848185e-05
9.99345768946e-05
9.99833557126e-05
9.97003259713e-05
9.92246076417e-05
9.89013075945e-05
9.89443598695e-05
9.89280285614e-05
9.85805896646e-05
9.73105256644e-05
9.44137150283e-05
8.91311698162e-05
8.06231870653e-05
6.8061027609e-05
5.3653369676e-05
6.86381520964e-05
0.000138918091989
0.000197936634317
0.000239853372809
0.000267331082221
0.000282917697514
0.000289959999213
0.000291313617087
0.000289693408441
0.000287173692293
0.000284980684724
0.000283295070374
0.000281108533433
0.000276681136849
0.00026782179458
0.000252160024364
0.000226861042578
0.00018888342304
0.000134565220613
6.82108226252e-05
8.17738558214e-05
0.000198097024575
0.000296854723256
0.000368108364938
0.000415794594269
0.000444084619712
0.00045770969058
0.000461285682492
0.00045916698794
0.000454708910307
0.00044986236604
0.000444945182889
0.000438764327051
0.00042881808566
0.000411719958547
0.000383689771966
0.000340458184118
0.000277391424112
0.00018859430527
8.10114724848e-05
9.07824061577e-05
0.000240449653132
0.000368799732044
0.000462124444056
0.000525026016662
0.000562568164918
0.00058073266131
0.000585525561888
0.000582727370289
0.000576899550742
0.000568953904426
0.000560019456032
0.000550216588693
0.00053590974063
0.000512766072606
0.000475901717902
0.00041988030523
0.000338914106082
0.000225757119369
8.95459029285e-05
9.63781044438e-05
0.000268686118719
0.000418017809046
0.000526896151036
0.00059999798564
0.000643347938865
0.0006663390747
0.000674717045657
0.000671996327983
0.000663521481408
0.000652731254686
0.000640656682521
0.000626114489807
0.000605667902926
0.000577138600607
0.000534922116046
0.000470972104419
0.000378378776203
0.00024937070242
9.44550270591e-05
9.93697675039e-05
0.000285581353087
0.000448611190713
0.00056743285035
0.000646660539018
0.000696809443582
0.000723566256485
0.000730383331201
0.00072463940526
0.000713034150158
0.000699827394515
0.000686237850914
0.000670728425324
0.000649082059738
0.000616066041017
0.000567669254222
0.000499520312024
0.000400460425525
0.000262318678829
9.68593254162e-05
0.00010057524571
0.000294183418766
0.000465102536221
0.000589449100183
0.000673129531775
0.000728009554663
0.000753419451072
0.000756892022973
0.000747461877756
0.000732843546126
0.000717833664856
0.000703746743918
0.00068876586753
0.000668059371746
0.000635358142975
0.000584387682994
0.000511909938098
0.000410075173271
0.000267652229875
9.78256666336e-05
0.000100641872111
0.000297206605767
0.00047189710782
0.000598648336042
0.000686760186604
0.000740960162573
0.000763470784607
0.000763228375995
0.00075034030746
0.000733268720722
0.000717146538663
0.000703273477581
0.000689549520018
0.00067067775156
0.000639815458796
0.000589814985023
0.000514546333857
0.000411858748426
0.000268349593345
9.81705415911e-05
0.000100331439169
0.000297261164283
0.000473148022541
0.000600385567783
0.000690203555772
0.000742613552966
0.000762244924525
0.000758923714722
0.000743465885315
0.000724758963486
0.000708140686027
0.000694841469614
0.000682455919344
0.00066540487008
0.00063653156641
0.000588310264281
0.000513875096315
0.000409891786937
0.000266875853114
9.79926687854e-05
9.99707491472e-05
0.000296351873215
0.0004720294218
0.000598720173162
0.000688317034762
0.000739018226443
0.000756667217625
0.000751542442366
0.000734750560503
0.000715321095694
0.000698628450362
0.000685890707948
0.000674492797703
0.000658668477004
0.000631193716429
0.000584436089016
0.000511261249928
0.0004071725285
0.000265092007506
9.76033101077e-05
9.98385350892e-05
0.000295653214442
0.000470281079013
0.000595740408232
0.000683979154825
0.000733647854767
0.000750624043958
0.000745218554332
0.000728471321381
0.000709262488805
0.000692829314128
0.000680363009628
0.000669273857482
0.000653808405622
0.000626837177243
0.000580799685025
0.00050854037933
0.00040519708077
0.000264006437123
9.72832861919e-05
0.000100095256244
0.000295225156671
0.000468032789527
0.000591736677888
0.000677639328875
0.000727019646701
0.000744627125066
0.000740388102549
0.000724951021675
0.000706827045923
0.000691000075408
0.000678496450232
0.00066697267897
0.000650986225921
0.000623635642328
0.00057757429929
0.000505835950436
0.000404020343035
0.000263776632991
9.7284505742e-05
0.000100376661192
0.00029393440202
0.00046378182412
0.000585066409182
0.000667201401449
0.00071657181657
0.000735705988379
0.000733726689912
0.000720546847518
0.000704152665714
0.000689199206269
0.000676614084233
0.000664327466132
0.000647312717711
0.000619076053324
0.000572652256657
0.000501521660231
0.000402189110611
0.00026340455185
9.72850258902e-05
0.000100223916417
0.000289886202003
0.000454688647972
0.000572218027538
0.000648695372644
0.00069740531785
0.000718267042526
0.000719109831985
0.000708824650473
0.000694663742355
0.000680921528673
0.000668488939426
0.000655510910254
0.000637479979158
0.000608452187644
0.000562106046286
0.000493299702971
0.000397128690736
0.000261048677333
9.67352026794e-05
9.89301065734e-05
0.000280670138935
0.000437005544045
0.0005484515748
0.000620436248897
0.000663728980759
0.000685272480862
0.00068878455728
0.000681600675264
0.000670055265989
0.000657975632349
0.000646197896093
0.00063307341867
0.000614675511478
0.000585803942267
0.000541126370389
0.00047770729317
0.000385317706243
0.000254473332817
9.52456743659e-05
9.58919726524e-05
0.000263757758561
0.000406661051263
0.000508512760364
0.000574724240987
0.00061194224997
0.000630041102568
0.000635011572227
0.000630579964777
0.00062181422683
0.000611874433351
0.000601482165783
0.000589249472813
0.000571904231243
0.00054533002052
0.000507018100255
0.00044858481441
0.000362716925286
0.000241034384883
9.26536099608e-05
9.03366574403e-05
0.000236236405988
0.000359257399843
0.000446798483562
0.000504020632434
0.000536491217709
0.000550607444111
0.00055269203867
0.000548969681296
0.000542752231159
0.000535339241327
0.000527239031138
0.00051797293464
0.000505251034495
0.000484602257788
0.000451299795391
0.000400038836595
0.000324842632919
0.000218047513221
8.78333925117e-05
8.1447678249e-05
0.00019521884746
0.000290385201606
0.000357769700895
0.000401677919737
0.000426601787249
0.000437526141184
0.000439252640271
0.000436099255001
0.000431273930808
0.00042651286073
0.000421963203373
0.000416341880043
0.000407311305816
0.000391734237893
0.000365973468589
0.000325905181679
0.000266828415333
0.000182573076573
7.9627313913e-05
6.8470910688e-05
0.000137600706432
0.000194983235206
0.000235183090832
0.000261084941574
0.000275306318876
0.000281258547482
0.000281933166775
0.000279982424769
0.000277377240737
0.000275151866572
0.000273371699834
0.000271121936766
0.000266762302814
0.000258240161786
0.000243268816877
0.000219094597879
0.000182922259276
0.000130979869054
6.73495935957e-05
5.37472792208e-05
6.85598573832e-05
8.17293744415e-05
9.05715793031e-05
9.56913433693e-05
9.83605668437e-05
9.93311032924e-05
9.94937752558e-05
9.92838796699e-05
9.88653161159e-05
9.84928831876e-05
9.82879876886e-05
9.80704086527e-05
9.73971350336e-05
9.58725330442e-05
9.28198796665e-05
8.76586645354e-05
7.93645297054e-05
6.71545853571e-05
5.33340098905e-05
6.76551838226e-05
0.000130481121102
0.000186232842052
0.000227848889419
0.000256551132223
0.000274431857825
0.000283892331147
0.000287218162745
0.000286793983141
0.000284808057264
0.000282463844342
0.000280000568635
0.00027655577326
0.000270335158283
0.000259486392745
0.000242100721615
0.000215906161614
0.000178414636854
0.000127220516316
6.71478094397e-05
0.000130543084466
0.000171927078244
0.000223641988868
0.0002654024903
0.00029547177021
0.000314834190739
0.000325491625272
0.000329762026864
0.000329940504423
0.00032791426552
0.000324830190607
0.000320914281812
0.000315540139718
0.000307361292996
0.000294646559648
0.000275513267925
0.000248091410569
0.000210955771628
0.000164669508982
0.000127047115525
0.000186381602294
0.000223951656497
0.000285082996072
0.000336435229653
0.00037426031125
0.000398997997311
0.000412720585937
0.00041815179436
0.000418082835977
0.000414816592135
0.000409832291019
0.000403531525098
0.000395321871465
0.000383735436343
0.000366734066384
0.000342149175553
0.000308036861411
0.000263368622713
0.00021028813311
0.000178074695356
0.000228350830434
0.000266318612563
0.000337166029828
0.000397596563307
0.000442451213738
0.000471861544214
0.000488098561279
0.000494286436228
0.000493733212948
0.000489036031197
0.000481919864959
0.000473068214393
0.000462080557538
0.000447447389306
0.000426746091498
0.000397503037327
0.000357560573342
0.000306009653624
0.000245939002474
0.000214820096057
0.000257770195483
0.000297344148049
0.000376218483084
0.00044383302756
0.000494020708304
0.000526884681765
0.000545233906202
0.000551858175082
0.000550132846053
0.000543493140446
0.000534331928191
0.000523509341844
0.000510414122442
0.000493165479664
0.000469476675229
0.000436934958441
0.000392887046658
0.000336285958884
0.000270769344549
0.000239317857449
0.000276711494165
0.000318019530164
0.000402686733477
0.000475294153493
0.000529082370205
0.000564682237503
0.000583639660389
0.000588952836796
0.000585037595235
0.000576146335328
0.000565198842272
0.000553208834394
0.000539383191246
0.000521396437949
0.000496285758232
0.000461398623274
0.000414877565603
0.00035521733993
0.000286192751771
0.000254045873316
0.000287521253099
0.000330292739821
0.000418596966599
0.000494198483651
0.000550304369904
0.000586860998666
0.00060463357194
0.000607561624582
0.00060097923952
0.000589854295994
0.000577522527213
0.000565084240217
0.000551556802579
0.000534188211954
0.000509457904961
0.000474134092114
0.000426245205464
0.000365164710595
0.000294358302334
0.000261480910578
0.000292566317928
0.000336426963513
0.000426601897613
0.000503568858828
0.000560800537056
0.000596620074241
0.000612311793723
0.000612552634362
0.000603410949228
0.000590415910162
0.000577185991912
0.000564829666398
0.000552171857369
0.000536115634801
0.000512720155799
0.00047830134458
0.000430410970832
0.000368945734081
0.000297577752995
0.000263753485862
0.000293989430532
0.000338630108475
0.000429411117616
0.000506604809571
0.000563747225624
0.000598205090029
0.00061180130904
0.000609763352315
0.000598675825731
0.000584426519933
0.000570773494547
0.000558776152976
0.000547089654244
0.00053239593258
0.000510500276816
0.000477436191224
0.000430452183827
0.000369227103632
0.000298023171827
0.000263500329424
0.000293706393446
0.00033868372598
0.000429218417022
0.000505947424179
0.00056229978704
0.000595474036938
0.000607583293534
0.000604158916505
0.00059203821581
0.000577243548177
0.000563548125864
0.000551948405897
0.00054098806339
0.00052726113427
0.000506483911728
0.000474573413675
0.000428612557063
0.000368075977752
0.000297329024182
0.000262430819764
0.000293027824316
0.000337618068645
0.000427277624021
0.000503014080974
0.000558398553087
0.000590768511061
0.000602311443131
0.000598595972442
0.000586436683382
0.000571781710598
0.000558320657818
0.000546999437403
0.00053634440208
0.000522994274656
0.000502716661711
0.00047145544222
0.000426258000738
0.000366482826138
0.000296366450192
0.00026149493031
0.000292017265262
0.00033550706086
0.000423745329572
0.000498088687941
0.00055239253945
0.000584481884446
0.000596377766719
0.000593417563637
0.00058213326282
0.000568220281529
0.000555212587612
0.000544020938712
0.000533248792528
0.000519706009685
0.000499330860287
0.000468216863528
0.000423493284209
0.00036449433027
0.000295172087818
0.000260849465714
0.000289376738032
0.000331458018594
0.000417665073992
0.000490219816584
0.00054300730389
0.000575047301424
0.000587932427353
0.000586521736526
0.000576837955344
0.000564170512757
0.000551842430367
0.000540752365217
0.000529632451618
0.000515560345202
0.000494746638522
0.000463538254805
0.000419244109533
0.00036122166628
0.000292956879655
0.000259625126558
0.000283426135636
0.000323893436783
0.000407185548673
0.000477244312053
0.000527801993626
0.000559497371277
0.000573518153179
0.000574056092584
0.000566443129303
0.000555432711261
0.000544070170937
0.000533239893311
0.000521826739757
0.000507243423808
0.000486063153138
0.00045497814259
0.00041157831491
0.000355019731777
0.000288274051194
0.000256133908806
0.000272173933801
0.000310846623567
0.000389962886604
0.000456475159909
0.000504296101232
0.000534461096162
0.000549103581983
0.000551489566301
0.000546094408857
0.000537024397503
0.00052696902846
0.000516758709958
0.000505439130303
0.000490785687057
0.00046980496655
0.00043959719933
0.000398043513981
0.000343638611215
0.000279253522998
0.000248322129712
0.000253420376996
0.000290259885079
0.000363624103632
0.00042522769323
0.000469574023374
0.000497211974754
0.000511269409435
0.000514859883518
0.000511457690794
0.00050442576929
0.00049600885927
0.000486925607221
0.000476384919279
0.000462505113273
0.000442763217427
0.000414753251196
0.000375893544586
0.000324660754174
0.000263819867541
0.000233770947319
0.000224868882455
0.000260252111186
0.000326207736008
0.000381337236194
0.000421068065815
0.000445920984693
0.000458464537791
0.000462059069887
0.000460022818009
0.000454899325528
0.000448360576806
0.000440952475033
0.000432059049301
0.000420102765614
0.000402874461191
0.000377809611229
0.000342584565096
0.000295853138253
0.000239942768396
0.00021023916112
0.000184259003126
0.000219650568907
0.000276987036346
0.000324247508827
0.000358142703317
0.000379408169711
0.00039033139349
0.000393782227711
0.000392578251924
0.000388985216789
0.000384381967371
0.000379089753448
0.000372417429237
0.000362903290017
0.000348578118382
0.000327234205791
0.000296781458525
0.000255847463776
0.000205993762325
0.000175116960449
0.000129793455001
0.000169658786156
0.000218927216679
0.000258034805181
0.000285567352463
0.000302707461003
0.000311597791046
0.000314641583568
0.000314153195232
0.000311960265415
0.000309113677491
0.000305785806548
0.000301298832155
0.000294366095617
0.000283285666766
0.000266169848135
0.000241074764994
0.000206377993976
0.000162264715792
0.000125756536145
6.75123320243e-05
0.000129580413067
0.000183836010497
0.000223680056585
0.000250604873502
0.000266897092013
0.000275096930447
0.000277520289341
0.000276672885141
0.000274602855777
0.000272343454883
0.000270035746084
0.000266908812434
0.000261446428056
0.000251619967767
0.000235554604453
0.000211017538551
0.000175381962375
0.000125867428213
6.64569282431e-05
8.14331984183e-05
0.000191230401735
0.000292390738972
0.000370208385181
0.000425309221965
0.000460427183862
0.000479334966372
0.000486335544669
0.000485669005116
0.000480842891029
0.000474052355286
0.000465849104879
0.000455251114763
0.000439919369978
0.00041682536011
0.000382604156276
0.00033378556426
0.000266902909127
0.000179056464996
7.96965961564e-05
0.000191472841724
0.000235656158193
0.000304393243327
0.000362645814635
0.000405927348711
0.000434438180048
0.000450288437362
0.000456438801906
0.000455984088247
0.000451561864226
0.000444871580553
0.000436428198305
0.000425607883283
0.000410861243919
0.000390099958425
0.000361132627419
0.000322133252199
0.000272380480024
0.000214599538415
0.000178695970336
0.000292964992621
0.000305105001366
0.000373009350683
0.00043474428193
0.000482143829462
0.000513984834223
0.00053181255191
0.000538505134961
0.000537276831983
0.000531078556223
0.000521925300934
0.00051056838963
0.000496471429299
0.000478114458649
0.000453442722384
0.000420376179945
0.000377589276469
0.000325654653783
0.000270609441977
0.000265724292026
0.000371657261199
0.000364514258339
0.000435988147666
0.000503334243504
0.000555685856775
0.000590886505177
0.000610218242044
0.000616861989264
0.000614062399318
0.000605386922644
0.000593350135607
0.000579014019737
0.000561882245709
0.000540282625751
0.000512230909903
0.000475357300265
0.000428469851682
0.000372801175993
0.000316527242509
0.000329886877559
0.000428355782756
0.000409446894789
0.000485186932281
0.000557575482387
0.000613800108914
0.000651219721807
0.000670829225564
0.000675486559684
0.000669584283741
0.0006575639631
0.000642572448856
0.000625967418024
0.000607155654475
0.000584168112599
0.000554318556305
0.000515107049629
0.000465573206665
0.000407084480077
0.00034908382545
0.000373209410392
0.000465797981622
0.000440111770939
0.000519401402219
0.000595349808594
0.000653861328967
0.000691841687428
0.000709439169202
0.000710135073804
0.000699696880589
0.000683687703263
0.000665883953544
0.000647876457095
0.000628881654197
0.000606435429475
0.000577236402837
0.000538131893299
0.000487704913507
0.000428007733071
0.00036905095975
0.000399137788384
0.000487688009441
0.0004586009201
0.000540199243586
0.000618007009538
0.000677261774265
0.000713685659527
0.000727298197675
0.000722586481673
0.000706885664804
0.000686821286837
0.000666695606958
0.00064819376529
0.000630283146423
0.000609928217308
0.000583225395625
0.000546337171692
0.000497173643701
0.000437745048672
0.000378896844112
0.000411840122524
0.000498235677559
0.000467849293647
0.000550477412872
0.000628661060313
0.000687042748874
0.000720533768171
0.000729298616535
0.000719057507209
0.000698471201925
0.00067501177615
0.000653318341593
0.000635024879305
0.00061884759062
0.00060126167847
0.0005778139736
0.000544152659286
0.000497536485426
0.000439675224612
0.00038179552576
0.0004157282586
0.000501543374814
0.00047090326197
0.000553503277383
0.000631109836153
0.000687563913401
0.000717792789012
0.000722256928808
0.000707601921892
0.000683426114933
0.000657721522095
0.000635252616698
0.000617503398524
0.000602976618241
0.000587869420897
0.000567384480069
0.000536810783243
0.000493012978468
0.000437435291071
0.000380863528881
0.000414879280041
0.000500938312463
0.000470285448859
0.000552050894332
0.000628374323371
0.000682883271388
0.000710565226787
0.000712182362473
0.000694926514376
0.00066887178444
0.000642190486058
0.00061960058763
0.000602417176051
0.000589005779492
0.000575488137525
0.000556970917437
0.000528609134691
0.000487073249714
0.000433549371485
0.000378457293989
0.000412313936496
0.000498354199539
0.00046748453848
0.000547849512818
0.000622600371573
0.000675607307274
0.000701968008043
0.000702576926726
0.000684739893905
0.000658534207321
0.00063201815614
0.000609766127105
0.000592980396129
0.000579993548117
0.000567007158461
0.000549235858345
0.000521916836349
0.000481718126128
0.00042967852906
0.000375900859246
0.000409726758939
0.000494002047308
0.00046270732852
0.000541223024808
0.000614237643551
0.000666294238172
0.000692604799372
0.000694012729741
0.000677497341809
0.000652688498622
0.000627292582464
0.0006057015923
0.000589095599903
0.000575886160734
0.000562477828819
0.000544342731869
0.00051696943349
0.000477190525048
0.000426021426773
0.00037330685881
0.000407358473007
0.000486339447229
0.000454871195922
0.000531088988914
0.000602122074831
0.000653458231314
0.00068060711099
0.000684265023679
0.000670672585902
0.000648586178237
0.000625148898458
0.000604544562781
0.00058801386024
0.000574136562056
0.000559636918082
0.000540357722245
0.000512150576451
0.000472154082137
0.000421438164451
0.00036964817262
0.000403856480359
0.00047255700382
0.000441937353395
0.000515357922039
0.00058409470058
0.000634268373608
0.000662390758806
0.000669077762109
0.000659480056874
0.000641133785236
0.000620421230185
0.000601243777487
0.000584929676157
0.000570290539823
0.000554477224657
0.000533777232052
0.000504455156648
0.000464121040065
0.000413819808269
0.000363025339942
0.00039657193886
0.000449123985349
0.000421374437018
0.000491434061563
0.000557191617622
0.000605520037763
0.0006340837998
0.000643609439342
0.000638250217435
0.000624119354235
0.00060669115794
0.000589490350821
0.00057384223452
0.000558845912836
0.000542060930134
0.000520263259405
0.000490216253504
0.000450027171181
0.000400718749359
0.000351015284912
0.000382116180529
0.000412267740353
0.000390655785885
0.000456916599509
0.000518937205233
0.000564906706177
0.000592754626611
0.000604119460401
0.000602353093869
0.000592237275311
0.000578293794261
0.000563569268399
0.000549268189802
0.000534717210675
0.000517840970979
0.000495892161748
0.000466169845536
0.00042708590968
0.000379458326919
0.000331031231948
0.000356701118611
0.000358351582177
0.000347818489462
0.000410365237934
0.000468083652754
0.000510990967744
0.000537467323803
0.000549271310686
0.000549960537443
0.000543159854397
0.000532548896698
0.000520625825162
0.000508371201127
0.000495245098519
0.000479456385435
0.00045860266821
0.000430542049158
0.000393580931832
0.000348122633426
0.000300797904391
0.000316373881561
0.000284132929328
0.000292343663263
0.000352575307985
0.000406178720821
0.000445693407234
0.000470324889461
0.000481985075524
0.00048386689373
0.00047943267057
0.000471714976657
0.000462672844464
0.000452971926925
0.000442104370171
0.000428470695976
0.000409952004973
0.000384343272002
0.000349938392677
0.000306575095918
0.000259061247371
0.000257078091528
0.000187612879589
0.000227797003685
0.000290550930651
0.000342533994554
0.00037980688522
0.000402909656388
0.000414224349982
0.000416926462283
0.000414243415051
0.000408826249429
0.000402312678947
0.000395169383897
0.000386740484993
0.000375461467681
0.000359266905208
0.000335869370869
0.000303169072239
0.000259892580687
0.000207872489747
0.000175105096968
8.08922849547e-05
0.000187124032928
0.000282806155451
0.000354572372076
0.000403721572832
0.000433472098812
0.000447972839292
0.00045176580795
0.000449166039814
0.000443574676484
0.000437014921332
0.000429976640713
0.000421426826606
0.000409172962951
0.000390229445035
0.000361203093143
0.000318406933965
0.000257819340664
0.000175411591969
7.84316269982e-05
9.65777448496e-05
0.000264116217691
0.000419677848511
0.000540651304787
0.000627353142592
0.000683020977628
0.000712794318519
0.000723064663499
0.000720379054798
0.000710191027727
0.000695989701976
0.000678911140638
0.000657813210146
0.000629612101179
0.000590018761395
0.000534408968809
0.000458428203135
0.00035821470838
0.000230910508426
9.11515423939e-05
0.00026478137211
0.000321968439374
0.000418201085535
0.000501468590373
0.000564475834763
0.000606625467387
0.000630249091132
0.000639167619011
0.000637647271943
0.000629427357793
0.00061702006104
0.000601383216882
0.00058187020583
0.000556534935634
0.00052277509147
0.000477984929011
0.000420397540624
0.000350183908679
0.000272465287575
0.000230209382557
0.00042112613348
0.000419462797893
0.000508291065551
0.000592241839585
0.000658410210696
0.000703813866843
0.000729582845601
0.000739006468601
0.000736369866379
0.000725771582445
0.000710131347646
0.000690730926295
0.000667067438568
0.000637191429563
0.000598629812153
0.000549124599667
0.000487758279049
0.000416719091761
0.00034612051108
0.000355074588575
0.000543718800907
0.000504480699788
0.000593971075216
0.00068294670414
0.000754161678804
0.000803061933033
0.000830134825293
0.000838071224226
0.000831935467899
0.000816992992958
0.000796937845426
0.00077353154219
0.000746203635761
0.000712727857794
0.000670585533653
0.000617169658441
0.000551620183393
0.000477250685946
0.000407504443615
0.000447965019669
0.000633098853225
0.000569752382933
0.00066231113938
0.000756337068098
0.000831640944788
0.000882510847316
0.000907143850828
0.00090916696325
0.000895906740703
0.000874335373382
0.000849128349192
0.00082255138872
0.000793802029447
0.000760086458452
0.0007179101331
0.000663732043139
0.000596717561501
0.000520415227185
0.000450455411356
0.000509963311378
0.000692490508891
0.000614705584846
0.000710406899478
0.000808052087803
0.000885791665564
0.000934340237128
0.00095151561224
0.000943211487828
0.000919645927461
0.000889770694891
0.000859344676525
0.000830989482139
0.000803557466372
0.000773165594625
0.0007350037677
0.000684702863595
0.000619844202403
0.00054423805942
0.000474991810974
0.000545018574384
0.000726984940819
0.000641731276321
0.000739553831411
0.000838912939859
0.000915966613232
0.000957994482161
0.000963931124052
0.000942436873138
0.00090703618948
0.000868652535944
0.000833957092804
0.000805533184492
0.000781691869782
0.000757342221595
0.00072619103183
0.0006826328165
0.000623696519781
0.000551406843835
0.000484332076016
0.000559196140727
0.000742942439527
0.000654761076917
0.000753343480392
0.000852574240699
0.000925862821524
0.000959344563316
0.000952990031184
0.000918332276782
0.000872107594992
0.000826761798511
0.000789313918215
0.000761965301318
0.00074249092716
0.000724830566944
0.000701501570708
0.000665804526836
0.000614011770003
0.000547267175273
0.000483381972498
0.00055973795238
0.000746825234045
0.000658134083093
0.000756178879502
0.000853547531511
0.000922167094031
0.000947721311309
0.000931072162806
0.000886210671433
0.00083227140876
0.000782502629103
0.000743773111904
0.000717709040098
0.000701669007053
0.00068924118142
0.00067231217743
0.000643498957317
0.000598313042192
0.000537229798288
0.000477148018423
0.000553505854751
0.000743925092032
0.000655585777983
0.000752134380196
0.00084697084682
0.000911593523739
0.000931558724919
0.000908413387512
0.00085768806664
0.000799802685769
0.000748176463929
0.000709298543979
0.000684246888176
0.000670123513011
0.000660569104805
0.000647419899709
0.000623089932078
0.000582666682529
0.000526150279707
0.000469646189813
0.000545668126505
0.000737344644145
0.000649406916978
0.000743820786236
0.000836174197316
0.000898276669938
0.000915796567564
0.000890568735052
0.000838514749645
0.000780198066183
0.000728796620403
0.00069045023582
0.000665933367263
0.000652266781797
0.00064329939151
0.000631178915979
0.000608545915306
0.0005704995537
0.000516868870438
0.000463143175044
0.000539046539926
0.000727613206558
0.000640051358181
0.00073184393212
0.000821928165249
0.000883115370481
0.000901368420051
0.000878382873354
0.000829245640806
0.000773534692597
0.000723940775388
0.000686464708192
0.00066192559817
0.000647455181482
0.000637164856957
0.00062371268276
0.000600273220849
0.000562336854412
0.000509859235551
0.000457921178154
0.000533971170036
0.000712654938541
0.000626137529096
0.000714806761911
0.000802392108559
0.000863760980283
0.000885393575689
0.000868475106398
0.000826127760928
0.000775804219388
0.000729444592198
0.000693113171079
0.000668028341013
0.000651654552161
0.000638496646773
0.000621903357089
0.000595774680207
0.000556210423529
0.000503495820932
0.000452528927172
0.000528461777331
0.000688387447112
0.000604930911494
0.000689950951188
0.000774417010047
0.000835707961943
0.000862118139895
0.000853805534083
0.000821177326334
0.000778740680757
0.000737268367329
0.000702722042443
0.000676945163272
0.000657941759279
0.000640949924433
0.000620203461058
0.000590441292488
0.000548311001608
0.000494611871459
0.000444193615803
0.000518632810235
0.000649637193719
0.000573098563218
0.000654082350979
0.000734779825257
0.000794518986895
0.000825131879128
0.00082567595094
0.000803702854672
0.000770568537828
0.000735453217534
0.000703934057263
0.000678188492794
0.000656916325309
0.00063629719081
0.000611605748294
0.000578403349073
0.00053375259537
0.000479280235594
0.00042935231789
0.000499343860201
0.000591013979303
0.000527466862728
0.00060449323559
0.000680882160456
0.000737870396554
0.000770306643937
0.000777704333935
0.000765152118529
0.000741112311294
0.000713035185696
0.000685780030063
0.00066153947486
0.00063949951612
0.000616758824709
0.00058956588379
0.000554109865176
0.000508150489068
0.000454172988641
0.000404459854646
0.000464977590532
0.000507637557767
0.0004658832387
0.000540130792008
0.000612128269583
0.000666021133004
0.000697937421646
0.000709096348806
0.000703342613451
0.00068682845109
0.000665399615058
0.000643065609311
0.000621714408545
0.000600833725353
0.00057818041043
0.000550615026123
0.000514920990841
0.000469853373969
0.000417026402025
0.00036668223362
0.000409987835243
0.000395415706197
0.000388394773538
0.000463226705401
0.000532024475892
0.000582981503115
0.000613740290207
0.000626100674422
0.000624115231764
0.000612912510104
0.000597095610552
0.000579659956631
0.000562073304346
0.000543892381151
0.000523328682913
0.000497582299101
0.000463921110037
0.000420680466027
0.000368538958614
0.000314975781271
0.000329176973691
0.000251789453825
0.000300779235567
0.000384729646271
0.000455158327031
0.000505566182605
0.000535868373571
0.000548921789278
0.000549099542312
0.000541180102911
0.000529205062226
0.000515825260482
0.000502063877712
0.00048730460131
0.000469628236262
0.000446275942261
0.000414386724938
0.000371534110706
0.000316659243379
0.000252925513171
0.000218134840921
9.45673893491e-05
0.000250763686773
0.000392169119828
0.000498451841681
0.000570822860671
0.000613322051086
0.000631831291951
0.00063334355045
0.000624759205437
0.000611576856409
0.000597177625228
0.000582599065328
0.000566644836144
0.000546284621041
0.00051737922053
0.000475163161362
0.000414709104996
0.000330929300422
0.000218807610217
8.84336039704e-05
0.000118908013986
0.000370090601395
0.000600394441502
0.000781088630587
0.000913011319234
0.00099954996643
0.00104706730485
0.00106431795027
0.00106059641037
0.00104376772869
0.0010190601072
0.000988474257675
0.000950734790648
0.000901665483071
0.000835381120601
0.000746008191778
0.000628824457044
0.000480455493024
0.00029878710939
0.00010452481068
0.000371582353207
0.000447939083871
0.000585008502171
0.000706634625205
0.000801440057649
0.000867260057584
0.000906227022124
0.000922945563754
0.000923039297787
0.000911580636179