/*--------------------------------*- C++ -*----------------------------------*\
| =========                 |                                                 |
| \\      /  F ield         | OpenFOAM: The Open Source CFD Toolbox           |
|  \\    /   O peration     | Version:  3.0.1                                 |
|   \\  /    A nd           | Web:      www.OpenFOAM.org                      |
|    \\/     M anipulation  |                                                 |
\*---------------------------------------------------------------------------*/
FoamFile
{
    version     2.0;
    format      ascii;
    class       surfaceScalarField;
    location    "6.9";
    object      alphaPhi;
}
// * * * * * * * * * * * * * * * * * * * * * * * * * * * * * * * * * * * * * //

dimensions      [0 3 -1 0 0 0 0];

internalField   nonuniform List<scalar> 
22672
(
4.1999016197e-06
3.99670987958e-06
-8.19663107149e-06
1.05528436734e-05
2.86241410168e-06
-9.21538959945e-06
1.6926422414e-05
2.76070017706e-06
-9.13431481182e-06
2.16410228742e-05
3.55977260371e-06
-8.27441474843e-06
2.37253912908e-05
5.15087735881e-06
-7.23529061258e-06
2.28850764403e-05
7.13055161904e-06
-6.29028396091e-06
1.97540352277e-05
8.77691934862e-06
-5.64592583699e-06
1.46246187601e-05
1.02956137929e-05
-5.166243202e-06
8.1932620805e-06
1.13968283409e-05
-4.96551393465e-06
1.15968662615e-06
1.19648114237e-05
-4.93127364517e-06
-5.90486022728e-06
1.1982304433e-05
-4.91779101163e-06
-1.24279905836e-05
1.14448050389e-05
-4.92170412458e-06
-1.77079229445e-05
1.03634562922e-05
-5.08355036604e-06
-2.10415122892e-05
8.85259488907e-06
-5.51903045826e-06
-2.21048255275e-05
7.19927128302e-06
-6.1359822562e-06
-2.03205236317e-05
5.25265323672e-06
-7.03698211981e-06
-1.59266111264e-05
3.66752981183e-06
-8.06147522028e-06
-9.89502325387e-06
2.88065101124e-06
-8.91228047545e-06
-3.88206278977e-06
2.98333182007e-06
-8.99634134583e-06
4.1050473149e-06
-7.987135357e-06
3.06441020475e-06
1.01496073407e-05
-9.21733803682e-06
1.04677871224e-05
1.00642665225e-05
-1.46052497365e-05
1.79767696954e-05
1.11497268247e-05
-1.58980462754e-05
2.32172430605e-05
1.35654154571e-05
-1.52461568542e-05
2.53618644084e-05
1.70120507045e-05
-1.40058185119e-05
2.44338796733e-05
2.07672830194e-05
-1.27087903667e-05
2.08493035557e-05
2.40226736481e-05
-1.16612264383e-05
1.53128278693e-05
2.67452391841e-05
-1.09131918319e-05
8.53763879498e-06
2.86872887455e-05
-1.05153077887e-05
1.19092639249e-06
2.96881272437e-05
-1.0376635184e-05
-6.19043258947e-06
2.97202594016e-05
-1.03566241991e-05
-1.30667743628e-05
2.87739708692e-05
-1.04528496764e-05
-1.87614232766e-05
2.68640903543e-05
-1.08060091784e-05
-2.25456584735e-05
2.41500559008e-05
-1.15132520775e-05
-2.37219129293e-05
2.09025907868e-05
-1.25270868045e-05
-2.18681287313e-05
1.71876321073e-05
-1.37887633108e-05
-1.69607881135e-05
1.37664559954e-05
-1.50062992402e-05
-9.80235653326e-06
1.1373105459e-05
-1.56509245354e-05
-2.74231519851e-06
1.0290707993e-05
-1.43674530087e-05
1.03517270614e-05
-8.98903371154e-06
2.96703356653e-06
1.63530940926e-05
-9.17052796787e-06
1.15559921738e-05
1.7392716768e-05
-1.59174391917e-05
2.01399556497e-05
1.9552788478e-05
-1.69870616691e-05
2.59305346909e-05
2.32593666142e-05
-1.54845705074e-05
2.81216694815e-05
2.80374344095e-05
-1.32165605997e-05
2.6843542163e-05
3.30305056818e-05
-1.09851421508e-05
2.26866179003e-05
3.7409568536e-05
-9.23001530155e-06
1.65097151601e-05
4.09894544079e-05
-8.06735126483e-06
9.13331062809e-06
4.35260344625e-05
-7.46237409648e-06
1.21757011293e-06
4.48405309188e-05
-7.23669106091e-06
-6.74071640028e-06
4.48888669947e-05
-7.21034553153e-06
-1.42356339112e-05
4.36533226435e-05
-7.38445671484e-06
-2.05837682193e-05
4.11572672319e-05
-7.94506499861e-06
-2.49447516425e-05
3.75808165396e-05
-9.06980398312e-06
-2.64637605936e-05
3.32069851222e-05
-1.07854145998e-05
-2.45580690219e-05
2.8253292414e-05
-1.29713710423e-05
-1.9101398247e-05
2.35114959032e-05
-1.52017371983e-05
-1.08761574566e-05
1.98363187741e-05
-1.66884951656e-05
-2.63976500697e-06
1.76853005856e-05
-1.56310308515e-05
1.66169985772e-05
-8.90505040035e-06
3.76286595442e-06
2.0922904678e-05
-8.33271006818e-06
1.39687464016e-05
2.24830198085e-05
-1.52962093235e-05
2.38451742258e-05
2.51929048637e-05
-1.55165773996e-05
3.02853927261e-05
2.95512507655e-05
-1.273213861e-05
3.24461023517e-05
3.49794608226e-05
-9.10277532031e-06
3.05997348827e-05
4.0554159948e-05
-5.67732721513e-06
2.55836013642e-05
4.54446544557e-05
-3.01898981187e-06
1.84304457983e-05
4.94436697465e-05
-1.30109218955e-06
1.00957468356e-05
5.22782729624e-05
-4.17566884056e-07
1.25270277543e-06
5.37576589427e-05
-7.41069538834e-08
-7.64756377753e-06
5.38196243635e-05
-3.0510493664e-08
-1.61287641402e-05
5.24432737393e-05
-3.08768886276e-07
-2.34766366453e-05
4.9650498201e-05
-1.14537806167e-06
-2.86986837002e-05
4.56387556739e-05
-2.83591681493e-06
-3.076871519e-05
4.07367114424e-05
-5.4597256558e-06
-2.88807424358e-05
3.51931637165e-05
-8.82787436568e-06
-2.27728673049e-05
2.98053044058e-05
-1.2401715278e-05
-1.3264000306e-05
2.54853861975e-05
-1.51579707888e-05
-3.42230395328e-06
2.27909023846e-05
-1.49473331591e-05
2.12049030158e-05
-8.010249048e-06
5.35468843229e-06
2.28888204188e-05
-7.32063709705e-06
1.74125299158e-05
2.45095493164e-05
-1.40843999234e-05
2.86210745007e-05
2.72680610565e-05
-1.32837282462e-05
3.57083679169e-05
3.16003572131e-05
-9.13643063676e-06
3.77899912191e-05
3.69549076386e-05
-4.05710334771e-06
3.53015513504e-05
4.23825074212e-05
6.60058394717e-07
2.93034932377e-05
4.71556830966e-05
4.28699869663e-06
2.09882248106e-05
5.10730428983e-05
6.68586912048e-06
1.14136394036e-05
5.38732442411e-05
7.97959244105e-06
1.30049549689e-06
5.53604237502e-05
8.51036079653e-06
-8.88764687976e-06
5.54369529019e-05
8.57079732237e-06
-1.86572144451e-05
5.40745930706e-05
8.13823248695e-06
-2.72069385492e-05
5.13182358365e-05
6.88196975223e-06
-3.34152441726e-05
4.73673974218e-05
4.47964200256e-06
-3.61053993746e-05
4.25565989195e-05
8.70237563273e-07
-3.42735755007e-05
3.71427416237e-05
-3.78143865862e-06
-2.75126682792e-05
3.18222671517e-05
-8.77791215331e-06
-1.66813970983e-05
2.75279923139e-05
-1.2873921423e-05
-5.00209151451e-06
2.47854806583e-05
-1.36739317378e-05
2.31416332394e-05
-6.93886821501e-06
7.32761168971e-06
2.19700750854e-05
-6.40886853144e-06
2.11634060967e-05
2.34946844e-05
-1.28209170741e-05
3.3614112704e-05
2.59009108038e-05
-1.10835822072e-05
4.1281707215e-05
2.96629202509e-05
-5.73018335979e-06
4.3211128819e-05
3.43748534284e-05
6.50605536434e-07
4.00209636603e-05
3.91032590094e-05
6.46938361379e-06
3.30071183587e-05
4.32691359523e-05
1.09003656566e-05
2.3516101112e-05
4.67423028612e-05
1.38217350325e-05
1.271162355e-05
4.92734193986e-05
1.54042847885e-05
1.35262631255e-06
5.06611459519e-05
1.60582609535e-05
-1.0106746158e-05
5.0746286407e-05
1.61500262298e-05
-2.11697811761e-05
4.95002700126e-05
1.56373456029e-05
-3.09471986274e-05
4.70168112514e-05
1.40788281421e-05
-3.81741532473e-05
4.35029613902e-05
1.10913714361e-05
-4.15292324715e-05
3.92817828491e-05
6.6298664429e-06
-3.98179194683e-05
3.45433651549e-05
8.88023167815e-07
-3.24658138149e-05
2.98517387604e-05
-5.38162564068e-06
-2.04012678718e-05
2.61142111718e-05
-1.06508163598e-05
-6.95841463643e-06
2.37178895328e-05
-1.23753049186e-05
2.21772516778e-05
-5.99405405264e-06
8.97660554032e-06
1.87775969117e-05
-5.78412585946e-06
2.44220639772e-05
1.98479382124e-05
-1.17987213617e-05
3.79996810062e-05
2.16725514855e-05
-9.34922161599e-06
4.61783821031e-05
2.45603078673e-05
-3.07610851933e-06
4.79865453706e-05
2.82758711703e-05
4.29079537309e-06
4.41879788891e-05
3.19784940123e-05
1.09233048805e-05
3.62913262224e-05
3.52509096987e-05
1.59148547803e-05
2.57594923377e-05
3.8027831342e-05
1.9246284953e-05
1.3872327103e-05
4.00706221491e-05
2.10899460233e-05
1.41070938716e-06
4.1229322477e-05
2.18934281304e-05
-1.11765521947e-05
4.13090718412e-05
2.2024464425e-05
-2.33903932813e-05
4.02944280228e-05
2.14196715201e-05
-3.42674552013e-05
3.83025271493e-05
1.95913329143e-05
-4.2391143694e-05
3.54933697835e-05
1.61332621066e-05
-4.63273938295e-05
3.21653614832e-05
1.1052639845e-05
-4.47026748841e-05
2.84388802755e-05
4.47972519213e-06
-3.68248472028e-05
2.47271124772e-05
-2.75325390588e-06
-2.36390776999e-05
2.18434108418e-05
-8.91503066029e-06
-8.60183870158e-06
2.00196578334e-05
-1.13390707684e-05
1.8936374284e-05
-5.36101384141e-06
1.04869271892e-05
1.36144430836e-05
-5.3237519097e-06
2.71360735694e-05
1.42744496911e-05
-1.10756495243e-05
4.15717287887e-05
1.54455580551e-05
-8.20865949669e-06
5.01712672622e-05
1.73350850555e-05
-1.37427757314e-06
5.18980741507e-05
1.9862362008e-05
6.68668315792e-06
4.76572657016e-05
2.23626451106e-05
1.38566351542e-05
3.9075256693e-05
2.45690283072e-05
1.926386739e-05
2.76635678915e-05
2.64442815586e-05
2.29952173952e-05
1.47625177308e-05
2.77739925194e-05
2.51976612013e-05
1.44990204935e-06
2.86293509087e-05
2.59125709585e-05
-1.2005047862e-05
2.86997092236e-05
2.60642973943e-05
-2.52508849553e-05
2.79583535455e-05
2.55818966718e-05
-3.70697082373e-05
2.66640469966e-05
2.34572872942e-05
-4.59038200204e-05
2.47804328514e-05
1.95470291861e-05
-5.02719514093e-05
2.2534217163e-05
1.3999230791e-05
-4.87042410713e-05
2.00107488195e-05
6.86036872029e-06
-4.03953949742e-05
1.74783105533e-05
-1.06009877461e-06
-2.63525372018e-05
1.55774110785e-05
-7.7769218111e-06
-1.01156064799e-05
1.43986554694e-05
-1.06159994395e-05
1.37304599843e-05
-4.90974778021e-06
1.15708081643e-05
7.18058765007e-06
-5.13694774573e-06
2.90515091845e-05
7.49485245355e-06
-1.07010997531e-05
4.40742370862e-05
8.05562021333e-06
-7.63279587196e-06
5.2969193108e-05
8.9713697644e-06
-5.31228472605e-07
5.46582931722e-05
1.02373284446e-05
7.93596273512e-06
5.01495703726e-05
1.14809902722e-05
1.5390357527e-05
4.1093561476e-05
1.25793797031e-05
2.10456361536e-05
2.8982621005e-05
1.34279583605e-05
2.51272408821e-05
1.55215642695e-05
1.41776329268e-05
2.70573940986e-05
1.47708632575e-06
1.46389325211e-05
2.80348750869e-05
-1.27229817912e-05
1.46781965696e-05
2.82215603694e-05
-2.65697033982e-05
1.42810435624e-05
2.75240116555e-05
-3.90882851095e-05
1.35650824674e-05
2.56175260106e-05
-4.84203715644e-05
1.27004742142e-05
2.14120221076e-05
-5.30581578078e-05
1.15870646687e-05
1.55848999545e-05
-5.15197483355e-05
1.03334035618e-05
8.13886409867e-06
-4.29121020355e-05
9.0682694752e-06
-1.9766237803e-07
-2.82794303086e-05
8.14169162223e-06
-7.19701767652e-06
-1.12087563182e-05
7.57538586686e-06
-1.02474768754e-05
7.25801246469e-06
-4.73636775078e-06
1.21172274318e-05
1.75349718567e-07
-5.1119964888e-06
3.00151364119e-05
1.78436397987e-07
-1.0581489855e-05
4.53366410896e-05
1.72145255134e-07
-7.43802941703e-06
5.43879595622e-05
1.63073310386e-07
-2.43030843209e-07
5.60744000019e-05
1.54834125348e-07
8.39603192678e-06
5.14631401411e-05
1.46956062717e-07
1.59452825896e-05
4.2189014729e-05
1.38713436832e-07
2.17147711637e-05
2.97892942428e-05
1.30144083754e-07
2.56975131542e-05
1.59743391666e-05
1.22905759347e-07
2.78696586691e-05
1.4994263657e-06
1.187122644e-07
2.89951088125e-05
-1.31352813753e-05
1.18652040427e-07
2.91942277889e-05
-2.73562308106e-05
1.22492051324e-07
2.83794768588e-05
-4.01603762315e-05
1.30732896688e-07
2.62384709431e-05
-4.97347597503e-05
1.42001133244e-07
2.21328302115e-05
-5.44834739014e-05
1.54715917207e-07
1.61810244165e-05
-5.29455237882e-05
1.69249913652e-07
8.62615354815e-06
-4.41856159277e-05
1.86461660578e-07
1.21839764869e-07
-2.92517209443e-05
2.02741329527e-07
-6.99501207127e-06
-1.1761688909e-05
2.15019490732e-07
-1.01297387005e-05
2.13944301505e-07
-4.71767947106e-06
1.21153613246e-05
-6.83211799823e-06
-5.10789710638e-06
3.00120175655e-05
-7.13987950164e-06
-1.05783400032e-05
4.53339447325e-05
-7.7110655344e-06
-7.43871533085e-06
5.43858457283e-05
-8.64167844415e-06
-2.47151807406e-07
5.60720186947e-05
-9.92054822808e-06
8.38921489119e-06
5.14604756589e-05
-1.11757960613e-05
1.5934290961e-05
4.2186168933e-05
-1.2286413872e-05
2.16994193997e-05
2.9787262523e-05
-1.31481382604e-05
2.56771712449e-05
1.59734967691e-05
-1.39114458856e-05
2.78480960383e-05
1.49904978121e-06
-1.43802041832e-05
2.8973338928e-05
-1.31351245478e-05
-1.44196331793e-05
2.91724334616e-05
-2.73538483681e-05
-1.40159698772e-05
2.83571596613e-05
-4.01551807072e-05
-1.3283306281e-05
2.62153459057e-05
-4.97282665914e-05
-1.23990363324e-05
2.21140963503e-05
-5.44757837728e-05
-1.12650455053e-05
1.61672407581e-05
-5.29371394473e-05
-9.98750553865e-06
8.61806257284e-06
-4.41771458709e-05
-8.69343615449e-06
1.19844682709e-07
-2.92444564509e-05
-7.73869656276e-06
-6.9913177935e-06
-1.17582260604e-05
-7.15084311543e-06
-1.01204401599e-05
-6.83529868482e-06
-4.70903974217e-06
1.15662156695e-05
-1.32764566669e-05
-5.12186834043e-06
2.90441052845e-05
-1.39288261406e-05
-1.0688941328e-05
4.40685812382e-05
-1.51039702438e-05
-7.63157079661e-06
5.29655632868e-05
-1.6998855595e-05
-5.39799806576e-07
5.46538232664e-05
-1.95290323387e-05
7.92020778972e-06
5.01439093283e-05
-2.20295295209e-05
1.53636846227e-05
4.10868174243e-05
-2.42366360377e-05
2.10073077948e-05
2.8976710028e-05
-2.61144253807e-05
2.50763777361e-05
1.55190155167e-05
-2.74529134911e-05
2.69991452389e-05
1.47622567351e-06
-2.83139739432e-05
2.79765373602e-05
-1.27224225125e-05
-2.83837956134e-05
2.81627854329e-05
-2.65625876913e-05
-2.76385641148e-05
2.74627338663e-05
-3.90753955702e-05
-2.63261770899e-05
2.55556540755e-05
-4.84037975726e-05
-2.44353212058e-05
2.13646628383e-05
-5.3038861007e-05
-2.21810121469e-05
1.55509922817e-05
-5.14990500257e-05
-1.96470784573e-05
8.1196937326e-06
-4.28908613549e-05
-1.70996090623e-05
-2.02071740066e-07
-2.82610116065e-05
-1.51828988807e-05
-7.18570984484e-06
-1.11999064947e-05
-1.39908269349e-05
-1.02211905575e-05
-1.33246144561e-05
-4.71064256111e-06
1.04826928506e-05
-1.84630079764e-05
-5.2961508019e-06
2.71303796264e-05
-1.95232783628e-05
-1.10532341485e-05
4.15705579383e-05
-2.1343668789e-05
-8.20047855888e-06
5.01745254004e-05
-2.42248402062e-05
-1.37798134836e-06
5.19008123e-05
-2.7931152385e-05
6.67583204719e-06
4.76573928924e-05
-3.16212328343e-05
1.38351303843e-05
3.90724530632e-05
-3.48818670315e-05
1.92301751164e-05
2.76578354801e-05
-3.76510780787e-05
2.29512611661e-05
1.47595114382e-05
-3.96908992922e-05
2.51362939385e-05
1.44918727159e-06
-4.0846605144e-05
2.58429373216e-05
-1.20041839288e-05
-4.09231517712e-05
2.5992705139e-05
-2.5240264394e-05
-3.99089114188e-05
2.55064048488e-05
-3.7055412579e-05
-3.79116679041e-05
2.34006169728e-05
-4.58861996201e-05
-3.51047791497e-05
1.95002224673e-05
-5.02521854769e-05
-3.17830247473e-05
1.39679547306e-05
-4.86823868788e-05
-2.8061527917e-05
6.84460254657e-06
-4.03717642147e-05
-2.43510372989e-05
-1.05924594268e-06
-2.63311437334e-05
-2.14667286416e-05
-7.75684901442e-06
-1.01053924898e-05
-1.96406151629e-05
-1.05760259073e-05
-1.85618585972e-05
-4.86818606616e-06
8.9759287394e-06
-2.16924370568e-05
-5.74649387547e-06
2.44244579163e-05
-2.32028848227e-05
-1.17689305554e-05
3.80118128548e-05
-2.55997147736e-05
-9.33130585907e-06
4.61990840595e-05
-2.93462157079e-05
-3.06588873958e-06
4.80083910594e-05
-3.40402832594e-05
4.29982705003e-06
4.42048241775e-05
-3.87477851428e-05
1.09301169394e-05
3.63013334964e-05
-4.28926406532e-05
1.59142830118e-05
2.57638136868e-05
-4.63503486455e-05
1.92367894218e-05
1.38737996267e-05
-4.8872761649e-05
2.10718668367e-05
1.41349053366e-06
-5.02540548505e-05
2.18677432628e-05
-1.11699503617e-05
-5.03350327685e-05
2.19953040745e-05
-2.33836095622e-05
-4.90875134397e-05
2.13922421263e-05
-3.42608007969e-05
-4.66037242748e-05
1.95692291984e-05
-4.23856527035e-05
-4.30995517354e-05
1.61196046813e-05
-4.63215818915e-05
-3.88947649752e-05
1.10476323652e-05
-4.46930872324e-05
-3.41726094656e-05
4.48255320309e-06
-3.68102350738e-05
-2.94949852325e-05
-2.73895072191e-06
-2.3623043456e-05
-2.57691777262e-05
-8.88479569503e-06
-8.59451914532e-06
-2.33789746918e-05
-1.12902191523e-05
-2.18484460963e-05
-5.30794993496e-06
7.32998540128e-06
-2.26526770621e-05
-6.36974174798e-06
2.11816226051e-05
-2.42670435197e-05
-1.27874724072e-05
3.36493199495e-05
-2.70112581429e-05
-1.10561598763e-05
4.13288629788e-05
-3.13228653194e-05
-5.70289307455e-06
4.32607251257e-05
-3.66558810136e-05
6.8374214672e-07
4.00628746918e-05
-4.20614740457e-05
6.51153834217e-06
3.30370962839e-05
-4.68107766429e-05
1.09439250392e-05
2.35350657211e-05
-5.07093453724e-05
1.38610262967e-05
1.27230868305e-05
-5.34962713881e-05
1.54354852518e-05
1.36039009253e-06
-5.49735702196e-05
1.60822021216e-05
-1.01008583589e-05
-5.504502613e-05
1.6171226899e-05
-2.11689831492e-05
-5.36820056888e-05
1.56626017106e-05
-3.09546853499e-05
-5.09291634804e-05
1.41111253839e-05
-3.81896939587e-05
-4.69899106559e-05
1.11253512001e-05
-4.15478301356e-05
-4.21981241552e-05
6.66147536002e-06
-3.98327436686e-05
-3.68042905527e-05
9.16566006857e-07
-3.24733761484e-05
-3.15048929449e-05
-5.34950080571e-06
-2.04011679271e-05
-2.72315793192e-05
-1.06098521058e-05
-6.95414914499e-06
-2.45035439163e-05
-1.23224883614e-05
-2.28617922439e-05
-5.94082418532e-06
5.37369859876e-06
-2.07463282435e-05
-7.28004739674e-06
1.74546789542e-05
-2.22966033951e-05
-1.40514174824e-05
2.86844484739e-05
-2.49908415481e-05
-1.32501829903e-05
3.57854241909e-05
-2.9327791288e-05
-9.09605101772e-06
3.78694307934e-05
-3.47355645646e-05
-4.00432440851e-06
3.53733820551e-05
-4.02907005634e-05
7.25277930797e-07
2.93608025454e-05
-4.51612107211e-05
4.36300591659e-06
2.10299497436e-05
-4.91443486888e-05
6.7658798393e-06
1.14415259745e-05
-5.1965970617e-05
8.05814093899e-06
1.31505447824e-06
-5.34317564796e-05
8.58465284443e-06
-8.88465749086e-06
-5.34892796998e-05
8.64395521833e-06
-1.8667257032e-05
-5.21136182862e-05
8.21419926472e-06
-2.7232644694e-05
-4.93242456453e-05
6.96045603606e-06
-3.3454974478e-05
-4.53206629078e-05
4.55306729188e-06
-3.61517146455e-05
-4.04343013271e-05
9.32899450979e-07
-3.43194515741e-05
-3.49104197658e-05
-3.72615952722e-06
-2.75514214379e-05
-2.95449313453e-05
-8.72802846505e-06
-1.67094061882e-05
-2.52494163712e-05
-1.28242203209e-05
-5.01852888128e-06
-2.25725803925e-05
-1.3621881857e-05
-2.09958127395e-05
-6.88454419211e-06
3.78624488366e-06
-1.6232196849e-05
-8.30037665474e-06
1.40249347894e-05
-1.72642362915e-05
-1.52710570243e-05
2.39270841727e-05
-1.94098271372e-05
-1.54831586889e-05
3.0381365463e-05
-2.30969856119e-05
-1.26850894898e-05
3.25428343063e-05
-2.78566305924e-05
-9.04040067318e-06
3.06861374586e-05
-3.28331717324e-05
-5.60083209633e-06
2.56534102418e-05
-3.71954758278e-05
-2.9330105469e-06
1.84837388825e-05
-4.07621982892e-05
-1.21245267017e-06
1.01380497447e-05
-4.32875267028e-05
-3.32754137465e-07
1.2749446256e-06
-4.4596355514e-05
2.77072327818e-08
-7.64027347299e-06
-4.46378199197e-05
6.3751468155e-08
-1.61364529809e-05
-4.33999132999e-05
-2.1753652974e-07
-2.35045066256e-05
-4.09067265974e-05
-1.04947882797e-06
-2.87472422589e-05
-3.73374136461e-05
-2.74052945225e-06
-3.08308241982e-05
-3.29772253626e-05
-5.3735137173e-06
-2.89474702587e-05
-2.80413342168e-05
-8.75246665216e-06
-2.28340913157e-05
-2.33207626023e-05
-1.2337583378e-05
-1.33101981517e-05
-1.96684810546e-05
-1.51048641975e-05
-3.44587863061e-06
-1.75344442438e-05
-1.49024869958e-05
-1.64733475686e-05
-7.96838010433e-06
2.9944282171e-06
-1.00815982214e-05
-9.14499886364e-06
1.16211933515e-05
-9.98911221665e-06
-1.59018890539e-05
2.02346322118e-05
-1.10638325012e-05
-1.69594336809e-05
2.60403790148e-05
-1.34654811282e-05
-1.54372489227e-05
2.82310055226e-05
-1.68978672609e-05
-1.31493902485e-05
2.6941740766e-05
-2.06402668443e-05
-1.09036405332e-05
2.27688604282e-05
-2.38822877716e-05
-9.140308913e-06
1.6575346151e-05
-2.6594769567e-05
-7.97391483029e-06
9.18246963889e-06
-2.85282527174e-05
-7.36639548219e-06
1.24854889374e-06
-2.95232068328e-05
-7.13922824735e-06
-6.728201738e-06
-2.95513110609e-05
-7.10975915858e-06
-1.42435006361e-05
-2.86041416399e-05
-7.28048448761e-06
-2.06149155269e-05
-2.66972610265e-05
-7.83806678814e-06
-2.49989488091e-05
-2.39897266996e-05
-8.96367397747e-06
-2.65365839373e-05
-2.07540807931e-05
-1.06855350377e-05
-2.46403860159e-05
-1.70544741385e-05
-1.28830904325e-05
-1.91788217328e-05
-1.36496116431e-05
-1.51327514061e-05
-1.09351568481e-05
-1.12724643783e-05
-1.66397212031e-05
-2.67037650163e-06
-1.02021529928e-05
-1.55971170053e-05
-1.02676115734e-05
-8.8761332131e-06
3.09128517403e-06
-3.96810391389e-06
-9.20476570637e-06
1.0531644416e-05
-2.83042546058e-06
-1.45990479577e-05
1.80722410994e-05
-2.72360936e-06
-1.5880819495e-05
2.33313719588e-05
-3.51656415251e-06
-1.52080478361e-05
2.54755957637e-05
-5.10146840905e-06
-1.39406227455e-05
2.45356481779e-05
-7.07488320524e-06
-1.26254357874e-05
2.09357292886e-05
-8.71406253669e-06
-1.15683048354e-05
1.53836134382e-05
-1.02276637905e-05
-1.08149893446e-05
8.59222344713e-06
-1.13251576382e-05
-1.04117050958e-05
1.22821349337e-06
-1.18905865941e-05
-1.02686029411e-05
-6.17215217428e-06
-1.19063621804e-05
-1.02445882656e-05
-1.30701215952e-05
-1.13681352711e-05
-1.03380515282e-05
-1.87895521469e-05
-1.02878832e-05
-1.06899683946e-05
-2.25986496668e-05
-8.78054719419e-06
-1.14001081536e-05
-2.37973336356e-05
-7.13314245554e-06
-1.24222874671e-05
-2.19548261317e-05
-5.19563463773e-06
-1.3701371449e-05
-1.70403582663e-05
-3.61720642009e-06
-1.49469100931e-05
-9.86214087429e-06
-2.8369356809e-06
-1.56137902064e-05
-2.77328478319e-06
-2.94307460446e-06
-1.43479766844e-05
-4.06350391483e-06
-8.97743350948e-06
4.21357268493e-06
-8.1816556511e-06
1.05985165742e-05
-9.21536138419e-06
1.7001035063e-05
-9.12612739676e-06
2.17344690509e-05
-8.2499978542e-06
2.38218440611e-05
-7.18884333974e-06
2.29730891325e-05
-6.22612726224e-06
1.98324018073e-05
-5.57337457631e-06
1.46919090657e-05
-5.0871705027e-06
8.24767808853e-06
-4.88092706573e-06
1.20017595225e-06
-4.84307799607e-06
-5.87991428673e-06
-4.82628045465e-06
-1.24208457119e-05
-4.82721758132e-06
-1.77209956021e-05
-4.98775095245e-06
-2.10751045736e-05
-5.42645799115e-06
-2.215643713e-05
-6.05183288157e-06
-2.03823939178e-05
-6.96970430199e-06
-1.59806193033e-05
-8.0190120424e-06
-9.9298470894e-06
-8.88774417377e-06
-3.89389487061e-06
-8.97906815631e-06
-7.95740781838e-06
7.19644945515e-06
6.99457750251e-06
-2.23876967345e-05
1.45277750313e-05
8.54450576361e-06
-2.50912543582e-05
2.06101149712e-05
1.0243252825e-05
-2.54599489201e-05
2.46337468918e-05
1.24266445479e-05
-2.47247364623e-05
2.60174917789e-05
1.48790931072e-05
-2.34981750546e-05
2.46803287677e-05
1.72517271596e-05
-2.22048913003e-05
2.09848944278e-05
1.92016823882e-05
-2.11522062021e-05
1.54083599895e-05
2.08175287264e-05
-2.04072743027e-05
8.59641258297e-06
2.19597750101e-05
-2.01133746218e-05
1.19902544173e-06
2.25507606445e-05
-2.00846735327e-05
-6.2311192619e-06
2.25744695074e-05
-2.00621373859e-05
-1.31394102751e-05
2.20242777766e-05
-2.00377104745e-05
-1.88697683418e-05
2.09058348835e-05
-2.02590419082e-05
-2.27674834413e-05
1.9295671606e-05
-2.09170013115e-05
-2.43484570225e-05
1.73453059197e-05
-2.19003314681e-05
-2.32681176427e-05
1.50077272517e-05
-2.31250682728e-05
-1.95849987272e-05
1.25738052682e-05
-2.43184252502e-05
-1.38638314432e-05
1.04089636641e-05
-2.50424420558e-05
-6.88926604573e-06
8.70623444249e-06
-2.46771786275e-05
7.11766885286e-06
-2.19940974455e-05
8.77098036331e-06
1.41178719017e-05
-2.51116436173e-05
1.59984987647e-05
1.5559175214e-05
-2.88474771296e-05
2.13616522422e-05
1.78031241001e-05
-2.882111575e-05
2.46284972846e-05
2.09905850765e-05
-2.70769898769e-05
2.55288602468e-05
2.47034864252e-05
-2.47306230452e-05
2.40168209779e-05
2.8400349252e-05
-2.23454198158e-05
2.02840406375e-05
3.16270788895e-05
-2.03538805256e-05
1.4859453021e-05
3.42431075742e-05
-1.89141825376e-05
8.3165917255e-06
3.60843625736e-05
-1.80970270344e-05
1.22104122389e-06
3.70496053636e-05
-1.77799135173e-05
-5.91088660393e-06
3.70935739918e-05
-1.7743780201e-05
-1.25593220094e-05
3.62033691717e-05
-1.79834819677e-05
-1.81440395904e-05
3.4404304837e-05
-1.87197309631e-05
-2.20769430672e-05
3.17980724335e-05
-2.00827640666e-05
-2.38358995986e-05
2.85766169053e-05
-2.19994585286e-05
-2.32170897181e-05
2.49103546964e-05
-2.4310222076e-05
-2.02756380863e-05
2.12304966458e-05
-2.66044691905e-05
-1.52664988006e-05
1.80713334431e-05
-2.83224643944e-05
-8.40913223225e-06
1.5832942404e-05
-2.83515601583e-05
1.43563075171e-05
-2.46368386663e-05
1.04794185047e-05
2.00053638867e-05
-2.55374733518e-05
1.82532624983e-05
2.07364140445e-05
-2.88685614459e-05
2.36364937005e-05
2.30048773231e-05
-2.75720903538e-05
2.66828698913e-05
2.65023679849e-05
-2.40427746956e-05
2.72156863726e-05
3.06459112583e-05
-1.96918466109e-05
2.52630100534e-05
3.48114356983e-05
-1.54435953402e-05
2.11214685379e-05
3.85110420399e-05
-1.19724771144e-05
1.53600726289e-05
4.14784705205e-05
-9.54134838907e-06
8.55748632081e-06
4.3569008514e-05
-8.1444558494e-06
1.23594128537e-06
4.4678983919e-05
-7.54454118155e-06
-6.12966158631e-06
4.47408432813e-05
-7.49202568825e-06
-1.30544612549e-05
4.37358841696e-05
-7.99218453425e-06
-1.89863596084e-05
4.16971395909e-05
-9.30601303874e-06
-2.33279144691e-05
3.87354147318e-05
-1.16656043394e-05
-2.55102856012e-05
3.50288850732e-05
-1.50553267271e-05
-2.52440914348e-05
3.08830570231e-05
-1.9210287737e-05
-2.25101631796e-05
2.67748578866e-05
-2.34800517279e-05
-1.74768911543e-05
2.33136766215e-05
-2.69641429805e-05
-1.00839041631e-05
2.10624810412e-05
-2.82535910735e-05
2.03144982012e-05
-2.49471715437e-05
1.26660707248e-05
2.38714930276e-05
-2.48649419696e-05
2.144268141e-05
2.38500332573e-05
-2.71864760696e-05
2.71322664328e-05
2.59037680244e-05
-2.41050933654e-05
3.00467826857e-05
2.92759846856e-05
-1.84203112396e-05
3.01432160746e-05
3.3296668012e-05
-1.18500053643e-05
2.75788186971e-05
3.73539107049e-05
-5.65544356092e-06
2.27689233334e-05
4.09827657299e-05
-6.8085515172e-07
1.64081679676e-05
4.39243225156e-05
2.61378228392e-06
9.07438855e-06
4.59989259999e-05
4.48627431655e-06
1.25844517783e-06
4.71086255981e-05
5.31217934898e-06
-6.61313711984e-06
4.71892399065e-05
5.39266245125e-06
-1.41021946586e-05
4.62110562414e-05
4.70510503504e-06
-2.06560720722e-05
4.41948733577e-05
2.91075409435e-06
-2.56702417241e-05
4.12390710591e-05
-3.25416209817e-07
-2.84396770701e-05
3.75856618429e-05
-5.24708166558e-06
-2.85863088063e-05
3.35304586502e-05
-1.13286638905e-05
-2.59689270755e-05
2.95386032803e-05
-1.77828688648e-05
-2.06270750396e-05
2.62057865251e-05
-2.33919665019e-05
-1.22413510175e-05
2.41759062851e-05
-2.64465253582e-05
2.41917160528e-05
-2.41288770527e-05
1.51176386799e-05
2.51401793692e-05
-2.37069915921e-05
2.51538253079e-05
2.46362129444e-05
-2.49067998921e-05
3.12723885595e-05
2.63232113464e-05
-1.98217700258e-05
3.4058292072e-05
2.92637017224e-05
-1.19100873017e-05
3.36634927177e-05
3.27981924105e-05
-3.16386539587e-06
3.04545196718e-05
3.64789094395e-05
4.74399831872e-06
2.49656294082e-05
3.98378749837e-05
1.09207505238e-05
1.7890397578e-05
4.25795765804e-05
1.51058257602e-05
9.83968818862e-06
4.45407017693e-05
1.74885110216e-05
1.29297859091e-06
4.56089874533e-05
1.85566974689e-05
-7.33257928335e-06
4.57069934585e-05
1.86785924496e-05
-1.55884403532e-05
4.48010766569e-05
1.78040651274e-05
-2.29038667569e-05
4.29082336075e-05
1.54840262944e-05
-2.8597954231e-05
4.0137162657e-05
1.12756260963e-05
-3.19829956086e-05
3.67249130721e-05
5.11601231201e-06
-3.25854361808e-05
3.30212813556e-05
-2.66984241269e-06
-3.00752640499e-05
2.94987172602e-05
-1.12482285445e-05
-2.43021940624e-05
2.65925084208e-05
-1.9033753885e-05
-1.46689468861e-05
2.4927458595e-05
-2.40587777335e-05
2.54201063065e-05
-2.28362525863e-05
1.7485632505e-05
2.37241020976e-05
-2.24784527478e-05
2.88479038922e-05
2.30383384934e-05
-2.25853495156e-05
3.54360805614e-05
2.42819557103e-05
-1.5630533184e-05
3.81074404261e-05
2.66068664265e-05
-5.74474116075e-06
3.73302225707e-05
2.94946102122e-05
4.73137228263e-06
3.35552676191e-05
3.26077270863e-05
1.41154886218e-05
2.73846158328e-05
3.55022220403e-05
2.14066415617e-05
1.95677549228e-05
3.79036286352e-05
2.63145277519e-05
1.07276467507e-05
3.96567114955e-05
2.91283661841e-05
1.34519775945e-06
4.06282128416e-05
3.04214738059e-05
-8.1441870511e-06
4.07366863844e-05
3.06097059504e-05
-1.72597029423e-05
3.99461326045e-05
2.9607798726e-05
-2.53856006321e-05
3.82734303162e-05
2.68395195454e-05
-3.17764774328e-05
3.58416683619e-05
2.17777294696e-05
-3.56964872613e-05
3.28774939349e-05
1.43972494183e-05
-3.6637418609e-05
2.9719077772e-05
5.13112927022e-06
-3.42126612155e-05
2.6821569983e-05
-5.12926938393e-06
-2.79649898374e-05
2.45090199394e-05
-1.48150441662e-05
-1.70127351641e-05
2.32732145442e-05
-2.16733660116e-05
2.39460169889e-05
-2.1532719297e-05
1.94365280196e-05
1.99733317172e-05
-2.14699100017e-05
3.20724011864e-05
1.92455972776e-05
-2.06418683522e-05
3.91303450098e-05
2.00712512108e-05
-1.21964884568e-05
4.17245717018e-05
2.17126887889e-05
-7.7618755263e-07
4.06743023743e-05
2.39061767901e-05
1.0929467506e-05
3.64413126462e-05
2.63215082819e-05
2.14424790002e-05
2.96858986808e-05
2.86094839548e-05
2.95629734139e-05
2.12026074962e-05
3.05430814429e-05
3.5090103452e-05
1.16233902616e-05
3.20043320554e-05
3.83215282103e-05
1.4196485578e-06
3.28720282199e-05
3.98533438739e-05
-8.92211923131e-06
3.2979365437e-05
4.01235457459e-05
-1.88547042869e-05
3.22896097361e-05
3.90087726074e-05
-2.77254610585e-05
3.09047240551e-05
3.5830789489e-05
-3.47381732567e-05
2.89511026812e-05
3.00365276932e-05
-3.91008237899e-05
2.65983959711e-05
2.16943477642e-05
-4.02772709044e-05
2.41261294049e-05
1.12490634658e-05
-3.79051366312e-05
2.19013578654e-05
-2.05219650982e-07
-3.11763399622e-05
2.02561125733e-05
-1.1390970691e-05
-1.89556261427e-05
1.94254612117e-05
-1.97120891821e-05
2.0135934249e-05
-2.05065559808e-05
2.10429408391e-05
1.43664633394e-05
-2.07597744641e-05
3.46725130381e-05
1.37863289825e-05
-1.92459132677e-05
4.20750865535e-05
1.42634227426e-05
-9.80342021724e-06
4.46385289113e-05
1.52846482423e-05
2.49029314613e-06
4.3389259557e-05