/*--------------------------------*- C++ -*----------------------------------*\
| =========                 |                                                 |
| \\      /  F ield         | OpenFOAM: The Open Source CFD Toolbox           |
|  \\    /   O peration     | Version:  3.0.1                                 |
|   \\  /    A nd           | Web:      www.OpenFOAM.org                      |
|    \\/     M anipulation  |                                                 |
\*---------------------------------------------------------------------------*/
FoamFile
{
    version     2.0;
    format      ascii;
    class       volScalarField;
    location    "6.9";
    object      ddt0(k);
}
// * * * * * * * * * * * * * * * * * * * * * * * * * * * * * * * * * * * * * //

dimensions      [0 2 -3 0 0 0 0];

internalField   nonuniform List<scalar> 
7968
(
-8.26543259284e-05
-9.24716559473e-05
-0.000100333644155
-0.000105424219506
-0.000108622744355
-0.000110557742382
-0.000111581364571
-0.000112145100399
-0.000112484440791
-0.000112709504108
-0.000112948533285
-0.000112898860234
-0.000112627099643
-0.000112084631478
-0.000111040872555
-0.000109083994385
-0.000105809255633
-0.000100628664303
-9.26704710194e-05
-8.27621663542e-05
-9.24550931903e-05
-0.000135477316889
-0.000164559508928
-0.000182243033438
-0.000192568916837
-0.000198079656401
-0.000200585753994
-0.000201648608697
-0.000202259576559
-0.000202684028336
-0.00020291876956
-0.000202818690746
-0.000202428646597
-0.000201479096289
-0.000199006847042
-0.000193517290599
-0.000183084675253
-0.000165235103881
-0.000135925037911
-9.2692165665e-05
-0.000100333116507
-0.000164649057159
-0.000206941861651
-0.000232498295931
-0.00024741594805
-0.000255305294768
-0.000258816097043
-0.000260193041134
-0.000260938537207
-0.000261447917112
-0.000261684201841
-0.000261520577495
-0.000261034859105
-0.000259828262714
-0.000256393216804
-0.000248513141357
-0.000233480694449
-0.000207718309218
-0.000165165437394
-0.000100651578631
-0.000105444374572
-0.000182409073155
-0.000232583467795
-0.000262265227193
-0.000278820649905
-0.000286708061336
-0.000289514581323
-0.000289755136461
-0.000290002861623
-0.000290454115108
-0.000290714381608
-0.00029057005214
-0.000290603935798
-0.000290593144638
-0.00028787891598
-0.000279995775909
-0.000263298739898
-0.000233381101986
-0.000182935014522
-0.000105802591466
-0.0001086643069
-0.000192752859374
-0.000247521136892
-0.000278834495725
-0.000294657491523
-0.000298389224107
-0.000302557929938
-0.000304385082084
-0.000305220130877
-0.000305705565019
-0.000305902585377
-0.000305674235862
-0.00030501708075
-0.000303297929743
-0.000299193556844
-0.00029589363376
-0.000279924811503
-0.000248340859378
-0.000193291366248
-0.000109048366336
-0.000110599671329
-0.00019822217726
-0.000255346741425
-0.000286632886654
-0.000298357024091
-0.000307291384715
-0.000311748116847
-0.000313335641119
-0.000313825185435
-0.000314096208391
-0.000314291257534
-0.000314273444296
-0.000313958266024
-0.000312462610281
-0.00030801066723
-0.00029915900459
-0.000287812160593
-0.00025622295865
-0.000198798975497
-0.000110997103527
-0.000111618433659
-0.00020065364065
-0.000258732539099
-0.000289268057994
-0.000302448766453
-0.000311672692868
-0.000315556327224
-0.000316390001801
-0.000316284226433
-0.000316268201103
-0.00031648776081
-0.00031678240249
-0.000317089995215
-0.000316364827995
-0.000312469501839
-0.000303272560241
-0.00029059683884
-0.000259695901361
-0.000201281659694
-0.000112024979319
-0.000112155342033
-0.000201584749778
-0.000259934583591
-0.000289303102797
-0.00030413930746
-0.000313110469282
-0.000316219471014
-0.000316176122149
-0.000315453723043
-0.000315121735495
-0.000315386862552
-0.000316051521847
-0.000317008894387
-0.000317174630797
-0.000314030099587
-0.000305045339697
-0.000290713527637
-0.000260986528208
-0.000202280019204
-0.000112564330257
-0.00011244414284
-0.000202014091421
-0.000260459644721
-0.000289298661415
-0.000304784277324
-0.000313404094929
-0.000315896082964
-0.000315217585105
-0.000313863817952
-0.000313177551515
-0.00031353429329
-0.000314609297955
-0.000316203553839
-0.000317007893578
-0.000314460625516
-0.000305805600499
-0.00029083226359
-0.000261601780601
-0.000202771637956
-0.000112855206886
-0.000112572946251
-0.000202227588785
-0.000260727835588
-0.000289458793094
-0.000305058838952
-0.000313466732287
-0.000315650289455
-0.000314618641127
-0.000312852728449
-0.000311947677603
-0.00031241067375
-0.000313754944192
-0.000315724004214
-0.000316868771249
-0.000314613240043
-0.000306141662341
-0.000290168045236
-0.00026192596614
-0.000203023811564
-0.000112991093652
-0.000112569679425
-0.000202214723611
-0.000260699784264
-0.000289418370986
-0.000305021017133
-0.000313423583836
-0.000315597391288
-0.000314550437217
-0.000312762626184
-0.000311837149395
-0.000312296997438
-0.000313658398594
-0.000315648035307
-0.000316807180668
-0.000314561454633
-0.000306096951416
-0.00029013565374
-0.000261892522872
-0.000203010676477
-0.000112989397178
-0.000112438445894
-0.000201974566467
-0.00026037927688
-0.000289183272441
-0.000304677365918
-0.000313283823674
-0.00031575274162
-0.000315041714249
-0.000313642854258
-0.000312919229383
-0.000313269396526
-0.000314373235312
-0.000316008910445
-0.000316843505094
-0.000314317589178
-0.000305674762373
-0.00029068212652
-0.00026149826065
-0.000202723835463
-0.000112849852299
-0.000112153975158
-0.000201524394982
-0.000259815334274
-0.000289125779283
-0.000303977003061
-0.000312926509508
-0.000316001024304
-0.000315911919878
-0.000315147090524
-0.00031477310042
-0.000315031147358
-0.000315723797898
-0.00031672312524
-0.000316928633255
-0.000313813877177
-0.000304846220139
-0.000290480390844
-0.000260825819988
-0.000202200633381
-0.000112561265291
-0.000111623933814
-0.000200583803064
-0.000258595912885
-0.000289054189311
-0.000302245288648
-0.00031144129761
-0.000315285305257
-0.000316067402929
-0.000315913499518
-0.000315864386815
-0.000316076704118
-0.000316393848071
-0.00031674239899
-0.000316060498597
-0.000312198182634
-0.000303023250617
-0.000290310882703
-0.00025950502018
-0.000201180777812
-0.000112027186349
-0.000110614602876
-0.000198168944675
-0.000255225995367
-0.000286423374417
-0.000298111446216
-0.000307011345876
-0.00031144425911
-0.000312983404315
-0.000313428094606
-0.0003136720714
-0.000313859683662
-0.000313857653686
-0.000313578735653
-0.000312122006535
-0.000307690708445
-0.000298863722241
-0.000287523298813
-0.000256038283213
-0.000198703797416
-0.000111006477758
-0.000108694465327
-0.00019273904671
-0.000247447103218
-0.000278668029349
-0.000294377632792
-0.000298071661449
-0.000302223601993
-0.000304006178526
-0.000304796725082
-0.000305267680895
-0.000305449950673
-0.000305231900747
-0.000304609385713
-0.000302926321048
-0.000298839133379
-0.000295528349023
-0.000279679713857
-0.00024820193431
-0.000193236770509
-0.000109072584071
-0.000105483919741
-0.00018243707049
-0.000232571829564
-0.000262168542662
-0.000278612537298
-0.000286380725762
-0.000289080252958
-0.000289240218288
-0.00028940901519
-0.000289822072172
-0.000289635933223
-0.000289975422278
-0.000290043297393
-0.000290101127659
-0.000287482737145
-0.000279712439778
-0.000263130317497
-0.000233308441876
-0.000182923176385
-0.000105832768346
-0.000100375935443
-0.000164716995144
-0.00020699265352
-0.000232480768988
-0.000247302214307
-0.000255088450301
-0.000258502317386
-0.000259800195811
-0.00026049057851
-0.000260966286658
-0.000261198119961
-0.000261051608096
-0.000260606595256
-0.000259466581285
-0.000256119446151
-0.000248335128499
-0.000233400999551
-0.00020771655624
-0.000165196059463
-0.000100683009043
-9.24923108518e-05
-0.000135556888793
-0.000164644179605
-0.000182288197868
-0.000192551212443
-0.000197996700371
-0.0002004388644
-0.000201445634817
-0.000202019771987
-0.000202424240306
-0.000202658317575
-0.0002025730758
-0.00020221084786
-0.000201303647238
-0.000198884559581
-0.000193454392209
-0.000183088786413
-0.000165281296249
-0.000135976281516
-9.27218323541e-05
-8.26709945528e-05
-9.25086761667e-05
-0.000100385094981
-0.000105478275982
-0.000108670360482
-0.00011059100945
-0.000111597657023
-0.000112143741611
-0.000112469378733
-0.000112684249983
-0.000112925127416
-0.000112887158244
-0.000112629768232
-0.000112103966484
-0.000111074725405
-0.000109130650713
-0.000105861385342
-0.000100678310743
-9.27087420049e-05
-8.2780064709e-05
-9.05831636282e-05
-0.000128747615577
-0.000155515591052
-0.000172318118848
-0.00018264300461
-0.000188598947581
-0.000191679412785
-0.000193092120152
-0.000193672179973
-0.000193928933975
-0.000194091609805
-0.000194057986403
-0.000193611290968
-0.000192252580873
-0.00018915120164
-0.000183139642214
-0.000172706275555
-0.000155782169894
-0.000128929581656
-9.07741191639e-05
-0.000128661115297
-0.000265048535433
-0.000335104098688
-0.000377544027342
-0.000402731536742
-0.000416521915057
-0.000423070264149
-0.000425574674323
-0.000426449330873
-0.000426791808232
-0.000427014858545
-0.000426994782481
-0.000426323946732
-0.000423911894537
-0.000417390168807
-0.000403596384509
-0.000378284343867
-0.000335647028159
-0.000265355998861
-0.000129001431377
-0.000155429485216
-0.000335223902174
-0.000427279746894
-0.000484406444145
-0.000519414564623
-0.000539377116343
-0.000549412033331
-0.000553791906364
-0.000555832602017
-0.000556762221837
-0.000557021022118
-0.000556476198373
-0.000554696867099
-0.000550466001709
-0.000540458600544
-0.000520440243303
-0.000485263140012
-0.000427892985795
-0.000335561859589
-0.000155869513501
-0.000172265709127
-0.000377742693344
-0.000484503230239
-0.000550969721561
-0.000591540482199
-0.000614295403408
-0.000624993017664
-0.000627842464786
-0.000630087124097
-0.000631223719128
-0.000631454844897
-0.000630661910438
-0.000628673371183
-0.000626183522574
-0.000615501033256
-0.000592626550484
-0.000551866262439
-0.00048513683533
-0.000378099790955
-0.000172763492272
-0.000182616297881
-0.000402929669051
-0.000519530335219
-0.000591571429822
-0.000634506985451
-0.000657891155027
-0.000668212949377
-0.000671965412901
-0.000673529493661
-0.00067426298289
-0.000674537941138
-0.000674242746563
-0.000673042624156
-0.000669560807541
-0.000659247655156
-0.000635581945684
-0.000592510251444
-0.000520213272063
-0.000403352432137
-0.000183160031988
-0.000188562421083
-0.0004166199091
-0.000539409634315
-0.000614252969011
-0.000657789122657
-0.000679318062285
-0.000688166348362
-0.000690951362473
-0.000691690895284
-0.000692029203322
-0.00069233936086
-0.000692511082645
-0.000692239081079
-0.000689789390837
-0.000680979262376
-0.000659233256975
-0.000615341283988
-0.00054020465113
-0.000417151819981
-0.00018915103101
-0.000191603979021
-0.000423025994455
-0.000549289107755
-0.000624783066131
-0.000667891520348
-0.000687898546102
-0.000695056859142
-0.000696465509018
-0.000696337977783
-0.000696320708944
-0.000696665443144
-0.000697270201364
-0.000697987185881
-0.000697036024485
-0.000689922593201
-0.00066964196485
-0.00062608377377
-0.000550243393767
-0.000423703512066
-0.000192243146427
-0.00019293830316
-0.000425339245129
-0.000553469159797
-0.000627532534189
-0.00067130756009
-0.000690242060271
-0.000695966211926
-0.000696122786153
-0.000695447857011
-0.00069517504981
-0.000695531167235
-0.000696556074093
-0.000697905211685
-0.000698324531002
-0.000692651805078
-0.00067331868453
-0.000628596300747
-0.000554551259459
-0.000426172239933
-0.00019362066659
-0.000193399293862
-0.000425971070066
-0.0005552342529
-0.000629523860028
-0.000672475389793
-0.000690508406994
-0.000695326503191
-0.00069490407988
-0.000693525555406
-0.000692799722485
-0.000693247844234
-0.000694682071038
-0.000696951049642
-0.0006980085573
-0.00069325959319
-0.000674769965603
-0.000630726777966
-0.000556466601031
-0.000426949007681
-0.000194119280408
-0.000193503139224
-0.000426047712927
-0.000555847847972
-0.00063036711743
-0.000672831332457
-0.000690428742166
-0.000694869848551
-0.000694213923028
-0.00069227228259
-0.000691494904472
-0.000692044151776
-0.000693609953131
-0.000696262271624
-0.000697719336336
-0.000693362649835
-0.000675331684976
-0.000632588123204
-0.000557206860291
-0.00042711690605
-0.000194253534971
-0.00019348967186
-0.000426001106035
-0.000555783603212
-0.000630297651385
-0.000672742172728
-0.000690325908542
-0.000694752349978
-0.000694075905734
-0.000692102557913
-0.000691307250026
-0.000691854187273
-0.000693433257087
-0.000696108570517
-0.000697578993432
-0.000693234638049
-0.000675218875976
-0.000632488671191
-0.000557128059795
-0.000427064951966
-0.000194242527271
-0.000193363298636
-0.000425839130691
-0.000555052276955
-0.000629322619603
-0.000672217472356
-0.000690209517384
-0.0006949879834
-0.000694523737576
-0.000693071627142
-0.000692292573049
-0.000692735392489
-0.000694200124276
-0.000696523838917
-0.000697611602562
-0.000692893250176
-0.000674445667663
-0.000630476788855
-0.000556237834612
-0.000426792620567
-0.000194082720584
-0.000192891015021
-0.000425130751546
-0.000553190849784
-0.000627213021599
-0.000670897550495
-0.000689759082083
-0.000695414628701
-0.000695492659106
-0.000694776159944
-0.000694403017527
-0.000694747884776
-0.000695817228002
-0.000697216019567
-0.000697691119126
-0.000692072921773
-0.000672806907298
-0.000628195248975
-0.000554193499029
-0.000425917946078
-0.000193565618412
-0.000191555944721
-0.000422764960872
-0.00054893945457
-0.000624349719635
-0.000667369422311
-0.000687280376704
-0.000694329346941
-0.000695628194896
-0.00069540974624
-0.000695327234144
-0.000695654207761
-0.000696293722615
-0.000697076002963
-0.000696203696657
-0.00068917667939
-0.000668983961985
-0.000625525539255
-0.00054978527735
-0.000423369839851
-0.00019218233166
-0.000188521726809
-0.000416353986425
-0.00053904021949
-0.000613772995505
-0.000657200827549
-0.000678622851527
-0.000687333884665
-0.000689986304574
-0.000690625943907
-0.000690900041762
-0.000691189670827
-0.000691390587808
-0.000691188549228
-0.000688835089081
-0.000680133123989
-0.000658482787222
-0.000614710373406
-0.000539706982592
-0.000416796194031
-0.000189092671917
-0.000182594127125
-0.000402696723316
-0.000519192581561
-0.000591106080459
-0.000633876549221
-0.000657153740059
-0.000667345189267
-0.000670971002227
-0.000672434084235
-0.000673100961112
-0.000673371076815
-0.000673092248969
-0.000671959298452
-0.000668563191988
-0.000658348647481
-0.000634798232457
-0.000591887257179
-0.00051974235688
-0.000403022881162
-0.00018311843205
-0.000172266184405
-0.000377569417139
-0.000484232749616
-0.000550568592069
-0.000590985751872
-0.000613587886864
-0.000624172949737
-0.000627000813576
-0.000629183620328
-0.000630409164889
-0.00063096971193
-0.000629722869628
-0.000627763368203
-0.000625262421882
-0.000614650389756
-0.000591918960618
-0.000551321346131
-0.000484741574804
-0.000377832328436
-0.000172743418396
-0.000155450947644
-0.000335123256257
-0.000427102921862
-0.000484106747009
-0.000518967433723
-0.00053878187854
-0.000548687578506
-0.000552970586801
-0.000554936213987
-0.000555818867657
-0.000556069106571
-0.000555537256958
-0.000553806251888
-0.000549644709473
-0.00053974568593
-0.000519867556648
-0.000484842113947
-0.000427606970667
-0.000335377109496
-0.000155870198658
-0.00012869529044
-0.000265018257177
-0.000335029112911
-0.000377380481602
-0.000402460773177
-0.000416139401795
-0.000422590061168
-0.000425016274787
-0.000425839887245
-0.000426153650895
-0.000426369082079
-0.000426363061371
-0.000425726034556
-0.000423368041678
-0.000416927801466
-0.000403236607446
-0.000378031714197
-0.000335490824666
-0.0002652646715
-0.000129022189219
-9.06068843095e-05
-0.000128770439611
-0.000155540114982
-0.000172331297633
-0.000182632764873
-0.000188555595094
-0.000191602935332
-0.000192986148186
-0.000193544381932
-0.000193789230006
-0.000193953108931
-0.000193931891499
-0.000193504661766
-0.000192171838738
-0.000189097904711
-0.000183115482883
-0.000172703817868
-0.000155791254462
-0.000128944278719
-9.08010996533e-05
-9.54868252764e-05
-0.000149103884133
-0.000186806182688
-0.000210946011759
-0.000226106362163
-0.000235078376063
-0.000239835130935
-0.000241923124045
-0.000242541267392
-0.000242605354765
-0.000242686071431
-0.000242770150723
-0.000242290324957
-0.000240293730407
-0.00023554614197
-0.000226517553231
-0.000211240726028
-0.000186964862822
-0.000149206526684
-9.57432639089e-05
-0.000148939809506
-0.000320759927744
-0.000410196640278
-0.000466140688059
-0.000500989944413
-0.000521246905159
-0.000531924554644
-0.000536832278116
-0.000538689319564
-0.000539298735863
-0.000539493642905
-0.000539190220751
-0.000537548027006
-0.000532779292496
-0.000522116616604
-0.000501778218208
-0.000466763656943
-0.000410568459404
-0.000320893649276
-0.000149372260676
-0.000186609195556
-0.000410310870239
-0.000525568039541
-0.000599020945979
-0.000645839324494
-0.000674149076736
-0.000689649372524
-0.000697912092629
-0.000701824633489
-0.00070344520402
-0.000703733034586
-0.000702576440961
-0.000698945993297
-0.000690784932723
-0.000675275101769
-0.00064685626248
-0.000599833291465
-0.000526084985441
-0.000410512502482
-0.00018718432876
-0.000210763589156
-0.000466303640879
-0.000599082113923
-0.000683989167927
-0.000737902359721
-0.000769992573671
-0.000786029872102
-0.000797030177284
-0.000801916007179
-0.000803955711012
-0.000804285764967
-0.000802797531138
-0.000798297023289
-0.000787322626591
-0.000771310959977
-0.00073899353759
-0.000684944054192
-0.000599757516293
-0.000466649887525
-0.000211454598892
-0.000225913145343
-0.000501090218488
-0.000645858318288
-0.000737897652332
-0.000794460158939
-0.000829575271881
-0.000847253492906
-0.000857170674054
-0.000862337654057
-0.000864295470067
-0.000864661537391
-0.000863361979369
-0.000859808295077
-0.000850475768531
-0.000831291567197
-0.000795039681201
-0.000738930834894
-0.000646758313378
-0.0005016673385
-0.000226727643092
-0.000234820607113
-0.000521167060457
-0.000674030426804
-0.000769891887747
-0.000829432920506
-0.000862099327982
-0.000878689201823
-0.000889733878409
-0.000895750468904
-0.000897370903306
-0.000897731269728
-0.000896821150223
-0.000895491898588
-0.000888811937535
-0.00086842352953
-0.000831360643938
-0.000771263325714
-0.000675211341832
-0.000522064724201
-0.000235773315677
-0.000239465007484
-0.000531593538823
-0.000689299719677
-0.000785700957007
-0.000846750335098
-0.000875590709171
-0.000891598315157
-0.000904241191898
-0.00091084688126
-0.000911994328892
-0.000912308258899
-0.000911872167338
-0.000913059115218
-0.000910581343763
-0.000891468038045
-0.000850835630333
-0.000787448037224
-0.000690847282594
-0.000532846478413
-0.000240560414918
-0.000241407844811
-0.000536206377873
-0.000697260356288
-0.000796208935278
-0.000854689906531
-0.000880412147468
-0.000896291892119
-0.000909125529504
-0.000915576267788
-0.000916197695828
-0.000916489617482
-0.000916555519695
-0.00091956141032
-0.000920049003818
-0.000903564033269
-0.000861824186379
-0.000798755764819
-0.000699186670906
-0.000537769233319
-0.00024260983787
-0.000241873757933
-0.000537741167217
-0.000700793894128
-0.00080060486968
-0.000858154573544
-0.00088283314991
-0.000898099495783
-0.000910264486482
-0.000916121730407
-0.00091654929542
-0.000916853690305
-0.000917250103949
-0.000921264634603
-0.00092314449405
-0.000908041884726
-0.000866797918924
-0.000803596925459
-0.000703035282596
-0.000539559477782
-0.000243138074741
-0.000241803412496
-0.000538028550551
-0.000701997734938
-0.000802165662412
-0.000859596256818
-0.000883984056765
-0.000898828894558
-0.000910457856391
-0.000916032368521
-0.000916432584908
-0.000916789826576
-0.000917300681986
-0.000921641085885
-0.000923964707051
-0.000909328038945
-0.000868462135313
-0.000805397089694
-0.000704420064616
-0.000540009356746
-0.000243103040746
-0.000241769431479
-0.00053793410968
-0.000701891765565
-0.000802056228972
-0.000859482997913
-0.000883868794504
-0.000898708816452
-0.000910322192671
-0.000915878774158
-0.000916271544105
-0.000916630370933
-0.000917151274785
-0.000921506154711
-0.000923831012445
-0.0009091840739
-0.000868315764759
-0.000805257795803
-0.000704292624542
-0.000539904109151
-0.000243075165701
-0.000241784961423
-0.000537478735151
-0.000700496269267
-0.000800289448246
-0.000857821500915
-0.000882486868955
-0.000897732892024
-0.000909860980996
-0.000915653955735
-0.000916046656091
-0.00091636462492
-0.000916792518492
-0.000920846572839
-0.000922734305595
-0.00090761518762
-0.000866368758647
-0.000803194552721
-0.000702668311767
-0.000539255473501
-0.000243055998551
-0.000241281074744
-0.000535809856682
-0.000696795448363
-0.000795714372934
-0.000854064066304
-0.000879517786009
-0.000895131861976
-0.000907766687918
-0.00091406585682
-0.000914624654478
-0.000914940265688
-0.000915072087473
-0.000918142289685
-0.000918755332004
-0.000902520506566
-0.000861045849281
-0.000798124355298
-0.000698607327291
-0.000537293190492
-0.000242482219296
-0.000239315335374
-0.000531112375272
-0.00068871351026
-0.000785073526994
-0.000845929721629
-0.000874181911634
-0.000889436428854
-0.000901604021292
-0.000908002708216
-0.000909087624536
-0.000909396931863
-0.000908992216809
-0.000910292276681
-0.000908205602849
-0.000889853913679
-0.000849825051137
-0.000786660085562
-0.000690103884235
-0.000532256311363
-0.000240401266165
-0.000234661437232
-0.000520639980338
-0.000673377284457
-0.000769117325915
-0.00082855681916
-0.000860844459604
-0.000876593297535
-0.000886949441168
-0.000892702633786
-0.000894247963453
-0.000894585126448
-0.000893701056824
-0.000892561686351
-0.000886517510976
-0.000866952890052
-0.000830293581452
-0.000770308765933
-0.000674382017498
-0.000521411268675
-0.00023559823
-0.000225762545091
-0.000500561315886
-0.000645216670961
-0.000737111451894
-0.000793291765707
-0.000828502704177
-0.000845983334913
-0.000855553898786
-0.00086050595337
-0.000862379149444
-0.000862714786343
-0.000861448318949
-0.000858058452557
-0.000849021490455
-0.000830031819606
-0.000793904049158
-0.000737956586749
-0.00064593970997
-0.000501010131461
-0.000226558265543
-0.000210638117057
-0.000465836708721
-0.000598501096682
-0.000683279377409
-0.000737001952398
-0.000768912135539
-0.000784910606007
-0.000795720782226
-0.000800478359505
-0.000802441408896
-0.000802745307012
-0.000801280555132
-0.00079686573469
-0.000786052457472
-0.000770061217754
-0.000737911716812
-0.000684048545243
-0.000599019672314
-0.000466065133497
-0.000211309175994
-0.000186517921717
-0.000409936987092
-0.000525086954565
-0.000598408414581
-0.000645073899455
-0.000673204463264
-0.000688571075188
-0.000696694992863
-0.000700498102414
-0.000702043656764
-0.000702309366274
-0.000701183280044
-0.000697625723126
-0.000689568637109
-0.000674173285152
-0.000645927023713
-0.000599070677137
-0.00052547303146
-0.000410037013704
-0.000187073444682
-0.000148892942325
-0.000320515030282
-0.00040986090097
-0.000465697584318
-0.000500416627782
-0.000520536158352
-0.000531099778246
-0.000535908757323
-0.00053768778396
-0.000538250072296
-0.000538431493962
-0.00053814902599
-0.000536558964438
-0.000531869527291
-0.000521302524908
-0.000501091561868
-0.000466210468971
-0.000410135821444
-0.000320574064717
-0.000149314534521
-9.54935465687e-05
-0.000149066094488
-0.000186746615705
-0.000210861795591
-0.000225990680283
-0.000234923057418
-0.000239643332463
-0.000241699896946
-0.000242296412498
-0.000242350167865
-0.000242433078743
-0.000242530382433
-0.000242071912723
-0.000240101438463
-0.000235382306537
-0.000226386541309
-0.000211137322042
-0.000186884576939
-0.000149156963345
-9.57543593637e-05
-9.68973822669e-05
-0.00015925094597
-0.000203378113813
-0.000232323793896
-0.000250800621372
-0.000261867727322
-0.000267683139149
-0.000270006683303
-0.000270434905978
-0.000270253390227
-0.000270236447066
-0.000270424023811
-0.000270094702242
-0.000267903569335
-0.000262165577366
-0.000251087347942
-0.000232500490888
-0.000203385912009
-0.000159145656235
-9.71873204149e-05
-0.000158953141024
-0.00035190547914
-0.000453859051914
-0.000519309835042
-0.000561067817444
-0.000586287646194
-0.000600185730781
-0.000606727001312
-0.000609179167313
-0.000609835072087
-0.000609969605051
-0.000609564084736
-0.000607331738335
-0.000600956443958
-0.000587101205669
-0.000561804894969
-0.00051984952344
-0.000454077971503
-0.000351848379576
-0.00015952324726
-0.000203036955044
-0.000453909791281
-0.000585098706563
-0.000670519420413
-0.000726436163819
-0.000761246024371
-0.00078175588402
-0.00079270989415
-0.000797913828665
-0.000799996755963
-0.000800312517929
-0.000798782298081
-0.000793954690391
-0.000783186603097
-0.000762609430986
-0.000727713287659
-0.000671547549163
-0.000585771184281
-0.000454164600483
-0.000203813466861
-0.000231958703274
-0.000519320462507
-0.000670471882121
-0.000768691213398
-0.000832317042096
-0.000868759145147
-0.000892215389554
-0.000907027648641
-0.000914855629157
-0.000917594774778
-0.000918025089641
-0.000916075546847
-0.000911479998901
-0.000899895559634
-0.000873082088014
-0.000834199619183
-0.000770202232667
-0.00067163316124
-0.000520004235937
-0.000232958915542
-0.000250359307403
-0.000560869140545
-0.000726216749839
-0.0008322100183
-0.000896455646272
-0.000933644040846
-0.000957523444469
-0.000977696565009
-0.000989415752121
-0.000992177727455
-0.000992617882007
-0.000990742709098
-0.000989838628034
-0.000982806430839
-0.000955266556427
-0.000905765234345
-0.000834323285087
-0.000727962286102
-0.0005621426696
-0.000251608785638
-0.000261266922796
-0.000585729596073
-0.000760753114342
-0.000868490833169
-0.000929629855262
-0.000963342365107
-0.000990153435034
-0.00101757473558
-0.00103349957176
-0.00103575724913
-0.00103607143918
-0.0010345096882
-0.00103911307532
-0.001040789454
-0.00101585316883
-0.000958945415858
-0.000873477576279
-0.000763120360351
-0.00058772135088
-0.000262791384767
-0.000266870304069
-0.000599200159487
-0.000780887261395
-0.000888532043774
-0.000942433631205
-0.000973690207236
-0.00100320697495
-0.00103644362813
-0.00105492334353
-0.00105642705651
-0.0010565870622
-0.00105553333772
-0.00106529137063
-0.00107660349742
-0.00105689514225
-0.000996922315038
-0.000903296301404
-0.000784091366301
-0.000601920921221
-0.000268652896789
-0.000268998590441
-0.000605362160204
-0.000791513346746
-0.000896727579347
-0.000947585067193
-0.000976903715093
-0.00100798727859
-0.00104312031816
-0.00106200095621
-0.00106272999219
-0.00106284443256
-0.00106236620322
-0.00107541186559
-0.0010927487134
-0.00107852208231
-0.00101797725541
-0.000920778460852
-0.000795296313607
-0.00060862426415
-0.000270934363632
-0.000269300053506
-0.00060746676937
-0.000796300033774
-0.000901126461082
-0.000951130556279
-0.000979790186794
-0.00101048918996
-0.00104494605846
-0.00106343465888
-0.00106390553958
-0.00106382117469
-0.00106361056526
-0.00107814061698
-0.00109781215789
-0.00108600805514
-0.00102640921089
-0.000928464169203
-0.000800535761908
-0.000611100361321
-0.000271284626934
-0.000269054746872
-0.000607796587267
-0.000797896141376
-0.000903251879005
-0.000953324429506
-0.000981804126224
-0.00101199350589
-0.00104591340833
-0.00106397240421
-0.00106424232185
-0.00106421741264
-0.00106414884451
-0.00107900271181
-0.00109921131991
-0.00108802428464
-0.00102886506865
-0.000930913247174
-0.000802404095235
-0.000611658076892
-0.000271058952008
-0.000268997669708
-0.000607648164596
-0.000797739417092
-0.000903106986474
-0.000953197719764
-0.000981697037295
-0.00101189463371
-0.00104581817626
-0.00106386999908
-0.00106414198941
-0.00106411694821
-0.00106406224562
-0.00107892291546
-0.00109911272681
-0.00108788147294
-0.00102868964513
-0.000930717157838
-0.000802210859191
-0.000611494313675
-0.000271013621977
-0.000269143652835
-0.000607055640194
-0.000795860650169
-0.000900704783978
-0.000950751546252
-0.000979459882343
-0.00101016929374
-0.00104464626774
-0.00106308677868
-0.00106352388558
-0.00106348135539
-0.00106331101806
-0.00107785016219
-0.00109748017111
-0.00108558244116
-0.00102588687951
-0.000927892102839
-0.000799983793357
-0.000610636409663
-0.000271148781246
-0.000268763740052
-0.000604739049994
-0.000790844099438
-0.000895842846377
-0.000946196378481
-0.000974918043396
-0.00100543475717
-0.00104003992219
-0.00105859831372
-0.00105931098558
-0.00105944280172
-0.00105908903455
-0.00107210253674
-0.00108955575411
-0.00107591282388
-0.00101620642583
-0.000919649081718
-0.000794442533789
-0.00060790060044
-0.000270719055727
-0.000266576068438
-0.000598412154176
-0.00078003681403
-0.00088716741378
-0.000939822604415
-0.000969323457004
-0.000997097118466
-0.0010290185426
-0.00104689908073
-0.00104833476632
-0.00104849123825
-0.00104744546524
-0.00105718951453
-0.00106912941295
-0.00105139164821
-0.000993747575013
-0.000901651348163
-0.000783014427646
-0.000600996619132
-0.000268369218431
-0.000260934478787
-0.00058483731529
-0.000759773799217
-0.000867135842673
-0.000927091135962
-0.00095848549974
-0.000982910983149
-0.00100853035017
-0.00102372694216
-0.00102587249714
-0.00102614156678
-0.00102457919052
-0.00102937764766
-0.0010323988947
-0.00101012045089
-0.000955969591151
-0.000871962931939
-0.000761931866085
-0.000586687589179
-0.000262464997442
-0.000250019008097
-0.000559950430885
-0.000725245217291
-0.00083117490397
-0.000895051944554
-0.000930265805455
-0.00095209103185
-0.000970826019705
-0.00098193779657
-0.000984559835654
-0.000984934378655
-0.000983089715434
-0.000982540980712
-0.000976804356523
-0.000951455530757
-0.000903871312293
-0.000833042573173
-0.000726797341504
-0.000561099093767
-0.00025127324409
-0.000231637168642
-0.000518456588682
-0.000669548163488
-0.000767677308904
-0.000831148417871
-0.000867014856257
-0.000889728357713
-0.000903710223158
-0.000911148493052
-0.000913756483552
-0.000914129650855
-0.000912206268778
-0.000907918706924
-0.000897140670227
-0.000871185092303
-0.000832794301218
-0.000768990845846
-0.00067055949818
-0.000519038932641
-0.000232638536856
-0.000202751307204
-0.00045315926243
-0.000584272918919
-0.00066958683284
-0.000725334629145
-0.000759903768478