/*--------------------------------*- C++ -*----------------------------------*\
| =========                 |                                                 |
| \\      /  F ield         | OpenFOAM: The Open Source CFD Toolbox           |
|  \\    /   O peration     | Version:  3.0.1                                 |
|   \\  /    A nd           | Web:      www.OpenFOAM.org                      |
|    \\/     M anipulation  |                                                 |
\*---------------------------------------------------------------------------*/
FoamFile
{
    version     2.0;
    format      ascii;
    class       volScalarField;
    location    "6.9";
    object      k_0;
}
// * * * * * * * * * * * * * * * * * * * * * * * * * * * * * * * * * * * * * //

dimensions      [0 2 -2 0 0 0 0];

internalField   nonuniform List<scalar> 
7968
(
0.000324836318711
0.000384915999375
0.000432006680245
0.00046128292928
0.000477326763063
0.000483820197274
0.000484328046123
0.000481018702829
0.000476482116985
0.000472638535645
0.000472128003712
0.000475568324697
0.000479958701579
0.000483242481508
0.000482813575467
0.000476447685585
0.000460615962011
0.000431570235356
0.000384671591171
0.000324741234629
0.000385001302679
0.000594792206816
0.000728965178479
0.00080296618015
0.000836755853135
0.00084444588481
0.000838208946223
0.000825714534989
0.000813864119739
0.000806675141425
0.00080605021036
0.000812291749693
0.000823520795932
0.000835731227603
0.000841945987922
0.000834343940552
0.000800858791614
0.000727345054922
0.000593787662894
0.000384569082431
0.000432208998997
0.000728964018559
0.000912468105525
0.00101250218922
0.00105777435318
0.00106794105734
0.00105911548412
0.00104316359065
0.0010287371236
0.00102027293101
0.00101947888244
0.00102669766822
0.00104032175789
0.00105590815792
0.001064655148
0.0010545692133
0.00100960643975
0.000910165419565
0.000727479125514
0.000431468867796
0.000461520263348
0.000802987976693
0.0010125231608
0.00112490784667
0.00117341247663
0.00118151064113
0.00116864319453
0.00114959728115
0.00113369395003
0.00112468720446
0.00112369174426
0.00113118136804
0.00114619009152
0.00116486479326
0.00117770272205
0.00116965693234
0.00112142545808
0.00100965880584
0.000801044170524
0.000460462678549
0.000477588559457
0.000836794126627
0.00105784403065
0.00117344730549
0.00121862083364
0.0012239612083
0.00122520100322
0.00121681759559
0.00120601788958
0.00119862552398
0.00119766176915
0.00120364599799
0.00121374630184
0.0012220152036
0.00122078792437
0.00121463633182
0.00116958719587
0.00105452630638
0.000834413769497
0.000476219905387
0.00048410964349
0.000844547838873
0.00106805467112
0.00118149330975
0.00122382230553
0.00125101468622
0.00125798457927
0.0012512073669
0.00124017316855
0.00123208767702
0.00123093692364
0.00123739464265
0.0012477284601
0.00125459621183
0.00124800406064
0.00122090149973
0.0011776114643
0.00106451715544
0.000841904604973
0.000482518262364
0.000484620959897
0.00083836804725
0.0010592574438
0.00116852504312
0.00122496518138
0.0012578790258
0.00126518411305
0.00125628056524
0.00124243708778
0.00123228893233
0.0012308558872
0.00123903374859
0.00125211042243
0.00126128427834
0.00125467562224
0.00122218263848
0.00116480275448
0.00105568289966
0.000835595073462
0.000482926488375
0.000481315620432
0.000826013418823
0.0010434694267
0.00114959635574
0.00121666391447
0.0012512410817
0.00125647382
0.00124342235109
0.00122501783461
0.00121183914784
0.00121008282272
0.00122090756596
0.00123840600744
0.00125187655699
0.00124762753589
0.00121379000399
0.00114599686531
0.0010398834044
0.000823191761199
0.000479609489734
0.000476807182701
0.000814430855434
0.00102944343072
0.00113422690853
0.00120631829572
0.00124077582936
0.0012433448819
0.00122583419391
0.0012026045017
0.00118532524761
0.00118317814937
0.00119770708338
0.00122002153922
0.00123801597429
0.00123664817428
0.00120315120261
0.00113039978573
0.00102575385385
0.000811573267832
0.000475120608746
0.000473070883344
0.000807609335163
0.00102154661031
0.00112603533387
0.00119967959322
0.00123362203501
0.00123437047549
0.00121405554671
0.00118690279341
0.00116591450021
0.00116341627522
0.00118139065179
0.00120762818048
0.00122851813651
0.00122910254447
0.00119623591566
0.00112196970497
0.00101772089455
0.000804690286899
0.000471362496319
0.000472890054339
0.000807415691775
0.00102136183542
0.00112587917884
0.00119952896055
0.00123348690671
0.00123424456489
0.00121392425377
0.00118674140285
0.00116570902449
0.00116320184899
0.00118121534928
0.00120748428547
0.00122838002018
0.001228953832
0.00119606406035
0.00112176757813
0.00101747552488
0.000804429341465
0.000471124460991
0.000476439137303
0.000813909545782
0.0010289214266
0.00113377224559
0.00120589222709
0.00124039485622
0.00124299293162
0.00122547948636
0.00120220780961
0.00118486309182
0.0011827008634
0.00119728455422
0.00121964305053
0.0012376392462
0.00123623768789
0.00120267706973
0.00112984513126
0.00102509440075
0.000810902742489
0.000474644151024
0.000480850505936
0.000825217850468
0.00104262137051
0.00114880349791
0.00121595009425
0.00125059287508
0.0012558633769
0.00124280882834
0.00122438218979
0.00121115719195
0.00120938659869
0.00122024655853
0.00123776344136
0.00125123561141
0.00124694235907
0.00121301612804
0.00114508232977
0.00103886973821
0.000822215017033
0.000479018737764
0.000484128041163
0.000837395305556
0.00105814944395
0.00116740368229
0.00122398304788
0.00125697372908
0.00126431911532
0.00125541842409
0.00124155339822
0.00123137641498
0.00122992934376
0.00123811932456
0.00125121061954
0.00126037947912
0.00125372542468
0.00122113101085
0.00116355144084
0.00105440203855
0.000834431428098
0.000482307439583
0.000483656626067
0.000843514547102
0.00106680296616
0.00118014945731
0.00122260421166
0.00124989130184
0.00125690469918
0.00125013534481
0.00123908771681
0.00123098253008
0.00122981587227
0.00123626999409
0.00124660287047
0.00125345838802
0.00124681878423
0.00121959304208
0.00117612245633
0.00106307920547
0.000840676766567
0.000481948404531
0.000477217367648
0.000835792162698
0.00105659005972
0.00117204894105
0.00121708646398
0.00122265223695
0.00122391921655
0.00121554000683
0.00120471963474
0.00119729777544
0.00119631110231
0.00120228955818
0.00121238241779
0.00122063412541
0.00121937286781
0.00121295355761
0.00116800133593
0.00105306001527
0.000833210767469
0.000475743385072
0.000461269527009
0.000802160468978
0.00101143180793
0.00112364384813
0.00117197982432
0.00117991260214
0.00116690932699
0.001147834146
0.0011318927325
0.00112280855958
0.00112178708691
0.0011292747552
0.00114425985954
0.00116293304305
0.00117590008007
0.00116800003715
0.00111992159826
0.00100832855469
0.000800008830908
0.000460126299468
0.000432072107537
0.000728387796512
0.000911668701575
0.0010115232299
0.00105661578407
0.00106661772844
0.00105766023055
0.00104161404818
0.00102710007101
0.00101856259239
0.00101771792074
0.00102492425016
0.00103856740116
0.00105421783051
0.00106308393658
0.00105314828516
0.00100837086649
0.000909127826568
0.000726708126306
0.0004312724088
0.000384968200175
0.00059451647674
0.000728549581326
0.000802399461907
0.000835998440348
0.000843521643425
0.000837156758048
0.000824554996466
0.000812598500943
0.000805319115346
0.000804639219956
0.000810885980763
0.000822159466086
0.000834455328304
0.000840792607897
0.000833353623521
0.000800076084664
0.000726733532322
0.000593369458495
0.000384502878112
0.000324840374883
0.000384884891482
0.000431925105334
0.000461127549091
0.000477064846775
0.000483442873562
0.000483856670847
0.000480461797656
0.000475843617377
0.000471925362114
0.000471362268593
0.000474821307968
0.000479260557866
0.000482621288385
0.000482291842612
0.000476051623639
0.000460349564231
0.000431399709914
0.000384576741514
0.000324721032588
0.000376475369044
0.000541515048868
0.00066278883559
0.00073955525796
0.000783452647905
0.000804202398539
0.000810123036497
0.000807712968647
0.000802662313184
0.000798834608607
0.000798343640654
0.000801431793912
0.000806035147398
0.000808267745021
0.000802382295505
0.000781804371061
0.00073822378651
0.000661854094367
0.000540976543641
0.000376249133682
0.000541791088999
0.00107524936272
0.00136706847629
0.00153603271273
0.00162347818909
0.00165762432936
0.00166077829746
0.0016487976834
0.00163412319577
0.00162447409156
0.00162352497042
0.00163163521324
0.00164526451901
0.00165670023649
0.00165335080028
0.0016191363994
0.00153193441397
0.00136354793638
0.00107278901623
0.000540593926251
0.000663194017192
0.00136707153153
0.00175152611199
0.00197863703956
0.0021010774319
0.0021536445003
0.00216401937594
0.0021539268381
0.00213879738009
0.00212818841486
0.0021269539568
0.00213555187496
0.0021493732234
0.00215880794273
0.00214823949005
0.0020956815571
0.00197349908115
0.00174703503815
0.0013638129272
0.000661400193686
0.000740001456992
0.00153612347392
0.00197873440864
0.00224329287986
0.00238918221436
0.00245567973984
0.0024727602355
0.00246909665667
0.00245834957746
0.00244948890754
0.00244809135432
0.00245468904373
0.00246400661387
0.00246668031356
0.0024495416752
0.00238318842527
0.00223755679317
0.00197361002773
0.00153226832457
0.000737761256215
0.000783921486387
0.00162369640568
0.00210129048838
0.00238925129774
0.00255102473792
0.00263106128677
0.00265018218602
0.00264157506577
0.00262555304697
0.00261371707507
0.00261173531499
0.00262039334129
0.00263465017221
0.00264286680498
0.00262421192399
0.00254472012997
0.00238324679398
0.00209579151472
0.00161940646948
0.000781314122815
0.00080468465855
0.0016579544887
0.00215392175632
0.00245570106512
0.00263098287155
0.00270617554207
0.00272109780505
0.00270657212632
0.00268492141613
0.00266963825933
0.00266703602836
0.00267818418538
0.0026977026147
0.00271219675806
0.00269841203205
0.00262432713338
0.00244969549394
0.00214831515296
0.00165346728142
0.000801842059131
0.000810608679735
0.00166120274009
0.00216436478842
0.00247276348171
0.00265013189511
0.0027212198874
0.0027295516436
0.00270685763987
0.00267776205837
0.00265796240233
0.00265469753143
0.00266930163757
0.00269571968014
0.00271857238512
0.0027121152773
0.00264297379055
0.00246685892016
0.00215878767037
0.00165665974689
0.000807670100482
0.000808247072473
0.00164945865642
0.00215456605671
0.00246935259288
0.00264212642536
0.00270760086029
0.00270799605506
0.00267545847847
0.00263759956721
0.0026137879908
0.00260997566561
0.00262765233688
0.00266195368227
0.00269465119961
0.00269676670455
0.00263417280107
0.00246390617382
0.00214896907008
0.00164487773244
0.000805304352015
0.000803331663573
0.00163524073908
0.00214009197689
0.00245942755959
0.0026274876146
0.00268789269402
0.0026813417052
0.00264030593702
0.00259732879407
0.00256815401332
0.00256371884061
0.00258585916081
0.00262506508435
0.00266586830574
0.00267533412896
0.00261847865338
0.00245358107813
0.0021342640986
0.00163055732707
0.000800406815712
0.000799732858324
0.00162620629703
0.00213039098359
0.00245170189305
0.00261750502859
0.00267517873415
0.00266478452161
0.00262016715403
0.00257214388749
0.00253888296336
0.00253405965985
0.0025596810599
0.00260366723368
0.00264798863831
0.0026615224037
0.00260776061617
0.00244542499712
0.0021243238403
0.00162139212581
0.000796789476479
0.00079954621384
0.00162591234065
0.00213008549961
0.00245143138428
0.00261730418354
0.00267504356047
0.00266470223565
0.00262011975157
0.00257208675182
0.00253879660858
0.00253396547073
0.00255960983035
0.00260361275395
0.00264790423236
0.00266138862042
0.0026075573001
0.00244514400892
0.00212398150582
0.00162104573124
0.000796547362486
0.000802829062793
0.00163439658459
0.00213920663613
0.0024586446729
0.00262688434125
0.00268746784732
0.00268106918681
0.00264014678677
0.00259720997946
0.00256799845891
0.0025635470538
0.00258571631291
0.00262490944217
0.00266560237684
0.00267492093668
0.00261787662585
0.00245277720403
0.0021333026158
0.00162960453804
0.000799783444264
0.00080750622213
0.00164810439958
0.00215312103222
0.00246805997989
0.00264105233746
0.00270675976797
0.0027073671177
0.0026749791205
0.00263726247762
0.00261348554258
0.00260966123643
0.00262732842049
0.0026614808068
0.00269404071592
0.00269594966913
0.0026331094601
0.00246259653614
0.00214744691999
0.00164340780962
0.000804421007449
0.000809736424554
0.00165944137888
0.00216243250572
0.0024709535033
0.00264854115681
0.00271985441893
0.0027284090211
0.00270589328619
0.00267691822769
0.00265717036811
0.00265389841995
0.00266845048589
0.00269475689269
0.00271744579975
0.00271077663372
0.00264139380218
0.00246502712405
0.00215678590509
0.00165479475076
0.00080665409995
0.000803791024788
0.00165593261401
0.00215164577164
0.00245347986575
0.00262893790959
0.00270430382584
0.00271940993951
0.00270505814178
0.00268353588591
0.00266831661716
0.00266570919324
0.00267678525554
0.0026961734069
0.00271050413041
0.00269654613808
0.00262227510165
0.0024474388645
0.00214595842737
0.00165134120257
0.000800807808919
0.000783101180019
0.00162156363311
0.00209887182379
0.0023868301221
0.00254870182444
0.00262885842591
0.00264812619483
0.0026397011317
0.00262378880242
0.00261200036225
0.00261000796736
0.00261859976631
0.00263272982496
0.00264075661138
0.00262196002643
0.00254235261063
0.00238073779675
0.00209324321322
0.00161713380703
0.000780354018918
0.000739343516771
0.00153412640498
0.00197642265152
0.00224091977621
0.00238683977732
0.00245340734039
0.00247064320776
0.00246739573782
0.00245677547336
0.00244794272535
0.00244650681512
0.00245306202861
0.00246222688513
0.00246444881111
0.00244715118837
0.00238071228227
0.0022350155472
0.00197110504435
0.00153008852132
0.000736970698303
0.000662741298884
0.00136541087189
0.00174956274733
0.00197655982811
0.00209896417518
0.0021515351092
0.00216194980464
0.00215192458599
0.00213680059305
0.00212616163015
0.00212488855886
0.00213345145952
0.00214721733647
0.00215656176919
0.0021459444557
0.00209336512198
0.00197119780638
0.00174483871698
0.00136194643418
0.000660833063954
0.000541567172856
0.00107415415353
0.0013657136082
0.00153453401564
0.00162187676932
0.00165595170775
0.00165906261558
0.00164704705401
0.00163230828873
0.0016225888061
0.00162159276263
0.00162969724027
0.00164333445072
0.00165479049005
0.00165148133965
0.00161732488094
0.00153021560371
0.00136197396121
0.00107150016626
0.00054028811507
0.000376453129614
0.00054119371129
0.000662280665701
0.000738909553808
0.000782670331004
0.000803289754331
0.0008090986629
0.000806584167827
0.00080142543132
0.000797505656383
0.000796966368876
0.000800071401969
0.000804732555339
0.000807056188738
0.000801286151689
0.000780846855618
0.000737419954703
0.000661208692112
0.000540548391496
0.000376193748725
0.000419785079579
0.000651370877067
0.000820291251807
0.000928422985518
0.00099217469245
0.00102494676308
0.00103791422437
0.00103998798362
0.00103815408483
0.00103634840203
0.00103587028403
0.00103683981898
0.00103804482438
0.00103561098694
0.0010225559684
0.000989913209941
0.000926498022943
0.00081885574418
0.000650482893322
0.000419456476466
0.000651853301073
0.00133162676942
0.00170648542197
0.00193014322993
0.00205303060057
0.00210902485958
0.00212472786064
0.00211997668396
0.00210937136159
0.00210161606762
0.00210041699674
0.0021061168081
0.00211526371945
0.00211918042729
0.00210309610023
0.0020469710351
0.00192430027359
0.00170129941918
0.00132772132452
0.000649800111875
0.000820972739933
0.0017065492092
0.00219005908092
0.00248376619327
0.00265227972376
0.00273572254166
0.00276609665803
0.00276740757919
0.00275781871718
0.00274931212725
0.00274768181238
0.00275341905572
0.00276117352179
0.00275902707848
0.00272836499766
0.00264494683371
0.00247670854984
0.00218367249897
0.00170154666798
0.000817971803139
0.000929198412731
0.00193042446862
0.00248401056527
0.00282394481755
0.0030243825417
0.00312981333645
0.00317636610712
0.00318616279037
0.00317948423089
0.0031713826472
0.00316930994595
0.00317389153841
0.003178355447
0.00316804983084
0.00312125150309
0.00301613353911
0.00281603100874
0.00247671909867
0.00192452407809
0.000925548847704
0.000993045962959
0.00205363831663
0.0026528498975
0.00302464437825
0.0032492200838
0.00337322179291
0.00342370847927
0.00343251359157
0.00342366881627
0.00341376298051
0.00341107291648
0.00341631379161
0.00342185012376
0.00341209701306
0.00336269678842
0.00324028779864
0.00301604507975
0.00264479512107
0.00204695173287
0.000988855358544
0.00102591705262
0.00210997108326
0.00273661392173
0.00313028748852
0.00337351537373
0.00350021165345
0.003548692856
0.00355153879547
0.0035366058448
0.00352294831979
0.00351958855726
0.00352718503263
0.00353687198049
0.00353168922483
0.00348559555302
0.00336245874064
0.00312102368652
0.00272795648329
0.00210272409054
0.00102134045569
0.00103897710349
0.00212601647982
0.00276737029398
0.00317725297487
0.00342490360796
0.00355072871063
0.00359271261423
0.00358567684086
0.00356178033052
0.00354291277251
0.00353903817097
0.00355050421969
0.00356677678535
0.00356901072788
0.00352982039672
0.00341095805044
0.00316740122787
0.00275819273803
0.00211837456497
0.00103420081119
0.0010411805709
0.0021217676565
0.00276938502736
0.00318826458002
0.00343604204803
0.00355802712195
0.00359123749911
0.00357270895227
0.00353851689085
0.0035135755515
0.00350928450422
0.00352570244663
0.0035503134247
0.00356181126412
0.00353095604504
0.00341841776584
0.00317635528044
0.00275946860825
0.00211378967336
0.00103637656118
0.00103952569504
0.00211189249099
0.00276090886975
0.0031833496881
0.00343027151386
0.00354786227847
0.00357324627591
0.00354480667789
0.00350121951159
0.00347044558189
0.00346574315712
0.003486899937
0.0035196925302
0.00354000156682
0.00351680144891
0.00340981798291
0.00316991293897
0.00275027978187
0.00210359936933
0.00103479144864
0.0010379434337
0.00210500911839
0.00275376621053
0.00317726949594
0.00342332026669
0.00353817465314
0.00355905424005
0.00352491579743
0.00347567139808
0.00344119129883
0.00343623673394
0.0034604515345
0.00349820781468
0.0035238844668
0.00350525259459
0.00340146709324
0.00316294975215
0.00274264929893
0.0020964624094
0.00103324413406
0.00103774782418
0.00210467208856
0.00275343276932
0.00317701597148
0.00342316652737
0.00353810824377
0.00355903640046
0.00352490328655
0.00347563429296
0.00344112548048
0.00343616813807
0.00346040592423
0.00349818515957
0.00352387031842
0.00350520440124
0.00340132922786
0.00316269621697
0.00274228703455
0.0020960692909
0.00103297991101
0.00103894815496
0.00211087600142
0.00275991142828
0.00318259387943
0.0034298109479
0.00354768475551
0.00357326548168
0.00354492467786
0.00350136292842
0.00347056830387
0.00346585690216
0.0034870192828
0.00351979301389
0.0035400493817
0.00351668478436
0.00340941331204
0.00316917554759
0.00274923947555
0.00210248400421
0.0010340681864
0.00104027177928
0.00212008659111
0.00276772987976
0.00318699122314
0.00343524916981
0.00355778317758
0.00359148395629
0.00357326797878
0.00353925666633
0.00351436531761
0.00351005390036
0.00352640275377
0.00355087074503
0.00356210456013
0.00353080340445
0.00341771674643
0.00317513456331
0.00275780407095
0.00211203561223
0.00103530106349
0.00103785638434
0.00212377415345
0.00276513947819
0.00317548374673
0.00342367011064
0.00355024237039
0.00359304519778
0.00358661153599
0.00356304605454
0.00354430705116
0.00354042263499
0.00355175191378
0.00356771855433
0.00356940345932
0.0035294422798
0.00340983281769
0.00316571214503
0.00275599058755
0.00211609993134
0.00103291546202
0.00102472775133
0.00210734652486
0.00273394040236
0.00312798824093
0.00337173789174
0.00349909015796
0.00354839684402
0.0035519433656
0.00353740528999
0.00352390709551
0.00352055071445
0.00352799820934
0.00353731230455
0.00353146346285
0.00348456988845
0.00336078795396
0.00311881160866
0.00272531165083
0.00210007008477
0.00101998641641
0.000991917371305
0.00205084067313
0.00264995042921
0.00302202098752
0.00324708432565
0.00337145732395
0.00342245258667
0.00343168889168
0.00342313412888
0.00341335416299
0.00341066518859
0.00341578789255
0.00342104425587
0.0034108741396
0.00336098894137
0.00323823879906
0.00301345444261
0.00264186097277
0.00204407368288
0.000987555937642
0.000928242828322
0.00192772359686
0.00248113956245
0.00282121669741
0.00302191749218
0.00312767340503
0.00317473411843
0.00318461603904
0.00317806691579
0.00317002821547
0.00316794111741
0.0031724391061
0.00317676213215
0.0031663858566
0.00311909030324
0.00301363833889
0.002813222405
0.00247371438815
0.00192166856789
0.000924419997268
0.000820259407681
0.00170418839152
0.00218746712783
0.00248118359369
0.00264979821521
0.00273338667234
0.00276393230467
0.00276532164281
0.00275576110766
0.00274724302572
0.00274557638428
0.00275126456369
0.00275894849764
0.00275672356056
0.00272589651603
0.00264231732992
0.00247394316455
0.00218086781285
0.00169897629408
0.000817096933109
0.000651443805142
0.00132989571908
0.00170448793855
0.00192803555455
0.00205086320602
0.00210684488305
0.00212255684547
0.00211780396604
0.0021071504781
0.00209933145723
0.00209808188079
0.00210376399458
0.00211289678235
0.00211681094845
0.00210072527863
0.00204460389396
0.00192197307738
0.00169906729066
0.00132576483832
0.00064926046895
0.000419765609237
0.000650764153325
0.000819390656589
0.000927342586947
0.000990929604439
0.00102354737789
0.00103637853606
0.00103832925032
0.00103637022345
0.00103446560408
0.00103393137238
0.00103490719003
0.00103616825068
0.0010338415783
0.00102092953862
0.000988451988199
0.000925218360048
0.000817779223059
0.000649738460989
0.000419397883938
0.000455909988111
0.000746616716278
0.000954311739176
0.001087222819
0.0011678302641
0.00121259298195
0.00123464257586
0.00124404905401
0.00124800590897
0.00124963834791
0.00124927962289
0.00124692460712
0.00124230872637
0.00123238501619
0.00121007663778
0.00116534168685
0.0010850628556
0.000952730785764
0.000745683353235
0.00045555110863
0.000747402426624
0.00155687111135
0.00199889745662
0.00226719366781
0.00242151053445
0.00249959950001
0.00253103090521
0.00253789156637
0.00253584703128
0.00253296816993
0.00253166268514
0.002532167707
0.0025324000722
0.00252438488553
0.00249239598751
0.00241413284343
0.00226004403225
0.00199246804496
0.00155185878024
0.000744502540613
0.000955408119256
0.00199910315693
0.00255771348327
0.00289965239083
0.00310207844272
0.00320975310676
0.00325756386573
0.00327089641391
0.00326930062445
0.0032647955868
0.00326276972005
0.00326371507509
0.00326286503565
0.00324836018655
0.00320035697191
0.003092830234
0.00289078335384
0.00254960771664
0.00199254450986
0.000951170663734
0.00108850849939
0.00226791450644
0.00290021483376
0.00328845386972
0.00352346574282
0.00365466254912
0.00371940448213
0.0037389627184
0.00373796097126
0.00373227629279
0.00372940057514
0.00372994411428
0.00372677416478
0.00370526707614
0.00364211727888
0.00351216670328
0.00327784687457
0.00289040786755
0.00225971902536
0.00108329743682
0.00116936204562
0.00242298309586
0.00310341271905
0.00352411858604
0.00378686037137
0.00393464543946
0.00400240194705
0.00402014983059
0.00401549301504
0.0040069994424
0.00400328224127
0.00400464270696
0.00400209141113
0.00397937304508
0.00391304035726
0.00377098064988
0.00351160588455
0.00309177805858
0.0024130593704
0.00116326121952
0.00121439926938
0.00250192142283
0.00321193274384
0.00365606778999
0.00393699027246
0.00409134374956
0.00415546353698
0.0041650687419
0.00415277651125
0.00413996260273
0.0041356918386
0.00413960468814
0.00414080404226
0.0041209912214
0.00405575136987
0.00391094228415
0.00364079074205
0.00319845425915
0.00249039500905
0.00120760188396
0.0012366833465
0.0025341897835
0.00326071449434
0.00372346610732
0.00401123648879
0.00416392739043
0.00421860853985
0.0042160490126
0.0041938846103
0.00417598259427
0.00417169578054
0.00417977837626
0.0041872550647
0.00417374251492
0.0041135579067
0.00397151620418
0.00370137134708
0.00324529779165
0.00252133903512
0.00122950724592
0.00124626334381
0.00254193351756
0.00327529780961
0.00374749703649
0.00403743606245
0.00418470486646
0.00422813998246
0.00421232005034
0.00417980646582
0.00415655264025
0.00415253599765
0.004165868581
0.00418139591876
0.00417618339145
0.00412330048201
0.00398658001538
0.00371861247862
0.00325819111215
0.00252817843003
0.00123909950374
0.00125030328302
0.00254084234063
0.00327536067382
0.00375054356248
0.00403951056414
0.0041810835138
0.0042150064193
0.00418834009445
0.00414671053253
0.00411848965697
0.00411460614359
0.00413264601969
0.00415609938652
0.0041592802413
0.00411376088277
0.0039826368213
0.00371762612607
0.00325688111228
0.00252654552958
0.00124341407912
0.00125200506601
0.00253895214426
0.00327274615891
0.0037480891324
0.00403568226384
0.00417376678735
0.00420235825237
0.0041696019611
0.00412267102889
0.00409146999588
0.00408762162781
0.00410845651709
0.00413653214649
0.00414494982946
0.0041040895352
0.00397650072091
0.00371351825174
0.00325342700546
0.00252432230928
0.00124531156258
0.00125182958595
0.00253862222863
0.00327246955985
0.00374794608599
0.0040356807781
0.00417385213468
0.00420243352212
0.00416958362452
0.00412254826479
0.0040912853465
0.00408744362467
0.00410833961731
0.00413650766902
0.00414503738358
0.00410422376564
0.00397656230866
0.0037134165182
0.00325313327096
0.00252391113421
0.00124504393187
0.00124973898761
0.0025397722339
0.00327448427991
0.00375009877672
0.00403954152372
0.00418149130158
0.00421554158383
0.00418879851292
0.00414703291607
0.00411872724845
0.00411485124089
0.00413296850395
0.0041565412174
0.00415987956418
0.00411431776494
0.00398286121883
0.00371732174763
0.00325601463156
0.00252534839594
0.00124265742721
0.00124533564883
0.00254010137791
0.00327378097526
0.00374677010455
0.00403764978024
0.00418582451506
0.00422985518086
0.00421424079983
0.00418178262985
0.00415852403278
0.0041544768535
0.00416779885219
0.00418332683509
0.00417798467526
0.00412462648587
0.00398707783427
0.00371811160322
0.00325676838276
0.00252627788366
0.00123795139677
0.00123551832838
0.00253173013374
0.0032586174499
0.00372239143698
0.00401153994355
0.00416579580193
0.00422181503613
0.00422006658295
0.00419826080144
0.00418047743433
0.00417618059452
0.00418412761574
0.00419127669106
0.00417705691493
0.00411568193005
0.0039721315491
0.00370055761952
0.00324335653109
0.00251888056387
0.00122812314491
0.00121316914597
0.00249908181904
0.00320939714794
0.00365444635165
0.00393676650063
0.0040930368013
0.00415903348921
0.00416994636403
0.00415830115487
0.00414572546532
0.00414147663485
0.00414518326329
0.00414577839043
0.00412473710835
0.00405769870685
0.00391100323058
0.00363941768727
0.00319606367305
0.00248755450263
0.00120614681902
0.00116821611027
0.00242001281684
0.00310062098631
0.00352190196422
0.00378565841923
0.00393490698936
0.00400442552362
0.00402354480176
0.00401958213844
0.00401135545832
0.00400766657155
0.00400882022545
0.0040056151186
0.00398157466565
0.0039135175866
0.00376995817749
0.00350954916838
0.00308902575768
0.00241001403867
0.00116188063287
0.00108755447509
0.00226504777631
0.00289738457924
0.00328595367835
0.00352144044553
0.00365342017692
0.00371893907392
0.00373930409909
0.00373875840091
0.00373325267196
0.00373039015006
0.00373078563477
0.00372717980477
0.00370489084861
0.00364098881171
0.00351021787503
0.00327533985262
0.00288746465754
0.00225667600448
0.00108210767127
0.000954705619663
0.00199653930381
0.0025550508998
0.0028970811356
0.00309969087632
0.00320761497398
0.00325563941481
0.00326914330549
0.00326764983949
0.00326317859943
0.00326112331387
0.00326198990319
0.00326100368783
0.00324633662985
0.00319813218736
0.00309032579345
0.00288803604874
0.00254670925618
0.00198973030923
0.000950253170132
0.00074700614193
0.00155487105934
0.00199668922457
0.00226485978925
0.00241908311497
0.0024971212397
0.0025285294081
0.00253539601756
0.00253330563222
0.00253036271797
0.00252898751879
0.00252944970794
0.00252963684767
0.00252162299069
0.00248968375737
0.00241147171092
0.00225745690821
0.00198998298889
0.00154958838908
0.000743934037379
0.000455972314649
0.000745862972372
0.000953209947524
0.00108590476726
0.00116629449381
0.00121084758584
0.00123272288715
0.00124199952357
0.00124583170264
0.00124736890544
0.00124693875807
0.00124456149177
0.00123997455472
0.00123015790108
0.00120803415108
0.00116352682231
0.00108349188738
0.000951410742605
0.000744759688646
0.000455570287732
0.000491545234747
0.000844694591961
0.00108967183911
0.00124659253481
0.00134541428534
0.00140515831165
0.0014399259128
0.00145985977913
0.0014716284139
0.00147751503685
0.0014774218657
0.00147128260098
0.00145914591467
0.00143869790723
0.00140348796042
0.00134358284154
0.00124503094128
0.00108878240672
0.000844484230803
0.000491296895808
0.000845945650445
0.00179056157672
0.00229490175799
0.00260631267792
0.00279336249567
0.00289712441155
0.00294925653508
0.00297279758962
0.00298300346804
0.00298671780915
0.00298550445062
0.00297955144729
0.00296761713706
0.00294285880918
0.00289003662653
0.00278600948713
0.00259922502703
0.00228859365821
0.00178550030606
0.000842489528029
0.00109137913177
0.00229548633877
0.00291720153288
0.00329837703032
0.00352843724948
0.00365699091427
0.0037205007083
0.00374551258053
0.00375239932363
0.00375243971267
0.00374998759662
0.00374558819424
0.0037350670351
0.00370791541452
0.003645152344
0.00351781784889
0.00328843914379
0.00290823202152
0.00228808084865
0.001086213408
0.0012486105541
0.00260782789736
0.00329942647204
0.00371877455313
0.00397491918202
0.00412273114556
0.00419437056356
0.0042191150294
0.00422173663112
0.00421768755446
0.00421363206784
0.00421005561187
0.00419997385924
0.00416990689768
0.00409912841397
0.00395679196816
0.00370527756451
0.00328738937621
0.00259773319969
0.0012420774321
0.00134785515332
0.00279614405407
0.0035308997887
0.00397659570017
0.00425555631723
0.00441243264886
0.00448272494675
0.00450053483805
0.00449582410407
0.00448692588764
0.00448148932571
0.00447932097099
0.00447123811261
0.00444130857874
0.00436789484905
0.0042203315861
0.00395504402503
0.00351523162829
0.00278304267155
0.00134003650495
0.00140804320156
0.00290136067593
0.00366138890156
0.00412999084292
0.00442193017523
0.00457901303662
0.00463942482508
0.00464412489055
0.00462928683391