/*--------------------------------*- C++ -*----------------------------------*\
| =========                 |                                                 |
| \\      /  F ield         | OpenFOAM: The Open Source CFD Toolbox           |
|  \\    /   O peration     | Version:  3.0.1                                 |
|   \\  /    A nd           | Web:      www.OpenFOAM.org                      |
|    \\/     M anipulation  |                                                 |
\*---------------------------------------------------------------------------*/
FoamFile
{
    version     2.0;
    format      ascii;
    class       volVectorField;
    location    "4.1";
    object      U_0;
}
// * * * * * * * * * * * * * * * * * * * * * * * * * * * * * * * * * * * * * //

dimensions      [0 1 -1 0 0 0 0];

internalField   nonuniform List<vector> 
15984
(
(0.00172765279977 0.000313650916566 -0.0011746212015)
(0.00509536197189 0.000180843571992 -0.000948625977693)
(0.00697217732476 0.000769962116744 -0.000785154466634)
(0.00546976947096 0.00147611479412 -0.000643571369836)
(0.00165146624509 0.00191257676535 -0.00061040468172)
(-0.0030104927255 0.0019491836804 -0.000552342644615)
(-0.0074533407011 0.00155394553783 -0.000474293384521)
(-0.0100864839671 0.000857819217128 -0.000403695987653)
(-0.0104237580733 0.000164299933642 -0.000329875051887)
(-0.00880991500294 -0.000310023677184 -0.000248544087854)
(-0.00667711614691 -0.000416595337448 -0.00017007495138)
(-0.00467611278846 -0.00037096890551 -0.000117748652494)
(-0.00310961022908 -0.000282710174025 -7.88034419497e-05)
(-0.00200753047522 -0.00019497886816 -5.45738028989e-05)
(-0.00126672749492 -0.000128050031118 -3.93946135184e-05)
(-0.000780456266515 -8.24766531067e-05 -2.83541526435e-05)
(-0.000464689172625 -5.36390897481e-05 -1.90624352191e-05)
(-0.000260927347433 -3.52723635271e-05 -1.20264095654e-05)
(-0.000129642352032 -2.39555515805e-05 -6.44565347079e-06)
(-4.70297775807e-05 -1.70802881189e-05 -1.90037072489e-06)
(3.02642155352e-06 -1.28851054118e-05 1.64549054104e-06)
(3.05974714984e-05 -1.03178570606e-05 4.31906971433e-06)
(4.16838469961e-05 -8.78448738927e-06 6.82465387249e-06)
(3.77840485305e-05 -7.91633186441e-06 9.32902973348e-06)
(2.23283700039e-05 -7.79930026124e-06 1.09416986458e-05)
(3.84242435731e-06 -7.91799003887e-06 1.13177575526e-05)
(-1.08802484678e-05 -8.42433253627e-06 1.0632702898e-05)
(-2.24539620772e-05 -9.00190722928e-06 1.02680371357e-05)
(-2.90559910309e-05 -9.70106578786e-06 8.57496194822e-06)
(-2.35729470164e-05 -1.03268143871e-05 5.52210095049e-06)
(5.65721036267e-08 -1.08234848779e-05 1.98105010274e-06)
(3.75958934412e-05 -1.06565222665e-05 -3.65929666149e-07)
(7.56245281217e-05 -9.61999310363e-06 -1.96480031762e-08)
(0.000105802502057 -8.30239514109e-06 7.59732278832e-07)
(0.000125681077367 -6.85140467694e-06 2.41031446872e-06)
(0.000134432507615 -5.55583283769e-06 4.59668746644e-06)
(0.000130481278656 -4.08993973251e-06 6.65642211503e-06)
(0.000112395286253 -2.91559319146e-06 9.99683452933e-06)
(7.87680432984e-05 -3.22167579776e-06 1.41944472507e-05)
(3.42504099125e-05 -6.15152118886e-06 2.11778288954e-05)
(0.00143460421595 0.00181266725126 -0.00203832542722)
(0.00534166022574 0.00236916482447 -0.00287724459187)
(0.00743813115964 0.00448185195171 -0.00317325251199)
(0.00585644585678 0.00653085359615 -0.00319284618984)
(0.00180641623403 0.00768113503384 -0.00323095872068)
(-0.00309098642207 0.00773612813124 -0.00314021070242)
(-0.0077394589149 0.00665576188487 -0.00292215769781)
(-0.0105594785595 0.0046474640913 -0.00262764183021)
(-0.0107620435658 0.00231487407821 -0.00215249408406)
(-0.0089549018724 0.000614672089155 -0.00156557119771)
(-0.00665534293082 -0.000205253208016 -0.00101764235243)
(-0.00459748891947 -0.000467083523236 -0.000609205246141)
(-0.0030306838961 -0.000462515389833 -0.000350812545965)
(-0.00194674037168 -0.000364846015925 -0.000196697929538)
(-0.00122713587588 -0.000257810122903 -0.000113187002273)
(-0.000757209443474 -0.000172808477386 -6.77971479091e-05)
(-0.000452068018571 -0.000114266439305 -4.12452966973e-05)
(-0.00025461284265 -7.61015913561e-05 -2.50221447013e-05)
(-0.000127131526898 -5.22878039329e-05 -1.43440886716e-05)
(-4.66724105087e-05 -3.75784453081e-05 -6.87539637015e-06)
(2.28256482026e-06 -2.83439923643e-05 -1.71198090033e-06)
(2.94168619213e-05 -2.27020857953e-05 1.87503022216e-06)
(4.03215704318e-05 -1.95385176117e-05 5.24328360328e-06)
(3.61138111423e-05 -1.79694566882e-05 8.49696722525e-06)
(2.01440697402e-05 -1.7665611648e-05 1.0534701987e-05)
(1.28839529028e-06 -1.83078945331e-05 1.07469495839e-05)
(-1.3307718495e-05 -1.96939307294e-05 9.85417792857e-06)
(-2.45962102176e-05 -2.1218737216e-05 9.43838525752e-06)
(-3.09930437491e-05 -2.28736562334e-05 7.65743558455e-06)
(-2.49900655579e-05 -2.44949968512e-05 3.98794491116e-06)
(-4.83983189508e-08 -2.53787934712e-05 -1.80796992586e-07)
(3.95939011153e-05 -2.49652989905e-05 -2.63923289751e-06)
(7.92695178905e-05 -2.29092978356e-05 -1.29031907336e-06)
(0.000110142491126 -2.0366554612e-05 9.63956532126e-07)
(0.000130023616087 -1.73307219533e-05 3.73088179317e-06)
(0.000138390674934 -1.45843074871e-05 6.881840125e-06)
(0.000133804866583 -1.16556161007e-05 9.89618005746e-06)
(0.000114643147485 -9.3487694055e-06 1.43738066145e-05)
(7.91509296235e-05 -9.70553540063e-06 1.91229548829e-05)
(3.12440066145e-05 -1.43344933181e-05 2.21922422312e-05)
(0.00158799091491 0.00401266137561 -0.00218164159222)
(0.0062313486037 0.00576283066336 -0.0033786843268)
(0.00857605070353 0.00952109033484 -0.00341767907257)
(0.00667024441694 0.012931730806 -0.00318201734188)
(0.00210824377973 0.0147646506853 -0.00312307682649)
(-0.00331060452416 0.0148160134485 -0.00302175724565)
(-0.0084519965673 0.0130102679386 -0.00286467919814)
(-0.0116064941723 0.00960454825421 -0.00275543420362)
(-0.0116968201058 0.00557921132935 -0.00250153740381)
(-0.00954096465492 0.00244168322904 -0.00198679639728)
(-0.006884373175 0.000646120482052 -0.00135348793981)
(-0.00461230405668 -0.000166986978502 -0.000827886761135)
(-0.00295906492909 -0.000408094270186 -0.000475403829661)
(-0.00185809386031 -0.00040288222716 -0.000267684165639)
(-0.00115064970619 -0.000315760915881 -0.000150556584405)
(-0.000701046003303 -0.000223410743984 -8.82744364473e-05)
(-0.000413942651914 -0.000151842927731 -5.388046024e-05)
(-0.000229554519052 -0.000102894720012 -3.3784041112e-05)
(-0.000110654197231 -7.15689448539e-05 -2.08787337175e-05)
(-3.5522500714e-05 -5.17925603915e-05 -1.2301164698e-05)
(1.01319001197e-05 -3.90008190829e-05 -6.43455631941e-06)
(3.5079096245e-05 -3.10778156979e-05 -2.46308236603e-06)
(4.44911355702e-05 -2.67698437431e-05 1.55775233512e-06)
(3.92056490186e-05 -2.49445160111e-05 5.00953028525e-06)
(2.2202943867e-05 -2.46690741176e-05 7.03227649817e-06)
(2.49108947686e-06 -2.58475459171e-05 7.20358073544e-06)
(-1.24841426187e-05 -2.80502774018e-05 6.14183384467e-06)
(-2.40217785887e-05 -3.04582330295e-05 5.72279310865e-06)
(-3.07453567423e-05 -3.29897512946e-05 3.83425319305e-06)
(-2.46599856608e-05 -3.52523387421e-05 -2.68302692728e-07)
(9.39688819699e-07 -3.62627986995e-05 -4.96004619033e-06)
(4.16009996892e-05 -3.56415949563e-05 -7.41690075742e-06)
(8.18984221076e-05 -3.32686471298e-05 -5.67611533021e-06)
(0.000112885062916 -3.03834414553e-05 -2.65812420595e-06)
(0.000132542929877 -2.67390007291e-05 6.20210838929e-07)
(0.000140351545735 -2.32932436795e-05 4.12492093941e-06)
(0.000135092445737 -2.00126964806e-05 7.76493777443e-06)
(0.000114772072466 -1.74988984414e-05 1.27703424488e-05)
(7.72755596824e-05 -1.7967468594e-05 1.71799104721e-05)
(2.94566818327e-05 -2.19499597187e-05 1.68712732911e-05)
(0.00213199497853 0.00570039330714 -0.00214772637746)
(0.00787592729111 0.00841454033113 -0.00311902733078)
(0.0104897223678 0.0133783049855 -0.00243453439795)
(0.00802706890328 0.0177043936951 -0.00159205222712)
(0.00259163087122 0.0199958570371 -0.00128523254252)
(-0.0037192157354 0.020045959883 -0.00118043190763)
(-0.00971293791114 0.0177319493211 -0.00125922425292)
(-0.0134046125464 0.0133448025808 -0.00168493076479)
(-0.013399970631 0.00808805658716 -0.00204772193859)
(-0.0106978256132 0.0039009259753 -0.00193887006386)
(-0.00747419916817 0.00139668130405 -0.00144419229777)
(-0.00482306303169 0.000161609576275 -0.000926158540986)
(-0.00297423094256 -0.000292597019509 -0.00054916185125)
(-0.00180317926285 -0.000378722394523 -0.000314445369374)
(-0.00108348514176 -0.00032510392271 -0.000179086034585)
(-0.000644519224855 -0.000239469976193 -0.000104301998202)
(-0.000373181065256 -0.000165392570314 -6.37925759147e-05)
(-0.000202179658159 -0.000112437747642 -4.07060507595e-05)
(-9.26880424131e-05 -7.79356091663e-05 -2.64913238639e-05)
(-2.34562716594e-05 -5.58719478367e-05 -1.70597894657e-05)
(1.84468430625e-05 -4.12894758445e-05 -1.06138773494e-05)
(4.0763793969e-05 -3.23344293374e-05 -6.19284028497e-06)
(4.82597598889e-05 -2.72460876449e-05 -2.01128006458e-06)
(4.16505788296e-05 -2.55960080178e-05 1.76637087902e-06)
(2.35953439106e-05 -2.56061511421e-05 3.82733514926e-06)
(2.96928824612e-06 -2.71434271152e-05 3.7901482968e-06)
(-1.24750481543e-05 -3.00057951573e-05 2.46649454826e-06)
(-2.42323512246e-05 -3.3161717595e-05 1.84430968831e-06)
(-3.10739657482e-05 -3.62561630555e-05 -3.98617707968e-07)
(-2.47291737173e-05 -3.87949934981e-05 -4.99108575137e-06)
(1.60947491574e-06 -3.99467051504e-05 -9.98176104875e-06)
(4.3256998791e-05 -3.91377142121e-05 -1.23651545192e-05)
(8.41594288068e-05 -3.66748131682e-05 -1.03976828518e-05)
(0.000115336929075 -3.35283237244e-05 -6.95889742368e-06)
(0.000134884602053 -2.96694785934e-05 -3.33993406132e-06)
(0.000142313900961 -2.59075700871e-05 4.09468535949e-07)
(0.000136545173043 -2.24256759064e-05 4.45806006961e-06)
(0.000115263779589 -1.96968412572e-05 9.73714376147e-06)
(7.64067341385e-05 -1.96422045453e-05 1.38502369413e-05)
(2.88740147455e-05 -2.13208312529e-05 1.29396664896e-05)
(0.00295907285715 0.00674053020465 -0.00212982126666)
(0.0100272519655 0.00996385490937 -0.00260874424288)
(0.0129148847333 0.0154877494748 -0.00097087134998)
(0.00976409715564 0.020132155304 0.000653429587967)
(0.0032208889931 0.0225904370383 0.00132193737925)
(-0.00428533168651 0.0226402542774 0.00142339730412)
(-0.0113635899419 0.0200968736835 0.000970775019743)
(-0.0156895472516 0.0153190085764 -0.000175077370167)
(-0.0155986006807 0.00950639545343 -0.0013394246385)
(-0.0122494526666 0.00481636884882 -0.00175693077221)
(-0.00833403923351 0.0019374893091 -0.00146771348224)
(-0.00519699001692 0.000451414677696 -0.000999150109907)
(-0.00307762055632 -0.000154210354557 -0.000609306208752)
(-0.00178912304565 -0.000316284413595 -0.000352107852938)
(-0.00103398907904 -0.000297830750324 -0.000202402711284)
(-0.000594691728277 -0.000228143848585 -0.000116909618647)
(-0.000334675397064 -0.000159578720687 -7.06157067934e-05)
(-0.000175672635555 -0.000108543662417 -4.5085720709e-05)
(-7.52056106472e-05 -7.47401586329e-05 -2.98240696487e-05)
(-1.17207342252e-05 -5.29253193708e-05 -1.9757939481e-05)
(2.64077959254e-05 -3.82547900997e-05 -1.28990186549e-05)
(4.60818134528e-05 -2.9236550618e-05 -8.07595502902e-06)
(5.15145802752e-05 -2.41811784051e-05 -3.81030005277e-06)
(4.33667754795e-05 -2.26349383717e-05 2.19323598096e-08)
(2.43558738264e-05 -2.3004976114e-05 2.1628003796e-06)
(2.84638942269e-06 -2.47593170839e-05 1.87622944762e-06)
(-1.31207263565e-05 -2.79414287244e-05 2.58556603683e-07)
(-2.50210737823e-05 -3.14620879541e-05 -6.90335234729e-07)
(-3.183149979e-05 -3.47962731469e-05 -3.52604069432e-06)
(-2.51043184115e-05 -3.74166825484e-05 -8.40401952056e-06)
(2.07815724388e-06 -3.85268318245e-05 -1.35745797599e-05)
(4.46801173405e-05 -3.75970512522e-05 -1.58467833613e-05)
(8.61574468799e-05 -3.51954149515e-05 -1.37034705892e-05)
(0.0001175840221 -3.20847187331e-05 -9.9864026201e-06)
(0.000137116465369 -2.83128034462e-05 -6.0515177599e-06)
(0.000144294949254 -2.46004317309e-05 -2.09691911166e-06)
(0.000138188011247 -2.12209749858e-05 2.21270562861e-06)
(0.000116226401955 -1.84484789853e-05 7.68764120422e-06)
(7.66948964408e-05 -1.79508329648e-05 1.18195088993e-05)
(2.90695050727e-05 -1.79619440175e-05 1.16683533514e-05)
(0.00390661999388 0.00695028282617 -0.00213223640272)
(0.0123237913515 0.0101776614148 -0.00205106005388)
(0.0154572917996 0.0155484251381 0.000536129325592)
(0.0115587168083 0.0198063324453 0.00285923873003)
(0.00385307883007 0.0220672132171 0.00380066729839)
(-0.00485707544745 0.0221263509203 0.00389553670083)
(-0.0130691848972 0.0197522655103 0.00313471421894)
(-0.0180554085368 0.0152713774737 0.00135209955812)
(-0.0179514464848 0.00966534324557 -0.000600366731795)
(-0.0139494153616 0.0050546635997 -0.0015540630508)
(-0.00932434260608 0.00216805654411 -0.00147295862881)
(-0.00566455147568 0.000625596452834 -0.00105841578485)
(-0.00323794148128 -3.57549204332e-05 -0.000661479421904)
(-0.00180677075284 -0.000241375679405 -0.00038482705992)
(-0.00100163238716 -0.000250164846768 -0.000219111765829)
(-0.000554230744441 -0.000198361057111 -0.000126327506528)
(-0.000300968548469 -0.000140478604597 -7.44859431181e-05)
(-0.000151890709049 -9.53936818797e-05 -4.6913660189e-05)
(-5.94127199045e-05 -6.50816523624e-05 -3.11781603681e-05)
(-1.08197266372e-06 -4.54840012245e-05 -2.07659917916e-05)
(3.36566512285e-05 -3.21843689058e-05 -1.35795115974e-05)
(5.07370438171e-05 -2.37154105916e-05 -8.44384632089e-06)
(5.42290832677e-05 -1.93938576085e-05 -4.10327675891e-06)
(4.46634225973e-05 -1.78473150701e-05 -3.51684069808e-07)
(2.46602622894e-05 -1.85054383628e-05 1.67376073713e-06)
(2.364003248e-06 -2.03145145625e-05 1.20710195438e-06)
(-1.4102557406e-05 -2.34872464461e-05 -7.19233823611e-07)
(-2.61210775316e-05 -2.69172363011e-05 -1.9703026689e-06)
(-3.28046175801e-05 -3.02658190125e-05 -5.3004233409e-06)
(-2.55932240668e-05 -3.27084775316e-05 -1.04726290863e-05)
(2.44143338233e-06 -3.36801553907e-05 -1.57381964289e-05)
(4.59147761586e-05 -3.27131461752e-05 -1.78912408151e-05)
(8.79050651964e-05 -3.05057741008e-05 -1.55818264524e-05)
(0.000119591116027 -2.76521280587e-05 -1.1645797669e-05)
(0.000139160964494 -2.42187733847e-05 -7.47174927671e-06)
(0.000146167903552 -2.08355961141e-05 -3.36715187251e-06)
(0.000139860468014 -1.77879391305e-05 1.15414803587e-06)
(0.000117452823244 -1.51606765449e-05 6.78907997397e-06)
(7.76440189337e-05 -1.43997616273e-05 1.11121885014e-05)
(2.96043617288e-05 -1.35589745158e-05 1.17884625722e-05)
(0.00478606719457 0.00633337047934 -0.00214391381884)
(0.0144049700391 0.00911333942221 -0.0015656482591)
(0.0177023692622 0.0137747003273 0.00180562470633)
(0.0131883392657 0.0172948612899 0.00459578297867)
(0.00441541268332 0.0192109137557 0.00576566708642)
(-0.00534738553041 0.019282191924 0.00586054833596)
(-0.0145936133065 0.017267056587 0.00484468558755)
(-0.0201537759191 0.0134778062898 0.00261562875946)
(-0.0201307723787 0.00865044585377 3.79073601182e-05)
(-0.0155538178818 0.00463105395408 -0.0013750666042)
(-0.0102960802487 0.00207085911228 -0.00147269912688)
(-0.00614601649711 0.000666791456204 -0.00110636841815)
(-0.00342053849938 4.2180418367e-05 -0.000705671295098)
(-0.00184421683414 -0.000168336682729 -0.000411553653722)
(-0.000983437445364 -0.000193709106346 -0.00023187479931)
(-0.000523584297592 -0.000157787775169 -0.000131936209958)
(-0.000273719350406 -0.00011333596485 -7.63214693758e-05)
(-0.0001320312517 -7.67537774033e-05 -4.71344419186e-05)
(-4.61606485351e-05 -5.18494709317e-05 -3.08915109394e-05)
(7.8034097925e-06 -3.57293011781e-05 -2.06742390285e-05)
(3.97867025538e-05 -2.46512068046e-05 -1.32386167883e-05)
(5.46364519537e-05 -1.76637234714e-05 -7.92916528632e-06)
(5.63959919065e-05 -1.40586390689e-05 -3.51716287239e-06)
(4.55735250292e-05 -1.27400949589e-05 9.0728514239e-08)
(2.46697362627e-05 -1.35346005436e-05 1.98527307145e-06)
(1.71246503562e-06 -1.51700590784e-05 1.30313117052e-06)
(-1.5170364434e-05 -1.8020714598e-05 -8.38691074124e-07)
(-2.72957951707e-05 -2.10294775492e-05 -2.4395702629e-06)
(-3.38267750547e-05 -2.40143007993e-05 -6.08976904355e-06)
(-2.60925990375e-05 -2.61141207423e-05 -1.15184594466e-05)
(2.7312734289e-06 -2.68839885752e-05 -1.68640413804e-05)
(4.69599737745e-05 -2.59668623048e-05 -1.88860014402e-05)
(8.93736969603e-05 -2.4071920058e-05 -1.64386487546e-05)
(0.00012129459426 -2.16598169012e-05 -1.23065597432e-05)
(0.000140919322538 -1.87739031589e-05 -7.96370996787e-06)
(0.000147808051581 -1.59370713747e-05 -3.72518283255e-06)
(0.000141391895071 -1.33951565208e-05 9.3672044e-07)
(0.000118693061491 -1.1127056165e-05 6.70380906966e-06)
(7.87446013866e-05 -1.02802176335e-05 1.12593615972e-05)
(3.01775185914e-05 -9.192179169e-06 1.23845033749e-05)
(0.00552802036965 0.00500129658219 -0.00217237138567)
(0.0160543769225 0.00704563430259 -0.00124906056324)
(0.0194622866383 0.0106061616554 0.00269617974112)
(0.0145851286615 0.0130894274767 0.0057532163017)
(0.00492569198281 0.0145178037417 0.00697031514213)
(-0.00575865531648 0.0145935594559 0.00706155867666)
(-0.0158505120977 0.0131070816146 0.00601915876634)
(-0.0218017167581 0.0103528924353 0.00349695188041)
(-0.0218879233927 0.00671522428559 0.000503547008368)
(-0.0168704203939 0.00366250340841 -0.00124415085829)
(-0.0111228691168 0.00168512813291 -0.00147195589743)
(-0.00657028306829 0.000578310790298 -0.001142226102)
(-0.00359094621001 7.21715317316e-05 -0.000738735990472)
(-0.00188702208479 -0.000106121112364 -0.00043144917216)
(-0.00097518142623 -0.000135558321625 -0.000240973540871)
(-0.000502172032983 -0.000112850489197 -0.00013419022218)
(-0.000253565704643 -8.18998849189e-05 -7.72629174787e-05)
(-0.000116863607016 -5.53501101348e-05 -4.64954163746e-05)
(-3.59719787981e-05 -3.70718146219e-05 -3.01211208928e-05)
(1.47114349892e-05 -2.51821907623e-05 -1.99602907355e-05)
(4.44653637547e-05 -1.68902366108e-05 -1.24715572711e-05)
(5.75624910585e-05 -1.18600941742e-05 -6.9371674692e-06)
(5.80610277898e-05 -9.11574005583e-06 -2.57503753855e-06)
(4.61610657075e-05 -8.16626974227e-06 8.61768514514e-07)
(2.45304465087e-05 -8.882702252e-06 2.67700480261e-06)
(1.07243399773e-06 -1.01898109173e-05 1.78991756698e-06)
(-1.61569473404e-05 -1.24144949719e-05 -5.71381209005e-07)
(-2.83397258007e-05 -1.47720396815e-05 -2.4378528973e-06)
(-3.47204487275e-05 -1.70406766473e-05 -6.28457752111e-06)
(-2.65307964993e-05 -1.86464921498e-05 -1.19339673123e-05)
(2.96571066822e-06 -1.91579054163e-05 -1.73305507507e-05)
(4.77921031502e-05 -1.83911690987e-05 -1.92346101135e-05)
(9.05235257297e-05 -1.69186982071e-05 -1.6658793897e-05)
(0.000122627900226 -1.50995845845e-05 -1.23764122469e-05)
(0.000142307565567 -1.29268931942e-05 -7.92057492381e-06)
(0.000149114019019 -1.08013853118e-05 -3.58685663759e-06)
(0.000142635707997 -8.90649636446e-06 1.18698937137e-06)
(0.000119748582944 -7.17578401432e-06 7.06354332634e-06)
(7.96881357261e-05 -6.38798207075e-06 1.17883716712e-05)
(3.06201389733e-05 -5.31203027404e-06 1.30088218811e-05)
(0.00605309071787 0.0031502701137 -0.00221583173205)
(0.017160780181 0.00436186583558 -0.00112108352912)
(0.0206534736112 0.00655610094721 0.00316853811564)
(0.0155662148212 0.00796388553233 0.00629848394429)
(0.00530427837707 0.00884087386383 0.00733246341407)
(-0.00603440694536 0.00889753255631 0.00743280372818)
(-0.01670404408 0.00800416662938 0.00659998157317)
(-0.022883579495 0.00640237432931 0.00397295225367)
(-0.0230925057541 0.00419418728506 0.000776072828771)
(-0.017782914459 0.00231500111709 -0.00116849719565)
(-0.0117140062953 0.00108371048435 -0.00147249922064)
(-0.00688106172085 0.000384842411138 -0.00116568647938)
(-0.00372028769524 5.98613858943e-05 -0.000760282064895)
(-0.00192294755693 -5.76223187602e-05 -0.000444167572326)
(-0.000972561889799 -7.96211786817e-05 -0.000246483301228)
(-0.000488756233911 -6.72610375067e-05 -0.000135260427147)
(-0.000240342900724 -4.88305516199e-05 -7.69051058851e-05)
(-0.000106757815035 -3.29470352447e-05 -4.5629630445e-05)
(-2.91326639183e-05 -2.18525283904e-05 -2.92089819882e-05)
(1.93467318257e-05 -1.4710615318e-05 -1.91151879767e-05)
(4.76213841307e-05 -9.5809662781e-06 -1.17527472455e-05)
(5.95300826926e-05 -6.5335837478e-06 -6.03466992949e-06)
(5.91401560141e-05 -4.91017556827e-06 -1.71050919908e-06)
(4.64965376077e-05 -4.40915590011e-06 1.58912113909e-06)
(2.43658689437e-05 -4.86971271097e-06 3.32511824156e-06)
(5.66689900362e-07 -5.70938558432e-06 2.34631587902e-06)
(-1.68923314011e-05 -7.09276341134e-06 -2.07271553159e-07)
(-2.91036659889e-05 -8.56882417057e-06 -2.22638396015e-06)
(-3.53587893761e-05 -9.94007584919e-06 -6.23935176728e-06)
(-2.68314571802e-05 -1.08946811829e-05 -1.20075863646e-05)
(3.14792601672e-06 -1.11249693061e-05 -1.74440015727e-05)
(4.83806792145e-05 -1.05867720012e-05 -1.92578353437e-05)
(9.13165791784e-05 -9.63711611563e-06 -1.6585108036e-05)
(0.000123540251154 -8.51306728361e-06 -1.22027821387e-05)
(0.00014325986012 -7.17931993538e-06 -7.67378779557e-06)
(0.00015000827353 -5.88569599595e-06 -3.27522427768e-06)
(0.000143492122609 -4.74113004126e-06 1.57252575732e-06)
(0.000120488679402 -3.66313911991e-06 7.52858527121e-06)
(8.03329162845e-05 -3.05578642055e-06 1.23556529314e-05)
(3.08845069938e-05 -2.00550666524e-06 1.34824128323e-05)
(0.00631942537664 0.00102181216516 -0.00225046797914)
(0.0177006638385 0.0014128148289 -0.00110205080991)
(0.0212791703337 0.002135793367 0.0033201229055)
(0.0160366100947 0.00258677006997 0.00646151327944)
(0.00547637145538 0.00286758661285 0.00744710358058)
(-0.00615017952178 0.00288994540607 0.00755503036479)
(-0.0171270271925 0.00260874666778 0.00677387660342)
(-0.0234029874492 0.00209548357548 0.00414596345066)
(-0.0236932983475 0.00137558901622 0.000897828202425)
(-0.0182403918896 0.000756981563371 -0.00113775587749)
(-0.0120162483717 0.000353551148847 -0.00147370457633)
(-0.007041975764 0.000124410823884 -0.00117717411137)
(-0.00378832301525 1.79917672656e-05 -0.000770621516224)
(-0.00194249551222 -2.00469891643e-05 -0.000450158584105)
(-0.000971858504952 -2.66885603785e-05 -0.000248877804321)
(-0.000482191405121 -2.21510148915e-05 -0.000135669247376)
(-0.000233762636522 -1.57680219682e-05 -7.61976771319e-05)
(-0.000101745604108 -1.0439780324e-05 -4.50147186972e-05)
(-2.57505046508e-05 -6.73726808464e-06 -2.86265246745e-05)
(2.16700661404e-05 -4.44295683833e-06 -1.85838683972e-05)
(4.92181302661e-05 -2.74377901072e-06 -1.13329852986e-05)
(6.04658704681e-05 -1.81671234264e-06 -5.52327478425e-06)
(5.96275501943e-05 -1.37108248167e-06 -1.14791885378e-06)
(4.66334059543e-05 -1.28007522496e-06 2.03591895809e-06)
(2.42766525034e-05 -1.43084374902e-06 3.69251887065e-06)
(3.07524020557e-07 -1.69082583829e-06 2.66255562046e-06)
(-1.72690942432e-05 -2.11968782494e-06 1.22597475417e-08)
(-2.94819575946e-05 -2.55245478388e-06 -2.04231657941e-06)
(-3.56585199541e-05 -2.92159900006e-06 -6.14494971863e-06)
(-2.69466448365e-05 -3.12175278854e-06 -1.19786864099e-05)
(3.27923081745e-06 -3.07385637413e-06 -1.74250279482e-05)
(4.87024644704e-05 -2.81375831967e-06 -1.91853754623e-05)
(9.17250267773e-05 -2.45494422859e-06 -1.64587188811e-05)
(0.000123995787602 -2.08515986364e-06 -1.20259540479e-05)
(0.000143729014022 -1.6743127135e-06 -7.46567240583e-06)
(0.000150440441605 -1.29402003227e-06 -3.04299727889e-06)
(0.000143899479701 -9.58302545609e-07 1.85928248046e-06)
(0.000120833868533 -6.0259345656e-07 7.85567915139e-06)
(8.06240752946e-05 -2.48408600116e-07 1.27160265881e-05)
(3.09885034311e-05 8.41295490935e-07 1.37452138247e-05)
(0.00631661713746 -0.00118861983971 -0.00225185188386)
(0.0176958027291 -0.00159974319221 -0.00110382479703)
(0.0212731738585 -0.00235234578744 0.00331850272043)
(0.0160315021362 -0.00281541374821 0.00646106386669)
(0.00547501872216 -0.00310361996118 0.00744533368846)
(-0.00614704835365 -0.00312044683717 0.00755290376978)
(-0.0171199178625 -0.00282594294624 0.00677325244404)
(-0.0233953050274 -0.00229101997357 0.00414226935481)
(-0.0236820752942 -0.00153224503366 0.00089315690807)
(-0.0182289753581 -0.000864892958523 -0.00114008701007)
(-0.0120069029633 -0.000417526461116 -0.00147427672628)
(-0.00703588583687 -0.00015809667679 -0.00117697332757)
(-0.00378486223794 -3.39675729379e-05 -0.00077029540871)
(-0.00194068840595 1.35556779009e-05 -0.000449911691924)
(-0.000970979024183 2.49484091018e-05 -0.00024870039188)
(-0.000481809407402 2.26636663674e-05 -0.000135571093952)
(-0.000233629940159 1.70902654074e-05 -7.61886290094e-05)
(-0.000101714894907 1.20167973099e-05 -4.5012444665e-05)
(-2.57769091466e-05 8.29039090268e-06 -2.86116492037e-05)
(2.16104401032e-05 5.79414253849e-06 -1.85805342357e-05)
(4.91502800048e-05 3.81687003575e-06 -1.13443018503e-05)
(6.04007184653e-05 2.61723939397e-06 -5.51406981908e-06)
(5.95715969078e-05 1.91179747627e-06 -1.15088840198e-06)
(4.66123810435e-05 1.62158029874e-06 2.03608853278e-06)
(2.4287834992e-05 1.78496316751e-06 3.70835287344e-06)
(3.33287215953e-07 2.11513345936e-06 2.67533165596e-06)
(-1.72217766134e-05 2.68172336133e-06 2.38976205372e-08)
(-2.94150960917e-05 3.35045264563e-06 -2.01620393554e-06)
(-3.55722449385e-05 4.01958118573e-06 -6.12171925863e-06)
(-2.6851865633e-05 4.60279140346e-06 -1.1934540262e-05)
(3.35253483334e-06 4.91690954525e-06 -1.73809650007e-05)
(4.87434717381e-05 4.87863862128e-06 -1.9130679706e-05)
(9.17340942389e-05 4.62139038118e-06 -1.64004367004e-05)
(0.000123975044384 4.21530783118e-06 -1.1968121703e-05)
(0.000143686179637 3.67261299328e-06 -7.41001239035e-06)
(0.000150383529402 3.10674215376e-06 -2.98999219392e-06)
(0.000143829859636 2.61301536529e-06 1.91909429234e-06)
(0.000120749289473 2.2212509557e-06 7.91637676392e-06)
(8.05471944666e-05 2.29999071294e-06 1.27685531701e-05)
(3.09452530571e-05 3.47145218956e-06 1.37782798811e-05)
(0.00604472584551 -0.00330807385264 -0.00221972728392)
(0.0171450676513 -0.00454102350329 -0.00112662593689)
(0.0206351303787 -0.00676848264529 0.0031615865949)
(0.0155517622641 -0.00819307190243 0.00629259376891)
(0.00530034555623 -0.00907622496272 0.00732682582379)
(-0.0060245168975 -0.00912610485593 0.00742639209401)
(-0.016684877181 -0.00821787505283 0.00659068680072)
(-0.0228598665906 -0.0065892357184 0.00396109633841)
(-0.0230590645228 -0.00434012831233 0.000763463371157)
(-0.0177491954245 -0.00241486686904 -0.00117508257332)
(-0.0116866526895 -0.00114269353602 -0.00147400689482)
(-0.00686327196349 -0.000415912451684 -0.00116514917149)
(-0.00371018521067 -7.46223964209e-05 -0.000759357316429)
(-0.00191766415735 5.16004533931e-05 -0.000443433831189)
(-0.000969960449365 7.80178952349e-05 -0.000245967501688)
(-0.000487619648287 6.78026690633e-05 -0.000134896173981)
(-0.000239948761947 5.01683543254e-05 -7.6741565104e-05)
(-0.000106674065408 3.45445119835e-05 -4.55825392708e-05)
(-2.92170433621e-05 2.34072686475e-05 -2.91685135287e-05)
(1.91702758343e-05 1.60678481689e-05 -1.91033487469e-05)
(4.74184124335e-05 1.06724921663e-05 -1.17743248562e-05)
(5.93332808013e-05 7.32081520402e-06 -6.00684347833e-06)
(5.89698675242e-05 5.42526949157e-06 -1.69043809482e-06)
(4.64260841765e-05 4.70479703157e-06 1.60399522348e-06)
(2.43966175851e-05 5.17207989261e-06 3.36162023359e-06)
(6.44540313655e-07 6.07315960945e-06 2.38473307987e-06)
(-1.67539508454e-05 7.5866194179e-06 -1.71760101822e-07)
(-2.89043533794e-05 9.28871954621e-06 -2.15112896246e-06)
(-3.51056093484e-05 1.09691690433e-05 -6.16773077275e-06)
(-2.65554426487e-05 1.22659261982e-05 -1.18828766817e-05)
(3.3659022272e-06 1.28477989714e-05 -1.73183015881e-05)
(4.85023869051e-05 1.25203227432e-05 -1.90978495373e-05)
(9.13425374638e-05 1.16608130365e-05 -1.64124314899e-05)
(0.000123477487218 1.04952294201e-05 -1.20316607804e-05)
(0.000143131843111 9.0279450686e-06 -7.51194707379e-06)
(0.000149837200969 7.54101151869e-06 -3.11791073594e-06)
(0.00014328247296 6.23368886669e-06 1.74547647143e-06)
(0.000120234244895 5.10970762347e-06 7.71040047489e-06)
(8.01052234104e-05 4.92322436883e-06 1.25145824955e-05)
(3.07562574339e-05 6.15330684646e-06 1.35784434348e-05)
(0.00551447608014 -0.00514144207078 -0.00217799337518)
(0.0160251205351 -0.00720816007636 -0.0012588554823)
(0.0194315244637 -0.010803032252 0.00267875138299)
(0.0145592633008 -0.0133109947839 0.00573556883875)
(0.00491873084037 -0.0147422689796 0.0069604109762)
(-0.00574020547436 -0.0148097139993 0.00705101356574)
(-0.0158171364338 -0.0133076717131 0.00599828615098)
(-0.0217596727004 -0.0105204412869 0.00347563011817)
(-0.0218326847461 -0.00684146722345 0.000485041095371)
(-0.0168159272084 -0.00374723402266 -0.00125376944397)
(-0.0110794405708 -0.00173488177403 -0.00147373433566)
(-0.00654217987801 -0.000604586411975 -0.00114104130021)
(-0.00357498738981 -8.48008727044e-05 -0.000737111597738)
(-0.00187865441355 0.000100984540061 -0.000430230485778)
(-0.000971033412748 0.000134245198689 -0.000240206901352)
(-0.000500328030675 0.000113360814779 -0.000133525725124)
(-0.000252908575889 8.31863979713e-05 -7.69278404946e-05)
(-0.000116724502641 5.69306552056e-05 -4.63251559875e-05)
(-3.61156780805e-05 3.86199883944e-05 -3.00337775183e-05)
(1.44249308359e-05 2.65357568168e-05 -1.99052747216e-05)
(4.41181069862e-05 1.79718932552e-05 -1.24312090085e-05)
(5.72144610532e-05 1.25898037153e-05 -6.89442640408e-06)
(5.77633436876e-05 9.55223021255e-06 -2.54715925384e-06)
(4.6036021108e-05 8.38828956656e-06 8.92292102712e-07)
(2.4576541311e-05 9.080845562e-06 2.74640605306e-06)
(1.19374219246e-06 1.04389079551e-05 1.85990365138e-06)
(-1.59327215413e-05 1.27829187128e-05 -5.01502737486e-07)
(-2.80072205184e-05 1.5352558647e-05 -2.33201569182e-06)
(-3.43108559909e-05 1.79379238877e-05 -6.18318942487e-06)
(-2.60910597922e-05 1.98137411765e-05 -1.17276744643e-05)
(3.31968162068e-06 2.06570274878e-05 -1.71300594248e-05)
(4.79851974188e-05 2.00714816645e-05 -1.89759212537e-05)
(9.05607008988e-05 1.86728919127e-05 -1.63865733549e-05)
(0.000122522594338 1.67992667597e-05 -1.2105098447e-05)
(0.00014209272396 1.44922468955e-05 -7.6592431953e-06)
(0.000148827902575 1.21618750699e-05 -3.31782081615e-06)
(0.000142285295723 1.00955254955e-05 1.45414114178e-06)