/*--------------------------------*- C++ -*----------------------------------*\
| =========                 |                                                 |
| \\      /  F ield         | OpenFOAM: The Open Source CFD Toolbox           |
|  \\    /   O peration     | Version:  3.0.1                                 |
|   \\  /    A nd           | Web:      www.OpenFOAM.org                      |
|    \\/     M anipulation  |                                                 |
\*---------------------------------------------------------------------------*/
FoamFile
{
    version     2.0;
    format      ascii;
    class       volScalarField;
    location    "9.8";
    object      epsilon;
}
// * * * * * * * * * * * * * * * * * * * * * * * * * * * * * * * * * * * * * //

dimensions      [0 2 -3 0 0 0 0];

internalField   nonuniform List<scalar> 
7968
(
6.36337008551e-05
8.31347619593e-05
9.54048141535e-05
0.000100296925931
9.88620142921e-05
9.41433934797e-05
8.77548591019e-05
8.16142635857e-05
7.73306711115e-05
7.51683858635e-05
7.51364779194e-05
7.72652870352e-05
8.15308027193e-05
8.76679907448e-05
9.40651146213e-05
9.87979565216e-05
0.000100252383197
9.5377037725e-05
8.31189929575e-05
6.36258205289e-05
8.3125145871e-05
0.000143314771254
0.000177267587275
0.000189136248739
0.000184589109042
0.000171733535758
0.0001547295024
0.0001374127815
0.000123575326384
0.000115643846334
0.000115594483009
0.000123465819615
0.000137268065562
0.00015457553209
0.000171589414172
0.000184465043995
0.000189045969314
0.000177212048764
0.000143288497218
8.31198832743e-05
9.53867410578e-05
0.000177249534958
0.0002240103629
0.000240805776088
0.000235475496677
0.000218066474806
0.000194667488621
0.000170110857128
0.000150370067689
0.000139329915142
0.000139279974603
0.000150260645906
0.000169944059105
0.000194491020266
0.000217899070847
0.000235327748915
0.000240697784003
0.000223944763543
0.000177221377332
9.53845465214e-05
0.000100271661891
0.000189097289997
0.000240778970153
0.000261225127379
0.000257840612067
0.000240620800657
0.000218202820532
0.00019821253876
0.00018047079252
0.00016876457498
0.000168714317015
0.000180368921693
0.000198080774921
0.000218057579114
0.000240450330522
0.00025768675936
0.000261111986534
0.000240710537797
0.000189068325807
0.000100269020641
9.88321146082e-05
0.000184536155152
0.000235427348482
0.000257815626774
0.000258001471895
0.000250444670519
0.000238818120525
0.0002240373823
0.000208497888148
0.000197041835449
0.000196990719919
0.000208398741909
0.000223917059828
0.000238691062633
0.000250310327002
0.000257850879869
0.000257701534557
0.000235354400585
0.000184500501614
9.88247270164e-05
9.4120770377e-05
0.000171688794145
0.000218019729659
0.000240591198783
0.000250435297031
0.000255007032885
0.000252260337013
0.000242717188841
0.000229629569584
0.000218875232624
0.000218822832138
0.000229529688174
0.000242601073229
0.000252145012122
0.000254895265276
0.000250322638702
0.000240479174299
0.000217940410507
0.000171641445167
9.41052330107e-05
8.77527658281e-05
0.000154710570546
0.000194641140783
0.000218185452146
0.00023881304211
0.000252263341062
0.000256364955596
0.000251241538745
0.000240405948161
0.000230431649239
0.000230378738152
0.000240305488738
0.000251127635516
0.00025625739092
0.000252165209504
0.000238720190635
0.000218097325658
0.00019455719509
0.00015465275047
8.77283627307e-05
8.16414729783e-05
0.000137432299659
0.000170120251353
0.000198216535704
0.000224048814013
0.000242737780943
0.000251261787655
0.000249238682169
0.000239988548212
0.000230474190212
0.000230422932797
0.000239892439225
0.00024913262071
0.000251164544958
0.000242653041976
0.000223971243782
0.000198141535943
0.000170037958963
0.000137372031386
8.16126957045e-05
7.7381225632e-05
0.000123629285301
0.000150403369984
0.000180497546541
0.000208531997237
0.000229676962091
0.000240458120319
0.000240025345378
0.000231331570405
0.000221547666541
0.000221501791522
0.000231249864053
0.000239940730008
0.000240385144205
0.000229616240352
0.000208477444254
0.000180444729791
0.000150349684917
0.000123585610081
7.73616335368e-05
7.52199170847e-05
0.000115704834171
0.000139370692181
0.000168801197444
0.000197087813672
0.000218937796069
0.000230504289486
0.000230539318357
0.00022158405065
0.000210858509807
0.000210823507218
0.000221531054371
0.000230495073026
0.000230475715344
0.000218920117675
0.000197073115691
0.000168786699753
0.000139357627543
0.000115704743892
7.52311662714e-05
7.5183815469e-05
0.000115643553915
0.000139310044825
0.000168737631882
0.00019701664646
0.000218858058969
0.000230421060617
0.000230463012301
0.000221527358328
0.00021082849214
0.0002108133185
0.000221516900051
0.000230473659284
0.000230451906043
0.000218898965347
0.000197057328791
0.000168776351131
0.000139351098102
0.000115703155569
7.52386997429e-05
7.73054811424e-05
0.000123498216787
0.000150275640056
0.000180372407625
0.000208396926698
0.000229527927759
0.000240304540478
0.000239889726255
0.000231241974301
0.000221519591125
0.000221513841351
0.000231245485613
0.000239913019485
0.000240345808378
0.000229577667608
0.00020844582659
0.000180420202184
0.000150329018839
0.000123572946298
7.73691287798e-05
8.15580248533e-05
0.000137279084098
0.000169945159806
0.000198064847171
0.000223892671897
0.000242572642466
0.000251097612012
0.000249102680136
0.000239914126844
0.000230478826395
0.000230475890659
0.000239918228685
0.000249120023574
0.000251127460856
0.000242608124001
0.000223926416574
0.000198097739487
0.000169989447467
0.000137336119379
8.1605342725e-05
8.7675086817e-05
0.000154560456228
0.000194465251007
0.000218022109736
0.000238650931143
0.000252103753091
0.000256217957039
0.000251130516733
0.000240362470707
0.000230471948621
0.000230469222323
0.000240363318931
0.000251137634314
0.000256231637271
0.000252118834225
0.00023866135103
0.000218028878944
0.000194479623863
0.000154587739622
8.76981119428e-05
9.40500456439e-05
0.000171548420711
0.000217847339349
0.000240397047714
0.00025026010186
0.000254851160128
0.00025213015359
0.000242630822834
0.000229611905903
0.000218939138021
0.000218935803308
0.000229609210535
0.000242628776779
0.000252128192069
0.000254844956526
0.00025024345805
0.000240371134036
0.000217835291733
0.00017154877615
9.40516511318e-05
9.87630530142e-05
0.000184401751829
0.000235254313189
0.000257617894139
0.000257795227823
0.000250281348955
0.000238695059808
0.000223965107054
0.000208494110475
0.00019711469496
0.000197110098645
0.000208486722139
0.000223952599126
0.000238675851018
0.000250249534229
0.000257740483134
0.000257574765071
0.000235224482336
0.000184382305699
9.87492010977e-05
0.000100197982977
0.000188964026972
0.000240606917677
0.00026103262653
0.000257646068604
0.000240445441431
0.00021808237581
0.000198147607733
0.000180474412702
0.00016883978071
0.000168833044581
0.000180459691211
0.0001981200339
0.000218041322876
0.000240379430348
0.000257578352946
0.000260977075511
0.000240564738941
0.000188931942655
0.000100174581963
9.53087682156e-05
0.000177121693911
0.000223850476212
0.000240633025297
0.000235305434083
0.000217914201819
0.00019454875165
0.000170047005344
0.000150376467192
0.000139403692355
0.000139394643737
0.000150352358322
0.00016999428047
0.000194480083262
0.000217838760423
0.000235228401928
0.000240567970171
0.000223799224326
0.000177081176221
9.52800269089e-05
8.30486592198e-05
0.000143206872575
0.000177142331611
0.000189006229214
0.000184462756646
0.000171618391692
0.000154638271548
0.000137365868007
0.000123593220455
0.000115730816355
0.000115720803802
0.000123564239991
0.000137311740137
0.000154565642841
0.000171537639825
0.000184380759774
0.00018893552466
0.00017708613511
0.000143162209862
8.30183264147e-05
6.35669764923e-05
8.30642414126e-05
9.53395053663e-05
0.00010023751944
9.8807533568e-05
9.40939526739e-05
8.77164218887e-05
8.15993389299e-05
7.73518370029e-05
7.522905765e-05
7.52195613199e-05
7.73275743126e-05
8.15559882695e-05
8.76588895543e-05
9.40308606806e-05
9.87457169943e-05
0.000100183842969
9.5296355809e-05
8.30304586e-05
6.35414470317e-05
0.000123256272451
0.000175128335668
0.000210422697978
0.000227311124909
0.000230738879491
0.000226596351544
0.000221631435302
0.000222031186396
0.000230027660022
0.000239325355624
0.000239259722034
0.000229846788686
0.000221767472454
0.00022134419679
0.00022633874262
0.000230537805653
0.000227176662327
0.000210341706814
0.000175084429099
0.000123227543784
0.000175133403259
0.00020933653986
0.000232595855589
0.000241471176509
0.000239624878785
0.000230590572254
0.000219443899414
0.000210569857084
0.000206749593469
0.000206640450938
0.000206579853103
0.000206591264853
0.000210343250427
0.000219191909531
0.000230356662661
0.000239437529826
0.000241341828373
0.000232516404943
0.000209290065389
0.000175103451963
0.000210413111626
0.000232587161537
0.000245386091916
0.00024624346319
0.000238989607555
0.000226600166042
0.000212451372119
0.000200008314218
0.000192637518686
0.000188784040076
0.00018874434699
0.000192541881367
0.000199872320907
0.000212270240762
0.000226423068706
0.00023883887535
0.000246134207682
0.000245319306149
0.000232552543438
0.000210393929401
0.000227287096117
0.000241449934789
0.000246229621381
0.000242363387141
0.000234304124291
0.000224762111205
0.00021680925953
0.000208634816358
0.000201448092025
0.00019661932295
0.000196589832852
0.000201383960408
0.000208548983376
0.000216707653279
0.000224655014011
0.000234190618506
0.000242272233358
0.000246171765287
0.000241423429325
0.000227275084997
0.000230706682265
0.000239598023906
0.000238968100338
0.000234294736832
0.000230767428321
0.000229811495457
0.000228292534803
0.000224520499228
0.000219247422157
0.000214761358993
0.000214737580865
0.000219201410962
0.000224465581273
0.000228233394157
0.000229747152082
0.000230693574287
0.000234216603062
0.000238910250643
0.000239569951142
0.000230696114709
0.000226597325426
0.000230588274351
0.000226590476517
0.000224757928282
0.000229811054598
0.000236482812634
0.000241002102506
0.000241341449618
0.000238159501095
0.00023438513486
0.000234364249713
0.000238122625491
0.000241302333719
0.000240965938505
0.000236443626899
0.00022976121136
0.000224696712952
0.000226525305753
0.000230545514151
0.000226572564976
0.000221721381589
0.000219502888643
0.000212475477268
0.000216819923921
0.000228298468739
0.000241006352489
0.000250407767773
0.00025393927428
0.000252496777174
0.000249298686785
0.000249279078327
0.000252463525379
0.000253905953191
0.000250382368554
0.000240980770233
0.000228261816592
0.000216767073208
0.000212404314344
0.00021944726194
0.00022168399087
0.000222248664141
0.000210710936122
0.000200071695863
0.000208664307291
0.000224537860357
0.000241356242521
0.000253951407065
0.000259878292409
0.00025954802163
0.000256551645385
0.000256532705847
0.000259517741945
0.000259851608608
0.00025393164024
0.000241339455542
0.000224512321326
0.000208624135897
0.000200020023113
0.000210666986649
0.000222232387382
0.000230344497519
0.000206955399802
0.00019273066338
0.000201492697655
0.000219275813169
0.000238186567283
0.000252522876791
0.00025956574355
0.000259509639883
0.000256205459877
0.00025618846344
0.000259485540304
0.000259550077657
0.000252517306832
0.000238184167873
0.000219266685455
0.00020147375395
0.000192710695488
0.000206965356847
0.000230416478592
0.000239641791816
0.000206851033316
0.000188878503312
0.000196664593174
0.000214791547849
0.000234416426611
0.000249332735957
0.000256582715167
0.00025622335459
0.000252319454866
0.000252308675757
0.000256214755148
0.000256588565723
0.000249351919638
0.000234439785271
0.000214810340735
0.000196680234262
0.000188910517062
0.0002069534661
0.000239857486449
0.000239489488588
0.00020673349848
0.000188806286787
0.000196613124391
0.000214748374799
0.000234375971647
0.000249294763753
0.000256550043283
0.000256201675636
0.000252313767414
0.000252315237859
0.000256219458519
0.000256588968137
0.000249349400662
0.000234435508023
0.00021480469079
0.000196671942544
0.000188896680528
0.000206928959229
0.000239833518654
0.000229979620416
0.000206672799337
0.000192563270204
0.000201380100758
0.000219188517979
0.000238110065765
0.000252454446746
0.000259512438682
0.000259483271555
0.000256215174233
0.000256223216145
0.000259512643404
0.000259563358684
0.000252519800511
0.000238179697499
0.000219255346599
0.000201451856796
0.000192671248371
0.00020689480531
0.000230343391455
0.000221815195944
0.000210357358724
0.000199854173688
0.000208518914611
0.000224432293116
0.00024127108077
0.000253879384754
0.000259830957825
0.000259537505315
0.000256586089778
0.000256596617957
0.000259569366398
0.000259880741975
0.000253940293289
0.000241335015882
0.000224493246097
0.000208583384374
0.000199948416178
0.000210548661075
0.000222107008772
0.000221320862928
0.000219145820569
0.000212214181578
0.000216650712135
0.000228181177657
0.000240921180168
0.000250345908861
0.000253903685022
0.000252501267852
0.000249350515657
0.000249361335329
0.000252531221719
0.000253946371958
0.000250397708032
0.000240973603684
0.000228228671966
0.000216699015158
0.000212284236925
0.000219283243277
0.00022151135699
0.000226258678626
0.000230259033687
0.000226325884104
0.000224570343182
0.000229676207056
0.000236386793558
0.000240937555705
0.000241309381609
0.000238168572187
0.000234441938429
0.000234451616168
0.000238194643665
0.00024134481637
0.000240977566216
0.000236424487351
0.000229706801117
0.000224598147956
0.000226368831784
0.000230345651559
0.000226364238943
0.000230416914215
0.000239300295353
0.000238706155951
0.000234077448133
0.000230603194878
0.000229690718526
0.00022820913243
0.000224476623081
0.000219249952543
0.000214813794165
0.000214820999169
0.000219268643692
0.000224500321854
0.000228231359138
0.000229707127731
0.000230609668822
0.000234079364243
0.000238725586578
0.000239346582957
0.000230460600403
0.000227028023959
0.000241180357284
0.000245975855636
0.000242134373206
0.000234105585237
0.000224608808069
0.000216697264041
0.000208572247557
0.000201440830023
0.000196667304273
0.000196670960493
0.000201448157668
0.000208575511829
0.00021669032166
0.000224592109472
0.000234076591868
0.000242113634947
0.000245973105171
0.000241194381404
0.000227030451356
0.00021018225828
0.000232348161628
0.000245148357131
0.000246016148168
0.000238776876835
0.000226411027849
0.000212302290192
0.000199928069121
0.000192628349786
0.000188842612865
0.000188841362082
0.000192618940507
0.000199900909235
0.000212244565364
0.000226342796105
0.000238711381331
0.000245966227246
0.000245118161349
0.000232330771051
0.000210154148386
0.000174942783398
0.000209132970339
0.000232382400845
0.000241258034781
0.000239415709112
0.000230394764851
0.000219285671889
0.000210486631188
0.000206768778064
0.0002067562334
0.000206746566981
0.000206729469029
0.000210408619439
0.000219177741965
0.000230276972709
0.00023930810893
0.000241172769792
0.000232319587646
0.000209085698906
0.000174896453621
0.000123115280152
0.000174950094541
0.000210227683494
0.000227114838366
0.000230546055485
0.000226415549158
0.000221490254543
0.000221980644614
0.000230108621852
0.000239526740032
0.000239516345514
0.000230054971109
0.000221870018556
0.000221341278176
0.000226257501612
0.000230402187611
0.000226998519327
0.000210137586257
0.000174883829952
0.000123066805981
0.000199144980284
0.000302219723742
0.000379885042779
0.000426365634626
0.000454222648884
0.000478058188625
0.000510690924638
0.000557216223701
0.000606983918884
0.000639715737224
0.000639643791801
0.000606773641754
0.000556864327325
0.000510239876175
0.000477626212762
0.000453894437727
0.00042617114693
0.000379796945458
0.000302193469563
0.000199109137316
0.00030229634043
0.000330024425805
0.000371470483169
0.000395988166805
0.000405235843459
0.000405439262754
0.000406141662929
0.000414981371796
0.000430041856546
0.000441786826682
0.000441708659416
0.000429810475913
0.00041462397129
0.000405724225453
0.000405061851182
0.000404966826265
0.000395843702299
0.000371416125696
0.000330006009997
0.000302241979166
0.000379942144279
0.000371483407728
0.000379520376163
0.000376675049189
0.00036478377346
0.000347386521324
0.000329413430909
0.000319822640091
0.000316569419315
0.000316411741219
0.000316352496133
0.000316407711439
0.000319577879878
0.000329091598403
0.000347091772448
0.000364567977726
0.000376558275887
0.000379491166265
0.000371500602314
0.000379937808951
0.00042640249592
0.000395991524534
0.000376663130315
0.000353785718929
0.000332065682859
0.000316059636541
0.000301102269753
0.000289091452504
0.000280750902502
0.000276328323415
0.000276286873569
0.000280646683366
0.000288941202163
0.000300921529403
0.000315887733857
0.000331914895443
0.000353694857081
0.000376651467128
0.000396047069034
0.000426467309879
0.000454270348962
0.000405232980425
0.000364762295241
0.000332053694543
0.00031470410782
0.000303825139876
0.000294976298516
0.000286765017849
0.000279431612201
0.000274595518198
0.000274568330142
0.000279368962328
0.000286681594893
0.000294883361989
0.000303734297294
0.000314618917814
0.00033198437072
0.000364753808748
0.000405319726708
0.000454410226485
0.000478200147359
0.000405483086909
0.000347388086339
0.000316056814271
0.000303824831934
0.000299783404506
0.000297925635225
0.000295026338079
0.000290483267998
0.000286527781371
0.00028651067342
0.000290447366311
0.00029498466941
0.000297883530197
0.000299741983444
0.000303780137157
0.000316012278072
0.000347368392036
0.000405584316783
0.000478409481226
0.000511009530677
0.000406298086689
0.000329480553461
0.0003011295477
0.000294988680689
0.000297932789782
0.000302428364125
0.000304044260621
0.000301809831402
0.000298704276997
0.000298693223678
0.000301788305353
0.000304023121091
0.000302411852747
0.000297917799938
0.000294966732971
0.000301095831292
0.00032945459804
0.000406428097919
0.000511333191991
0.000557703089417
0.000415267252068
0.000319968378978
0.000289158849354
0.000286798807942
0.000295049254823
0.00030405995883
0.000308391009916
0.000307513261548
0.000304826030732
0.000304818018728
0.000307498430562
0.000308378312436
0.00030405511265
0.000295049568282
0.000286795592211
0.000289151268928
0.000319996537632
0.000415489247456
0.000558251491732
0.000607513667648
0.000430398035413
0.000316765456415
0.000280848667774
0.000279485885164
0.000290525759094
0.000301846830215
0.000307536348489
0.000307098160638
0.000304303828649
0.000304298399153
0.000307089776954
0.000307532876738
0.000301853879546
0.000290542519914
0.000279506840844
0.000280880125953
0.000316867631318
0.000430770514014
0.000608375269416
0.000640170049967
0.000442128698361
0.000316603668577
0.000276425632046
0.000274651833312
0.000286575556315
0.000298750783507
0.000304863504438
0.000304322463909
0.000301169454346
0.000301169334152
0.000304327254315
0.000304878444615
0.00029878080839
0.000286620733948
0.000274709932834
0.00027651265845
0.000316798937065
0.000442661390392
0.000641324003001
0.000639969912998
0.000441965291338
0.000316486534282
0.000276345996356
0.000274595867292
0.000286533376054
0.000298718555578
0.000304841085546
0.000304312561218
0.000301173606008
0.000301182116075
0.000304337165337
0.000304882412833
0.000298779441168
0.000286614468492
0.000274698015625
0.000276492316157
0.000316765823982
0.00044261247408
0.000641278850842
0.000606955763734
0.000429956859276
0.000316464974093
0.000280653675879
0.000279356209379
0.000290434056283
0.00030178069738
0.00030749432418
0.000307086700063
0.000304325512043
0.000304338785846
0.000307121229478
0.000307547753666
0.000301853902224
0.00029052823438
0.000279474856174
0.000280822521058
0.000316772007886
0.000430624819594
0.000608239776235
0.000556913231474
0.000414653463355
0.000319554618436
0.000288892846592
0.000286627976532
0.000294937851872
0.000303986554378
0.000308350388105
0.00030751339099
0.000304868952593
0.000304883953339
0.000307550787714
0.000308405937492
0.000304059630117
0.000295029126384
0.000286741374796
0.000289051979337
0.000319835986079
0.000415253557479
0.000558012466465
0.000510172161757
0.000405640859977
0.000328990952923
0.000300815959666
0.000294788149836
0.000297805570157
0.000302351317972
0.000304009197134
0.000301822131356
0.000298764958722
0.000298779627915
0.000301858168474
0.000304061793035
0.000302418150743
0.000297886258563
0.00029488546051
0.0003009476338
0.000329214168855
0.000406121582692
0.00051099866657
0.000477457442028
0.000404879879667
0.000346909310115
0.000315722171156
0.000303594124178
0.000299629269766
0.000297830268605
0.000294983810437
0.000290497149313
0.000286596741386
0.000286609457914
0.000290528008123
0.000295027401407
0.000297883331009
0.000299691558364
0.000303667834309
0.000315824073122
0.000347087931516
0.000405242813127
0.0004780241107
0.000453657639377
0.00040471225011
0.000364316958635
0.000331693963647
0.000314431901998
0.000303626252088
0.00029484214461
0.000286697963816
0.000279434721008
0.000274663977877
0.000274672940586
0.000279454883597
0.000286721842453
0.000294868247471
0.000303657130373
0.00031447177852
0.000331758715506
0.000364458834954
0.000404976495087
0.000454008710038
0.000425901170196
0.000395551757043
0.000376259190314
0.000353420527889
0.000331747936806
0.000315805378295
0.000300913686459
0.00028899111547
0.000280742690291
0.000276401513554
0.000276404721525
0.000280745228869
0.000288983336755
0.000300892348129
0.000315786228204
0.000331739519824
0.00035345706813
0.000376365084038
0.000395729315973
0.000426089769555
0.000379537490882
0.000371120256495
0.000379165857366
0.000376329378628
0.000364451140751
0.000347081789322
0.000329171170769
0.000319709669285
0.000316580996765
0.000316527371862
0.000316521936744
0.000316555919212
0.000319653848357
0.000329072854219
0.000346988926021
0.000364396025896
0.000376331250469
0.00037922615368
0.000371215581202
0.000379607738512
0.000301992501217
0.000329729035512
0.000371164580076
0.000395679995582
0.000404934666333
0.000405170677121
0.000405961066313
0.00041495757768
0.000430193225576
0.000442077592069
0.000442060983246
0.000430130780959
0.000414841306763
0.000405807889471
0.000405024333447
0.000404831586579
0.000395634013284
0.000371162214795
0.000329747253186
0.000301984830056
0.00019895903359
0.000301947635561
0.000379575245586
0.000426057403975
0.000453946361207
0.000477860010181
0.000510653224528
0.000557435605819
0.000607475102325
0.000640408108818
0.000640400917866
0.000607433970792
0.000557316481865
0.000510455400236
0.000477639825043
0.000453756742598
0.000425921818342
0.000379487068786
0.000301892519739
0.0001989173895
0.000286093984815
0.000473097815667
0.00062779101514
0.000743249701935
0.000839064269527
0.000934665585371
0.00103786930225
0.00114331979962
0.00123219962381
0.00128446211313
0.00128445904266
0.00123215038073
0.00114318928458
0.00103765273836
0.000934421774515
0.000838916770765
0.000743218794571
0.000627869858514
0.000473204932828
0.00028608687871
0.000473331966793
0.000499050968005
0.000577081315237
0.000639015788813
0.000681447379934
0.000713281065896
0.000746105289652
0.000783804832709
0.000817338994095
0.00083693978974
0.000836878900465
0.000817141305737
0.00078349599851
0.000745735375167
0.000712962493097
0.000681292501016
0.000639043438768
0.000577219868306
0.000499177887611
0.000473300448761
0.000628015621864
0.00057714764023
0.000581687192566
0.000580636648146
0.000569394357826
0.000551378377806
0.000533630851215
0.000528109691873
0.000526821325499
0.000527215039664
0.000527141536735
0.000526613297707
0.000527796174509
0.000533238141099
0.000551057618939
0.000569243493284
0.000580677181755
0.000581878426644
0.000577389282283
0.000628164752397
0.000743440046432
0.000639068294664
0.000580631580696
0.000530454998329
0.000489738366926
0.000461625074381
0.000435703937422
0.000416011017571
0.000402369177828
0.000395191599296
0.00039513546468
0.000402220977099
0.00041579851389
0.000435466431967
0.00046144283761
0.00048967926396
0.000530505165977
0.000580867376595
0.000639473469175
0.000743883099611
0.00083928711408
0.000681486664367
0.000569367691538
0.000489723055375
0.000445176389022
0.000415953772901
0.000393746490368
0.000375891487716
0.000362009590469
0.000353826605789
0.000353796845689
0.000361931967885
0.000375783750105
0.000393632223764
0.000415871414322
0.000445162842822
0.000489819724733
0.000569631508556
0.000682057454669
0.000840091247662
0.000934929304055
0.000713354456727
0.000551365734845
0.000461605878644
0.00041594564605
0.000392467902497
0.000378094491054
0.000366260553914
0.000355672372443
0.000348678948745
0.000348671337471
0.000355648404707
0.000366227950686
0.000378062365784
0.000392451866102
0.000415966921234
0.000461705027959
0.000551636783963
0.00071409218861
0.00093618453413
0.00103820562337
0.000746254182497
0.000533683034775
0.000435715785137
0.000393751266401
0.000378100355644
0.000371294290059
0.00036494928274
0.000357418800315
0.000351698002561
0.00035170336488
0.000357424289667
0.000364955540238
0.000371305637198
0.000378123202614
0.000393794369269
0.000435821638438
0.000533975311681
0.000747192672584
0.00103999168629
0.00114364670704
0.000783995658968
0.000528228149482
0.000416070623477
0.000375925240398
0.000366286688847
0.00036496777635
0.000362240649306
0.000356599695188
0.000351633736124
0.000351644002736
0.000356615196128
0.00036225864409
0.000364994413428
0.000366328319552
0.000375988250536
0.000416209728746
0.000528633829072
0.000785199877014
0.00114607022564
0.00123243612209
0.000817517627672
0.000526972488156
0.000402464899407
0.000362070902846
0.000355722289649
0.000357461334092
0.000356625153946
0.000351697725913
0.000346873855276
0.00034688606407
0.000351717166557
0.000356647638742
0.000357495535728
0.000355778380275
0.000362158967964
0.000402650340433
0.000527489272434
0.000818979489367
0.00123546724306
0.00128457126705
0.000837083032288
0.000527359417524
0.000395289588692
0.000353891417051
0.000348733931312
0.000351749481381
0.000351672677341
0.000346890959146
0.000341975494269
0.000341991278177
0.000346919711284
0.000351707091875
0.000351800566024
0.000348816299303
0.000354018685473
0.000395535552147
0.000527978149735
0.000838725926115
0.00128802556493
0.00128442807299
0.000836947972294
0.00052722940197
0.000395188389974
0.000353823322558
0.000348691510768
0.000351725226972
0.000351661299069
0.000346891914823
0.000341988294797
0.000342010370445
0.0003469358576
0.000351717054253
0.000351803614839
0.000348810057635
0.000353999087602
0.000395499213059
0.000527927338973
0.000838675627418
0.00128800912462
0.00123200203236
0.000817130098944
0.000526618482988
0.000402201505696
0.000361898044322
0.000355615679571
0.000357400089051
0.000356595763311
0.000351699326832
0.000346905104395
0.000346931989742
0.000351754445982
0.000356668609031
0.000357498615809
0.000355756672734
0.000362101414979
0.000402546857324
0.000527341566051
0.000818820934964
0.00123538964498
0.00114294507055
0.000783382382476
0.000527700426045
0.000415693782374
0.000375682633492
0.000366140078267
0.000364884553238
0.000362202245821
0.000356605122704
0.000351679388942
0.000351709240195
0.000356668349947
0.000362288388505
0.000364997239912
0.000366291719801
0.000375893447026
0.000416042109705
0.000528394905952
0.000784942184044
0.00114590178812
0.00103732043456
0.000745498808561
0.000533035849969
0.000435269144618
0.00039346022595
0.000377920045918
0.000371190651955
0.000364903427054
0.000357428622585
0.000351757537077
0.000351787787377
0.000357494505421
0.000364995180887
0.00037130707586
0.000378069728233
0.000393664291864
0.000435596369777
0.000533644403626
0.000746854219
0.00103971638531
0.000934009291063
0.00071259853784
0.000550724493421
0.000461144484041
0.000415620814286
0.000392247894715
0.0003779579251
0.000366195668497
0.000355678073594
0.000348748770318
0.000348775289513
0.000355736449434
0.000366276404369
0.00037805883508
0.000392380111127
0.000415812025608
0.000461453854949
0.000551280035217
0.000713716059377
0.000935815172176
0.000838439974655
0.00068082664847
0.00056879768253
0.000489285957984
0.000444825595131
0.00041568442802
0.000393558275543
0.000375793010378
0.000362004419931
0.000353905027738
0.000353921962323
0.000362040884603
0.000375841498737
0.00039362221249
0.000415785976459
0.000444998135561
0.00048957978292
0.000569301794253
0.000681701507013
0.000839692720764
0.000742739363268
0.00063853566502
0.000580154370945
0.000530015940668
0.000489379909986
0.000461311696572
0.00043546838155
0.000415895645511
0.000402379459234
0.000395310260205
0.000395315162561
0.000402386176945
0.000415899689899
0.000435477875598
0.000461367905682
0.00048953003522
0.000530270222278
0.000580590751813
0.000639167894097
0.000743497965067
0.000627460909223
0.000576726421212
0.000581311058551
0.000580278955093
0.000569052857111
0.000551071897497
0.000533418898879
0.000528091670753
0.000526977132632
0.000527508640938
0.000527506606544
0.000526962849043
0.000528059417786
0.000533362408941
0.000551067713764
0.000569156661993
0.000580511202549
0.000581657246744
0.000577132012236
0.000627841925769
0.000472924779106
0.000498719839629
0.000576790927232
0.0006387778096
0.000681284158706
0.000713247438749
0.00074628443661
0.000784257688495
0.000818044285853
0.000837829380553
0.000837840497016
0.000818057286466
0.000784261225412
0.000746277732357
0.000713269078945
0.000681380193264
0.000638956771385
0.000577014189276
0.000498928904888
0.000473054178933
0.000285875350444
0.000472791779877
0.000627486553557
0.000743043072371
0.000839083802325
0.000935012922586
0.00103866732406
0.00114463376915
0.00123398496571
0.00128657289657
0.00128665006357
0.00123415551115
0.00114480722954
0.00103878133645
0.000935069589517
0.0008391245014
0.000743101495934
0.000627555772896
0.000472846875133
0.000285883611078
0.000389266586153
0.000705891882959
0.000990936755259
0.00123130924851
0.00143914036072
0.00163303491655
0.00181503169187
0.00197836538307
0.00210627281787
0.00217890605596
0.00217910815319
0.00210672141761
0.00197894187686
0.00181565355362
0.00163366759915
0.00143979182545
0.00123197252996
0.000991568186452
0.000706343555395
0.000389345657274
0.000706397844089
0.00073079198398
0.000868115306172
0.000996265403302
0.0010983454517
0.00117681429311
0.0012398101931
0.00129241001679
0.00133157178409
0.00135262397543
0.00135263317142