/*--------------------------------*- C++ -*----------------------------------*\
| =========                 |                                                 |
| \\      /  F ield         | OpenFOAM: The Open Source CFD Toolbox           |
|  \\    /   O peration     | Version:  3.0.1                                 |
|   \\  /    A nd           | Web:      www.OpenFOAM.org                      |
|    \\/     M anipulation  |                                                 |
\*---------------------------------------------------------------------------*/
FoamFile
{
    version     2.0;
    format      ascii;
    class       volScalarField;
    location    "9.8";
    object      epsilon_0;
}
// * * * * * * * * * * * * * * * * * * * * * * * * * * * * * * * * * * * * * //

dimensions      [0 2 -3 0 0 0 0];

internalField   nonuniform List<scalar> 
7968
(
6.36737504677e-05
8.32198857732e-05
9.55437570863e-05
0.000100481658667
9.90800359412e-05
9.43829291723e-05
8.80088896904e-05
8.18709213275e-05
7.75734162181e-05
7.53895548454e-05
7.53578325108e-05
7.75084852325e-05
8.17880668668e-05
8.79226609904e-05
9.43052487083e-05
9.90165078905e-05
0.00010043756109
9.55163524445e-05
8.32044079011e-05
6.36660756263e-05
8.32102758744e-05
0.000143593032585
0.000177723896295
0.000189723831265
0.000185256631215
0.000172437395335
0.000155439428198
0.000138111386607
0.000124254105098
0.000116307782122
0.000116258581716
0.000124144930889
0.000137967107802
0.000155285946688
0.000172293791744
0.00018513305926
0.000189634020029
0.000177668752609
0.000143567078851
8.32052001156e-05
9.55257332884e-05
0.000177705898353
0.000224741363102
0.000241732811666
0.000236519655525
0.000219156949734
0.000195754441674
0.000171173223578
0.000151359927339
0.000140286877818
0.000140236938172
0.000151250353056
0.000171006533645
0.000195578085059
0.000218989710616
0.000236372123071
0.000241625065391
0.000224675997601
0.000177677943368
9.55236473646e-05
0.000100456455719
0.000189684993854
0.000241706117074
0.000262385370076
0.000259130707644
0.000241949236194
0.000219491246363
0.000199475411179
0.000181702430367
0.000169976933615
0.000169926669479
0.00018160039988
0.000199343441861
0.000219345702764
0.000241778496235
0.000258976715144
0.000262272181942
0.000241637689232
0.00018965606981
0.000100453848134
9.90502156371e-05
0.00018520386329
0.000236471744512
0.000259105887388
0.00025941461768
0.000251890049961
0.000240269598818
0.000225472516916
0.000209908588213
0.000198439156317
0.000198388011205
0.000209809219863
0.000225351802977
0.0002401420533
0.000251755281518
0.000259263592155
0.000258991468343
0.000236398583809
0.000185168083593
9.90427879446e-05
9.43604209796e-05
0.000172392921465
0.000219110580393
0.000241919996379
0.000251880839304
0.000256528252111
0.000253808550447
0.000244253023108
0.000231138558195
0.000220368743824
0.000220316277649
0.000231038372249
0.000244136402408
0.000253692633231
0.000256415943121
0.000251767695529
0.000241807454285
0.000219030922616
0.000172345361232
9.43447927421e-05
8.80068678891e-05
0.000155420833546
0.000195728588742
0.000219474316142
0.000240264874511
0.000253811779323
0.000257944727982
0.000252803958286
0.000241932503425
0.000231935470176
0.000231882469574
0.000241831697555
0.000252689492212
0.000257836508106
0.000253713021918
0.000240171465101
0.000219385687271
0.000195644230116
0.000155362738327
8.79823498174e-05
8.18980364227e-05
0.000138131206682
0.000171183252858
0.000199479964396
0.000225484499638
0.000244274118164
0.000252824535037
0.000250772194746
0.000241472410128
0.000231923991422
0.000231872639886
0.000241375971613
0.000250665606636
0.000252726674803
0.000244188793063
0.000225406433578
0.000199404555065
0.000171100560613
0.000138070644674
8.18691148988e-05
7.76236184328e-05
0.000124308262341
0.000151393897397
0.000181729841423
0.000209943400331
0.000231186700301
0.000241985314568
0.000241509564952
0.000232749476955
0.000222916799867
0.000222870849432
0.000232667521311
0.000241424562707
0.000241911897479
0.000231125574113
0.000209888530061
0.000181676751878
0.000151339868003
0.000124264311291
7.76037912777e-05
7.54405590934e-05
0.000116368758641
0.00014032807008
0.000170014087225
0.000198485781888
0.00022043206492
0.000232008831715
0.000231989639166
0.000222953414522
0.000212165490772
0.000212130459535
0.00022290030947
0.000231945234432
0.000231980104706
0.000220414287994
0.00019847105322
0.000169999588475
0.000140314939379
0.00011636844159
7.54513913279e-05
7.54047085739e-05
0.000116307477146
0.000140267150243
0.000169950194175
0.000198414234533
0.000220351912048
0.000231925232829
0.00023191309219
0.000222896661391
0.000212135573851
0.000212120429911
0.000222886251886
0.000231923810836
0.000231956200963
0.000220393010269
0.000198455168091
0.000169989194392
0.000140308418144
0.000116366923833
7.54590175903e-05
7.75483486656e-05
0.000124177125128
0.000151265404513
0.000181603894249
0.000209807413551
0.000231036667254
0.000241830838231
0.000241373348045
0.000232659700528
0.000222888905303
0.000222883212548
0.000232663332705
0.000241396805703
0.000241872323798
0.000231086695967
0.000209856675066
0.000181652118226
0.000151319228623
0.000124251841199
7.76115089993e-05
8.18150943693e-05
0.000137977926508
0.000171007499638
0.000199327353383
0.000225327224888
0.000244107762575
0.000252659258119
0.000250635460816
0.000241397779522
0.000231928865829
0.00023192599163
0.00024140200073
0.000250652939007
0.000252689260628
0.000244143454737
0.000225361264814
0.000199360612088
0.000171052165547
0.000138035061103
8.18621232263e-05
8.79296861214e-05
0.000155270760955
0.000195552173589
0.000219310040881
0.000240101665035
0.000253651059397
0.000257796722377
0.000252692287737
0.00024188890477
0.000231976110281
0.000231973445958
0.000241889850977
0.000252699472319
0.000257810443145
0.000253666220272
0.000240112258147
0.000219317070147
0.000195566831403
0.000155298172722
8.79525706195e-05
9.42902044801e-05
0.00017225278545
0.000218937927478
0.00024172505929
0.00025170481649
0.000256371545544
0.000253677634822
0.000244166241578
0.000231120951931
0.000220433129383
0.000220429868566
0.000231118360689
0.000244164240011
0.000253675656756
0.000256365345058
0.000251688255982
0.000241699307354
0.000218926091327
0.000172253237832
9.42917389713e-05
9.89816966761e-05
0.000185069872458
0.000236298768047
0.00025890782416
0.000259207758335
0.000251726193417
0.000240146109653
0.000225400099778
0.00020990507097
0.000198512633791
0.000198508140174
0.00020989784014
0.000225387688896
0.000240126915814
0.000251694399807
0.000259153052915
0.000258864817715
0.00023626909282
0.000185050499943
9.89678067724e-05
0.000100383305937
0.000189552270831
0.000241534406052
0.000262192958052
0.000258936017682
0.000241773609556
0.000219370642909
0.000199410582693
0.000181706519582
0.000170052907837
0.000170046306152
0.000181692031732
0.00019938324181
0.000219329734858
0.000241707718257
0.00025886845176
0.000262137572591
0.00024149236859
0.000189520255438
0.00010035990889
9.54482304123e-05
0.000177578614164
0.000224581982664
0.000241560435574
0.000236349809401
0.000219004805253
0.000195635846411
0.000171109679657
0.000151366918063
0.000140361430913
0.000140352534266
0.000151343108214
0.000171057422785
0.000195567591758
0.000218929728428
0.000236273092643
0.000241495631054
0.00022453089806
0.000177538193598
9.54195451812e-05
8.31341655228e-05
0.000143485634218
0.000177599188602
0.000189594310905
0.000185130662627
0.000172322553559
0.000155348466142
0.000138064745382
0.000124272277765
0.000116395011346
0.000116385182323
0.000124243720928
0.000138011164379
0.000155276390074
0.000172242322284
0.00018504909146
0.000189523929276
0.000177543208989
0.000143441117713
8.31039348341e-05
6.36073302244e-05
8.31497371691e-05
9.54788824907e-05
0.000100422668235
9.90259075148e-05
9.43337779487e-05
8.79706686737e-05
8.18560857688e-05
7.75944593025e-05
7.54498703887e-05
7.54404899859e-05
7.75705245212e-05
8.18132070702e-05
8.79136386816e-05
9.4271142386e-05
9.89644770585e-05
0.000100369306743
9.54359901253e-05
8.311615344e-05
6.35819411771e-05
0.000123197314176
0.000175172595518
0.000210569062281
0.000227542107094
0.000231013092137
0.000226869478414
0.000221857177663
0.000222145751996
0.000229989912917
0.000239171185391
0.000239105844948
0.000229810068358
0.000221883605648
0.000221571662564
0.000226613298285
0.000230813065604
0.000227408341667
0.000210488520503
0.000175128947613
0.000123168835216
0.000175177428396
0.000209515028512
0.000232882525391
0.00024184748643
0.000240064411809
0.000231068455175
0.000219938129546
0.00021105005492
0.000207184943078
0.000207031202485
0.000206970932178
0.000207027563588
0.000210824791583
0.000219687550832
0.000230835778909
0.000239877928764
0.000241718636706
0.000232803302196
0.000209468649858
0.000175147753457
0.000210559388801
0.00023287391896
0.000245820295189
0.000246809750071
0.000239663306408
0.000227356371425
0.000213265087688
0.000200831300748
0.000193457234587
0.000189594069635
0.000189554567195
0.000193362046724
0.000200695801775
0.000213084841296
0.000227180078133
0.000239513149205
0.000246700754901
0.000245753464679
0.000232839067246
0.000210540173405
0.000227518125073
0.000241826466141
0.000246796075338
0.000243101944365
0.00023517975587
0.000225729164276
0.000217838373721
0.000209697193633
0.000202522322191
0.000197697286241
0.000197667897209
0.000202458372488
0.000209611547955
0.000217737083614
0.000225622315079
0.000235066488626
0.000243010806148
0.00024673791592
0.000241799372827
0.000227505641705
0.00023098106488
0.000240037928674
0.000239642128534
0.000235170528102
0.000231788158243
0.000230937232586
0.000229488573679
0.000225754526797
0.000220497064395
0.000216018496072
0.000215994757555
0.000220451070578
0.000225699592371
0.00022942944294
0.000230872888291
0.00023171428644
0.000235092234295
0.000239583799234
0.000240008946819
0.000230969539933
0.000226870779764
0.000231066621005
0.00022734709458
0.000225725184611
0.000230936872763
0.00023772360789
0.000242317483585
0.000242695867437
0.000239526285784
0.00023575742592
0.000235736534615
0.000239489318145
0.000242656601612
0.00024228116448
0.000237684280555
0.0002308868789
0.000225663691855
0.000227281379411
0.00023102273402
0.00022684456434
0.000221947217592
0.000219997591218
0.000213289594499
0.000217849254123
0.000229494649335
0.000242321822009
0.000251798285364
0.00025536619275
0.000253930368471
0.000250733275437
0.000250713641235
0.00025389698683
0.000255332624618
0.000251772639278
0.000242296027338
0.000229457803961
0.000217796145911
0.0002132178954
0.000219940655238
0.000221907969887
0.000222362751204
0.000211191246281
0.000200894883188
0.000209726887736
0.000225772091503
0.000242710869194
0.000255378489275
0.000261333098507
0.00026100347929
0.000258002458165
0.000257983487019
0.000260973069504
0.000261306209441
0.00025535844622
0.000242693849342
0.000225746340124
0.000209686434961
0.000200842595346
0.000211145827375
0.000222344006144
0.000230305712727
0.0002073903579
0.000193550269895
0.000202567028604
0.000220525686912
0.000239553682694
0.000253956779904
0.000261021390855
0.000260957893049
0.000257640957066
0.000257623936381
0.000260933695438
0.000261005571985
0.000253951029837
0.000239551103377
0.000220516396935
0.000202547859682
0.000193529718667
0.000207398577659
0.000230374323693
0.000239486278594
0.000207241015009
0.000189688210054
0.000197742540362
0.000216048869511
0.00023578905208
0.000250767694977
0.000258033823229
0.00025765899529
0.000253734705681
0.00025372392425
0.00025765036388
0.000258039618826
0.000250786813153
0.000235812343602
0.000216067582307
0.000197757993858
0.000189719571834
0.000207341415295
0.000239697786125
0.000239334221463
0.000207123675563
0.000189616073766
0.000197691038728
0.000216005588402
0.000235748442031
0.000250729579276
0.000258001060878
0.000257637313665
0.000253729098836
0.000253730585305
0.00025765511983
0.000258040006986
0.000250784235097
0.000235807994496
0.00021606188724
0.000197749700974
0.000189705787775
0.000207317030923
0.000239673909532
0.000229941629445
0.000207108262148
0.000193383020501
0.000202454316729
0.000220438110579
0.000239476795821
0.000253887995799
0.000260967855778
0.000260931490484
0.000257650815801
0.00025765887627
0.000260960899692
0.00026101881792
0.000253953393464
0.000239546475473
0.000220504968079
0.000202525983429
0.000193490428943
0.00020732840361
0.000230301602322
0.000221930323367
0.000210838206329
0.000200677339163
0.000209581301206
0.000225666198022
0.000242625295236
0.000255306021934
0.000261285512411
0.000260992936193
0.000258037075521
0.000258047613626
0.00026102481521
0.000261335314938
0.000255366922302
0.00024268925069
0.000225727187477
0.000209645753647
0.000200771231784
0.000211028083169
0.00022221927995
0.000221547586568
0.000219640918009
0.000213028466502
0.000217679983056
0.000229377143461
0.000242236356295
0.000251736117366
0.000255330386056
0.000253934868949
0.000250785290487
0.000250796114869
0.000253964824388
0.000255373029392
0.000251787888014
0.000242288779815
0.000229424666346
0.000217728267169
0.000213098256924
0.00021977727821
0.000221736122627
0.000226532732275
0.000230737704374
0.000227082638709
0.000225537539591
0.000230801913483
0.000237627445961
0.000242252792665
0.000242663713442
0.000239535405838
0.000235814400547
0.000235824093337
0.000239561493633
0.000242699147297
0.000242292804673
0.000237665156062
0.000230832542633
0.000225565308556
0.000227125305963
0.000230823408744
0.000226636902034
0.000230691795717
0.000239740338589
0.000239380227439
0.000234953235213
0.000231623914326
0.000230816433874
0.000229405160364
0.000225710660151
0.000220499654746
0.000216071041618
0.000216078297124
0.000220518443532
0.00022573445573
0.000229427501644
0.000230832949171
0.000231630489285
0.000234955154458
0.000239399346706
0.000239785817862
0.000230734415087
0.000227259375814
0.000241556850597
0.000246542222051
0.000242872882929
0.00023498122457
0.000225575871205
0.000217726443167
0.000209634667254
0.000202515088042
0.000197745271272
0.000197749024646
0.000202522639154
0.000209638210061
0.000217719842725
0.000225559452694
0.000234952470156
0.000242852157384
0.000246539147137
0.000241570192415
0.000227261044056
0.000210328687774
0.000232634735908
0.000245582334994
0.000246582257178
0.000239450472839
0.000227167203241
0.00021311601996
0.00020075091209
0.000193447777248
0.000189652205471
0.000189651115734
0.000193438776412
0.000200724281811
0.000213059037744
0.00022709961066
0.000239385364518
0.000246532395085
0.00024555187092
0.000232616838873
0.000210300114976
0.00017498683043
0.000209311242258
0.000232668782963
0.000241634015012
0.000239854860147
0.000230872214247
0.000219779365123
0.000210966012173
0.000207202872627
0.000207145341087
0.000207135944236
0.000207164311658
0.000210889051651
0.000219672491956
0.000230755305116
0.000239747775181
0.000241548899461
0.000232605851084
0.000209263686899
0.000174940265272
0.000123056263502
0.000174994240595
0.000210373943195
0.000227345614829
0.000230819836249
0.000226687974092
0.000221714857737
0.000222093288326
0.000230067951317
0.000239368831452
0.000239358696438
0.000230015068273
0.000221983872326
0.00022156716797
0.00022653088878
0.000230676624683
0.000227229648377
0.000210284024004
0.000174928007947
0.000123007755893
0.000199117349632
0.000302329107053
0.000380100087636
0.000426611795294
0.000454392394901
0.000478034689227
0.000510392177286
0.000556636898902
0.000606237166817
0.000638904503567
0.000638832696213
0.000606027069138
0.000556284386715
0.000509941474079
0.000477603185154
0.000454064328444
0.000426417181164
0.000380011429702
0.000302302268172
0.000199081399067
0.000302404902958
0.000330286301979
0.00037181500317
0.00039638069858
0.000405639963246
0.000405802333698
0.000406403705461
0.000415098395303
0.000430041833159
0.000441730752226
0.000441652747732
0.000429811019011
0.000414741860768
0.00040598733788
0.000405425706734
0.000405371081955
0.00039623573881
0.00037175972579
0.000330266964349
0.00030235028661
0.000380156553563
0.000371827889349
0.000379983256213
0.000377241703673
0.000365439941894
0.000348111091085
0.000330179623148
0.000320573110014
0.000317300444266
0.000317128416453
0.000317069391965
0.000317139413623
0.000320329447898
0.000329859059065
0.000347817269654
0.000365224330316
0.000377124320816
0.000379952719812
0.000371843388605
0.000380150925967
0.000426648588155
0.000396384325235
0.000377230009831
0.000354521332239
0.000332950583773
0.000317058634895
0.000302192762059
0.00029023398941
0.000281922234202
0.000277512365859
0.000277471088564
0.000281818460339
0.000290084410864
0.000302012743538
0.000316887221833
0.000332799758738
0.00035442970634
0.000377216625531
0.000396437182882
0.000426710387512
0.000454440092731
0.000405637672656
0.000365418968787
0.000332938851525
0.000315769409246
0.000305031318844
0.000296286548958
0.000288142763404
0.000280848958631
0.000276032915775
0.000276005820462
0.000280786501721
0.000288059592343
0.000296193849186
0.00030494055898
0.000315683928993
0.000332868638707
0.0003654084551
0.00040572069593
0.000454575002609
0.000478177344208
0.000405847115501
0.000348113390033
0.00031705622357
0.000305031184081
0.000301138186144
0.000299381896849
0.000296545625573
0.000292039143108
0.000288101188006
0.00028808409579
0.000292003244072
0.00029650392782
0.000299339714233
0.00030109659934
0.000304986099685
0.000317010772515
0.000348091490058
0.000405943467795
0.00047837903257
0.000510712049398
0.000406561296887
0.000330247614825
0.000302220513256
0.000296299197252
0.000299389180508
0.000303977934192
0.000305647233438
0.000303439241087
0.00030034469301
0.000300333609856
0.000303417631586
0.000305625992358
0.00030396119945
0.000299373899882
0.000296276808081
0.000302185861069
0.000330219252699
0.000406685241208
0.00051102514481
0.000557125325062
0.000415385486544
0.000320719427874
0.000290301760238
0.000288176845802
0.000296568780059
0.000305663067197
0.000310035419175
0.000309171171916
0.00030648659997
0.000306478545697
0.000309156243377
0.000310022574742
0.000305658030636
0.000296568781349
0.000288173178272
0.000290293208568
0.000320744938615
0.000415600241446
0.000557660205587
0.000606769703429
0.000430399273389
0.000317496871832
0.000282020247343
0.000280903504055
0.000292081961946
0.000303476540209
0.00030919443521
0.000308756910908
0.000305956184849
0.000305950719089
0.000308748460601
0.000309190866245
0.000303483420325
0.000292098448765
0.000280924023388
0.000282050672655
0.00031759608848
0.00043076365784
0.000607615181951
0.000639361101429
0.000442073499656
0.000317320436101
0.000277609735201
0.000276089406802
0.000288149278779
0.000300391556906
0.000306524352037
0.000305974954109
0.000302808806043
0.000302808661268
0.000305979718931
0.00030653926373
0.000300421484302
0.000288194244873
0.000276147113531
0.000277695734975
0.000317512684661
0.000442597980892
0.000640498201134
0.000639159852935
0.000441909492426
0.000317203123562
0.000277530022146
0.000276033355525
0.000288106980718
0.000300359212927
0.000306501859984
0.000305965046523
0.000302813008783
0.000302821491885
0.000305989628376
0.000306543164323
0.000300420007604
0.000288187874031
0.000276135135652
0.000277675387366
0.000317479605652
0.000442549057932
0.00064045288558
0.000606209219174
0.000429956784176
0.000317196053229
0.000281825092357
0.000280773612835
0.000291989965955
0.00030341013825
0.000309152245015
0.000308745447266
0.00030597799094
0.00030599122291
0.000308779923795
0.000309205610919
0.000303483221659
0.000292083941453
0.000280891922794
0.000281993093135
0.000317500605615
0.000430618004019
0.000607479243231
0.000556332908088
0.000414770325479
0.000320305395688
0.000290035621847
0.000288005781433
0.00029645705577
0.000305589422361
0.00030999461922
0.0003091713051
0.000306529662498
0.000306544595357
0.000309208591198
0.000310050042301
0.000305662346681
0.000296548103969
0.000288118860229
0.000290194017592
0.000320584638391
0.00041536459651
0.000557420265583
0.000509872648488
0.000405902779187
0.000329757537516
0.000301906733147
0.000296098454214
0.000299261696694
0.000303900624075
0.000305612025678
0.000303451514651
0.000300405441127
0.00030042003374
0.000303487417715
0.000305664499733
0.000303967254718
0.000299342157169
0.000296195459206
0.000302037763698
0.000329979036827
0.000406378640057
0.000510689996198
0.000477433215205
0.000405242613448
0.000347633962823
0.000316721237334
0.000304800222425
0.000300983847446
0.000299286340619
0.00029650292828
0.000292052909028
0.000288170057019
0.000288182736408
0.000292083705962
0.000296546440317
0.000299339294024
0.000301045975929
0.000304873635584
0.000316822453644
0.000347810857779
0.000405601457191
0.000477992914463
0.000453826430139
0.000405115527051
0.000364972524403
0.000332578339797
0.000315496702787
0.000304832159545
0.000296152204518
0.000288075503921
0.000280851809078
0.000276101063353
0.000276110067056
0.000280872087173
0.000288099533194
0.000296178434282
0.000304863040085
0.000315536312106
0.000332642350092
0.000365112615584
0.000405376308251
0.00045417227859
0.000426146179079
0.000395942901273
0.000376824482053
0.000354154845414
0.000332631893708
0.000316803764498
0.000302003697202
0.000290133092048
0.000281913298576
0.00027758470308
0.000277588043022
0.000281916181309
0.000290125794748
0.000301982848991
0.000316784881163
0.000332623305133
0.000354190542881
0.00037692861266
0.000396117686815
0.000426331260452
0.000379750846979
0.000371463019752
0.00037962673091
0.000376894040583
0.000365105465145
0.000347804711478
0.000329935754045
0.000320458197131
0.000317309701185
0.000317241490905
0.000317236273862
0.000317285197531
0.000320403188145
0.000329838323394
0.000347712366028
0.000365050168697
0.000376894970759
0.000379685395586
0.000371556269076
0.000379818909949
0.000302100283353
0.000329989331605
0.000371506838597
0.000396069729919
0.000405335421297
0.000405529731659
0.000406218200205
0.000415068699293
0.000430186523101
0.000442014410906
0.000441998036799
0.000430124676184
0.00041495321598
0.000406065754194
0.000405383616543
0.000405231940062
0.000396022741587
0.000371503130399
0.000330006147162
0.000302091412703
0.000198930821661
0.000302055463038
0.000379787902616
0.000426300279063
0.000454111248099
0.000477829756055
0.000510345290814
0.000556844336744
0.000606714536534
0.000639581787828
0.000639574626893
0.000606673364513
0.000556724919999
0.000510147581594
0.000477609515049
0.000453921348506
0.000426164036871
0.000379698910205
0.000301999551086
0.000198888628765
0.000286166094119
0.000473358436262
0.000628138348729
0.000743529321011
0.000839114022941
0.000934463829701
0.00103745572471
0.00114282285433
0.00123171785018
0.00128401206416
0.00128400773094
0.00123166578861
0.00114268860954
0.00103723483344
0.000934215596272
0.000838962292753
0.000743494889584
0.00062821363002
0.000473463082872
0.000286158105841
0.000473590948144
0.000499428927379
0.000577513174445
0.000639436804221
0.000681799371359
0.000713519151762
0.000746230175709
0.000783887404083
0.000817460936926
0.000837108607814
0.000837047412303
0.000817262454652
0.000783577250153
0.000745858354537
0.000713198256409
0.000681641501868
0.0006394608767
0.000577647815191
0.000499552491575
0.000473557290438
0.000628361296788
0.000577579158428
0.000582237709144
0.000581273719134
0.000570094577811
0.00055212479813
0.000534407146851
0.000528924220299
0.000527691862427
0.000528127493099
0.000528054097772
0.000527484145267
0.000528611008886
0.000534014463768
0.000551803305471
0.00056994161155
0.00058131075539
0.000582424235622
0.000577815491651
0.000628505343647
0.000743719904789
0.000639489656728
0.000581268954646
0.000531274948528
0.000490700601725
0.000462732302176
0.000436929407733
0.000417328510653
0.000403759455093
0.00039662487643
0.00039656889683
0.000403611634219
0.000417116423
0.000436692039877
0.000462549375627
0.000490639379527
0.000531321723496
0.000581499202311
0.000639886771432
0.000744152682014
0.000839337749791
0.000681839638214
0.000570068717111
0.000490685619289
0.000446366900104
0.000417324692879
0.000395255424301
0.000377498668331
0.000363682723647
0.000355535872295
0.000355506122883
0.000363605143182
0.00037739090438
0.000395140901803
0.000417241491322
0.000446351364682
0.000490778702077
0.000570326237068
0.000682399482252
0.000840125805905
0.000934730696236
0.000713594676541
0.000552113584833
0.000462713902544
0.000417316909609
0.000394025527805
0.000379779657359
0.000368026969153
0.000357487280373
0.0003505183224
0.000350510564825
0.000357463021472
0.000367993901028
0.000379746858007
0.000394008482848
0.000417336415468
0.000462809635403
0.000552377746954
0.000714318348138
0.000935963193558
0.00103779749767
0.000746382580817
0.000534461353605
0.000436942354535
0.000395260766014
0.000379785758561
0.000373086273024
0.000366799229678
0.000359296444673
0.00035358719725
0.000353592341474
0.000359301504184
0.000366804860145
0.000373096761707
0.000379807483496
0.000395302224294
0.00043704494634
0.00053474615711
0.000747304072114
0.00103955420473
0.0011431568399
0.000784082839152
0.000529045117751
0.000417389343068
0.000377533071848
0.000368053473531
0.000366817889628
0.000364125602478
0.000358491652333
0.00035352461445
0.000353534667635
0.000358506767071
0.000364143061809
0.000366843777671
0.000368094054207
0.000377594545165
0.000417525273022
0.000529442812301
0.000785268030043
0.00114554562329
0.00123196168753
0.000817644284176
0.000527845404662
0.000403856284287
0.000363744638887
0.000357537612419
0.000359339261314
0.000358517256063
0.000353579018123
0.000348743084802
0.000348755113051
0.000353598176173
0.000358539406177
0.000359372938349
0.000357592837785
0.000363831339511
0.000404038762439
0.000528354231112
0.000819086460999
0.00123495471421
0.00128412793663
0.00083725600261
0.000528273708281
0.000396723627037
0.00035560112321
0.000350573687784
0.000353639011264
0.000353563803855
0.000348760318329
0.000343825846913
0.000343841474613
0.000348788854932
0.000353598013464
0.000353689726966
0.000350655320618
0.000355727194893
0.000396966929466
0.00052888493384
0.000838879489561
0.00128754305028
0.0012839824546
0.000837119572946
0.000528142980541
0.000396622080465
0.000355532767753
0.000350530993352
0.000353614501555
0.000353552229587
0.000348761152056
0.000343838576712
0.000343860480408
0.000348804845961
0.000353607732896
0.00035369247312
0.000350648796366
0.000355707409444
0.000396930499791
0.000528834017711
0.000838828794003
0.00128752540452
0.00123152168398
0.000817253094567
0.000527489551832
0.000403592012278
0.000363571147515
0.000357430377438
0.00035927746678
0.000358487478631
0.000353580431318
0.000348774268776
0.000348800928081
0.000353635178818
0.000358559888457
0.000359375387845
0.000357570528806
0.000363773371829
0.000403935052784
0.000528206241686
0.000818926858758
0.00123487450901
0.00114244707935
0.00078346435083
0.000528514867536
0.000417011266266
0.00037728957392
0.000367906007012
0.000366733917518
0.000364086679867
0.00035849685347
0.000353570194693
0.000353599741656
0.000358559529642
0.000364172142105
0.000366845781739
0.000368056668947
0.000377499162747
0.00041735725203
0.000529203318994
0.000785008608039
0.00114537361254
0.00103690374935
0.000745621625962
0.00053381127574
0.000436494138674
0.000394968612313
0.000379604469429
0.000372981768383
0.000366752732716
0.000359305899726
0.000353646464933
0.000353676362854
0.000359371107531
0.000366843666901
0.000373097260891
0.000379753116096
0.000395171362487
0.000436818911047
0.000534414142576
0.000746963113443
0.00103927461066
0.000933803303605
0.000712833632807
0.000551469145661
0.000462250337198
0.000416990533422
0.000393804363334
0.000379642126641
0.000367961258276
0.000357492287054
0.000350587474369
0.000350613715804
0.000357550140849
0.000368041330978
0.000379742267415
0.000393935617985
0.00041718025488
0.000462556921268
0.000552018966375
0.000713938958969
0.000935589058018
0.000838484926616
0.000681174767675
0.00056949476863
0.000490245342653
0.000446013656595
0.000417053632663
0.00039506590233
0.000377399030227
0.000363676435056
0.000355613149934
0.000355629984822
0.000363712743263
0.000377447286201
0.000395129434602
0.000417154317239
0.000446184423016
0.000490535982749
0.000569993190527
0.000682039478128
0.00083972242729
0.000743014660625
0.000638952163992
0.000580786950946
0.000530831609526
0.000490338339508
0.000462415847813
0.000436691265153
0.000417210719205
0.000403767342701
0.000396741123961
0.000396746110392
0.00040377427887
0.000417214955105
0.000436700691604
0.000462471237586
0.000490486400928
0.00053108256294
0.000581217944206
0.000639576566564
0.000743763068653
0.000627803374266
0.000577153357434
0.000581856025587
0.000580910045297
0.000569746945705
0.000551812241551
0.00053418904931
0.000528899829425
0.000527841136525
0.000528414502215
0.000528412564083
0.000527827075818
0.000528867686663
0.000534132416634
0.000551807048434
0.000569848379484
0.00058113851043
0.000582197268637
0.000577553334223
0.000628178359872
0.000473181741336
0.000499093675779
0.000577216643331
0.000639190760051
0.000681625891308
0.000713473130769
0.000746394931199
0.000784324461337
0.000818149545792
0.000837981134322
0.000837991949841
0.000818161786995
0.00078432662774
0.000746386205901
0.000713492101799
0.000681718439325
0.000639365505131
0.000577435546437
0.000499298926579
0.000473308088773
0.000285946259531
0.000473048152975
0.000627826852016
0.000743312432408
0.000839118172246
0.000934791035267
0.00103822884726
0.00114410786194
0.00123347095461
0.00128608869538
0.00128616458479
0.0012336382728
0.00114427684028
0.00103833778569
0.000934842589921
0.00083915403632
0.000743366409898
0.000627892329205
0.000473100511719
0.000285953185546
0.000389463317666
0.00070635286367
0.000991452568295
0.00123172721078
0.0014393961775
0.00163317979852
0.00181518083137
0.00197862171698
0.00210667291337
0.00217940554814
0.00217960412393
0.00210711326359
0.00197918680984
0.00181578932031
0.00163379842044
0.00144003417434
0.00123237889372
0.000992074382509
0.000706798537265
0.000389540178789
0.000706856542391
0.000731326377614
0.000868689366801
0.00099680488983
0.00109882888723
0.00117728857474
0.00124036407509
0.00129311657994
0.0013324464138
0.00135360829462