/*--------------------------------*- C++ -*----------------------------------*\
| =========                 |                                                 |
| \\      /  F ield         | OpenFOAM: The Open Source CFD Toolbox           |
|  \\    /   O peration     | Version:  3.0.1                                 |
|   \\  /    A nd           | Web:      www.OpenFOAM.org                      |
|    \\/     M anipulation  |                                                 |
\*---------------------------------------------------------------------------*/
FoamFile
{
    version     2.0;
    format      ascii;
    class       volScalarField;
    location    "9.8";
    object      p_rgh;
}
// * * * * * * * * * * * * * * * * * * * * * * * * * * * * * * * * * * * * * //

dimensions      [1 -1 -2 0 0 0 0];

internalField   nonuniform List<scalar> 
7968
(
5362.09365538
5362.00050296
5361.75627648
5361.50114308
5361.28076559
5361.1337542
5361.06293219
5361.0487419
5361.05701748
5361.06439782
5361.06405567
5361.05599118
5361.0470112
5361.06043875
5361.13054623
5361.2770641
5361.49712924
5361.75205406
5361.99629731
5362.08952253
5362.00018958
5361.95348518
5361.7350873
5361.47276356
5361.23403428
5361.06583918
5360.97130849
5360.94032571
5360.93759294
5360.93847121
5360.93818774
5360.93673396
5360.93881827
5360.96905115
5361.06284792
5361.23053792
5361.4689767
5361.73113956
5361.9495994
5361.99641363
5361.75565496
5361.73473247
5361.52162257
5361.25349973
5361.00851193
5360.82980261
5360.72465799
5360.68471834
5360.68098842
5360.68387068
5360.6836817
5360.68038731
5360.68357064
5360.72286406
5360.8273266
5361.00553889
5361.25024466
5361.51819724
5361.73137197
5361.75239276
5361.50038432
5361.47214878
5361.25318654
5360.98687001
5360.75463135
5360.59508392
5360.51250763
5360.50019539
5360.52028538
5360.53755195
5360.53745989
5360.51995967
5360.49949315
5360.51124353
5360.59320406
5360.7522773
5360.98422766
5361.25034499
5361.46934765
5361.49761125
5361.27988327
5361.23322901
5361.00791245
5360.75430502
5360.55336281
5360.434062
5360.39227435
5360.41607699
5360.46390497
5360.49733937
5360.49732042
5360.46378444
5360.41569652
5360.39144114
5360.43268217
5360.55154734
5360.7522052
5361.00558359
5361.23092106
5361.27757017
5361.13282883
5361.06494073
5360.82899878
5360.59448526
5360.43375114
5360.36167932
5360.36504894
5360.42403102
5360.497102
5360.54455278
5360.54457709
5360.49710672
5360.42383855
5360.36450042
5360.36065753
5360.43234306
5360.59279538
5360.82707271
5361.06302637
5361.13090803
5361.0621004
5360.97040455
5360.72373197
5360.51170215
5360.39169559
5360.36475537
5360.40905466
5360.499058
5360.59652842
5360.65586875
5360.65591232
5360.59660187
5360.49897036
5360.40864368
5360.36393812
5360.3905457
5360.51028402
5360.72210229
5360.96879876
5361.06047956
5361.04793576
5360.93938306
5360.68362523
5360.49916384
5360.41521936
5360.42342547
5360.49873232
5360.61824291
5360.73499554
5360.80157631
5360.8016079
5360.73505887
5360.61818863
5360.49835768
5360.42267156
5360.41418513
5360.49788575
5360.68216439
5360.93799886
5361.04656362
5361.05617355
5360.93650747
5360.67971632
5360.51902908
5360.46277887
5360.49617798
5360.59584658
5360.7346326
5360.86012732
5360.92903514
5360.92903133
5360.86009681
5360.73447959
5360.59540429
5360.49536962
5360.46170554
5360.51773978
5360.67830883
5360.93524221
5361.05496912
5361.06356022
5360.93736122
5360.6825364
5360.53620271
5360.4960902
5360.54347022
5360.655001
5360.80101144
5360.92880481
5360.99834259
5360.99829386
5360.92865198
5360.80067735
5360.65436415
5360.54247836
5360.49485022
5360.53477497
5360.68104283
5360.9360795
5361.06240931
5361.06326231
5360.93715397
5360.68243915
5360.5362053
5360.49616126
5360.54356865
5360.65509676
5360.80104924
5360.9287458
5360.99819819
5360.99812303
5360.92850125
5360.80056759
5360.65427547
5360.54237774
5360.4947226
5360.53459107
5360.68079403
5360.93577464
5361.06206178
5361.05527041
5360.93584271
5360.67934179
5360.51893404
5360.46287019
5360.49634035
5360.59601746
5360.73467979
5360.85991356
5360.92859234
5360.9285013
5360.85962681
5360.73412882
5360.5951047
5360.49503703
5360.46130459
5360.51718967
5360.67757587
5360.93435446
5361.05396015
5361.04642951
5360.93816703
5360.68280365
5360.49877204
5360.41509286
5360.42337647
5360.49867807
5360.61806245
5360.73448614
5360.80074782
5360.80065408
5360.73419274
5360.61748929
5360.49771863
5360.42201213
5360.41345332
5360.49695139
5360.68095821
5360.93657164
5361.04496438
5361.06005479
5360.96861912
5360.72238538
5360.51082611
5360.39113357
5360.36431927
5360.40859552
5360.49841918
5360.59554853
5360.65453432
5360.65443443
5360.59523187
5360.49779071
5360.40757106
5360.36288198
5360.38939293
5360.50889958
5360.72041323
5360.96682685
5361.05834963
5361.13031634
5361.06261493
5360.82709988
5360.5930574
5360.43263995
5360.36071883
5360.36409496
5360.42288974
5360.49561207
5360.54271195
5360.54259303
5360.49523443
5360.42217527
5360.36297708
5360.35915317
5360.43073022
5360.59092585
5360.82485984
5361.06048439
5361.12822328
5361.27694478
5361.23045248
5361.00552116
5360.75235579
5360.5517261
5360.4326065
5360.39087057
5360.41453515
5360.46205755
5360.49517594
5360.49502765
5360.46159697
5360.41371039
5360.38958258
5360.43082293
5360.5495458
5360.74990876
5361.00289725
5361.22785345
5361.27436086
5361.49714984
5361.46899501
5361.25039093
5360.98447199
5360.75253512
5360.59317902
5360.5106814
5360.49828155
5360.51812691
5360.53513484
5360.53494384
5360.51754758
5360.49728148
5360.50915841
5360.59109536
5360.74999045
5360.98159845
5361.24727261
5361.46583331
5361.49400068
5361.75213939
5361.73127463
5361.51850329
5361.25073603
5361.00602076
5360.82750558
5360.72247993
5360.68250849
5360.67862968
5360.68133719
5360.68109636
5360.67790818
5360.68127731
5360.7206707
5360.82506192
5361.00305068
5361.24737928
5361.5148416
5361.72752031
5361.74837823
5361.99639296
5361.94982187
5361.73180525
5361.46984546
5361.23141086
5361.06343414
5360.96906313
5360.93813994
5360.9353475
5360.93613881
5360.93584013
5360.93446455
5360.93666997
5360.96693008
5361.06059088
5361.22800067
5361.46601034
5361.72763983
5361.94554077
5361.99210153
5362.08975501
5361.99675073
5361.75295245
5361.49817579
5361.27807852
5361.13130114
5361.06066052
5361.04656246
5361.05484301
5361.06219945
5361.06185762
5361.05383782
5361.04492214
5361.05835261
5361.12831683
5361.27454857
5361.49419988
5361.74859833
5361.99224576
5362.08521565
5361.83694655
5361.72911782
5361.50599848
5361.29524482
5361.13510904
5361.02647303
5360.98660122
5360.99744263
5361.01638266
5361.02418177
5361.02385496
5361.01541249
5360.99576706
5360.98411788
5361.02331551
5361.13145027
5361.29129498
5361.50186695
5361.72499733
5361.8328791
5361.72888519
5361.65375315
5361.45094756
5361.2271199
5361.04712949
5360.91862619
5360.85371437
5360.84293683
5360.85379315
5360.86216653
5360.8619058
5360.8529971
5360.84150538
5360.85153357
5360.91571787
5361.04373246
5361.22342023
5361.44712334
5361.64995626
5361.72513273
5361.50546951
5361.45065109
5361.22166758
5360.97230123
5360.77364794
5360.62863997
5360.54925242
5360.52897383
5360.53214649
5360.53532507
5360.53517034
5360.53165041
5360.52804458
5360.54764726
5360.62639509
5360.77092182
5360.96924416
5361.21842633
5361.44740231
5361.5022637
5361.29459392
5361.22655366
5360.97200738
5360.70930495
5360.52167291
5360.40154546
5360.3531428
5360.35887705
5360.38431599
5360.40203616
5360.40197397
5360.38408017
5360.35832399
5360.35208537
5360.399937
5360.5196136
5360.70688803
5360.96935829
5361.22388357
5361.29186674
5361.13430186
5361.04639634
5360.77307887
5360.52136877
5360.36763423
5360.29446722
5360.29412889
5360.34260637
5360.39795569
5360.43201805
5360.4320146
5360.39789999
5360.34235691
5360.29348602
5360.2933293
5360.36610518
5360.51947546
5360.77093203
5361.04420289
5361.13206563
5361.02563116
5360.9178107
5360.62784278
5360.40094925
5360.29415094
5360.27127543
5360.32024774
5360.41278096
5360.49566767
5360.5421971
5360.54222413
5360.49571195
5360.41274967
5360.3198909
5360.27047415
5360.29298331
5360.39944701
5360.62609684
5360.91601036
5361.02381852
5360.98583117
5360.85281487
5360.54825108
5360.3522846
5360.2935181
5360.31993287
5360.41463759
5360.54160815
5360.6415523
5360.69639045
5360.69641856
5360.64160364
5360.54160088
5360.41441394
5360.31931823
5360.29255939
5360.35101596
5360.54678984
5360.85135795
5360.9843485
5360.9965847
5360.84190516
5360.52776715
5360.35774724
5360.34168657
5360.4121332
5360.5412789
5360.68043992
5360.79108937
5360.85214864
5360.85216492
5360.79109997
5360.68036269
5360.54099359
5360.41153601
5360.34076591
5360.35657216
5360.52647925
5360.84070383
5360.99540637
5361.01535134
5360.8526266
5360.5307162
5360.38294758
5360.39679378
5360.49477448
5360.64096913
5360.79081523
5360.90978305
5360.97494863
5360.97493759
5360.90971892
5360.7906198
5360.64053577
5360.49402997
5360.39576535
5360.38170746
5360.52941644
5360.85152209
5361.01432939
5361.02312513
5360.86095747
5360.5338214
5360.40058595
5360.4307653
5360.54119935
5360.6956787
5360.85173729
5360.97481045
5361.04172724
5361.04167986
5360.97463383
5360.85137763
5360.69506286
5360.54025499
5360.42953599
5360.39916509
5360.53238143
5360.85978527
5361.02206714
5361.02296295
5360.86084548
5360.53381693
5360.40065626
5360.4308636
5360.54129447
5360.69573815
5360.85173979
5360.97474356
5361.0415989
5361.04151921
5360.9744813
5360.85124889
5360.69495341
5360.54015068
5360.42942019
5360.39901498
5360.53217184
5360.85951186
5361.02174001
5361.01473954
5360.85217446
5360.53059047
5360.38304238
5360.39699646
5360.4949956
5360.64109357
5360.79077826
5360.90955553
5360.97453925
5360.97443935
5360.90924454
5360.79020957
5360.64019107
5360.49371859
5360.39540837
5360.38125172
5360.52879395
5360.85070895
5361.01337702
5360.99533305
5360.84093173
5360.52731545
5360.35763567
5360.3417826
5360.41233461
5360.5413498
5360.68024583
5360.79059582
5360.85140011
5360.85129015
5360.79025321
5360.67963278
5360.54040577
5360.41101751
5360.34013408
5360.35577953
5360.52544383
5360.83936948
5360.99386791
5360.98389791
5360.85121819
5360.54723464
5360.35173562
5360.29324868
5360.31977899
5360.41443504
5360.54111131
5360.64069492
5360.69523077
5360.69510826
5360.64032909
5360.54048925
5360.41351372
5360.31844518
5360.29157439
5360.34981972
5360.54527071
5360.84949782
5360.98226148
5361.02322628
5360.91562111
5360.62625555
5360.39987475
5360.29336814
5360.27060821
5360.31954386
5360.41184123
5360.49436461
5360.54056695
5360.54043124
5360.49396568
5360.41119485
5360.31853685
5360.26916331
5360.29156986
5360.39781553
5360.6241038
5360.9136145
5361.0212422
5361.13150923
5361.04379289
5360.77100141
5360.51977814
5360.36635296
5360.29330361
5360.29293995
5360.34121264
5360.3962158
5360.42995262
5360.42979918
5360.3957492
5360.34041168
5360.29175191
5360.29165091
5360.36432598
5360.51745234
5360.76851895
5361.04134984
5361.12907985
5361.29151581
5361.22362192
5360.96951245
5360.7072284
5360.51986984
5360.39988888
5360.3514941
5360.35708609
5360.38223783
5360.39967963
5360.39949523
5360.38168113
5360.35613273
5360.35007257
5360.39797108
5360.5175313
5360.70454975
5360.96661281
5361.22067233
5361.28858522
5361.50222903
5361.4474707
5361.2188597
5360.96982076
5360.77139957
5360.62655189
5360.5472308
5360.52691139
5360.52987206
5360.5328462
5360.53261213
5360.52917869
5360.52576836
5360.54552022
5360.6242702
5360.76863714
5360.96667326
5361.21544643
5361.44396787
5361.49871106
5361.72546913
5361.65043216
5361.44798501
5361.22445543
5361.04469371
5360.91637569
5360.85160612
5360.84086625
5360.85162555
5360.85986929
5360.8595734
5360.85075383
5360.83942525
5360.8495289
5360.91361249
5361.0414009
5361.22075651
5361.44403502
5361.64640358
5361.72142547
5361.8335168
5361.72572883
5361.50297329
5361.29248068
5361.13257486
5361.02414045
5360.98445165
5360.99537987
5361.0142678
5361.02198517
5361.02164013
5361.01327696
5360.9937808
5360.98219967
5361.02130435
5361.12917459
5361.288682
5361.49883062
5361.72146282
5361.82920292
5361.4052781
5361.31339058
5361.12228969
5360.96347154
5360.84725848
5360.77651376
5360.74412167
5360.72378598
5360.69866279
5360.67715951
5360.67687163
5360.69774324
5360.72227912
5360.74187406
5360.77358805
5360.84382004
5360.9597135
5361.11838142
5361.30944423
5361.40143215
5361.31307525
5361.28174268
5361.11956944
5360.96742099
5360.8406394
5360.74804042
5360.6792016
5360.61942662
5360.5631037
5360.52361859
5360.52337185
5360.56239175
5360.61817057
5360.67728854
5360.74534477
5360.83741126
5360.96389034
5361.11599134
5361.27815025
5361.30958278
5361.12182182
5361.11936421
5360.85596437
5360.62592379
5360.43743703
5360.28742886
5360.17908544
5360.10389308
5360.05340043
5360.02668318
5360.02654514
5360.05294093
5360.10301274
5360.17774114
5360.28555694
5360.43505643
5360.62318612
5360.85298854
5361.11631347
5361.11882952
5360.96281262
5360.96686123
5360.6256129
5360.36427285
5360.17830196
5360.05569521
5359.98836971
5359.96645802
5359.96766336
5359.9725015
5359.97245958
5359.96748449
5359.96599959
5359.98748122
5360.05430685
5360.1764585
5360.36205956
5360.62319565
5360.96446749
5360.96033877
5360.84637681
5360.83986327
5360.43675679
5360.17792744
5360.02845661
5359.95737888
5359.95096635
5359.98795682
5360.0357922
5360.06624311
5360.06625792
5360.0357866
5359.98778403
5359.95044465
5359.95640883
5360.0270605
5360.17619521
5360.43484954
5360.83799146
5360.84447609
5360.77546083
5360.74702077
5360.28633851
5360.05494316
5359.95702337
5359.94347516
5359.99244887
5360.07573221
5360.15924338
5360.20864392
5360.20868336
5360.15931376
5360.07570044
5359.99214608
5359.94277949
5359.9559435
5360.05357727
5360.28486866
5360.74562673
5360.7740645
5360.74281734
5360.67769887
5360.17768132
5359.98730646
5359.95029192
5359.9921217
5360.08780525
5360.20908739
5360.31949208
5360.38193395
5360.38195722
5360.31952463
5360.20905159
5360.08753005
5359.99151754
5359.94934885
5359.98611491
5360.17642256
5360.67680041
5360.74181296
5360.72213002
5360.61753082
5360.10218628
5359.96511281
5359.98699334
5360.07509195
5360.2087504
5360.36094551
5360.48853719
5360.55880311
5360.55878541
5360.48845165
5360.36074619
5360.20835962
5360.07440477
5359.98599347
5359.96388154
5360.10089569
5360.61680601
5360.72135189
5360.69676371
5360.56094278
5360.05150174
5359.96612045
5360.03460815
5360.15834521
5360.31888741
5360.48825374
5360.62565372
5360.70041356
5360.70033599
5360.62539873
5360.48785093
5360.31826229
5360.1574486
5360.033403
5359.96468318
5360.0500007
5360.5601041
5360.69597816
5360.67534507
5360.52150418
5360.02480045
5359.97092534
5360.06499412
5360.20765277
5360.38126146
5360.5584674
5360.70034176
5360.77721923
5360.77710469
5360.69997875
5360.55783906
5360.38034541
5360.20649361
5360.06351854
5359.9692044
5360.02299187
5360.52035329
5360.67433453
5360.67531735
5360.52155749
5360.02490789
5359.97106406
5360.06513474
5360.20778907
5360.38133173
5360.55846986
5360.70034952
5360.77718818
5360.77704106
5360.69989312
5360.5577106
5360.38024055
5360.20640441
5360.06341331
5359.96907325
5360.0228091
5360.52008853
5360.67401202
5360.69660524
5360.56099761
5360.0516969
5359.96642698
5360.03494138
5360.15866034
5360.31907649
5360.4882946
5360.62544357
5360.69993554
5360.69971406
5360.62494009
5360.48739977
5360.31793598
5360.15717064
5360.03308578
5359.96428186
5360.04944474
5360.55934526
5360.69502421
5360.72155803
5360.61726021
5360.10219537
5359.96533475
5359.98728689
5360.07536064
5360.20888607
5360.36072506
5360.48791709
5360.55787395
5360.55772358
5360.48745708
5360.35995272
5360.20778066
5360.07387522
5359.9854161
5359.96316375
5360.09993592
5360.61556019
5360.7198667
5360.74159295
5360.67681254
5360.17729289
5359.98717896
5359.95028972
5359.99211046
5360.0876166
5360.20855086
5360.3184909
5360.3805612
5360.38042737
5360.31808045
5360.2078643
5360.08656109
5359.99064302
5359.94841836
5359.98501589
5360.17506428
5360.67507447
5360.73981701
5360.77360228
5360.74525697
5360.28540835
5360.05431313
5359.95655244
5359.94302032
5359.99182759
5360.07475892
5360.15780763
5360.20682565
5360.2066956
5360.15741343
5360.07405989
5359.99074375
5359.94148887
5359.95460705
5360.05207079
5360.28310472
5360.74335796
5360.77162369
5360.8440235
5360.83756814
5360.43518062
5360.1767171
5360.02744928
5359.95641463
5359.9498666
5359.98654111
5360.0339529
5360.06403036
5360.06387934
5360.03348802
5359.98573102
5359.9486309
5359.95471347
5360.02533201
5360.17431517
5360.43270645
5360.8352971
5360.84170046
5360.96008128
5360.96422604
5360.62353141
5360.3625108
5360.1767492
5360.05421482
5359.98681942
5359.96465999
5359.96550163
5359.97001103
5359.96981908
5359.96491196
5359.96365731
5359.985368
5360.05230429
5360.17442572
5360.35987635
5360.62074001
5360.96147514
5360.95731114
5361.11889074
5361.1164769
5360.85351409
5360.62375434
5360.435445
5360.28552244
5360.1771559
5360.10175534
5360.05098583
5360.02400916
5360.02376199
5360.0502506
5360.10055079
5360.175508
5360.28342997
5360.43287167
5360.62080085
5360.85028963
5361.11322606
5361.11562486
5361.31005206
5361.2787985
5361.11695975
5360.96509281
5360.83849124
5360.74604087
5360.67729595
5360.61742664
5360.56087604
5360.52116462
5360.52085998
5360.5600246
5360.61605809
5360.67535348
5360.74333853
5360.83522543
5360.96144412
5361.11316963
5361.27499403
5361.30626877
5361.40218526
5361.31040619
5361.1195617
5360.96099763
5360.84503869
5360.77453659
5360.74227669
5360.72188019
5360.69657462
5360.6749208
5360.6745617
5360.69556788
5360.72029763
5360.74004619
5360.77173524
5360.84174434
5360.95731864
5361.11561263
5361.30633926
5361.3981323
5360.93082014
5360.83994503
5360.68237292
5360.51727245
5360.36973034
5360.23937164
5360.11985971
5360.00397583
5359.90477288
5359.8413841
5359.84110699
5359.90389581
5360.0025154
5360.1177569
5360.23659294
5360.36643629
5360.51366117
5360.67861841
5360.83614079
5360.92715817
5360.83954747
5360.83204181
5360.69163716
5360.52310507
5360.33550102
5360.11937016
5359.8882112
5359.6614645
5359.46287763
5359.34690919
5359.3466584
5359.46223461
5359.6603871
5359.88658694
5360.11723251
5360.33284085
5360.52004155
5360.68837147
5360.82872056
5360.83632313
5360.68183191
5360.69131857
5360.40717496
5360.13519973
5359.88375214
5359.6530986
5359.4477895
5359.26976242
5359.14140534
5359.07442152
5359.07430177
5359.1410043
5359.26900712
5359.44669315
5359.65142889
5359.88157087
5360.13261368
5360.40441029
5360.68857136
5360.67908274
5360.51636687
5360.52227666
5360.13475868
5359.83480135
5359.60511243
5359.43470635
5359.31691981
5359.24168686
5359.19967484
5359.18168366
5359.18164837
5359.19951484
5359.24128766
5359.31614765
5359.43344413
5359.60333686
5359.83268156
5360.13249051
5360.52017846
5360.51423288
5360.36848155
5360.33408028
5359.88280742
5359.60466169
5359.43790184
5359.35012071
5359.3218874
5359.33303795
5359.36002406
5359.37985443
5359.37985086
5359.35995628
5359.33280274
5359.32137994
5359.34921643
5359.43652471
5359.6028726
5359.88097677
5360.33264016
5360.36684646
5360.23778425
5360.11728018
5359.65164645
5359.43383129
5359.34972631
5359.34049734
5359.3842935
5359.4590985
5359.53576763
5359.58237779
5359.58233518
5359.53558307
5359.458709
5359.38368458
5359.33963421
5359.34853922
5359.43227764
5359.65006339
5360.11636981
5360.23657773
5360.11774794
5359.88556667
5359.44592152
5359.31568475
5359.32116161
5359.38397949
5359.48787784
5359.61303333
5359.7268441
5359.79221193
5359.79208079
5359.72641841
5359.61229401
5359.48688221
5359.38282213
5359.319863
5359.31413728
5359.44434913
5359.88482626
5360.11688656
5360.00146512
5359.65828252
5359.26754574
5359.24016235
5359.33206085
5359.45854202
5359.61278837
5359.77859017
5359.91906781
5359.99707406
5359.99685514
5359.91839198
5359.77746925
5359.61133488
5359.45694001
5359.33042834
5359.23837952
5359.26566576
5359.65740078
5360.00061955
5359.90205554
5359.45949323
5359.13907962
5359.19802815
5359.35890694
5359.53505238
5359.7264318
5359.91894163
5360.07699854
5360.16341116
5360.16313056
5360.07611269
5359.91750416
5359.72460658
5359.53304209
5359.35685759
5359.19584022
5359.13673024
5359.45811029
5359.90096262
5359.83883357
5359.34370406
5359.07222542
5359.18010677
5359.37875164
5359.58165678
5359.79188588
5359.99692786
5360.16340929
5360.25466721
5360.25430643
5360.1623724
5359.99526619
5359.78972011
5359.57929636
5359.37631007
5359.17748359
5359.06937487
5359.341718
5359.83727544
5359.83896368
5359.34398046
5359.07241242
5359.18029192
5359.37891254
5359.58174896
5359.79187775
5359.99672869
5360.16322409
5360.25449816
5360.25409986
5360.16210194
5359.9949576
5359.78949579
5359.57914541
5359.37619235
5359.17735594
5359.06921158
5359.34145786
5359.83695838
5359.90233723
5359.46013835
5359.13954391
5359.19849505
5359.35930907
5359.53525757
5359.72633583
5359.91844538
5360.07622915
5360.16244176
5360.16207323
5360.07509751
5359.91665751
5359.72395613
5359.53257908
5359.35649024
5359.19545367
5359.13622361
5359.45740972
5359.90002367
5360.00153887
5359.65895369
5359.2680395
5359.2406847
5359.3325136
5359.4587054
5359.61250714
5359.77779097
5359.91780753
5359.99548434
5359.9951265
5359.91672924
5359.77604893
5359.61025593
5359.45615036
5359.32979162
5359.23769159
5359.26478984
5359.65627182
5359.99915297
5360.1173035
5359.88579173
5359.44618715
5359.31597383
5359.32144808
5359.38397473
5359.48734536
5359.61187776
5359.72511984
5359.79006531
5359.78976198
5359.72420092
5359.61039452
5359.48540403
5359.38171252
5359.31892333
5359.3131016
5359.44314489
5359.88328815
5360.11495174
5360.23657886
5360.11686208
5359.6513315
5359.43363184
5359.34961785
5359.34019542
5359.38349414
5359.45765139
5359.53369712
5359.57985577
5359.57961109
5359.53296102
5359.45643583
5359.38185957
5359.33818455
5359.34721664
5359.43084129
5359.64843025
5360.11446249
5360.23421712
5360.36668939
5360.33282541
5359.8817925
5359.60382552
5359.43722354
5359.34935907
5359.32076168
5359.33134438
5359.35772751
5359.37709404
5359.37687753
5359.3570705
5359.33024325
5359.31922543
5359.34736138
5359.43476044
5359.60100867
5359.87894738
5360.33037274
5360.3641436
5360.51410513
5360.5203017
5360.13308408
5359.83337183
5359.60378851
5359.43334848
5359.31531328
5359.23963134
5359.19709792
5359.17866464
5359.17842352
5359.19636573
5359.23841401
5359.3136156
5359.4311597
5359.60115278
5359.83048276
5360.13013543
5360.51756711
5360.51124367
5360.67921281
5360.68889173
5360.40504111
5360.13328388
5359.88196662
5359.65126546
5359.44576391
5359.26728501
5359.13845294
5359.07107364
5359.07078296
5359.13758078
5359.26588922
5359.44394947
5359.64897309
5359.87925076
5360.13025005
5360.40182485
5360.68571132
5360.675955
5360.83679719
5360.82946168
5360.6893741
5360.52105813
5360.33362463
5360.11751895
5359.88617873
5359.659067
5359.46000577
5359.34366773
5359.34332837
5359.45910154
5359.65768765
5359.8843272
5360.11523839
5360.33084631
5360.51780361
5360.68576205
5360.82575737
5360.83313172
5360.92796767
5360.83727228
5360.67994863
5360.51511756
5360.36772685
5360.23747068
5360.11791763
5360.00180607
5359.90227079
5359.8386078
5359.83824481
5359.90119812
5360.00012862
5360.11565849
5360.23459041
5360.36437328
5360.51138611
5360.67598217
5360.83322698
5360.92400302
5360.49656593
5360.38581872
5360.21046231
5359.96454284
5359.69879602
5359.41520235
5359.13082137
5358.86467644
5358.6534517
5358.53282631
5358.53248894
5358.65243652
5358.86303896
5359.12859161
5359.41239012
5359.69544805
5359.9608051
5360.20650347
5360.38184547
5360.49280564
5360.38532328
5360.351738
5360.15390826
5359.84011039
5359.45983135
5359.01840118
5358.55640248
5358.11974714
5357.7804362
5357.5968531
5357.59653247
5357.77954072
5358.11833299
5358.55456378
5359.01610013
5359.45703376
5359.8369068
5360.15048212
5360.34834439
5360.38203549
5360.20965863
5360.15327787
5359.82914797
5359.44845592
5359.06579249
5358.69451209
5358.35654719
5358.08723833
5357.90574854
5357.81513269
5357.81499314
5357.90529063
5358.08638036
5358.35524685
5358.69261921
5359.06334111
5359.44559615
5359.82616664
5360.15050117
5360.20682025
5359.96335388
5359.83878284
5359.44787607
5359.07608185
5358.76403922
5358.51141996
5358.32240379
5358.19703488
5358.12640229
5358.09538384
5358.09533857
5358.12620039
5358.19653923
5358.32146662
5358.50990004
5358.76190459
5359.07348139
5359.44519067
5359.83659977
5359.96099617
5359.69710293
5359.45783047
5359.06468189
5358.76355087
5358.55482503
5358.42399969
5358.36051155
5358.35287444
5358.37514699
5358.39488073
5358.39481131
5358.37487967
5358.35228068
5358.35951748
5358.42250808
5358.55279016
5358.76106824
5359.06213836
5359.45603744
5359.69517896
5359.41303184
5359.01573876
5358.69297233
5358.5105936
5358.42368974
5358.40202166
5358.44129251
5358.5269093
5358.61978183
5358.67640674
5358.67618668
5358.61910173
5358.52569039
5358.43962148
5358.39998402
5358.42134562
5358.50799265
5358.69032526
5359.01405341
5359.41135271
5359.12815586
5358.55329837
5358.354775
5358.32136503
5358.36003413
5358.44114818
5358.57013488
5358.72975329
5358.87541265
5358.95793263
5358.95751933
5358.87413404
5358.7276099
5358.5673562
5358.43810209
5358.35691571
5358.31827777
5358.35166248
5358.55124358
5359.12650529
5358.86170987
5358.11646915
5358.08545495
5358.19589958
5358.35232466
5358.52672653
5358.72973653
5358.94478524
5359.12987415
5359.23041378
5359.22984309
5359.12809199
5358.94184212
5358.72591645
5358.52259398
5358.3482458
5358.19203782
5358.0814726
5358.11357415
5358.85971933
5358.65047403
5357.77733888
5357.90404712
5358.12524939
5358.37461099
5358.61963822
5358.87542915
5359.12990244
5359.34653104
5359.46196254
5359.46132288
5359.34447012
5359.12653088
5358.87098514
5358.6147506
5358.36973251
5358.12062505
5357.89922995
5357.77339828
5358.64789901
5358.53011986
5357.59405912
5357.81356909
5358.0943325
5358.39444605
5358.67635346
5358.95803748
5359.23053286
5359.46207381
5359.58492167
5359.58424356
5359.45977478
5359.22692316
5358.95323423
5358.67096295
5358.38900285
5358.08914279
5357.80817168
5357.58934897
5358.52695819
5358.53025591
5357.59418977
5357.81365466
5358.09450234
5358.39458415
5358.67634709
5358.95783798
5359.23015742
5359.46157916
5359.58434628
5359.58363794
5359.45919077
5359.2264074
5358.95283201
5358.67069716
5358.38883556
5358.08900951
5357.80800638
5357.58907632
5358.52663094
5358.65082383
5357.77769987
5357.90428787
5358.12569364
5358.37495121
5358.61956366
5358.87478741
5359.12872442
5359.34497583
5359.46012908
5359.45940329
5359.34266986
5359.12496011
5358.86977214
5358.61394089
5358.36922048
5358.12020929
5357.89869808
5357.77262051
5358.64693756
5358.86205714
5358.11703794
5358.08577965
5358.19643308
5358.35270189
5358.52649807
5358.72862193
5358.94284276
5359.12733273
5359.22751751
5359.22681686
5359.12517126
5358.9392707
5358.72392359
5358.52126617
5358.34737348
5358.19129241
5358.080558
5358.11235458
5358.85820783
5359.12817589
5358.55383207
5358.35505235
5358.32175031
5358.36026582
5358.44070679
5358.56863382
5358.72716788
5358.87204905
5358.9540555
5358.95345775
5358.87022793
5358.72417597
5358.56473586
5358.43631075
5358.35566267
5358.31715461
5358.35037393
5358.54966765
5359.12453243
5359.41244146
5359.01587372
5358.69286072
5358.5105521
5358.42355478
5358.401309
5358.43956583
5358.52404266
5358.61600443
5358.67200601
5358.67155264
5358.61462959
5358.52177236
5358.43656731
5358.39776571
5358.4196501
5358.50641661
5358.68860411
5359.01214428
5359.40899428
5359.69583182
5359.45721476
5359.06393175
5358.7628776
5358.55411951
5358.42290439
5358.35857807
5358.34988908
5358.37122345
5358.39028767
5358.38993605
5358.37014479
5358.34809325
5358.35613363
5358.41987058
5358.5505979
5358.7590297
5359.06002911
5359.45377473
5359.69250783
5359.96142543
5359.83736018
5359.44641313
5359.07470385
5358.76264758
5358.50976739
5358.32015289
5358.19392059
5358.12242385
5358.09075593
5358.09041233
5358.12136706
5358.19218521
5358.31779302
5358.50683074
5358.7592489
5359.07103747
5359.44275688
5359.83402187
5359.95803037
5360.20726947
5360.151139
5359.82712352
5359.44648762
5359.06379883
5358.69223269
5358.35374317
5358.08364682
5357.90138282
5357.81017725
5357.80976159
5357.90014548
5358.08169402
5358.35127195
5358.68926382
5359.06045081
5359.44293345
5359.82351455
5360.14763085
5360.20365382
5360.38266461
5360.34925034
5360.15162601
5359.83797365
5359.45767222
5359.01596735
5358.55339983
5358.11594323
5357.77581976
5357.59164641
5357.59115965
5357.77445816
5358.11394892
5358.55101165
5359.01325859
5359.45460043
5359.83457815
5360.14792043
5360.34539552
5360.37879575
5360.49377822
5360.38316799
5360.20799595
5359.96226239
5359.6965758
5359.41287532
5359.12818466
5358.86154585
5358.64979735
5358.52878297
5358.52832684
5358.64845297
5358.85950424
5359.12557699
5359.40976719
5359.69302844
5359.95834496
5360.20381818
5360.37891891
5360.48965207
5360.26985219
5360.09274911
5359.82878998
5359.40442072
5358.94491521
5358.46580181
5358.01840801
5357.64399703
5357.3789051
5357.2412903
5357.24077381
5357.37737307
5357.64155925
5358.01520218
5358.46198811
5358.94061087
5359.39980286
5359.82403854
5360.0881337
5360.26554756
5360.09218703
5359.94354714
5359.59519932
5359.02377754
5358.36304207
5357.65361407
5356.97403268
5356.39460065
5355.9818253
5355.77107676
5355.77057831
5355.98015086
5356.39221121
5356.97101459
5357.65012238
5358.35915568
5359.01956786
5359.59087933
5359.93953335
5360.08828667
5359.8276649
5359.59422601
5359.18364622
5358.61340928
5358.0476053
5357.52977719
5357.1025797
5356.79561555
5356.61361741
5356.53493864
5356.53475142
5356.61296463
5356.7943168
5357.10043046
5357.52692479
5358.04403702
5358.60937276
5359.17968333
5359.59076364
5359.82419341
5359.40303028
5359.02213493
5358.61283931
5358.10557968
5357.66849497
5357.31378183
5357.06166096
5356.91649136
5356.85318832
5356.83223627
5356.83215413
5356.85282795
5356.91559136
5357.05998452
5357.31113029
5357.66482661
5358.1012825
5358.60863446
5359.01879823
5359.39959333
5358.94316551
5358.36095094
5358.0467837
5357.66819495
5357.37524073
5357.18008672
5357.09413973
5357.10847439
5357.16972977
5357.21555253
5357.21537316
5357.16905504
5357.10698999
5357.0917978
5357.17678232
5357.37084876
5357.66331452
5358.04203995