/*--------------------------------*- C++ -*----------------------------------*\
| =========                 |                                                 |
| \\      /  F ield         | OpenFOAM: The Open Source CFD Toolbox           |
|  \\    /   O peration     | Version:  3.0.1                                 |
|   \\  /    A nd           | Web:      www.OpenFOAM.org                      |
|    \\/     M anipulation  |                                                 |
\*---------------------------------------------------------------------------*/
FoamFile
{
    version     2.0;
    format      ascii;
    class       volScalarField;
    location    "7.9";
    object      epsilon_0;
}
// * * * * * * * * * * * * * * * * * * * * * * * * * * * * * * * * * * * * * //

dimensions      [0 2 -3 0 0 0 0];

internalField   nonuniform List<scalar> 
7968
(
6.19373995131e-05
7.84534050364e-05
9.3059265765e-05
0.000102851122616
0.000108656514415
0.00011166472085
0.00011273459335
0.000112789324246
0.000112510381653
0.000112041506565
0.000111771319556
0.000111905865221
0.000111948857022
0.000111636267581
0.000110279711739
0.000107110800253
0.000101281368255
9.18463256553e-05
7.78741001214e-05
6.17862413638e-05
7.84088104292e-05
0.000156064698621
0.00022083124157
0.000266585249889
0.000296409123952
0.000313330567748
0.000321022707628
0.000322638297091
0.000321142577331
0.00031877347959
0.000316838982196
0.000315475389502
0.000313515521833
0.000309023592132
0.000299566961627
0.000282496604682
0.000254639391573
0.000212560132094
0.000152142391812
7.79969694218e-05
9.28902159873e-05
0.000220974129614
0.000329139957706
0.000406837920153
0.000458634288605
0.00048929836999
0.000504130283264
0.000508246661017
0.000506402359545
0.000502209471876
0.000497722995006
0.000493195562213
0.000487227935358
0.000477010693446
0.000458776558525
0.000428301139824
0.00038078856186
0.000310990646925
0.000212287156676
9.21917404424e-05
0.000102766135767
0.00026717918174
0.000407567227795
0.000509215736664
0.000577456668017
0.000618103103494
0.000637895816212
0.000643492832754
0.000641194068
0.000635816263911
0.000628253791645
0.000619593780668
0.000609916378709
0.000595140246243
0.000570454919293
0.000530407613971
0.000468895280698
0.000379352412879
0.000253613275268
0.000101648261196
0.000108862127405
0.000297823391902
0.000460960707167
0.00057942032106
0.000658664892675
0.000705653434875
0.000730845659035
0.000740622621372
0.000738709457018
0.000730787074595
0.000720430260741
0.000708602119698
0.000693853341171
0.000672374551588
0.000641932365843
0.000596019123535
0.000525762562061
0.000423334218616
0.000279926664512
0.000107117250256
0.000112095891829
0.000316070903934
0.000494004561562
0.000623195005397
0.000709126344318
0.000763703447755
0.000793301451843
0.000801697828729
0.000796866351273
0.000785904710922
0.000773211287842
0.000759926629109
0.000744176440733
0.000721312442705
0.000685645835743
0.000632969928491
0.000557978944076
0.000448242707875
0.00029449427034
0.000109844221465
0.000113377454721
0.000325318502406
0.000511770746689
0.000646979487101
0.000738009419276
0.000797981450148
0.000826410688029
0.000831570319744
0.000823146775895
0.000809271819059
0.000794875564263
0.000781177542727
0.000765981583474
0.000743992131079
0.000708399360042
0.000652394756335
0.000572592556065
0.000459523352155
0.000300732941083
0.000110935015178
0.000113430474494
0.000328571663626
0.00051914335223
0.000657089632353
0.000753246946946
0.000812744935
0.000838377659758
0.000839899586656
0.000828099849449
0.000811865770658
0.00079645712159
0.000783060746579
0.000769164975356
0.000748989163877
0.000715120556103
0.000659807631895
0.000576435609564
0.000462225345372
0.00030187871165
0.000111329684021
0.000113094640128
0.000328681029934
0.000520663512228
0.000659359274534
0.000757657553547
0.000815478141839
0.000838298679927
0.000836799303237
0.000822486628501
0.000804682587373
0.000788857276993
0.000776110311811
0.000763589692976
0.000745224858843
0.000713275015919
0.000659580484257
0.000576629596359
0.0004607654815
0.000300615680212
0.000111164566553
0.000112708855277
0.000327817393463
0.000519751331705
0.000658105682896
0.000756423579489
0.000812611439104
0.000833503132586
0.000830243820254
0.000814628592049
0.000796132224384
0.000780270371178
0.000768125644297
0.000756604751872
0.000739448695362
0.000708845504818
0.000656517851399
0.000574654704667
0.000458360505615
0.000298950279247
0.000110769483697
0.000112578143562
0.000327253777289
0.000518279269371
0.000655508811931
0.000752582395102
0.000807804574267
0.00082807377516
0.000824568821409
0.000809016174355
0.000790738968255
0.000775121558071
0.000763231505497
0.00075199292282
0.000735160191424
0.00070501363968
0.000653342189044
0.00057230765201
0.000456636998859
0.000297983154896
0.000110450859872
0.000112883880925
0.000327034472515
0.000516330124421
0.000651799796572
0.00074651064464
0.000801496230058
0.00082244148997
0.000820130052503
0.000805896409102
0.000788683285257
0.000773615331404
0.000761607397843
0.000749873314311
0.000732470445383
0.000701905860885
0.000650181931964
0.000569663282487
0.000455604486867
0.000297861800139
0.00011048035871
0.000113196225692
0.000325889302317
0.000512205627822
0.000645180031546
0.000735869408589
0.000790844622562
0.000813341366432
0.000813302837752
0.000801316184234
0.000785789600217
0.000771511161654
0.000759316424702
0.000746736322451
0.000728249880645
0.000696779446368
0.000644724911617
0.000564958503233
0.000453650568003
0.000297458427608
0.000110482680306
0.00011306541176
0.000321725132348
0.000502765300332
0.00063178374188
0.000716276355484
0.000770479766438
0.000794679796942
0.00079745025299
0.000788325605616
0.000774969398281
0.000761815453369
0.00074966216352
0.000736314788667
0.000716775184616
0.000684543943938
0.000632730957677
0.000555943805371
0.000447894244209
0.000294737331014
0.000109873902358
0.000111693071043
0.000311875523809
0.000483849552365
0.000606345721141
0.000685643022709
0.000734023226202
0.00075878165442
0.000764161460421
0.000758083876505
0.000747273834886
0.000735700705707
0.00072411137264
0.000710570032212
0.000690684247429
0.000658776882269
0.000609100046137
0.000538280542283
0.00043445875147
0.000287242439472
0.000108241468466
0.000108403215826
0.000293529599149
0.000450921629085
0.000563014589198
0.000635992626837
0.000677403704685
0.000698303140721
0.000704984706762
0.000701571080657
0.000693469665986
0.000683971545516
0.000673715593042
0.000661093406942
0.000642417041284
0.00061340937415
0.000570812147973
0.000505357142597
0.000408885835448
0.00027206653733
0.00010531648026
0.000102333343758
0.000263449892945
0.00039907628911
0.000495515209461
0.000558639183913
0.000594741332538
0.000610942391649
0.00061418680933
0.000611285266297
0.000605645957198
0.000598632186397
0.000590690947582
0.000581378513516
0.000567846625938
0.000545167247747
0.000508076869421
0.000450650601088
0.000366198746674
0.000246210656557
9.9920721959e-05
9.25609350966e-05
0.000218391286742
0.000323370184455
0.000397633494292
0.000446091817956
0.000473809457316
0.000486317164477
0.000488891540293
0.000486244374731
0.000481824119728
0.00047745853606
0.000473218840094
0.000467617196901
0.000458006807275
0.000440870003719
0.00041215917258
0.000367275856943
0.000300963146269
0.000206389200699
9.07743085762e-05
7.82262802116e-05
0.000154836828906
0.000218152286633
0.000262424569407
0.000290960808844
0.000306770265328
0.000313598552847
0.000314723220117
0.000313039613984
0.00031066886415
0.000308711933461
0.000307197370005
0.000305049155158
0.000300420585202
0.000291026939442
0.000274332387298
0.000247270626409
0.000206739195072
0.000148531695526
7.70931393225e-05
6.18728815057e-05
7.82994035629e-05
9.28126252192e-05
0.000102533053969
0.000108192441662
0.000111145419244
0.000112238068004
0.000112472926227
0.000112291282249
0.000111892875956
0.000111559649506
0.00011143058807
0.000111260147262
0.000110562324066
0.000108892624481
0.000105515935899
9.97782632874e-05
9.05320962747e-05
7.69136250786e-05
6.14377123209e-05
7.73201552848e-05
0.000146926926477
0.000208099340338
0.000253470636696
0.000284636591519
0.000304022254226
0.000314324622123
0.000318089036753
0.000317881263816
0.000316085492348
0.000313983869452
0.000311783244391
0.000308458332749
0.000301992692397
0.000290374584702
0.000271449472531
0.000242656397774
0.000201159615862
0.000144157193314
7.68650818071e-05
0.000146983035448
0.000192228865228
0.000248851337011
0.000294369270609
0.000327028878215
0.000348025346516
0.000359618953059
0.000364382014771
0.000364826303122
0.000362987637608
0.000360074502979
0.000356288000643
0.000350883088742
0.000342351361768
0.000328770537145
0.000308035167719
0.000278029216835
0.000237090857216
0.00018573142929
0.000143968806498
0.000208244226155
0.000249156582633
0.000316025703712
0.000371995944821
0.000413088231238
0.000439910030655
0.000454826027513
0.00046087074384
0.000461096096813
0.000457985786116
0.000453097665459
0.000446813197554
0.000438423510586
0.000426280062252
0.00040812108619
0.000381527852067
0.000344297105541
0.000295190158373
0.000236450805897
0.000200810467311
0.000253975338391
0.000295292651255
0.000372757832331
0.000438620037031
0.000487361318218
0.000519276531749
0.000536969816479
0.000543894361865
0.000543706903051
0.000539158862758
0.000532061832707
0.000523088958955
0.000511753943922
0.000496342849759
0.000474190969273
0.000442550127353
0.000398984166253
0.000342377107106
0.000275998233104
0.000241629184757
0.000285866258172
0.000328942476217
0.000415158078821
0.000488853831312
0.0005434336815
0.00057918044845
0.000599261232766
0.000606822673231
0.000605512531692
0.000599011867773
0.000589829221113
0.000578807916693
0.000565201237425
0.000546920926803
0.000521496294935
0.000486218748192
0.000438130533504
0.00037596238376
0.000303581474784
0.000268875198106
0.000306318138765
0.000351300110673
0.00044383528913
0.0005230044348
0.000581595242324
0.000620434647168
0.000641365577092
0.000647694539484
0.000644217853263
0.000635475590252
0.000624514701857
0.000612321058269
0.000597929114545
0.000578770026644
0.000551642874997
0.000513688647313
0.000462801808261
0.000397179044176
0.000320853653359
0.000285380973261
0.000317967042791
0.000364563583339
0.000461090903183
0.000543598963279
0.000604843651056
0.000644905444414
0.000664745905477
0.000668723729519
0.000662598726209
0.000651653587715
0.000639355647758
0.000626762706124
0.000612685544077
0.000594095754445
0.000567202458647
0.000528541400836
0.000475985455389
0.000408641939655
0.000330210331396
0.000293902302577
0.000323427409276
0.000371239849004
0.000469868588435
0.000553982749811
0.000616609565957
0.00065604144902
0.00067383850678
0.000675141152005
0.000666472987507
0.000653697248251
0.000640566385008
0.000628132052249
0.000614980452569
0.000597710042839
0.000572087870118
0.000534176627376
0.000481349083068
0.000413396547739
0.000334163752976
0.000296761661704
0.000325033626211
0.000373738586347
0.000473124599454
0.000557630092545
0.000620303846079
0.000658418138656
0.000674132870069
0.000673161904316
0.000662561499537
0.000648567087623
0.000635072833275
0.000623069816904
0.00061095108255
0.000595071218254
0.000570927649286
0.000534286476414
0.000482200908993
0.000414295490739
0.000335054542897
0.00029681759075
0.000324859580086
0.00037399007609
0.000473215938635
0.000557354227357
0.000619300149344
0.000656153832349
0.000670394165857
0.000668047662789
0.000656428790808
0.000641912362227
0.000628412022351
0.000616849470954
0.000605494839074
0.000590601665922
0.000567569376911
0.0005320385892
0.000480886933128
0.000413526889803
0.000334631801516
0.000295922315545
0.000324327489447
0.000373095257556
0.000471478046551
0.000554650086872
0.00061565049902
0.00065172022707
0.00066541762438
0.00066280413287
0.000651165814305
0.000636800288891
0.000623538911373
0.000612253626257
0.000601202668244
0.000586681878511
0.000564139291654
0.000529237118611
0.000478812199441
0.000412155894391
0.00033382873397
0.000295110045847
0.000323485004404
0.000371097524498
0.000468028627152
0.000549751483458
0.000609658387
0.000645462929538
0.000659544840128
0.000657722369684
0.000646983763244
0.000633362966496
0.000620532088414
0.000609334859479
0.000598129644393
0.000583390484741
0.00056074044999
0.000525989915541
0.000476052834864
0.000410198609643
0.00033266406355
0.000294526859454
0.00032091075149
0.000366991263812
0.000461785833101
0.000541591715195
0.000599893938334
0.000635635020093
0.000650728267851
0.000650489033891
0.000641374709152
0.000628994856411
0.000616806111641
0.000605648681654
0.000594042252578
0.000578743866325
0.000555659343885
0.000520857473901
0.000471435072346
0.000406667835259
0.000330253397666
0.000293190132008
0.000314683208106
0.000359021456762
0.000450700428914
0.000527807131534
0.000583663264117
0.000618978789879
0.000635196411295
0.000636923292671
0.000629896015037
0.00061916559869
0.0006079062521
0.000596952542842
0.000585009772169
0.000569193507143
0.000545788833476
0.000511224233973
0.00046289281346
0.000399746289495
0.000325001686016
0.000289233461599
0.000302623349069
0.000345014225379
0.000432175397255
0.000505416587363
0.000558199696504
0.000591797602282
0.000608566841817
0.000612128845233
0.000607324434035
0.000598530667818
0.000588557759053
0.000578195782613
0.000566339239035
0.000550497221741
0.000527413696876
0.000493939382156
0.000447723361741
0.000386972852291
0.000314854088386
0.000280375178108
0.000282289804134
0.000322684804529
0.000403570605383
0.000471439020017
0.000520366942236
0.000551085492137
0.000567104606975
0.000571809964134
0.000568987773789
0.000562236800151
0.000553908780417
0.000544688767245
0.000533663034781
0.000518716581504
0.000497102124183
0.000466129349886
0.000422904176435
0.00036568581208
0.000297525313122
0.000263995532517
0.00025111628622
0.000289928977314
0.000362685980952
0.000423440018484
0.000467267934495
0.000494848970141
0.000509070548275
0.000513639636062
0.000512144887041
0.0005073126722
0.000500899017768
0.000493422244162
0.00048417546258
0.000471366105678
0.000452522110635
0.000424803497386
0.000385608234764
0.000333404291196
0.000270753085542
0.000237574693705
0.000206538572099
0.00024539368183
0.000308660042774
0.000360738615746
0.000398117408211
0.000421696048477
0.000434039824043
0.000438312267375
0.000437580448474
0.000434279727716
0.000429858377103
0.000424603132134
0.000417706864203
0.000407522789833
0.000391846328768
0.000368224040169
0.000334319012459
0.000288573027524
0.000232693123576
0.000198185636111
0.000146418162426
0.000190301891393
0.0002446762792
0.000287747577194
0.000318083991648
0.000337071199647
0.000347100800251
0.000350815634125
0.000350737316049
0.000348829476238
0.000346197904916
0.000342978627119
0.000338382723769
0.00033095802038
0.000318807019455
0.000299833524975
0.000271865680678
0.000233069883437
0.000183615895979
0.000142805003011
7.71720121343e-05
0.000146191223678
0.000206098554884
0.000249947347356
0.00027958578464
0.000297617732815
0.000306864758963
0.000309842571734
0.000309338348363
0.000307528031775
0.000305512691472
0.000303405468258
0.000300292475382
0.000294443076435
0.000283634856521
0.000265764700596
0.000238350444052
0.000198447920185
0.000142911169854
7.61481400317e-05
9.22605592486e-05
0.000212683053986
0.00032304608834
0.000407583663699
0.000467192209148
0.000505033204717
0.000525371146243
0.000532995316574
0.00053256221693
0.000527864331734
0.000521219481941
0.000513151429906
0.000502470718181
0.000486548852673
0.000462029141542
0.000425158131514
0.000372011068652
0.000298586384508
0.000201420253724
9.07229616976e-05
0.000212919118593
0.000260954599743
0.000336125739485
0.000399598825746
0.000446519786695
0.000477231595199
0.000494179448145
0.000500706232642
0.000500248291911
0.000495683502171
0.0004888211017
0.000480168753854
0.000468989027048
0.000453538276403
0.00043149443421
0.000400411761956
0.000358204073181
0.000303941179014
0.000240452732473
0.000201043012157
0.000323635508923
0.000336868543538
0.000411253021623
0.000478526941512
0.000529831603799
0.000564013846813
0.000582955623666
0.000589934381462
0.000588526829793
0.000581943187348
0.000572325831086
0.000560438835874
0.000545653410443
0.000526278912404
0.000500047277587
0.000464653538972
0.000418568665033
0.00036227334378
0.000302212717579
0.000297421511145
0.000409123536674
0.000401607201936
0.000479921778635
0.000553230694563
0.000609802681825
0.00064753637981
0.000668061607269
0.000674965628326
0.000671902629817
0.000662683209697
0.000649969225623
0.000634841305169
0.000616722043054
0.000593797164356
0.00056388041478
0.00052439909009
0.000473988308573
0.000413849470621
0.000352741008466
0.000368265110958
0.000470474162071
0.000450383829164
0.000533313339513
0.000612017325206
0.00067273194352
0.000712808134505
0.000733767435189
0.000738727764994
0.00073250539667
0.000719851113111
0.000704072259596
0.000686540435172
0.000666568481495
0.000642008383292
0.000610005545213
0.000567922060725
0.00051463073593
0.000451499186213
0.000388657873753
0.000416185511938
0.00051084884148
0.000483542143013
0.000570277391523
0.000652792929456
0.000715942469764
0.000756831654723
0.000775813125663
0.000776809398035
0.000766025523468
0.000749361145339
0.00073076018134
0.000711817132186
0.000691610021428
0.000667485136026
0.000635959266355
0.000593746135476
0.000539336016858
0.000474825067449
0.000410951107567
0.000445171049735
0.000534422056424
0.000503486048096
0.000592686287315
0.000677219492866
0.000741272094986
0.000780643265314
0.000795643696505
0.000791218552906
0.0007751679671
0.000754477094835
0.000733618849925
0.000714264681597
0.000695205977202
0.000673181279348
0.00064409117403
0.00060395281897
0.000550613925904
0.000486214000146
0.000422351850859
0.000459836780485
0.000545858342403
0.00051350385771
0.000603808870749
0.000688775482641
0.000752009442336
0.00078842842243
0.000798557729521
0.000788594009617
0.000767672471736
0.000743642912519
0.000721317406533
0.000702307476999
0.00068511292954
0.000665941773831
0.000640128013206
0.000603164985401
0.000552256087441
0.000489264314976
0.000426270190372
0.000464949841756
0.000549634689947
0.000516948774777
0.000607228580633
0.000691625341522
0.000752900505393
0.000786012567592
0.000791824240944
0.000777460207886
0.000752983166254
0.000726770279203
0.000703767555245
0.000685436658313
0.000670032734442
0.00065344841444
0.000630653829507
0.000596773916883
0.0005486160518
0.000487794026217
0.000426012149904
0.000464863064457
0.000549352566203
0.000516566442008
0.00060596705139
0.000689047720212
0.000748311055103
0.000778836567752
0.000781807436762
0.000764884683336
0.000738580705957
0.000711447553293
0.000688394286864
0.000670720094186
0.000656530770803
0.000641620303965
0.00062084905166
0.000589199512357
0.000543280842878
0.000484455950614
0.000424068062046
0.000462798401754
0.000547081742075
0.000513946182482
0.000601871882419
0.000683311449814
0.000741010671303
0.000770190982195
0.000772181304045
0.000754743404171
0.000728358853444
0.000701444769539
0.0006787662708
0.000661518297004
0.000647784350064
0.000633437059384
0.00061344329428
0.000582860921171
0.000538284589271
0.000480922250686
0.000421801646159
0.000460534812842
0.000542979927651
0.000509247981462
0.00059522439322
0.000674834305314
0.000731528257906
0.000760646896697
0.000763470446723
0.000747426807787
0.000722521561519
0.000696784545082
0.000674781484323
0.000657691138777
0.000643703832021
0.000628917294409
0.000608568501902
0.000577961405178
0.000533835848209
0.000477355773323
0.000419296306494
0.000458298103623
0.000535293426496
0.000501232296254
0.000584782490161
0.000662285217956
0.000718214062849
0.000748159077091
0.00075324856766
0.000740174758902
0.000718059635024
0.000694330193055
0.00067331871006
0.00065625867656
0.000641547367047
0.000625639660353
0.000604159464881
0.000572768351933
0.000528491604584
0.000472517232296
0.000415414926913
0.000454562974689
0.000520879330056
0.000487608235983
0.000568203277744
0.000643266928123
0.000697966341597
0.000728855382919
0.000736963541087
0.000727894267089
0.000709550668301
0.000688569890158
0.000668985830041
0.000652109718079
0.00063660471536
0.000619387596296
0.000596535384082
0.000564115690027
0.00051961655171
0.000464161288603
0.000408096169039
0.000446431997296
0.000495819184924
0.000465552572311
0.000542595656217
0.000614522920578
0.000667256871079
0.000698548651507
0.000709472382631
0.000704630857723
0.000690504889891
0.00067281606169
0.000655209133294
0.00063899568776
0.000623146334242
0.000605013024381
0.000581159525997
0.000548142512444
0.000503938536248
0.00044961472741
0.000394686563739
0.000430180607495
0.000455916566713
0.000432240285938
0.000505246080034
0.000573235622389
0.000623468717191
0.000653982278513
0.000666722169499
0.000665473083869
0.000655368155226
0.000641179480407
0.00062607377967
0.000611244522011
0.000595902652281
0.000577784043808
0.000553926596613
0.000521407466727
0.000478486410913
0.000425977430984
0.000372353131749
0.000401643670534
0.000397113280602
0.000385465465252
0.000454483806392
0.000517913175965
0.000564919599421
0.000593949364767
0.000607102477559
0.00060834708462
0.000601601366509
0.000590805320612
0.000578577740895
0.000565892394082
0.000552098258936
0.000535224649443
0.000512643939156
0.000481980706261
0.000441354788935
0.000391123206061
0.000338570040264
0.000356429301961
0.000315774959826
0.000324618324322
0.000391104164223
0.000450121838204
0.000493541278461
0.000520634741852
0.000533628244225
0.00053608548797
0.000531794342999
0.000524029675599
0.000514828152492
0.000504846618326
0.00049349212502
0.000478966722779
0.000458907527067
0.00043087025121
0.000392930366618
0.000344846059522
0.000291899603048
0.000289973282663
0.000209606442048
0.000253596297188
0.000322779192204
0.000380025265287
0.000421062129323
0.000446571547146
0.000459246906908
0.000462615057551
0.000460212089377
0.000454904883561
0.000448426758987
0.00044121761849
0.000432489553903
0.000420483213256
0.000402884044454
0.000377144430138
0.000340908172253
0.000292715117502
0.000234556035703
0.00019804179888
9.17718210388e-05
0.000209098667497
0.000314406151798
0.000393283579529
0.000447334174418
0.00048020316034
0.00049651270802
0.000501266876829
0.000499172124894
0.000493895219332
0.00048758034845
0.000480669582791
0.000471939487199
0.000458896707702
0.000438207016538
0.000406095656376
0.000358434628519
0.000290698311116
0.000198337820874
8.94715427676e-05
0.000108087315467
0.000290392414018
0.00045964091327
0.000590674628387
0.000683847789991
0.000743003266325
0.000774106555065
0.000784394355488
0.000781136424579
0.000770269543443
0.00075549219944
0.000737928215555
0.000716232577504
0.000686943446107
0.000645329500041
0.000586253569699
0.000504748076078
0.000396217964038
0.000257069423643
0.000103058758082
0.000291073031994
0.000354026350112
0.000459470681707
0.000550023501684
0.000617792593624
0.000662431257182
0.00068683374858
0.000695436598369
0.000693047363162
0.000683775256098
0.000670315030668
0.000653653265155
0.000633057100654
0.000606349287006
0.000570674907758
0.000523134146822
0.00046166885973
0.000386216280037
0.000302041886028
0.000256359788002
0.000461227779804
0.000460882965355
0.000558193916292
0.000649055452972
0.000719704286454
0.000767376319655
0.000793734427793
0.000802651218322
0.000798894317447
0.000786901777807
0.000769766238591
0.000748823458514
0.000723519122724
0.000691760570885
0.000650875588024
0.000598422292958
0.000533307910225
0.00045767024835
0.000382140530573
0.000393103271774
0.000594188009363
0.000553521825006
0.000651147476649
0.000746836546713
0.000822386017169
0.000873469913136
0.000900982619878
0.0009084757075
0.000901147258772
0.000884643605987
0.000862833988364
0.000837528673515
0.000808112164904
0.000772257570304
0.000727381722508
0.000670724337827
0.000601346779283
0.000522609077238
0.000448695670427
0.000494430523995
0.000690556712789
0.000624085320077
0.000724505315123
0.000825060208973
0.00090459347729
0.000957594003981
0.00098286050641
0.000984400921661
0.000969942706491
0.000946771376353
0.000919719718692
0.000891088750543
0.00086003094652
0.000823646143893
0.000778394639599
0.000720670071589
0.000649686064327
0.000569083048262
0.000495364585864
0.000562158823432
0.000754148178011
0.000672227598907
0.000775523011232
0.00087948992521
0.000961275058904
0.00101199772407
0.00102980925054
0.00102106541871
0.000996376478563
0.000964974463186
0.000932768934205
0.000902393498816
0.000872637115851
0.000839515890262
0.000798153516737
0.000744145417318
0.000675141414165
0.000595222132979
0.000522436375606
0.000600986275867
0.000790834984379
0.000700861889116
0.000805982982221
0.000911404713616
0.000992329103649
0.00103637775245
0.00104293370906
0.00102109176523
0.000984696108245
0.000944931417708
0.000908623457907
0.000878372825021
0.000852370252353
0.000825400325703
0.000791094765521
0.000743810808571
0.000680651316899
0.000603977002938
0.000533470927416
0.000617603618413
0.000807756618609
0.000714494458903
0.000820028565295
0.000924929328915
0.00100185235372
0.00103717441494
0.00103146656634
0.000996625460608
0.000949589221828
0.000903059774605
0.000864219953476
0.000835310408137
0.000813940696586
0.000793869724288
0.000767523245462
0.000728162219622
0.000672133926674
0.000600945458045
0.000533672273765
0.000619733930763
0.00081202683452
0.000717972773207
0.000822585869122
0.000925269081422
0.000997133107419
0.00102435665489
0.00100844994481
0.000963665941886
0.00090917268865
0.000858439162728
0.000818524604722
0.000791150429879
0.000773481226011
0.000758864056237
0.000739071440015
0.000706683766594
0.000657298113499
0.00059177231177
0.000528296008579
0.000614605011714
0.00080938530151
0.000715394806556
0.000818126049359
0.00091787858978
0.000985381327663
0.00100686560075
0.000984601930944
0.000934279839993
0.000876150891544
0.000823782505102
0.000783884195542
0.000757696415852
0.000742127679399
0.000730544539254
0.00071465815914
0.000686849484775
0.00064229262933
0.000581366643728
0.000521459113094
0.000607585705811
0.000803128285503
0.000709216165017
0.000809474267844
0.000906385474965
0.000971039762257
0.00098992657257
0.000965696563578
0.000914365656648
0.000856142074282
0.000804239598229
0.000765009424397
0.000739441197728
0.00072439412481
0.000713457576076
0.00069867181038
0.000672650362077
0.000630563091818
0.00057258459228
0.000515464638638
0.000601593851238
0.000793707532829
0.000699846753096
0.00079723815154
0.000891614219411
0.000955085350634
0.00097453216959
0.000952538432534
0.000904316391044
0.000848999889048
0.000799170979267
0.000760959731336
0.000735402559978
0.000719523259371
0.000707243970065
0.000691163097116
0.000664432549982
0.000622578966912
0.000565847214878
0.000510544480789
0.000596914239196
0.000778745211724
0.000685694559209
0.000779854878315
0.000871591026982
0.000935076189055
0.000957689044694
0.000941561681584
0.000900060275573
0.00085026542155
0.00080387775207
0.000766987833947
0.000740938066569
0.000723136017122
0.00070799410839
0.000688850284987
0.000659573359648
0.000616253306356
0.000559400029381
0.000505105023191
0.000591342196228
0.000753652077146
0.000663653473017
0.000754215890512
0.000842833683293
0.000906271295269
0.000933496867689
0.000925634339956
0.000893507113953
0.000851448685031
0.000809971060522
0.000774986956061
0.000748345882668
0.000728008166628
0.000709168493915
0.000686049851353
0.000653336613266
0.000607629989061
0.000549902972931
0.000496146840548
0.000580652314835
0.00071263263717
0.00062994066484
0.000716714812287
0.000801814624528
0.000863917094938
0.000895333154805
0.000896036391009
0.000874118690865
0.000840996144089
0.000805706903519
0.000773734772994
0.000747210350945
0.000724766456207
0.000702520791376
0.000675690758221
0.000639746941915
0.000591684502214
0.000533254174328
0.000479874303858
0.000559290283533
0.000649615233904
0.000580904365589
0.000664144440393
0.000745394760058
0.000805102951684
0.000838634999704
0.000846139808426
0.00083332508281
0.000808918518098
0.000780392908121
0.000752566036384
0.000727565027093
0.00070448173805
0.000680317511906
0.00065118808911
0.000613155491271
0.00056387880303
0.000505891006588
0.000452425858257
0.000521101937352
0.000559053113774
0.000513989965865
0.000595010693175
0.000672471196374
0.00072964526854
0.000763046864953
0.000774571219648
0.00076847985067
0.000751391854078
0.000729306286397
0.00070628015302
0.000684158984708
0.000662324747341
0.000638383593136
0.000609020059064
0.000570807797337
0.000522376704996
0.000465309210721
0.00041065666622
0.000459916896158
0.00043631733638
0.000429112478572
0.000511423453072
0.000586338106163
0.000641226190396
0.000673990196894
0.000687000474313
0.000684854722928
0.000673157789279
0.000656655769746
0.000638532914533
0.000620252428055
0.000601237469746
0.000579500186716
0.000552042983844
0.000515846120445
0.000469012344245
0.000412137143064
0.000353311911038
0.000369819898885
0.000278688023738
0.000332637627271
0.000425216900904
0.000502556488896
0.000557600022874
0.000590501731408
0.000604641556603
0.000604959242744
0.000596711767213
0.000584256668803
0.000570401658423
0.000556159983203
0.000540775074567
0.000522088822586
0.000497046040006
0.000462436563806
0.00041551358906
0.000354985027627
0.000284235154066
0.000245709909058
0.000106244966311
0.000277637325157
0.00043291732671
0.000549459481495
0.0006286333779
0.000675091016297
0.000695499945138
0.000697641776002
0.000689069432055
0.00067571770077
0.000661162506966
0.000646396655857
0.000629985129605
0.000608538008194
0.000577409220811
0.000531290482277
0.000464611966831
0.000371548061741
0.00024636950643
0.000100467559943
0.000131199486615
0.000404712553987
0.00065491727427
0.00084931469168
0.000989203881666
0.00107919222181
0.00112702964738
0.00114276786194
0.00113674286407
0.00111749334133
0.00109057032984
0.00105801009463
0.00101836223862
0.000967067492521
0.000897805566869
0.000804139637275
0.000680611965624
0.000522884846344
0.000327703937642
0.00011702919504
0.00040630210699
0.000491903610382
0.000641397394097
0.000772064355238
0.000872086200038
0.00093998132251
0.000978817102196
0.000994065977376
0.000992017046093
0.000978155962014