/*--------------------------------*- C++ -*----------------------------------*\
| =========                 |                                                 |
| \\      /  F ield         | OpenFOAM: The Open Source CFD Toolbox           |
|  \\    /   O peration     | Version:  3.0.1                                 |
|   \\  /    A nd           | Web:      www.OpenFOAM.org                      |
|    \\/     M anipulation  |                                                 |
\*---------------------------------------------------------------------------*/
FoamFile
{
    version     2.0;
    format      ascii;
    class       volScalarField;
    location    "7.9";
    object      p;
}
// * * * * * * * * * * * * * * * * * * * * * * * * * * * * * * * * * * * * * //

dimensions      [1 -1 -2 0 0 0 0];

internalField   nonuniform List<scalar> 
7968
(
4701.92413245
4701.93271465
4701.94126833
4701.95254635
4701.96553548
4701.98096409
4701.99916659
4702.01959378
4702.04217556
4702.06592249
4702.09017081
4702.11434473
4702.13782434
4702.16036643
4702.18138821
4702.20031649
4702.21627181
4702.22811686
4702.23634614
4702.23870193
4701.93227755
4701.94510825
4701.95588269
4701.96891818
4701.98273798
4701.99814801
4702.01586997
4702.0360544
4702.05831715
4702.08184123
4702.1059564
4702.13001522
4702.15352937
4702.17611619
4702.19725759
4702.21603844
4702.23138209
4702.24166876
4702.24793083
4702.246901
4701.94257466
4701.95795774
4701.97044794
4701.98451586
4701.99804742
4702.01257268
4702.02909796
4702.04806335
4702.06928736
4702.09203909
4702.1158104
4702.13988706
4702.16383345
4702.18706156
4702.20883397
4702.22805373
4702.2433503
4702.25275559
4702.2578082
4702.25528597
4701.95728124
4701.974654
4701.98831317
4702.00268052
4702.01553138
4702.02876136
4702.04379603
4702.06139991
4702.08163234
4702.10322778
4702.1264781
4702.15041041
4702.17469648
4702.19846419
4702.22093467
4702.24082033
4702.25647996
4702.26566624
4702.27002372
4702.26646117
4701.97531274
4701.99343883
4702.00715375
4702.02095437
4702.03276544
4702.04459137
4702.05812828
4702.07420341
4702.09297093
4702.11390703
4702.13661788
4702.16034337
4702.18469994
4702.20886378
4702.23190677
4702.25245995
4702.26874011
4702.27845058
4702.28312115
4702.27946619
4701.99691545
4702.01522042
4702.02827825
4702.04096376
4702.05145476
4702.06176486
4702.07369496
4702.08829683
4702.10580237
4702.12583381
4702.14790843
4702.17131133
4702.19563801
4702.22006066
4702.24361699
4702.26489505
4702.2819237
4702.29255752
4702.29808318
4702.29486025
4702.02210676
4702.04020616
4702.05227198
4702.06365051
4702.07279798
4702.08157651
4702.09201056
4702.10533285
4702.12174904
4702.14089057
4702.16227191
4702.18520438
4702.20931042
4702.23376899
4702.2576609
4702.27949122
4702.2973085
4702.30897366
4702.31555903
4702.31291747
4702.05012827
4702.06812493
4702.07918805
4702.08933203
4702.09720644
4702.10466121
4702.11388279
4702.12617988
4702.14170767
4702.16005133
4702.18069479
4702.20296219
4702.22664751
4702.25090683
4702.27486238
4702.29703454
4702.31542274
4702.32801174
4702.33556712
4702.33336326
4702.07973676
4702.0982181
4702.10853148
4702.11774237
4702.12450734
4702.13088648
4702.1391359
4702.15061068
4702.1655502
4702.18330894
4702.20316772
4702.22450044
4702.24747737
4702.27139584
4702.29522995
4702.31750181
4702.33623836
4702.34949195
4702.35773839
4702.35590552
4702.11175
4702.12974296
4702.13943018
4702.1479714
4702.15399434
4702.15960663
4702.16712285
4702.17793134
4702.19237281
4702.20948698
4702.22859045
4702.24913145
4702.27135071
4702.29472212
4702.31825164
4702.34035915
4702.35910622
4702.37255735
4702.38129518
4702.37976025
4702.14360869
4702.16146307
4702.17092795
4702.17917687
4702.1848241
4702.1900104
4702.19703876
4702.20728883
4702.2210982
4702.23754146
4702.25599459
4702.27586834
4702.29750284
4702.32031246
4702.3433321
4702.36500812
4702.38344685
4702.39674779
4702.4055441
4702.40423651
4702.17476895
4702.19253128
4702.20216359
4702.21050923
4702.2161621
4702.22127311
4702.22807243
4702.23789244
4702.25099112
4702.26681996
4702.28482724
4702.30398633
4702.32527208
4702.34753759
4702.36982988
4702.39080592
4702.40864062
4702.42146354
4702.42981904
4702.428698
4702.20460457
4702.22232224
4702.23243108
4702.24116301
4702.24721522
4702.25258113
4702.25942608
4702.26904061
4702.28161158
4702.29684333
4702.31429426
4702.33341888
4702.35414785
4702.37563945
4702.39706515
4702.41713851
4702.43409647
4702.44609301
4702.45375136
4702.4527293
4702.23252618
4702.25029795
4702.26109499
4702.27051753
4702.27716341
4702.28307317
4702.29024971
4702.2999303
4702.31237913
4702.32730656
4702.34436956
4702.36313015
4702.38318082
4702.40383452
4702.42428443
4702.44328488
4702.45918599
4702.4700908
4702.47689609
4702.47593046
4702.25800642
4702.27581823
4702.28730286
4702.29754576
4702.30495731
4702.31163218
4702.31946574
4702.32952594
4702.34213193
4702.35700667
4702.3738004
4702.39206928
4702.41139785
4702.43114953
4702.45051885
4702.46832553
4702.48308349
4702.49283065
4702.49867992
4702.49777126
4702.28047255
4702.29795841
4702.30985268
4702.32081297
4702.32904399
4702.33663968
4702.34532033
4702.35605303
4702.36907463
4702.38409975
4702.40075475
4702.41860413
4702.43720956
4702.45603644
4702.47427742
4702.49094149
4702.50454453
4702.51325089
4702.51829721
4702.51725067
4702.29896559
4702.31558271
4702.32726792
4702.33852445
4702.34743823
4702.35596513
4702.36563471
4702.3772472
4702.39085602
4702.40623098
4702.4229052
4702.44045513
4702.4584491
4702.47646604
4702.49371355
4702.50929461
4702.52196962
4702.52994267
4702.53455445
4702.53372897
4702.31248542
4702.32710041
4702.33757388
4702.34840761
4702.35778173
4702.36730874
4702.37814721
4702.39083104
4702.40536929
4702.42131463
4702.43816854
4702.45553168
4702.47292921
4702.49017704
4702.50655819
4702.5212723
4702.53335316
4702.54118479
4702.54606395
4702.54594927
4702.32146844
4702.33362774
4702.34242565
4702.3522637
4702.36181338
4702.37211335
4702.384036
4702.39783804
4702.41329856
4702.42982061
4702.44690895
4702.46420732
4702.48122673
4702.49787437
4702.51358987
4702.52773854
4702.53966603
4702.54787507
4702.55336515
4702.55407099
4702.32365548
4702.33144903
4702.33823093
4702.34659458
4702.35571918
4702.36633011
4702.37881887
4702.39319192
4702.409101
4702.42602772
4702.44348547
4702.46112991
4702.47855712
4702.49548309
4702.51129558
4702.52584163
4702.53809021
4702.54730139
4702.55380385
4702.5562807
4206.50205963
4206.50848837
4206.51549205
4206.52615763
4206.54003529
4206.55711042
4206.57706557
4206.59964202
4206.62375115
4206.64864644
4206.67360015
4206.69802141
4206.7213303
4206.74328539
4206.76390093
4206.78261002
4206.79899169
4206.81239578
4206.8227781
4206.82749174
4206.50772895
4206.5180893
4206.52555247
4206.53789264
4206.55429854
4206.57421257
4206.59672948
4206.62126005
4206.64675517
4206.67223583
4206.69701873
4206.72057804
4206.74249351
4206.76264395
4206.78103446
4206.79735389
4206.81150868
4206.82317317
4206.83298601
4206.83458054
4206.51608429
4206.52722567
4206.53333953
4206.54601539
4206.56363064
4206.58491267
4206.60858469
4206.63386791
4206.65974683
4206.68525048
4206.70965353
4206.73248848
4206.7534468
4206.77252659
4206.78966265
4206.80469855
4206.81777578
4206.82910907
4206.84035514
4206.84198136
4206.52973615
4206.54284568
4206.54939234
4206.56332265
4206.5824826
4206.60501388
4206.62943127
4206.65490126
4206.68065858
4206.70596178
4206.72973276
4206.75168729
4206.77145664
4206.78966288
4206.80558393
4206.81924134
4206.83087555
4206.84116239
4206.85232295
4206.85296217
4206.54816289
4206.56390731
4206.57168154
4206.58715985
4206.60797066
4206.63176629
4206.65696396
4206.68268061
4206.70811911
4206.73255573
4206.75550015
4206.77662002
4206.79564788
4206.81248255
4206.82678917
4206.83894988
4206.84896481
4206.85786348
4206.86808187
4206.86699219
4206.57111258
4206.58971883
4206.59883043
4206.61558452
4206.63772265
4206.66245657
4206.68795688
4206.71360951
4206.73858799
4206.76225887
4206.78433928
4206.80456935
4206.8226623
4206.8383855
4206.85163276
4206.86217064
4206.87070371
4206.87834569
4206.88733853
4206.88417408
4206.59795042
4206.61914431
4206.62941195
4206.64698522
4206.6699357
4206.69506436
4206.72055324
4206.74590903
4206.77029798
4206.79313875
4206.81434077
4206.83373254
4206.85097684
4206.86578085
4206.87806086
4206.8876372
4206.89484423
4206.90154012
4206.90935859
4206.90418575
4206.62801848
4206.65126769
4206.66234024
4206.68023158
4206.70356138
4206.72875845
4206.7540149
4206.77892766
4206.80252951
4206.82436334
4206.84465449
4206.86331922
4206.87989801
4206.89396995
4206.90550309
4206.9143516
4206.92102532
4206.92670883
4206.93355426
4206.92676281
4206.66055907
4206.68478921
4206.69625988
4206.71398457
4206.73746511
4206.76245686
4206.78726717
4206.81146553
4206.83376974
4206.85433268
4206.87366978
4206.89181043
4206.90822935
4206.92188145
4206.93297261
4206.94141239
4206.94769622
4206.95285155
4206.95898175
4206.9510738
4206.69294
4206.71822235
4206.72991564
4206.74757472
4206.77062605
4206.7951781
4206.81939929
4206.84277606
4206.86392278
4206.88348158
4206.90191122
4206.91934205
4206.9354412
4206.94891413
4206.95973606
4206.96796321
4206.9740535
4206.97903882
4206.98456899
4206.97625389
4206.72542118
4206.7506902
4206.76221711
4206.77952021
4206.80211587
4206.82613887
4206.84975533
4206.87244636
4206.89284242
4206.91162465
4206.9293114
4206.94607891
4206.96165971
4206.97478641
4206.9853495
4206.99342147
4206.99941606
4207.0043487
4207.00967931
4207.0015606
4206.7568079
4206.7813327
4206.792364
4206.80913066
4206.83117837
4206.85460326
4206.87763975
4206.89983838
4206.91995477
4206.93826506
4206.95543833
4206.97164642
4206.98656742
4206.99911517
4207.00940141
4207.01734177
4207.0232903
4207.02811675
4207.03379228
4207.02635626
4206.78653337
4206.80957173
4206.81983615
4206.83607918
4206.85719077
4206.8798715
4206.90229074
4206.92403278
4206.9441775
4206.9623993
4206.97923293
4206.99491415
4207.00902475
4207.02122597
4207.03136322
4207.03931087
4207.04536337
4207.05030838
4207.05652821
4207.05030939
4206.81417862
4206.83512553
4206.84433291
4206.85969154
4206.87972499
4206.90148546
4206.92320956
4206.94440028
4206.96429007
4206.98248352
4206.99918778
4207.01453879
4207.02839819
4207.04055451
4207.05080675
4207.05903113
4207.06536798
4207.07088128
4207.07768496
4207.07315345
4206.83944465
4206.85788629
4206.86577774
4206.87988409
4206.89847133
4206.91916102
4206.94010638
4206.96074257
4206.98035756
4206.99849999
4207.01519255
4207.03052388
4207.04445433
4207.05682374
4207.06749299
4207.0762672
4207.08320832
4207.08953418
4207.09710777
4207.09453426
4206.86180045
4206.87751976
4206.88398954
4206.89655498
4206.91342068
4206.93259303
4206.95262763
4206.97266725
4206.99209706
4207.01032029
4207.02720848
4207.04278206
4207.05702086
4207.06984189
4207.08119457
4207.09067201
4207.09880544
4207.1060152
4207.11443874
4207.11390276
4206.8808763
4206.89403337
4206.89921097
4206.91009939
4206.92508035
4206.9426347
4206.96144621
4206.98082997
4207.00025364
4207.01863881
4207.03584311
4207.05181544
4207.06643419
4207.07966098
4207.09196371
4207.10269692
4207.11199463
4207.12018025
4207.12927112
4207.13039505
4206.89615479
4206.90725417
4206.91185903
4206.92143222
4206.93475339
4206.95084925
4206.9686317
4206.98742574
4207.00646748
4207.02491718
4207.04243114
4207.05888124
4207.07414295
4207.0882377
4207.10121429
4207.11285511
4207.12313996
4207.13204338
4207.14115453
4207.14325346
4206.90759707
4206.91773332
4206.92351361
4206.93274815
4206.94485728
4206.95952874
4206.97605926
4206.99396085
4207.01251304
4207.03089708
4207.0486521
4207.06557418
4207.08149644
4207.0963788
4207.11018579
4207.1226485
4207.13359963
4207.14261136
4207.15043818
4207.15238098
4206.91264616
4206.91891411
4206.92429625
4206.93214265
4206.94204702
4206.9542163
4206.96846079
4206.98453749
4207.00203879
4207.02016559
4207.03836917
4207.05634309
4207.07377604
4207.09043575
4207.10636741
4207.12085404
4207.13351134
4207.14373082
4207.15159673
4207.15503197
3711.07660142
3711.08265417
3711.08908069
3711.09955376
3711.11397024
3711.1322277
3711.15386153
3711.17828702
3711.20440163
3711.23116136
3711.25774822
3711.2835188
3711.30792395
3711.33086007
3711.35226683
3711.37187857
3711.38938088
3711.40430285
3711.41623395
3711.42201392
3711.08144806
3711.09572415
3711.10494827
3711.118221
3711.13658072
3711.15893146
3711.18410738
3711.21102987
3711.2386595
3711.26607442
3711.29251292
3711.31736577
3711.34018629
3711.36082888
3711.37923389
3711.39535696
3711.4093359
3711.42122866
3711.43026341
3711.4293861
3711.08892594
3711.10661576
3711.11458945
3711.12683799
3711.14571007
3711.16949697
3711.1963305
3711.22476647
3711.25341122
3711.2811745
3711.3073066
3711.33130594
3711.35283566
3711.37188717
3711.38863753
3711.40334402
3711.41656201
3711.42889081
3711.43922471
3711.43652882
3711.10225847
3711.12320629
3711.13046224
3711.14221308
3711.1617726
3711.18673072
3711.21459194
3711.24368091
3711.27233825
3711.29985401
3711.32541026
3711.34859655
3711.36924888
3711.38675529
3711.40208591
3711.41546686
3711.42797667
3711.44070389
3711.45201732
3711.44753604
3711.12127323
3711.14640124
3711.15420868
3711.16665113
3711.18748084
3711.21364699
3711.1477354
3711.16455067
3711.24666242
3711.27967273
3711.31044567
3711.33861782
3711.43138287
3711.47998166
3711.42398867
3711.43546121
3711.44651143
3711.45851621
3711.46942394
3711.46210932
3711.14557066
3711.17489749
3711.18407918
3711.19763871
3711.21969377
3710.96956996
3710.66364397
3710.83100355
3711.08213356
3711.13404831
3711.1835707
3711.23043277
3711.51353443
3711.81280014
3711.65867622
3711.46118324
3711.47049861
3711.48114146
3711.49074304
3711.48028465
3711.17443178
3711.20724411
3711.21805673
3711.23255993
3711.15401511
3710.42321669
3710.1312936
3710.61732691
3711.0414807
3711.09258061
3711.14120803
3711.18719046
3711.64690713
3712.28290591
3712.18726165
3711.56635485
3711.49794115
3711.50701223
3711.51497578
3711.50175186
3711.20680724
3711.2420616
3711.25440345
3711.26952373
3711.04392856
3710.08421473
3709.9596639
3710.63371557
3711.14754044
3711.18168044
3711.21332065
3711.24241088
3711.78706556
3712.5983748
3712.63064748
3711.74065229
3711.52661642
3711.53471673
3711.54117232
3711.52593045
3711.24129745
3711.27802807
3711.29141591
3711.30702997
3711.0243966
3710.03772692
3709.96950582
3710.70674632
3711.24739494
3711.26970722
3711.2894758
3711.30677973
3711.87439457
3712.73626969
3712.79512656
3711.84044756
3711.55567149
3711.56310374
3711.56821863
3711.55186411
3711.27617407
3711.31369424
3711.32753119
3711.34300749
3711.05411209
3710.04697203
3709.97625145
3710.72667857
3711.27683783
3711.298166
3711.31698757
3711.33348025
3711.91164791
3712.79047993
3712.84985763
3711.87498522
3711.58390655
3711.59074768
3711.59522318
3711.57843346
3711.31055813
3711.3479863
3711.36166372
3711.37679228
3711.08129232
3710.05353507
3709.98025274
3710.74392673
3711.30364686
3711.32418893
3711.34226346
3711.35808594
3711.94691269
3712.84278133
3712.90272891
3711.90774252
3711.61054912
3711.6170952
3711.62141604
3711.60486496
3711.34349175
3711.38000284
3711.39293519
3711.40744697
3711.10510621
3710.05662744
3709.98074178
3710.75779339
3711.32721745
3711.34725868
3711.36484804
3711.38016723
3711.97973943
3712.89273639
3712.95329733
3711.93826154
3711.63512508
3711.64172322
3711.64625021
3711.63058952
3711.37438283
3711.40913255
3711.42079255
3711.43428827
3711.21329927
3710.22362473
3710.14122909
3710.89642276
3711.44477131
3711.45371823
3711.4602964
3711.464599
3712.03549873
3712.89610956
3712.8975928
3711.89697505
3711.65730312
3711.66426964
3711.66940777
3711.65525447
3711.40292938
3711.43507307
3711.44510227
3711.45742953
3711.4026717
3710.72799465
3710.57086908
3711.18192485
3711.63269545
3711.62601487
3711.616982
3711.60568446
3712.06062819
3712.70168264
3712.50788195
3711.76059038
3711.67703076
3711.68442816
3711.69074522
3711.67877264
3711.42897942
3711.4577163
3711.46598647
3711.47695225
3711.49534088
3711.29747455
3711.13779414
3711.44827242
3711.72224026
3711.71637748
3711.70824147
3711.6978906
3711.9547702
3712.20614295
3711.94361126
3711.68695021
3711.69442269
3711.70260586
3711.71010216
3711.70097155
3711.45223755
3711.47700816
3711.48375061
3711.4933569
3711.51015676
3711.53153676
3711.47336432
3711.53534746
3711.63626463
3711.65060056
3711.6628309
3711.67295412
3711.75409734
3711.77810254
3711.69190897
3711.7010216
3711.70957469
3711.71873693
3711.7272932
3711.72129032
3711.47245077
3711.49326308
3711.49913489
3711.50788085
3711.52313294
3711.5428663
3711.56476904
3711.5872215
3711.60894213
3711.62921761
3711.64766848
3711.66422288
3711.67900218
3711.69217289
3711.70337841
3711.71368613
3711.7233769
3711.73309817
3711.742081
3711.73887295
3711.48928845
3711.50672169
3711.51293583
3711.52194139
3711.53627403
3711.55454682
3711.5750652
3711.59650459
3711.61776241
3711.63790857
3711.65654906
3711.67350803
3711.68886219
3711.70267734
3711.71507602
3711.72624994
3711.73644136
3711.74588246
3711.75420524
3711.75285061
3711.50237827
3711.5163595
3711.52362166
3711.53349485
3711.54719367
3711.56391941
3711.58266951
3711.60256715
3711.62269789
3711.6424062
3711.66120523
3711.6788379
3711.6952046
3711.71021134
3711.72390243
3711.7361215
3711.74681767
3711.7558452
3711.76299271
3711.76291403
3711.50867667
3711.51488084
3711.51967039
3711.5271925
3711.53737071
3711.55034538
3711.56588109
3711.5835114
3711.60254613
3711.62211116
3711.64154395
3711.6605188
3711.67879923
3711.6962621
3711.71282479
3711.72811524
3711.74168303
3711.75296636
3711.76177108
3711.76565836
3215.63990451
3215.64459948
3215.65102043
3215.66208342
3215.67825867
3215.69908082
3215.72377198
3215.75134918
3215.78056703
3215.81019829
3215.83927773
3215.86704508
3215.89287527
3215.91689249
3215.93904971
3215.95933346
3215.97777578
3215.99416759
3216.00770398
3216.0155669
3215.64279065
3215.65816263
3215.66858301
3215.68280861
3215.70323808
3215.72854687
3215.75735383
3215.78816722
3215.81952452
3215.85019578
3215.87929807
3215.90615746
3215.93037441
3215.95178087
3215.97062805
3215.98707891
3216.00142071
3216.0139546
3216.02287986
3216.02236372
3215.64992357
3215.67020166
3215.68112804
3215.69464871
3215.71550547
3215.74181238
3215.77160445
3215.80320432
3215.83508608
3215.86592197
3215.89481915
3215.92115267
3215.94460346
3215.96508446
3215.98275043
3215.99809929
3216.01168264
3216.02415381
3216.03280699
3216.02957928
3215.66383499
3215.68783265
3215.69852764
3215.71108971
3215.73181074
3215.58876943
3215.3645223
3215.46640063
3215.62643841
3215.68159923
3215.73467496
3215.7851106
3215.98315752
3216.21857634
3216.12101391
3216.01014364
3216.0236145
3216.03699676
3216.04652941
3216.04112042
3215.68488138
3215.71330638
3215.72467204
3215.73711661
3215.35570347
3214.52066693
3214.27810238
3214.79045457
3215.21091742
3215.30140895
3215.38980058
3215.47561005
3215.95265071
3216.7112226
3216.86094146
3216.3324103
3216.0431402
3216.05648538
3216.06581977
3216.05710849
3215.71225624
3215.74510391
3215.75752098
3215.58844507
3214.21777254
3213.31931191
3213.67526605
3214.5224649
3215.05455706
3215.13347484
3215.21035684
3215.28479029
3215.88984774
3217.03631081
3217.82373252
3217.32931104
3216.20594867
3216.08126535
3216.08973268
3216.07740905
3215.74484203
3215.78174441
3215.79498574
3215.11959865
3213.1513542
3212.92744945
3213.54310066
3214.42701403
3214.97907506
3215.03648252
3215.09200639
3215.14520915
3215.79415337
3217.09074351
3218.26661779
3218.44540905
3216.68112333
3216.10958791
3216.1170173
3216.10152393
3215.7809854
3215.82095426
3215.83501328
3214.72552182
3212.79375727
3212.94740459
3213.57104021
3214.47503311
3215.03120803
3215.06374995
3215.09473591
3215.12385318
3215.78831874
3217.16333666
3218.44546069
3219.02427156
3217.18078979
3216.13986856
3216.14629592
3216.12846448
3215.81907289
3215.86110535
3215.8756947
3214.63160639
3212.7600393
3212.99131364
3213.62376349
3214.54203749
3215.1016647
3215.12070992
3215.13860314
3215.15496676
3215.82726123
3217.23833303
3218.56185765
3219.22474256
3217.38247459
3216.17032923
3216.17607242
3216.15689565
3215.85742294
3215.9004822
3215.91526807
3214.64599449
3212.73818018
3212.97350382
3213.6159266
3214.54945214
3215.11854758
3215.13650376
3215.15349601
3215.16911967
3215.85424272
3217.29479953
3218.64609896
3219.32067552
3217.43773031
3216.19998531
3216.20526185
3216.18555235
3215.89475966
3215.93777809
3215.95241621
3214.65776968
3212.71358208
3212.9528874
3213.6054654
3214.55479872
3215.13380335
3215.15102942
3215.16728861
3215.18216519
3215.88005421
3217.34996031
3218.72894245
3219.41507165
3217.49131193
3216.22802412
3216.23314251
3216.21360199
3215.93004183
3215.97197578
3215.98606318
3214.66592363
3212.68528843
3212.92860442
3213.59139192
3214.55717836
3215.14661782
3215.16358465
3215.17933702
3215.19346726
3215.90409684
3217.40326519
3218.80986942
3219.50743179
3217.54274043
3216.25397083
3216.25904672
3216.2404791
3215.96265582
3216.00247582
3216.01571311
3214.86881758
3212.85137061
3213.05418456
3213.73079552
3214.71053213
3215.30038744
3215.3052162
3215.30858601
3215.31018734
3216.01604343
3217.51031898
3218.89596789
3219.4927379
3217.42786184
3216.27753836
3216.28281585
3216.26594841
3215.99233633
3216.02911548
3216.04132054
3215.4361195
3213.50638322
3213.40555585
3214.09949582
3215.08084182
3215.6533239
3215.63609262
3215.61704972
3215.5959495
3216.26423886
3217.67502056
3218.9313797
3219.02987481
3216.9534897
3216.29875392
3216.30456941
3216.29020114
3216.01908897
3216.05207335
3216.06309546
3215.93896846
3214.72282583
3214.07843855
3214.58902646
3215.54624802
3216.08131729
3216.04621131
3216.00914797
3215.96997859
3216.56880888
3217.80711609
3218.58518012
3217.84911958
3216.46892985
3216.31762436
3216.32431983
3216.3131851
3216.04288518
3216.07149659
3216.08140015
3216.09074821
3215.78628534
3215.21890485
3215.3128478
3216.02444994
3216.44141568
3216.39920292
3216.35496227
3216.30857438
3216.73767342
3217.47911239
3217.45712648
3216.69854626
3216.32414168
3216.33446153
3216.34203191
3216.33452236
3216.06384319
3216.08807764
3216.09707409
3216.10634858
3216.12242103
3215.99715003
3215.89254489
3216.16601118
3216.35884199
3216.35569062
3216.35049318
3216.34313994
3216.50396173
3216.69011745
3216.4909948
3216.32872638
3216.33918747
3216.34952119
3216.35750441
3216.35339976
3216.08193889
3216.10216088
3216.11096008
3216.12097075
3216.1369498
3216.15731858
3216.18021078
3216.20405065
3216.22755095
3216.24967014
3216.26984225
3216.28799194
3216.30415241
3216.31856274
3216.33143199
3216.3429188
3216.35340143
3216.36308366
3216.37057082
3216.36886285
3216.09649638
3216.11164292
3216.11978217
3216.13040419
3216.14585988
3216.16508914
3216.18681571
3216.20971836
3216.23254883
3216.25437779
3216.27469351
3216.29330905
3216.31024579
3216.32561099
3216.33950641
3216.35195457
3216.36298873
3216.37254534
3216.37984396
3216.3801677
3216.10498902
3216.11021375
3216.11485312
3216.12264428
3216.13401947
3216.14887017
3216.16677822
3216.18693839
3216.20832179
3216.22995761
3216.25111778
3216.27140879
3216.29069174
3216.30895603
3216.32615929
3216.3421648
3216.35660658
3216.36899031
3216.37885067
3216.38390386
2720.19479187
2720.19829275
2720.20585512
2720.21832434
2720.23719906
2720.26149248
2720.29004372
2720.32172421
2720.35509548
2720.38861353
2720.42113955
2720.45173281
2720.479832
2720.5054587
2720.52880133
2720.54979582
2720.56903303
2720.58666048
2720.60096996
2720.61172296
2720.1955329
2720.20613632
2720.21638974
2720.23083501
2720.25321905
2720.28160724
2720.31449694
2720.34977994
2720.38559086
2720.42042006
2720.45322648
2720.48324388
2720.51002222
2720.53348842
2720.55397606
2720.57191811
2720.58776843
2720.6023336
2720.61275418
2720.61725059
2720.20383461
2720.2176086
2720.22927082
2720.24373559
2720.26670402
2720.12920316
2719.91182586
2720.01448856
2720.17588511
2720.235434
2720.29285138
2720.34741601
2720.54607003
2720.78100866
2720.6897801
2720.58440701
2720.59946707
2720.61324449
2720.62256301
2720.62540356
2720.21952867
2720.23546802
2720.24767167
2720.25106618
2719.57548831
2718.83913353
2718.73713938
2719.20022797
2719.59574157
2719.69919455
2719.80075214
2719.89968891
2720.35551773
2721.07959906
2721.43025869
2721.12481095
2720.62036508
2720.62703383
2720.63679614
2720.63807756
2720.24390039
2720.26312542
2720.27622127
2719.54429453
2717.99449696
2717.62975341
2718.0584864
2718.73814645
2719.19795505
2719.29082708
2719.38198225
2719.47068705
2720.0326206
2721.1307213
2722.15702966
2722.34124189
2721.20280858
2720.64874896
2720.65830714
2720.6561832
2720.2755343
2720.2982185
2720.1275202
2718.11969609
2717.04761384
2717.23033833
2717.63667763
2718.31894763
2718.78587432
2718.85924863
2718.93126129
2719.00119875
2719.6093759
2720.89704383
2722.23535601
2723.20900463
2722.55769087
2720.81669643
2720.6855765
2720.67932219
2720.31319194
2720.34035871
2719.65917471
2717.11641507
2716.83588369
2716.99147245
2717.36922559
2718.03558039
2718.49008363
2718.53997628
2718.58924473
2718.63648156
2719.26041636
2720.6665892
2722.23298864
2723.48529602
2723.71522339
2721.29754798
2720.71677161
2720.70687362
2720.35443938
2720.38432982
2719.27283881
2716.87444907
2716.81329111
2716.95065219
2717.31214015
2717.96333675
2718.40087513
2718.42648995
2718.45275805
2718.47863792
2719.10240824
2720.56967311
2722.26470825
2723.66886613
2724.20346632
2721.79623282
2720.74999112
2720.73734718
2720.39757388
2720.42959398
2719.18659026
2716.86875741
2716.83653561
2716.96843514
2717.32630766
2717.97553353
2718.40859027
2718.42196417
2718.43735876
2718.45300372
2719.08126458
2720.58397682
2722.33622098
2723.79649176
2724.38632725
2721.99695909
2720.78297509
2720.76898671
2720.44059066
2720.47373918
2719.20566961
2716.84492642
2716.81306616
2716.94518211
2717.30541205
2717.96257774
2718.40217691
2718.41429237
2718.42898478
2718.44410657
2719.08439008
2720.61999885
2722.41188255
2723.90256529
2724.49864682
2722.05421953
2720.81444145
2720.80022518
2720.48198355
2720.5151924
2719.22214127
2716.81826278
2716.78659888
2716.91863729
2717.28245971
2717.94925883
2718.39643704
2718.40792358
2718.42197133
2718.43614462
2719.08798043
2720.65573245
2722.48689088
2724.00774417
2724.60958814
2722.10968966
2720.84463077
2720.83015056
2720.52058651
2720.55271752
2719.23428154
2716.78754536
2716.75601747
2716.88832876
2717.25578461
2717.93441617
2718.39052105
2718.40244641
2718.41566081
2718.42846102
2719.09144097
2720.69067801
2722.56078855
2724.11159017
2724.71880396
2722.16291295
2720.87230896
2720.85826677
2720.55565221
2720.58577702
2719.4437063
2716.91034375
2716.8693767
2717.01132391
2717.38996549
2718.09054467
2718.5540413
2718.5549989
2718.55663815
2718.55751675
2719.22480319
2720.83516172
2722.6936307
2724.20822722
2724.73943854
2722.04680659
2720.89758174
2720.88471124
2720.58695845
2720.61435011
2720.01758484
2717.40894643
2717.21756314
2717.39211136
2717.80128879
2718.53980915
2719.01440621
2718.99663638
2718.97807429
2718.95772885
2719.61347397
2721.1775242
2722.90239409
2724.23232992
2724.38180082
2721.57108862
2720.92075383
2720.90983607
2720.61470943
2720.63903491
2720.51987206
2718.62131175
2717.7365282
2717.96810921
2718.42879692
2719.20477634
2719.68161595
2719.64624416
2719.60945334
2719.57064338
2720.19176222
2721.62634733
2723.08779988
2724.08656226
2723.17627686
2721.09233037
2720.94170766
2720.93400328
2720.63901505
2720.65936178
2720.67094911
2720.09980348
2718.81797492
2718.6670495
2719.17862298
2719.96110987
2720.41314285
2720.36541656
2720.31597594
2720.26446107
2720.81195083
2722.02012471
2723.1098786
2723.13855296
2721.63591631
2720.95257859
2720.96076817
2720.95692827
2720.66038061
2720.67766634
2720.68809772
2720.69016347
2720.13462927
2719.80945643
2720.04072093
2720.6413492
2721.01108806
2720.96040091
2720.90771468
2720.85294498
2721.2570235
2721.97835436
2722.18678006
2721.6445325
2720.96733313
2720.96903127
2720.97769954
2720.97759177
2720.67915659
2720.69382199
2720.70333573
2720.71430672
2720.73247041
2720.60614668
2720.49990124
2720.77873688
2720.976825
2720.97588235
2720.97267071
2720.96716015
2721.13299986
2721.32495248
2721.12460262
2720.96136901
2720.97309236
2720.98416011
2720.99267017
2720.99497459
2720.69398251
2720.70497204
2720.7128775
2720.7237908
2720.74122687
2720.763451
2720.7887357
2720.81524018
2720.84132989
2720.86580856
2720.88812154
2720.90823978
2720.92638001
2720.94281479
2720.95778958
2720.97142043
2720.98373674
2720.99487382
2721.00370963
2721.00754353
2720.70501116
2720.70891183
2720.71445926
2720.72320567
2720.73640999
2720.75372515
2720.77465372
2720.7980038
2720.82242844
2720.84673747
2720.87009678
2720.89208022
2720.91262075
2720.93189372
2720.95000469
2720.96692801
2720.98230498
2720.99574366
2721.00634072
2721.01300701
2224.74304176
2224.74421574
2224.7536691
2224.76758835
2224.79003847
2224.81898638
2224.85178904
2224.8880512
2224.92649549
2224.96490724
2225.00201885
2225.0366109
2225.06790374
2225.09573197
2225.12050618
2225.14274218
2225.16309276
2225.1821531
2225.19720551
2225.2119176
2224.7402516
2224.73849143
2224.74713422
2224.76086484
2224.78442879
2224.81472448
2224.76196491
2224.78813562
2224.87782691
2224.92314943
2224.96660234
2225.00728769
2225.10781693
2225.16635013
2225.12577174
2225.14751059
2225.16723232
2225.18556924
2225.19983763
2225.21518182
2224.75074725
2224.74765351
2224.75828624
2224.77349674
2224.41014796
2223.86567111
2223.7821902
2224.00963001
2224.276338
2224.37625446
2224.47427679
2224.56958428
2224.89224229
2225.35973542
2225.67898151
2225.44983369
2225.17971904
2225.19606698
2225.20832171
2225.22468631
2224.76895656
2224.76482406
2224.77750077
2224.07750019
2223.00785762
2222.57416491
2222.85689697
2223.35658709
2223.71994358
2223.81799113
2223.91435223
2224.00800985
2224.46967324
2225.36541505
2226.22879045
2226.35971868
2225.73550324
2225.21113128
2225.22266422
2225.23846703
2224.79775114
2224.79384172
2224.39175696
2222.61746466
2221.94051409
2221.97676472
2222.19267662
2222.66356898
2223.02292519
2223.10513573
2223.18566994
2223.26326053
2223.77139294
2224.87105698
2226.10033525
2227.0923127
2226.99514257