/*--------------------------------*- C++ -*----------------------------------*\
| =========                 |                                                 |
| \\      /  F ield         | OpenFOAM: The Open Source CFD Toolbox           |
|  \\    /   O peration     | Version:  3.0.1                                 |
|   \\  /    A nd           | Web:      www.OpenFOAM.org                      |
|    \\/     M anipulation  |                                                 |
\*---------------------------------------------------------------------------*/
FoamFile
{
    version     2.0;
    format      ascii;
    class       volScalarField;
    location    "2.6";
    object      rAU;
}
// * * * * * * * * * * * * * * * * * * * * * * * * * * * * * * * * * * * * * //

dimensions      [-1 3 1 0 0 0 0];

internalField   nonuniform List<scalar> 
15984
(
1.05144393155e-05
1.05104554675e-05
1.05070552385e-05
1.05054269682e-05
1.05075085091e-05
1.05075240926e-05
1.05049516521e-05
1.05042719591e-05
1.05073155773e-05
1.05085183755e-05
1.05079473292e-05
1.05078111964e-05
1.05079265239e-05
1.05081442984e-05
1.05082945396e-05
1.05083789443e-05
1.05084085803e-05
1.05083646474e-05
1.05082110523e-05
1.05084503653e-05
1.05087260336e-05
1.05086306315e-05
1.05085760176e-05
1.05085177442e-05
1.0508409958e-05
1.05081657341e-05
1.05084570857e-05
1.05088531073e-05
1.05087643242e-05
1.05087308202e-05
1.05087122073e-05
1.05086974637e-05
1.05086896351e-05
1.05086829622e-05
1.0508681002e-05
1.05086951923e-05
1.05087711397e-05
1.05090811107e-05
1.05100526873e-05
1.05144877688e-05
1.04922496552e-05
1.04742138886e-05
1.04669857224e-05
1.04646439116e-05
1.04655769348e-05
1.04654859028e-05
1.04640544099e-05
1.04636744355e-05
1.04644254506e-05
1.04646006841e-05
1.0464778286e-05
1.04650285805e-05
1.04652918411e-05
1.0465575208e-05
1.04658444112e-05
1.04659948556e-05
1.04660612389e-05
1.0466045047e-05
1.04659095727e-05
1.04661194816e-05
1.04664104335e-05
1.04663573652e-05
1.04663109056e-05
1.04662523095e-05
1.0466152028e-05
1.0465904173e-05
1.04661814059e-05
1.04665665992e-05
1.04664663634e-05
1.04664242069e-05
1.04664043947e-05
1.04663905845e-05
1.04663837375e-05
1.04663852416e-05
1.04664235334e-05
1.04666043971e-05
1.04672635569e-05
1.04693291749e-05
1.04750886622e-05
1.04931133766e-05
1.04895836401e-05
1.0460651375e-05
1.04511558471e-05
1.04490513409e-05
1.04494297365e-05
1.04491510969e-05
1.04475582064e-05
1.0445833706e-05
1.04449706978e-05
1.04449447425e-05
1.04455369195e-05
1.04462319316e-05
1.04467344164e-05
1.04470214402e-05
1.04472753242e-05
1.04474551084e-05
1.04475367534e-05
1.04475310004e-05
1.04474640402e-05
1.04476696824e-05
1.04478883903e-05
1.0447840053e-05
1.04477957524e-05
1.04477381524e-05
1.04476463095e-05
1.04473988696e-05
1.0447670675e-05
1.0448051881e-05
1.0447947999e-05
1.04479094104e-05
1.04478889789e-05
1.04478751323e-05
1.04478705951e-05
1.04478832717e-05
1.04479657179e-05
1.04483033066e-05
1.04494385106e-05
1.04527763643e-05
1.04618028592e-05
1.04900899052e-05
1.04891542291e-05
1.04545464847e-05
1.04439089851e-05
1.044307146e-05
1.04449179132e-05
1.04446019535e-05
1.04412757113e-05
1.04373062555e-05
1.04347499339e-05
1.04338503621e-05
1.04342234902e-05
1.04350346091e-05
1.04357555551e-05
1.04361858626e-05
1.04364285344e-05
1.04366099498e-05
1.04366957585e-05
1.04366933215e-05
1.0436711716e-05
1.04369056727e-05
1.0437033723e-05
1.0436993674e-05
1.04369527813e-05
1.04368982143e-05
1.04368104751e-05
1.04365627278e-05
1.04368316311e-05
1.04372139157e-05
1.04371095086e-05
1.04370701491e-05
1.04370487166e-05
1.04370356062e-05
1.04370338294e-05
1.04370587095e-05
1.04371845843e-05
1.04376611256e-05
1.04391789495e-05
1.0443439005e-05
1.04546107619e-05
1.04887916796e-05
1.04883368947e-05
1.04509858824e-05
1.04387993581e-05
1.04353770688e-05
1.04352100855e-05
1.04346059637e-05
1.04325151007e-05
1.04305712539e-05
1.04280917868e-05
1.04268433261e-05
1.04270342861e-05
1.04278785819e-05
1.04286964356e-05
1.04292480043e-05
1.04295587275e-05
1.04297422931e-05
1.04298290233e-05
1.04298254437e-05
1.04298934699e-05
1.04300834112e-05
1.04301593729e-05
1.04301229883e-05
1.04300840797e-05
1.04300325183e-05
1.04299468504e-05
1.04296991802e-05
1.04299678843e-05
1.04303507728e-05
1.04302471703e-05
1.04302071541e-05
1.0430185356e-05
1.04301728756e-05
1.04301735991e-05
1.04302096599e-05
1.04303750026e-05
1.04309719157e-05
1.04328012607e-05
1.04377566913e-05
1.04504043361e-05
1.04881641143e-05
1.04864767985e-05
1.04489326934e-05
1.04332378408e-05
1.04241956243e-05
1.04216645362e-05
1.04209123386e-05
1.04211150313e-05
1.04229992745e-05
1.04237304661e-05
1.04224529319e-05
1.0422390265e-05
1.04232032119e-05
1.04240673146e-05
1.04246765556e-05
1.04250514294e-05
1.04252538563e-05
1.04253476049e-05
1.04253395829e-05
1.04254458141e-05
1.04256385771e-05
1.04256776569e-05
1.04256411165e-05
1.04256034592e-05
1.04255535154e-05
1.04254704388e-05
1.04252222096e-05
1.04254890788e-05
1.04258723392e-05
1.04257698685e-05
1.04257300004e-05
1.04257080895e-05
1.04256958784e-05
1.04256992005e-05
1.04257453584e-05
1.04259455453e-05
1.04266440602e-05
1.04287229907e-05
1.04342032993e-05
1.04478763186e-05
1.04878381175e-05
1.04852121894e-05
1.04481562509e-05
1.04286157659e-05
1.04181546579e-05
1.0417551457e-05
1.04167302835e-05
1.04153697409e-05
1.04177742802e-05
1.04212786075e-05
1.04197533112e-05
1.04193893505e-05
1.04201615312e-05
1.0421054702e-05
1.04217088258e-05
1.04221275352e-05
1.04223448611e-05
1.04224465754e-05
1.04224265782e-05
1.04225680026e-05
1.04227770138e-05
1.04227859326e-05
1.04227497498e-05
1.04227134269e-05
1.04226653755e-05
1.04225845225e-05
1.04223354344e-05
1.04226010339e-05
1.0422984702e-05
1.04228810071e-05
1.04228401168e-05
1.04228174859e-05
1.04228056535e-05
1.04228113874e-05
1.04228666223e-05
1.04230958919e-05
1.04238756357e-05
1.04261462446e-05
1.04320113867e-05
1.04463847254e-05
1.04876733748e-05
1.04856797579e-05
1.04487131845e-05
1.04263891086e-05
1.04171565303e-05
1.04265389513e-05
1.04258308362e-05
1.04151468988e-05
1.04154494042e-05
1.04199578349e-05
1.04182093192e-05
1.04175026101e-05
1.04182375587e-05
1.04191653865e-05
1.04198546131e-05
1.04203028082e-05
1.04205416098e-05
1.04206350607e-05
1.0420597918e-05
1.04207691713e-05
1.04210041727e-05
1.0420991581e-05
1.04209550173e-05
1.04209196271e-05
1.04208730867e-05
1.04207939938e-05
1.04205439052e-05
1.042080864e-05
1.04211931851e-05
1.04210880059e-05
1.04210458915e-05
1.04210226529e-05
1.04210111367e-05
1.04210188628e-05
1.04210810927e-05
1.0421332308e-05
1.04221718754e-05
1.04245799357e-05
1.04307113628e-05
1.04455408788e-05
1.04875927243e-05
1.04863289521e-05
1.04497337972e-05
1.04261276265e-05
1.04172269915e-05
1.04338104026e-05
1.04330799705e-05
1.0414965332e-05
1.04141149164e-05
1.0419409805e-05
1.04174114768e-05
1.041638707e-05
1.04171002007e-05
1.04180686214e-05
1.04187902315e-05
1.04192588007e-05
1.04195066285e-05
1.04196009259e-05
1.04195368285e-05
1.04197309414e-05
1.04199966934e-05
1.04199670638e-05
1.04199297905e-05
1.04198950617e-05
1.04198494796e-05
1.04197716843e-05
1.04195211212e-05
1.0419785498e-05
1.04201707508e-05
1.04200638351e-05
1.04200208051e-05
1.04199971338e-05
1.04199858549e-05
1.04199949486e-05
1.04200618883e-05
1.04203276408e-05
1.04212061913e-05
1.04237021676e-05
1.04299994392e-05
1.04450994204e-05
1.0487555641e-05
1.04866344068e-05
1.04503505272e-05
1.04266210499e-05
1.0418897531e-05
1.04357853875e-05
1.04350426846e-05
1.04149984428e-05
1.04132522496e-05
1.04192096385e-05
1.04170857314e-05
1.04158656516e-05
1.04165626839e-05
1.04175604357e-05
1.04183164641e-05
1.04187882314e-05
1.0419039185e-05
1.04191355854e-05
1.04190730396e-05
1.04192799602e-05
1.04195451119e-05
1.0419505436e-05
1.04194678922e-05
1.04194333471e-05
1.04193883142e-05
1.04193110898e-05
1.04190603404e-05
1.04193237066e-05
1.04197095417e-05
1.04196024394e-05
1.04195587313e-05
1.04195349123e-05
1.04195237626e-05
1.04195335736e-05
1.04196028614e-05
1.04198758145e-05
1.04207734975e-05
1.04233121395e-05
1.04296885371e-05
1.04449133034e-05
1.04875414319e-05
1.04866262283e-05
1.04503370048e-05
1.04266103254e-05
1.04188433891e-05
1.04357600615e-05
1.04350185281e-05
1.04149437608e-05
1.04132657803e-05
1.04192117059e-05
1.04170828151e-05
1.04158673779e-05
1.04165653291e-05
1.04175622909e-05
1.04183177897e-05
1.04187884362e-05
1.04190394316e-05
1.04191352548e-05
1.04190728877e-05
1.04192797182e-05
1.04195448737e-05
1.04195053923e-05
1.04194679054e-05
1.04194333109e-05
1.04193883423e-05
1.04193111354e-05
1.04190604023e-05
1.04193236833e-05
1.04197093682e-05
1.04196024145e-05
1.04195587696e-05
1.04195350016e-05
1.04195238951e-05
1.04195337047e-05
1.04196029874e-05
1.04198759388e-05
1.04207736133e-05
1.04233122678e-05
1.04296886714e-05
1.044491335e-05
1.04875413885e-05
1.04863046726e-05
1.0449699331e-05
1.04260977495e-05
1.04172020924e-05
1.04337116032e-05
1.04329845135e-05
1.04149735834e-05
1.04141421858e-05
1.04194125368e-05
1.04174055109e-05
1.04163915039e-05
1.04171056768e-05
1.04180726052e-05
1.04187932519e-05
1.04192594373e-05
1.04195074065e-05
1.04196015849e-05
1.04195367113e-05
1.04197303887e-05
1.04199961659e-05
1.04199670317e-05
1.04199298456e-05
1.04198950292e-05
1.04198495531e-05
1.04197717859e-05
1.04195213405e-05
1.04197851422e-05
1.04201700793e-05
1.04200638368e-05
1.04200209041e-05
1.04199973888e-05
1.04199862214e-05
1.04199953315e-05
1.04200622499e-05
1.04203279937e-05
1.04212065026e-05
1.0423702525e-05
1.04299998176e-05
1.04450995503e-05
1.04875554745e-05
1.0485645475e-05
1.04486798896e-05
1.04264147625e-05
1.04171599157e-05
1.04262261748e-05
1.04255357996e-05
1.04151366975e-05
1.04154827972e-05
1.04199637917e-05
1.04182047085e-05
1.04175083851e-05
1.04182441892e-05
1.04191696178e-05
1.04198581819e-05
1.04203040885e-05
1.04205430119e-05
1.04206361105e-05
1.04205998793e-05
1.04207706613e-05
1.04210045835e-05
1.04209915244e-05
1.04209551008e-05
1.04209197135e-05
1.04208732425e-05
1.04207941863e-05
1.04205442504e-05
1.04208076904e-05
1.04211917423e-05
1.04210880937e-05
1.042104612e-05
1.04210230769e-05
1.04210117671e-05
1.04210195015e-05
1.04210816934e-05
1.04213328944e-05
1.04221724017e-05
1.04245805443e-05
1.04307119809e-05
1.04455411271e-05
1.04875924674e-05
1.04852202423e-05
1.04481489258e-05
1.04286687509e-05
1.04181737264e-05
1.04174457117e-05
1.04166358567e-05
1.04153859311e-05
1.04178369042e-05
1.04212743877e-05
1.04197519151e-05
1.04193957889e-05
1.0420168163e-05
1.04210598117e-05
1.04217130467e-05
1.04221298828e-05
1.0422348513e-05
1.04224470024e-05
1.04224285078e-05
1.04225706713e-05
1.04227782095e-05
1.04227860563e-05
1.04227499384e-05
1.04227136081e-05
1.04226656461e-05
1.04225848147e-05
1.04223359455e-05
1.04226004525e-05
1.04229836371e-05
1.04228812737e-05
1.04228405585e-05
1.04228181158e-05
1.04228065449e-05
1.04228123369e-05
1.04228674992e-05
1.04230967421e-05
1.04238764122e-05
1.04261471449e-05
1.04320122813e-05
1.04463851487e-05
1.04876731886e-05
1.04865401456e-05
1.04489408186e-05
1.04333279304e-05
1.04243515596e-05
1.04218214214e-05
1.04210744859e-05
1.04212635526e-05
1.04230928983e-05
1.04237342353e-05
1.04224545654e-05
1.04223976095e-05
1.04232119744e-05
1.04240731981e-05
1.04246816486e-05
1.04250572438e-05
1.04252550116e-05
1.04253484303e-05
1.0425341132e-05
1.04254494233e-05
1.04256410651e-05
1.04256775063e-05
1.04256412971e-05
1.04256036627e-05
1.04255538034e-05
1.04254707479e-05
1.04252228849e-05
1.04254889524e-05
1.04258717709e-05
1.04257703075e-05
1.04257306607e-05
1.0425709062e-05
1.04256970431e-05
1.04257003661e-05
1.0425746472e-05
1.04259466119e-05
1.04266450026e-05
1.04287241152e-05
1.04342043962e-05
1.04478768527e-05
1.04878382388e-05
1.04883735229e-05
1.0450980701e-05
1.04388197487e-05
1.04355222339e-05
1.04354185847e-05
1.0434810448e-05
1.0432648448e-05
1.04306009231e-05
1.04280917823e-05
1.04268460834e-05
1.04270434812e-05
1.04278868812e-05
1.0428703076e-05
1.0429255245e-05
1.04295651922e-05
1.04297429671e-05
1.04298290506e-05
1.04298261184e-05
1.04298976667e-05
1.04300862216e-05
1.04301586781e-05
1.04301227312e-05
1.04300839339e-05
1.04300324534e-05
1.04299467081e-05
1.04296995657e-05
1.0429966647e-05
1.04303488701e-05
1.0430247065e-05
1.04302070567e-05
1.04301855481e-05
1.04301731344e-05
1.04301739304e-05
1.04302099475e-05
1.04303754075e-05
1.04309723038e-05
1.04328020283e-05
1.04377575548e-05
1.04504045081e-05
1.04881646643e-05
1.04891481547e-05
1.04545277749e-05
1.04439071239e-05
1.04430553337e-05
1.04448694079e-05
1.0444557962e-05
1.0441258002e-05
1.04373038931e-05
1.04347448337e-05
1.04338546138e-05
1.04342328088e-05
1.04350431292e-05
1.04357639579e-05
1.04361971066e-05
1.04364298283e-05
1.0436609993e-05
1.04366951843e-05
1.04366929046e-05
1.04367164853e-05
1.0436908922e-05
1.04370323501e-05
1.04369925812e-05
1.04369517498e-05
1.04368971721e-05
1.04368092142e-05
1.04365619738e-05
1.04368300466e-05
1.04372115135e-05
1.04371080909e-05
1.0437069007e-05
1.04370477691e-05
1.04370348397e-05
1.04370331792e-05
1.04370579339e-05
1.043718394e-05
1.04376605276e-05
1.04391789406e-05
1.04434390156e-05
1.04546102046e-05
1.04887868154e-05
1.04895782734e-05
1.04606339626e-05
1.04511491115e-05
1.04490411939e-05
1.04494003926e-05
1.04491259817e-05
1.04475472628e-05
1.0445831135e-05
1.0444968316e-05
1.04449479846e-05
1.04455447662e-05
1.04462405832e-05
1.04467459187e-05
1.04470255395e-05
1.04472760608e-05
1.04474548853e-05
1.04475360493e-05
1.04475300027e-05
1.0447468216e-05
1.04476732403e-05
1.04478863671e-05
1.04478383006e-05
1.04477934926e-05
1.04477358583e-05
1.04476439428e-05
1.04473970105e-05
1.04476679949e-05
1.04480487308e-05
1.04479462585e-05
1.04479081973e-05
1.04478880804e-05
1.04478744021e-05
1.04478698879e-05
1.04478823353e-05
1.0447964665e-05
1.04483021256e-05
1.0449437872e-05
1.04527759081e-05
1.04618015471e-05
1.04900834406e-05
1.04922461627e-05
1.04741930565e-05
1.04670013957e-05
1.04646664682e-05
1.04655525078e-05
1.04654650937e-05
1.04640589881e-05
1.04636824105e-05
1.04644173088e-05
1.04645995278e-05
1.04647840561e-05
1.0465037588e-05
1.04652988252e-05
1.0465577911e-05
1.04658446715e-05
1.04659942324e-05
1.0466060278e-05
1.04660434443e-05
1.04659070928e-05
1.0466117319e-05
1.04664089962e-05
1.04663562167e-05
1.04663091628e-05
1.04662499197e-05
1.04661500519e-05
1.04659031498e-05
1.04661791469e-05
1.04665636063e-05
1.04664648373e-05
1.04664233841e-05
1.04664036912e-05
1.04663901089e-05
1.04663832081e-05
1.04663844633e-05
1.04664225537e-05
1.04666030686e-05
1.04672625642e-05
1.04693282928e-05
1.04750868309e-05
1.04931112726e-05
1.05144350371e-05
1.0510435964e-05
1.05070569506e-05
1.05054430273e-05
1.05075073024e-05
1.05075276085e-05
1.05049851645e-05
1.05043029326e-05
1.05073129877e-05
1.05085152461e-05
1.05079517437e-05
1.05078177774e-05
1.05079318323e-05
1.05081466077e-05
1.0508295031e-05
1.05083794748e-05
1.05084097684e-05
1.05083627652e-05
1.05082088072e-05
1.05084482766e-05
1.05087239601e-05
1.05086293049e-05
1.05085744509e-05
1.05085156634e-05
1.05084074935e-05
1.05081643341e-05
1.05084562348e-05
1.05088508262e-05
1.05087625569e-05
1.05087296378e-05
1.05087132541e-05
1.05086983192e-05
1.05086905119e-05
1.05086835583e-05
1.05086813424e-05
1.05086949854e-05
1.05087711284e-05
1.05090810449e-05
1.05100523852e-05
1.05144886863e-05
1.04939637955e-05
1.04773887338e-05
1.04698951248e-05
1.04679981817e-05
1.04705712637e-05
1.04704333966e-05
1.0467510031e-05
1.0466239976e-05
1.04670009094e-05
1.04662245474e-05
1.04654261873e-05
1.04653317589e-05
1.04655524607e-05
1.04657689972e-05
1.04659361181e-05
1.04660419535e-05
1.04660918122e-05
1.04660671851e-05
1.04659189945e-05
1.04661207314e-05
1.04663893185e-05
1.04663245803e-05
1.0466275979e-05
1.04662267972e-05
1.0466152344e-05
1.04660568876e-05
1.0466242897e-05
1.04664694741e-05
1.04664462406e-05
1.04664227921e-05
1.04664072252e-05
1.04663955691e-05
1.0466390812e-05
1.04663939586e-05
1.04664335004e-05
1.04666155365e-05
1.0467276125e-05
1.04693448595e-05
1.04751034345e-05
1.04931317897e-05
1.0422900039e-05
1.03343874261e-05
1.03055158459e-05
1.02981865263e-05
1.02979184211e-05
1.02968522811e-05
1.02927063819e-05
1.02872907297e-05
1.02824280864e-05
1.02789921972e-05
1.02776337693e-05
1.0277634379e-05
1.02781414762e-05
1.02786902283e-05
1.02790971682e-05
1.02793595965e-05
1.02795067634e-05
1.02795564094e-05
1.02794950072e-05
1.02796839652e-05
1.02799330483e-05
1.02799121475e-05
1.02798770876e-05
1.02798318104e-05
1.02797581526e-05
1.02796424976e-05
1.02798134839e-05
1.02800445622e-05
1.02800141572e-05
1.0279979448e-05
1.0279958121e-05
1.02799450896e-05
1.02799501881e-05
1.02800130929e-05
1.02803189605e-05
1.02815223064e-05
1.0285537471e-05
1.02972024921e-05
1.03288031731e-05
1.04219110959e-05
1.04027160088e-05
1.02555003894e-05
1.02063036115e-05
1.01923990814e-05
1.01898074943e-05
1.01880032399e-05
1.01830860184e-05
1.01759977352e-05
1.01697209045e-05
1.01661608247e-05
1.01654289147e-05
1.01661274976e-05
1.01671328355e-05
1.01679758398e-05
1.01685725741e-05
1.01689486105e-05
1.01691637584e-05
1.01692570344e-05
1.01692954083e-05
1.01694827079e-05
1.01696557924e-05
1.01696398586e-05
1.01696105483e-05
1.01695683509e-05
1.01694987322e-05
1.01693826222e-05
1.01695462942e-05
1.0169773411e-05
1.01697449023e-05
1.01697111979e-05
1.01696892739e-05
1.016967919e-05
1.01696999036e-05
1.01698364816e-05
1.01704346505e-05
1.01726380809e-05
1.01796017082e-05
1.01989815384e-05
1.02505954623e-05
1.04025288225e-05
1.03975848644e-05
1.0217028382e-05
1.01557919934e-05
1.01387057478e-05
1.01350581358e-05
1.01321843988e-05
1.0125461147e-05
1.01159137458e-05
1.0107513821e-05
1.01030185093e-05
1.01023076174e-05
1.01034198825e-05
1.01048431223e-05
1.01059476173e-05
1.01066679182e-05
1.01071268701e-05
1.01073868147e-05
1.01075087195e-05
1.01075928431e-05
1.0107769263e-05
1.01078981128e-05
1.01078886049e-05
1.01078626643e-05
1.01078227581e-05
1.01077576537e-05
1.01076472231e-05
1.01078008787e-05
1.01080232707e-05
1.01080006588e-05
1.01079678593e-05
1.01079470924e-05
1.0107940872e-05
1.0107979372e-05
1.01081922796e-05
1.01090679604e-05
1.01121345901e-05
1.01214005978e-05
1.01462351018e-05
1.02106678273e-05
1.03968968774e-05
1.03947974488e-05
1.01968534631e-05
1.01288669511e-05
1.01099575188e-05
1.01060693511e-05
1.01024525924e-05
1.00936165706e-05
1.00808437113e-05
1.00697762024e-05
1.00638133066e-05
1.00626027336e-05
1.00637920919e-05
1.00654563879e-05
1.00667759523e-05
1.0067620783e-05
1.00681462201e-05
1.00684414468e-05
1.0068583587e-05
1.00686977969e-05
1.00688650141e-05
1.00689649037e-05
1.00689581905e-05
1.00689342603e-05
1.00688959166e-05
1.00688340215e-05
1.00687307065e-05
1.00688791708e-05
1.00690924951e-05
1.00690747688e-05
1.00690429863e-05
1.00690225874e-05
1.0069020208e-05
1.00690771565e-05
1.0069364507e-05
1.00704951711e-05
1.0074305196e-05
1.00854182004e-05
1.0114296256e-05
1.01873630182e-05
1.03939800577e-05
1.03920147833e-05
1.01866079396e-05
1.01151323824e-05
1.00966954962e-05
1.00934874808e-05
1.00893011897e-05
1.00780039902e-05
1.00610252239e-05
1.00461216272e-05
1.00384992743e-05
1.00365959069e-05
1.00376864382e-05
1.00394848323e-05
1.00409617819e-05
1.00419370404e-05
1.00425175206e-05
1.00428446382e-05
1.00430038226e-05
1.00431384566e-05
1.00433019483e-05
1.00433823344e-05
1.00433776481e-05
1.00433560021e-05
1.00433195706e-05
1.00432600781e-05
1.00431637435e-05
1.00433056013e-05
1.00435108672e-05
1.00434984298e-05
1.00434664159e-05
1.00434461691e-05
1.0043447477e-05
1.00435220587e-05
1.00438773127e-05
1.00452310535e-05
1.00496629962e-05
1.00622455663e-05
1.00941525012e-05
1.01731727281e-05
1.03923844212e-05
1.0390083534e-05
1.01823525945e-05
1.01093503426e-05
1.00922460825e-05
1.00897990913e-05
1.00851329515e-05
1.00715461996e-05
1.00506726418e-05
1.00316680329e-05
1.0022186114e-05
1.0019565667e-05
1.00204941239e-05
1.00223791473e-05
1.00239798706e-05
1.00250544155e-05
1.00256947527e-05
1.00260446267e-05
1.00262174492e-05
1.00263709211e-05
1.00265320372e-05
1.00265998762e-05
1.00265968294e-05
1.00265772483e-05
1.00265427005e-05
1.00264855144e-05
1.00263939206e-05
1.00265295045e-05
1.00267291347e-05
1.00267199201e-05
1.00266877363e-05
1.00266675668e-05
1.00266723025e-05
1.00267623551e-05
1.00271752795e-05
1.00287125766e-05
1.00336403068e-05
1.00473527826e-05
1.00814832736e-05
1.01645749108e-05
1.03915064171e-05
1.03899340084e-05
1.01811998936e-05
1.01078929997e-05
1.00918099515e-05
1.00955902415e-05
1.00907094601e-05
1.00695715603e-05
1.00455696011e-05
1.00231660556e-05
1.00120589536e-05
1.00087760985e-05
1.00095400398e-05
1.00114871021e-05
1.00131838805e-05
1.00143363362e-05
1.00150189454e-05
1.00153904877e-05
1.00155734153e-05
1.00157399774e-05
1.00159019837e-05
1.00159627682e-05
1.00159610939e-05
1.0015943004e-05
1.0015910039e-05
1.00158546972e-05
1.00157660006e-05
1.00158955288e-05
1.00160908907e-05
1.00160847408e-05
1.00160519312e-05
1.00160319485e-05
1.00160395624e-05
1.00161420411e-05
1.00165997402e-05
1.00182763456e-05
1.00235720088e-05
1.00381016567e-05
1.0073784573e-05
1.01595536507e-05
1.03910391066e-05
1.03903188757e-05
1.01812528584e-05
1.01080784922e-05
1.00927637085e-05
1.01022423641e-05
1.00971487937e-05
1.00694847704e-05
1.00432676692e-05
1.00186585936e-05
1.00063093982e-05
1.00024797015e-05
1.00031068048e-05
1.00051052764e-05
1.00068727674e-05
1.00080814671e-05
1.00087919275e-05
1.00091763251e-05
1.00093669794e-05
1.00095427161e-05
1.00097077716e-05
1.00097630268e-05
1.00097626101e-05
1.00097456158e-05
1.00097137463e-05
1.00096600184e-05
1.00095717557e-05
1.0009697523e-05
1.00098907458e-05
1.00098857468e-05
1.00098527569e-05
1.00098328206e-05
1.00098424928e-05
1.0009953595e-05
1.00104416069e-05
1.00122111615e-05
1.00177487079e-05
1.00328062928e-05
1.00694667905e-05
1.01568434864e-05
1.03908066925e-05
1.0390544178e-05
1.01815240428e-05
1.0108458022e-05
1.00949058092e-05
1.01046133491e-05
1.00994216887e-05
1.00703158653e-05
1.00423922815e-05
1.00167690204e-05
1.00037460389e-05
9.99959837973e-06
1.00001414927e-05
1.00021673838e-05
1.00039872953e-05
1.00052190348e-05
1.00059417275e-05
1.00063335612e-05
1.0006527505e-05
1.00067080335e-05
1.0006874844e-05
1.00069276768e-05
1.00069278424e-05
1.00069113477e-05
1.0006880109e-05
1.00068272284e-05
1.00067391655e-05
1.00068624944e-05
1.00070547728e-05
1.00070505468e-05
1.00070173021e-05
1.00069975027e-05
1.00070082596e-05
1.0007123745e-05
1.00076270077e-05
1.00094428801e-05
1.00150999516e-05
1.00304157607e-05
1.00675468516e-05
1.01556733062e-05
1.03907121265e-05
1.0390534688e-05
1.01814978782e-05
1.01084256839e-05
1.00948222841e-05
1.01045559937e-05
1.0099366123e-05
1.0070222297e-05
1.00423683888e-05
1.00167525356e-05
1.00037415227e-05
9.99960011639e-06
1.00001450345e-05
1.0002170511e-05
1.00039909482e-05
1.00052199897e-05
1.00059424682e-05
1.00063342754e-05
1.00065280307e-05
1.00067085089e-05
1.00068752584e-05
1.00069279778e-05
1.00069282113e-05
1.00069117496e-05
1.00068806069e-05
1.00068278172e-05
1.00067402083e-05
1.00068634525e-05
1.00070554218e-05
1.00070510258e-05
1.00070178098e-05
1.00069980675e-05
1.00070088792e-05
1.00071243967e-05
1.00076276743e-05
1.00094435536e-05
1.00151006042e-05
1.00304163916e-05
1.00675474223e-05
1.01556737322e-05
1.03907121665e-05
1.0390291642e-05
1.01811817228e-05
1.01079867874e-05
1.00926605526e-05
1.01020628941e-05
1.0096973088e-05
1.00693916564e-05
1.00432013752e-05
1.00186149925e-05
1.00062986569e-05
1.00024849303e-05
1.00031158602e-05
1.00051127565e-05
1.00068801725e-05
1.00080844817e-05
1.00087945109e-05
1.00091778506e-05
1.00093684951e-05
1.00095443035e-05
1.0009709162e-05
1.00097639507e-05
1.00097637693e-05
1.00097470111e-05
1.00097152611e-05
1.00096617025e-05
1.0009574164e-05
1.00096998815e-05
1.00098925077e-05
1.00098872328e-05
1.0009854243e-05
1.00098344923e-05
1.00098443387e-05
1.00099555288e-05
1.00104435772e-05
1.00122131354e-05
1.00177506374e-05
1.00328081581e-05
1.00694684957e-05
1.01568447508e-05
1.03908067944e-05
1.03898986976e-05
1.01811013293e-05
1.01077576338e-05
1.00916466144e-05
1.00951893949e-05
1.00903254992e-05
1.00694309738e-05
1.0045473786e-05
1.00231120372e-05
1.00120472216e-05
1.00087847929e-05
1.00095526334e-05
1.00114978486e-05
1.00131925048e-05
1.00143410754e-05
1.00150233974e-05
1.00153933261e-05
1.00155759533e-05
1.00157427995e-05
1.00159047593e-05
1.00159647244e-05
1.00159631075e-05
1.00159452451e-05
1.00159124844e-05
1.00158575634e-05
1.0015769133e-05
1.0015898924e-05
1.00160937145e-05
1.0016087129e-05
1.00160544205e-05
1.00160346597e-05
1.00160425606e-05
1.00161451757e-05
1.00166029195e-05
1.00182795302e-05
1.00235751254e-05
1.00381046826e-05
1.00737873454e-05
1.01595557135e-05
1.03910393102e-05
1.03900914927e-05
1.01822541251e-05
1.01091896364e-05
1.00920441905e-05
1.00895741379e-05
1.00849189158e-05
1.00713738195e-05
1.00505609726e-05
1.00316118957e-05
1.00221780474e-05
1.0019578063e-05
1.0020510644e-05
1.00223924688e-05
1.00239903634e-05
1.00250615805e-05
1.00256996291e-05
1.00260487587e-05
1.00262207758e-05
1.00263748439e-05
1.00265354002e-05
1.0026602488e-05
1.00265996515e-05
1.00265802873e-05
1.00265459201e-05
1.00264890835e-05
1.00263979126e-05
1.00265335477e-05
1.00267325237e-05
1.00267232926e-05
1.00266909829e-05
1.00266710104e-05
1.00266761947e-05
1.00267664665e-05
1.00271794371e-05
1.00287167508e-05
1.00336444019e-05
1.00473567884e-05
1.00814869543e-05
1.01645776937e-05
1.03915068381e-05
1.03920692078e-05
1.01865320871e-05
1.01149741287e-05
1.00964865012e-05
1.00932456988e-05
1.00890737013e-05
1.00778263363e-05
1.00609240981e-05
1.00460766387e-05
1.00384966258e-05
1.00366122442e-05
1.00377056e-05
1.00395007907e-05
1.0040974092e-05
1.00419452953e-05
1.00425239626e-05
1.00428490805e-05
1.00430076098e-05
1.00431432748e-05
1.0043306106e-05
1.00433855418e-05
1.00433809004e-05
1.00433594335e-05
1.00433231468e-05
1.00432639383e-05
1.00431675404e-05
1.0043310164e-05
1.00435154061e-05
1.00435021453e-05
1.00434701158e-05
1.00434501078e-05
1.00434517259e-05
1.0043526515e-05
1.00438818713e-05
1.00452356991e-05
1.00496675955e-05
1.00622501368e-05
1.00941567475e-05
1.01731759391e-05
1.03923851095e-05
1.03948207219e-05
1.01967804476e-05
1.01287261278e-05
1.0109780759e-05
1.01058674965e-05
1.01022650409e-05
1.00934723115e-05
1.00807595744e-05
1.00697467285e-05
1.00638172009e-05
1.00626238248e-05
1.00638140087e-05
1.00654742016e-05
1.00667890987e-05
1.00676324424e-05
1.00681519391e-05
1.00684459909e-05
1.00685878284e-05
1.00687025798e-05
1.00688696868e-05
1.00689680828e-05
1.00689614081e-05
1.00689376197e-05
1.00688992842e-05
1.0068837665e-05
1.00687343661e-05
1.00688833849e-05
1.00690967255e-05
1.00690782424e-05
1.00690466021e-05
1.00690264635e-05
1.00690243446e-05
1.00690814709e-05
1.0069368883e-05
1.00704996532e-05
1.00743097691e-05
1.00854228966e-05
1.01143006421e-05
1.01873661988e-05
1.03939792405e-05
1.03975691405e-05
1.02169533076e-05
1.0155707148e-05
1.0138571294e-05
1.01348990936e-05
1.01320378891e-05
1.0125352541e-05
1.01158646231e-05
1.01074965222e-05
1.01030280239e-05
1.01023298051e-05
1.01034426825e-05
1.01048611082e-05
1.01059629967e-05
1.01066771541e-05
1.01071325627e-05
1.01073910726e-05
1.01075120328e-05
1.01075977719e-05
1.01077738593e-05
1.01079011645e-05
1.01078914621e-05
1.01078654433e-05
1.0107825257e-05
1.01077604793e-05
1.01076503146e-05
1.01078050033e-05
1.01080271518e-05
1.01080036646e-05
1.01079711438e-05
1.01079505922e-05
1.01079446937e-05
1.01079833642e-05
1.01081962313e-05
1.01090720181e-05
1.01121387745e-05
1.0121405032e-05
1.01462392543e-05
1.02106707914e-05
1.03968944722e-05
1.04026962586e-05
1.02554274055e-05
1.02062361728e-05
1.01923256064e-05
1.01897434744e-05
1.01879401417e-05
1.01830207555e-05
1.01759562756e-05
1.01697016919e-05
1.01661667101e-05
1.01654473748e-05
1.01661473364e-05
1.0167149271e-05
1.01679894168e-05
1.01685795913e-05
1.01689534217e-05
1.01691669661e-05
1.01692591205e-05
1.01692982794e-05
1.01694861904e-05
1.01696582534e-05
1.01696421626e-05
1.01696126395e-05
1.01695695281e-05
1.01695005498e-05
1.01693857321e-05
1.01695497943e-05
1.01697760728e-05
1.01697472396e-05
1.01697138799e-05
1.01696922565e-05
1.01696823786e-05
1.01697031251e-05
1.01698396095e-05
1.01704377882e-05
1.01726412437e-05
1.01796052537e-05
1.01989848593e-05
1.02505976998e-05
1.04025266285e-05
1.04228803023e-05
1.03343224383e-05
1.03054608919e-05
1.02981173362e-05
1.02978057058e-05
1.02967460207e-05
1.02926364813e-05
1.0287245816e-05
1.02823950273e-05
1.02789848714e-05
1.02776428793e-05
1.02776480802e-05
1.02781550775e-05
1.02786976335e-05
1.02791016472e-05
1.02793622342e-05
1.0279508804e-05
1.02795572861e-05
1.02794953374e-05
1.02796861057e-05
1.02799356952e-05
1.02799142555e-05
1.02798791421e-05
1.02798332856e-05
1.02797591254e-05
1.02796473614e-05
1.02798177049e-05
1.02800446415e-05
1.02800148608e-05
1.02799811885e-05
1.02799600769e-05
1.02799472423e-05
1.02799522462e-05
1.02800148312e-05
1.02803205404e-05
1.02815235904e-05
1.02855389475e-05
1.02972037499e-05
1.03288037995e-05
1.04219096066e-05
1.04939533839e-05
1.0477358326e-05
1.04698799756e-05
1.04679956353e-05
1.04705438903e-05
1.04704114257e-05
1.04675297117e-05
1.04662568583e-05
1.04669817263e-05
1.04662157279e-05
1.04654294765e-05
1.04653389862e-05
1.04655582172e-05
1.04657733673e-05
1.04659399098e-05
1.04660452421e-05
1.04660925949e-05
1.04660652803e-05
1.04659174801e-05
1.04661207152e-05
1.04663895652e-05
1.04663244683e-05
1.04662758837e-05
1.04662263813e-05
1.04661499802e-05
1.04660536917e-05
1.04662421205e-05
1.04664705093e-05
1.04664478643e-05
1.04664231356e-05
1.04664106189e-05
1.04663974933e-05
1.04663924156e-05
1.04663951252e-05
1.04664344154e-05
1.04666161486e-05
1.04672768009e-05
1.04693456108e-05
1.04751043994e-05
1.04931340548e-05
1.0490147008e-05
1.0464742219e-05
1.04547117646e-05
1.0451212515e-05
1.04519114042e-05
1.04517208717e-05
1.04502027141e-05
1.04496264797e-05
1.04494053558e-05
1.04479258436e-05
1.04469835989e-05
1.04468281171e-05
1.04469893036e-05
1.04472320612e-05
1.04474256741e-05
1.04475477452e-05
1.04476075195e-05
1.04476036885e-05
1.04475752892e-05
1.04477221186e-05
1.0447865606e-05
1.04478415772e-05
1.04478035324e-05
1.04477610946e-05
1.04477064957e-05
1.04476877678e-05
1.04478012021e-05