/*--------------------------------*- C++ -*----------------------------------*\
| =========                 |                                                 |
| \\      /  F ield         | OpenFOAM: The Open Source CFD Toolbox           |
|  \\    /   O peration     | Version:  3.0.1                                 |
|   \\  /    A nd           | Web:      www.OpenFOAM.org                      |
|    \\/     M anipulation  |                                                 |
\*---------------------------------------------------------------------------*/
FoamFile
{
    version     2.0;
    format      ascii;
    class       volVectorField;
    location    "1.2";
    object      ddt0(U);
}
// * * * * * * * * * * * * * * * * * * * * * * * * * * * * * * * * * * * * * //

dimensions      [0 1 -2 0 0 0 0];

internalField   nonuniform List<vector> 
7968
(
(0.000183263826404 0.000171875753186 -0.000311107900934)
(0.000500724396367 0.000124439999014 -0.000274307036892)
(0.000837342228004 8.45825095474e-05 -0.000219936693085)
(0.00110977320761 5.21690879482e-05 -0.000144678153885)
(0.00127211645009 2.74993253857e-05 -5.59744163815e-05)
(0.00129510530173 6.9345513915e-06 3.5573306449e-05)
(0.0011826429922 -1.05394720289e-05 0.000120126270567)
(0.000961407547745 -2.60028207119e-05 0.000189877977042)
(0.000655200634598 -4.51604877868e-05 0.000225408489093)
(0.000301362996157 -5.65579548217e-05 0.000243834054474)
(-4.86391895094e-05 -6.07548477905e-05 0.000238819358742)
(-0.000367466142518 -6.05588528485e-05 0.000212259632125)
(-0.000617694667265 -5.09203189423e-05 0.00017234806773)
(-0.000777106789997 -3.93097318066e-05 0.000108875028998)
(-0.000843270124989 -2.26109229749e-05 3.75294022556e-05)
(-0.000808742904265 -7.38727560189e-08 -3.78544761138e-05)
(-0.00068083525644 2.89816086322e-05 -0.000108464452531)
(-0.000486688689524 6.66370133288e-05 -0.000167873508251)
(-0.000262845748088 0.000114769692303 -0.000207903805772)
(-0.000109684343144 0.000171502740722 -0.000234702930889)
(0.000137488839167 0.000464152701784 -0.00027526658498)
(0.000434129673039 0.000392083770031 -0.000380782332405)
(0.000806356512872 0.000322033621057 -0.000385011041129)
(0.00110996277542 0.000259501749976 -0.000328655611272)
(0.00129300006235 0.000201591218496 -0.000239161633307)
(0.00132594182258 0.000142611291635 -0.000133816094469)
(0.00121271743734 8.05491600514e-05 -3.12012670377e-05)
(0.000976435899807 1.91786505071e-05 5.53182427351e-05)
(0.000654531237641 -4.09251412017e-05 0.00011288578345)
(0.000291803832225 -8.05354543272e-05 0.000139217829871)
(-7.12639123107e-05 -9.03817883398e-05 0.000131376862241)
(-0.000398704669256 -8.7273720493e-05 9.72235451897e-05)
(-0.000655415421213 -5.34417642541e-05 3.72311385486e-05)
(-0.000820343817562 -5.0286859836e-06 -4.34148645599e-05)
(-0.000881493808295 5.60737488238e-05 -0.000134241299223)
(-0.00083301333032 0.000124947149034 -0.00022590020907)
(-0.000681823733952 0.000199694248889 -0.000302517955431)
(-0.000454171210004 0.000280464728303 -0.000347092970352)
(-0.000192068532335 0.000367507190748 -0.000325549479464)
(-5.86035751868e-05 0.00045042423669 -0.000192361608296)
(9.73294574664e-05 0.000772189058611 -0.00022359587354)
(0.000365397007112 0.000731518614435 -0.000390359932518)
(0.00075045903924 0.000672509175124 -0.00041975227202)
(0.00106129926442 0.000607916040534 -0.000365654849013)
(0.00124448986254 0.000533405058129 -0.000270122494047)
(0.0012717812091 0.000441983044491 -0.000156150830645)
(0.00115205655315 0.000334598474998 -4.48118732136e-05)
(0.000914361279728 0.000222483680205 4.71334677489e-05)
(0.000601228546963 0.000120931669535 0.000108226667811)
(0.00026313506166 4.98431340707e-05 0.000133852491878)
(-7.98630373118e-05 2.10939679898e-05 0.000113148312465)
(-0.000387437181587 3.87134741073e-05 8.40635947602e-05)
(-0.000617800706189 9.89236943801e-05 1.93751606344e-05)
(-0.000766641366565 0.000189367191938 -6.65491887197e-05)
(-0.000817969033283 0.000297465858747 -0.000163793236148)
(-0.000763762660171 0.000408415872011 -0.00026121478683)
(-0.000607942771943 0.000516385684396 -0.000340970036728)
(-0.00037441144016 0.000615113916208 -0.000381445066556)
(-0.000104753080911 0.000700045130697 -0.000332388419165)
(-8.73033336458e-06 0.000749206818004 -0.000136042444971)
(6.34318699822e-05 0.00103312831454 -0.000154691436301)
(0.000302440894073 0.00102005574554 -0.000343806287097)
(0.0006875912944 0.000967424087997 -0.000377142747195)
(0.000989411847665 0.000893684030429 -0.000310107696844)
(0.00115448626512 0.000793374152376 -0.000198903213167)
(0.00116098411408 0.000661746107318 -7.35596909968e-05)
(0.0010279661194 0.000501701324836 4.36073972572e-05)
(0.000792286844414 0.000336176481248 0.000130987427318)
(0.000501898792075 0.000189178138882 0.000185893448007)
(0.000199682009617 8.77750943221e-05 0.000205319908263)
(-8.76256685018e-05 4.45352049137e-05 0.000190084346784)
(-0.000337784604602 8.16351170077e-05 0.000149498496504)
(-0.000530501557907 0.000175837060858 8.33213992843e-05)
(-0.000652953540124 0.000313054091688 -1.27169223241e-06)
(-0.000693978055628 0.000471949432717 -9.89640803099e-05)
(-0.000641356093251 0.000630863191069 -0.000200012700352)
(-0.000494575652064 0.000775424231244 -0.000286672814683)
(-0.000274248439941 0.0008944688302 -0.000332377294454)
(-1.77842785501e-05 0.000980079059689 -0.000276844752824)
(3.33190952324e-05 0.000999629691593 -6.1833763156e-05)
(3.72270016559e-05 0.00119974244208 -7.30727640601e-05)
(0.000243896668417 0.00120737531072 -0.000266578028587)
(0.000614685234635 0.00115535988172 -0.000295511389982)
(0.000890820302101 0.00106606252166 -0.000212430886153)
(0.00102281852165 0.000933164215264 -8.70774111468e-05)
(0.00099520269481 0.000756322020244 3.99021675766e-05)
(0.000843422305989 0.000546012761421 0.000151796435597)
(0.000616470013386 0.000329533212956 0.000228169656265)
(0.000362782234144 0.000140167515751 0.000267480272992)
(0.000122237476945 1.30432781766e-05 0.000274277006434)
(-8.87449685094e-05 -2.86842522024e-05 0.000254009130674)
(-0.00026463851285 2.17522617367e-05 0.000213323694216)
(-0.000398914451344 0.000150999535715 0.000154284600762)
(-0.000485157442449 0.000335209727352 7.9486555321e-05)
(-0.000513414705798 0.000544927895608 -8.12964941868e-06)
(-0.000469437779419 0.000751027183825 -0.00010520508598)
(-0.000346360882774 0.00093252498639 -0.00019362841746)
(-0.000155586099908 0.0010739402853 -0.00024396575947)
(6.85345373448e-05 0.00116237804818 -0.000188843319349)
(6.74384087713e-05 0.00116273059026 2.45471672868e-05)
(1.73173456428e-05 0.00124541311515 1.25069739061e-05)
(0.00018660134676 0.00126487836473 -0.000172986682433)
(0.000527975460894 0.00120963653196 -0.000193599428788)
(0.000763058958974 0.00110365810414 -9.84299389316e-05)
(0.000847121152252 0.000941401558715 3.32437389226e-05)
(0.000780403386922 0.000726399104837 0.000154366294097)
(0.000609950222774 0.000478254132392 0.000244526008665)
(0.000394194463356 0.000224334462993 0.000294515317013)
(0.000190803898768 5.46210024301e-06 0.000307417945467)
(3.2816525091e-05 -0.000137211694223 0.000295936447873)
(-8.05253933174e-05 -0.000177859954067 0.000269085485654)
(-0.000162830354868 -0.000111086552182 0.00023535386852)
(-0.000223832406651 4.78853886741e-05 0.000192991204435)
(-0.000266661188223 0.000269516007323 0.000139959098757)
(-0.000283556886131 0.000519098303254 7.32282674924e-05)
(-0.000254887048846 0.000761292660442 -7.26074910261e-06)
(-0.000165165041833 0.000971777501936 -8.85258298122e-05)
(-2.0070112635e-05 0.00113235629734 -0.000138262773639)
(0.000154888030231 0.00122514661318 -8.53541387909e-05)
(9.70538932839e-05 0.00121649021371 0.000114364529856)
(6.02698980626e-08 0.00116857383151 9.30976563513e-05)
(0.000127708960562 0.0011901892154 -7.80798641135e-05)
(0.000427948603293 0.0011328270304 -9.06197436788e-05)
(0.000612527859038 0.0010168035179 9.85044281437e-06)
(0.000642678760203 0.000841831722113 0.000135915715741)
(0.000533480904886 0.000613195869563 0.000239689973643)
(0.000344739558238 0.0003498358907 0.000299862601187)
(0.000146877964903 8.485242003e-05 0.000313663140059)
(3.58051482571e-06 -0.000141133627186 0.000291708522155)
(-6.01349712776e-05 -0.000285212210706 0.000257366762645)
(-6.32418564826e-05 -0.000321527990286 0.000225234339693)
(-4.09174749092e-05 -0.000244534677287 0.000204401210717)
(-2.12037600342e-05 -7.20325810115e-05 0.000187194416126)
(-1.70872446031e-05 0.000165262818712 0.000165800151367)
(-2.24136778617e-05 0.000429835351852 0.000130120236178)
(-1.32808882145e-05 0.000687280471403 7.40604471969e-05)
(3.64525206961e-05 0.000908600496331 9.41570142656e-06)
(0.000128179877355 0.00107666754377 -3.41377619286e-05)
(0.000242183497132 0.00117265562677 1.68353474267e-05)
(0.000122943867638 0.00116311435511 0.000198821528029)
(-1.51775183434e-05 0.000980554064596 0.000162036429547)
(7.15632985078e-05 0.000998133642815 6.41655107237e-06)
(0.000325701277162 0.000944021146606 -5.77701469378e-07)
(0.000458475427265 0.00083301621232 9.87965112024e-05)
(0.000436983949188 0.000669821589623 0.000213341894508)
(0.000286870688883 0.000458696167928 0.000292395188539)
(8.22493587514e-05 0.000217689485019 0.000317063604719)
(-9.53873715969e-05 -2.22080660769e-05 0.00028968055093)
(-0.000178029443516 -0.000225894244345 0.000228563958119)
(-0.000147000963044 -0.000354149763877 0.000169027959413)
(-4.01065377145e-05 -0.000383511427902 0.000133030640806)
(8.56231298311e-05 -0.000308993864417 0.000129240533318)
(0.000184491986538 -0.000147530864216 0.000142578439974)
(0.000233920418942 7.46350220619e-05 0.000158492323007)
(0.000239663134355 0.000321418151479 0.000158926293738)
(0.000229343302021 0.00056278216855 0.00013172702012)
(0.000237846536354 0.00077142351115 8.79504155993e-05)
(0.000275093540183 0.000929379958188 5.44581107916e-05)
(0.00032546362209 0.00102123731664 0.000105441826082)
(0.000145340974547 0.00101718525887 0.000272725790273)
(-2.67523741228e-05 0.000717068072314 0.000211316396977)
(2.34439361036e-05 0.000719312599799 6.83827215069e-05)
(0.000235900709454 0.000675072515937 6.50626480796e-05)
(0.000325032094726 0.000589053771323 0.000160129436759)
(0.000261454476291 0.00046528817525 0.000261362660154)
(7.9128120462e-05 0.000307350358955 0.000316347146311)
(-0.000136601176949 0.000129262438953 0.000307519768119)
(-0.000296185326172 -4.66818640087e-05 0.000242615148081)
(-0.000327627221424 -0.000196122890991 0.000143625694827)
(-0.000217175016691 -0.000289962826953 6.03748627108e-05)
(-1.78823081465e-05 -0.000309905099036 2.18738428279e-05)
(0.000194806837865 -0.000252688784807 3.48678962714e-05)
(0.000361826291555 -0.000129465309298 7.65499616694e-05)
(0.00045148566512 4.21930169858e-05 0.000128253535508)
(0.00046723279388 0.000235468045424 0.000162371670258)
(0.000441639127577 0.000427160710859 0.000162246178983)
(0.000415002021047 0.000595628241503 0.00013818311255)
(0.000404405513921 0.000724881164306 0.00011617838328)
(0.000397830779964 0.000805121231355 0.000168819390833)
(0.000163735023085 0.000828258167564 0.00032881376297)
(-4.13833219144e-05 0.000392138069894 0.000222462924884)
(-1.63139114547e-05 0.000383935523878 9.99422584359e-05)
(0.000175094306551 0.000360007833917 0.000100460020241)
(0.000238146513412 0.000316362714499 0.000191529474893)
(0.000149494786336 0.000255148853003 0.00028319857778)
(-5.12641475335e-05 0.000179583583758 0.000322423866499)
(-0.0002723724432 9.63773805594e-05 0.000292075339108)
(-0.000420437316787 1.57753943975e-05 0.000202886451094)
(-0.000420649381573 -5.24701340876e-05 7.99544786967e-05)
(-0.000260106390047 -9.58004879374e-05 -1.98412025258e-05)
(-2.38500621239e-06 -0.000104104377983 -6.05599668431e-05)
(0.000266132854985 -7.43268184242e-05 -3.91565698074e-05)
(0.000479054143697 -1.06132586101e-05 1.90110968052e-05)
(0.000598649851048 8.21534192819e-05 9.29648751674e-05)
(0.000625450945565 0.000192194537433 0.000149253519263)
(0.000592448621089 0.000307044711808 0.0001684645618)
(0.000543338972064 0.000411946699304 0.00015888840843)
(0.000501692436239 0.000495733830112 0.000145790201912)
(0.000469663251872 0.000553414848476 0.000196758845224)
(0.00019455321213 0.000593530107399 0.000324380327889)
(-4.32080803153e-05 3.54354758759e-05 0.000224917511409)
(-2.44968383182e-05 2.97409683848e-05 0.000102791533752)
(0.000158099052991 3.24449639237e-05 0.000103648124489)
(0.000214529862952 3.91192211916e-05 0.000192967487092)
(0.000121408305898 5.12977923366e-05 0.000282112695884)
(-8.09131396502e-05 7.06388440807e-05 0.000317938616616)
(-0.000300617529624 9.59639565795e-05 0.000283300075382)
(-0.000444630659966 0.000124217824325 0.000189837599799)
(-0.00043854989554 0.000149279725482 6.27172691304e-05)
(-0.000268126924826 0.000163973168775 -4.06185159584e-05)
(4.07755376129e-06 0.000170263420645 -8.46696341392e-05)
(0.000288430975901 0.000170408093785 -6.61762873156e-05)
(0.000517991675456 0.00016916220244 -8.64780925872e-06)
(0.000653843487159 0.000173270529252 6.64957014937e-05)
(0.000691675741866 0.000187995480805 0.000127947970995)
(0.000661525451076 0.000213102998701 0.00015471784207)
(0.000605631750188 0.000242918313594 0.000151635402925)
(0.000550797731705 0.000271980606033 0.000143319762021)
(0.000502552096951 0.000296909232287 0.000197070262833)
(0.000206802113363 0.000321274954685 0.00032499454671)
(-3.27478289454e-05 -0.000284177238109 0.000217701846289)
(-2.0122956838e-06 -0.000303121823452 7.68635446376e-05)
(0.000186034122575 -0.000278325571756 7.42995659335e-05)
(0.000257157169154 -0.000225326175078 0.000165580802142)
(0.000180833591874 -0.000144975351732 0.000259871649016)
(-6.70058567687e-06 -3.69055499423e-05 0.000305125473504)
(-0.000218441680731 8.9255350989e-05 0.000284234931836)
(-0.000366607745483 0.000219072147989 0.000207318309002)
(-0.00038029548889 0.000331261988209 9.57175152988e-05)
(-0.000238553221428 0.000403647162239 -2.72455048716e-06)
(4.43196410857e-06 0.000427681007648 -4.96421998132e-05)
(0.000265113000308 0.000404694523832 -4.30471627094e-05)
(0.00048156418532 0.000348046956634 -2.07100536742e-06)
(0.000616760994457 0.000273798771552 5.60765313699e-05)
(0.00066359626876 0.000201746836836 0.000105579135714)
(0.000644760631589 0.00014244452199 0.000126381861806)
(0.000598287921209 0.000100999655977 0.000120697555887)
(0.000548172773331 7.75352592407e-05 0.000113152980095)
(0.000490819961831 7.35546969297e-05 0.000174333144405)
(0.000197850590361 0.000106016385305 0.000336137082542)
(-2.63292536057e-05 -0.000546830926998 0.000170005522624)
(3.06776867287e-05 -0.000583237756504 1.9963882234e-05)
(0.000248932837578 -0.000544020592769 1.46839770676e-05)
(0.000353690905321 -0.000457543813473 0.000108683519096)
(0.00031266750389 -0.000326653861708 0.00021279342767)
(0.000154378784102 -0.000152342284688 0.000276471847726)
(-4.37589708141e-05 5.03825541125e-05 0.000281571456899)
(-0.000202020555739 0.000257474213615 0.000234562190417)
(-0.000253472348597 0.000438089504052 0.00015174567278)
(-0.00017130450389 0.000560699030376 6.95454478368e-05)
(5.35574713207e-06 0.000604638979194 2.05876101619e-05)
(0.000208803093037 0.000571787056517 9.90785630045e-06)
(0.000386741908257 0.000479024850375 2.53876202736e-05)
(0.000506729439384 0.000350892819442 5.56714643127e-05)
(0.000557799791831 0.000214335858252 8.20570162303e-05)
(0.000556100659541 9.05287809105e-05 8.70572090729e-05)
(0.000532067680713 -7.15289401016e-06 7.14231276652e-05)
(0.000505238844553 -7.22120619735e-05 6.05590588441e-05)
(0.000472079760532 -9.69454808788e-05 0.000125399393414)
(0.00019742093861 -4.57339756876e-05 0.00030042879645)
(-1.52636621018e-05 -0.000741890078571 0.000105824839078)
(7.61524297283e-05 -0.000782707292489 -5.93127851007e-05)
(0.000334038734806 -0.000734986275114 -6.95922498377e-05)
(0.000484731230667 -0.0006312890125 2.58484181877e-05)
(0.000491149445167 -0.000473591659111 0.000139354412094)
(0.00037216714202 -0.000263961390357 0.00022483846782)
(0.000192491386286 -1.88062391555e-05 0.000262064452744)
(2.16845638755e-05 0.000232222350086 0.000252190227627)
(-7.66506307851e-05 0.000454424002781 0.000205477280163)
(-7.16431916253e-05 0.000610453093684 0.000147017012386)
(1.57999646681e-05 0.000674291237058 9.91354953379e-05)
(0.000139664601311 0.00064517881237 7.16828336459e-05)
(0.000260562913153 0.000540641801171 6.00758883279e-05)
(0.000351539992187 0.000387627935492 5.88555983046e-05)
(0.000400546898356 0.000217010173738 5.66941855142e-05)
(0.000417573432061 5.60009695234e-05 3.8877826317e-05)
(0.000424075239148 -7.57813327882e-05 9.20682594875e-06)
(0.000433128583149 -0.000166928665681 -6.99373185097e-06)
(0.000436559315116 -0.000207277778198 6.1187723834e-05)
(0.000191066142734 -0.000156759431245 0.000252885033543)
(-3.61747346849e-07 -0.000838779846492 3.29611277092e-05)
(0.000129844788732 -0.000876771832924 -0.000150381154162)
(0.00042853090094 -0.000825645551413 -0.000168938796585)
(0.000627943566374 -0.000720730600719 -7.7940594603e-05)
(0.000686466332097 -0.000559603117067 4.14148753042e-05)
(0.000611347584486 -0.000345796303299 0.000146732942177)
(0.000453267552531 -9.37023114728e-05 0.000214096757299)
(0.00027131888745 0.000166712664449 0.000240292839197)
(0.000124762818882 0.000400676008101 0.000229098966298)
(4.87880639605e-05 0.000569731105644 0.000195751105282)
(4.05452863703e-05 0.000648261965817 0.000154311854964)
(7.57003509786e-05 0.000632208843871 0.00011599055792)
(0.000129504941613 0.000535610497067 8.2366799475e-05)
(0.000182955075094 0.000384300457834 5.3174326491e-05)
(0.000223653117206 0.000209613077332 2.24466352061e-05)
(0.000257378610451 4.06115298083e-05 -1.82109163537e-05)
(0.000296414891012 -0.000101452206921 -6.1709832829e-05)
(0.000344776822042 -0.000201283555062 -8.20763367917e-05)
(0.000388461726805 -0.000251023291034 -9.41711581872e-06)
(0.00017916977407 -0.00020758677116 0.000201103799776)
(1.90397859676e-05 -0.000827107609089 -4.53024350232e-05)
(0.000187127355877 -0.000852139200889 -0.000242980933398)
(0.00051855679942 -0.000799472304296 -0.000270700290281)
(0.000762342467056 -0.000702384596731 -0.000190038041435)
(0.000870312782086 -0.000557313109056 -7.25182616894e-05)
(0.000837838245578 -0.000363772317226 4.38456307198e-05)
(0.000703372190346 -0.000134506400132 0.000134452706857)
(0.000514395281283 0.000104743524135 0.000190388725296)
(0.000325499741931 0.000323598882586 0.000209164429957)
(0.000176308099955 0.000486246310363 0.000199063042535)
(7.97886585017e-05 0.000570337367501 0.000168431606339)
(2.92841819025e-05 0.000568906884762 0.000125964074137)
(1.50843310486e-05 0.000492909700011 7.75570552084e-05)
(2.76217087981e-05 0.000363231691361 2.66629996835e-05)
(5.6541316117e-05 0.000208175133696 -2.66258344334e-05)
(0.00010261952006 5.4498220916e-05 -8.42629472567e-05)
(0.000171123609871 -7.65840130976e-05 -0.00013579194734)
(0.000255224194063 -0.000172364980321 -0.000155782681947)
(0.000332728958312 -0.000227159894505 -7.79651871212e-05)
(0.000161613654328 -0.000199695614915 0.00014901793693)
(4.49203531969e-05 -0.000711156392261 -0.000118718602108)
(0.000248786604073 -0.000712396862723 -0.000320100499036)
(0.000602227478256 -0.00065544355043 -0.000354645784205)
(0.000877608643607 -0.000568346308071 -0.000288698854176)
(0.00102523952568 -0.000448585630728 -0.000181409622236)
(0.00102985429666 -0.000290724175791 -6.42702039299e-05)
(0.000915906683114 -0.000103416222946 3.97552939395e-05)
(0.000724401056276 9.41312334751e-05 0.000116267638099)
(0.000503423929514 0.000276651115943 0.000158011612224)
(0.00029558099187 0.000415813944849 0.000167299303181)
(0.000125932833749 0.000493751810883 0.000148012563319)
(2.88647096841e-06 0.000503377531239 0.000106472463141)
(-7.07329709981e-05 0.000451358640914 5.06248650367e-05)
(-9.65414219899e-05 0.00035357312452 -1.32114243446e-05)
(-8.21965883972e-05 0.000232188759213 -7.98445990015e-05)
(-2.80639435789e-05 0.000109328587367 -0.000145461485098)
(6.20708528816e-05 1.05563390345e-06 -0.00019731181317)
(0.000170230556507 -8.54833777973e-05 -0.000211669415821)
(0.000270370296315 -0.000145644582478 -0.000130217376375)
(0.000135957182009 -0.000145719646787 0.000101466473684)
(7.98681194877e-05 -0.00051729398034 -0.000180827442501)
(0.000318227580619 -0.000484428029016 -0.000364965432207)
(0.000678989870603 -0.000417807456794 -0.000397553038206)
(0.000970025241463 -0.00033876738641 -0.000343667623485)
(0.00114085153367 -0.000244429644782 -0.000249005760988)
(0.00117066242232 -0.000128829584523 -0.000137666126902)
(0.0010743448902 6.30191501444e-06 -3.08783452851e-05)
(0.000882559552963 0.000148903069267 5.56908710906e-05)
(0.000639825664467 0.000281416429016 0.000111794988167)
(0.000391987322713 0.000385516211274 0.000134230008131)
(0.000171557777965 0.000443913026661 0.000124604370105)
(-4.60837150041e-06 0.00045958042183 8.65869977481e-05)
(-0.000123863190424 0.000430639564419 2.98721808456e-05)
(-0.000180033448996 0.000367780640105 -3.77245913266e-05)
(-0.000178346082429 0.000285544517308 -0.000108063403787)
(-0.000123002942943 0.000198563511643 -0.000173662069284)
(-2.48664835265e-05 0.000114474913571 -0.000220140759918)
(9.23548929964e-05 3.71472939757e-05 -0.000228786532496)
(0.000198686982869 -3.31853126729e-05 -0.000152121575403)
(9.96577693885e-05 -7.27929210877e-05 6.37885373865e-05)
(0.000126061190557 -0.00028695236055 -0.000223354016494)
(0.000397713537423 -0.000215197700544 -0.000343322540559)
(0.000749350115874 -0.000134358285081 -0.000349013133093)
(0.00103611566638 -5.92354452737e-05 -0.00029179710517)
(0.00121045592952 1.22941246689e-05 -0.000201670072795)
(0.00124946811795 8.73305047568e-05 -9.62643496052e-05)
(0.00116183282748 0.000166771234753 6.21888653147e-06)
(0.000972979153435 0.000246822348903 9.27029218198e-05)
(0.000723559803085 0.000320304732815 0.000152058769179)
(0.00045390771228 0.000392217344258 0.000177012327113)
(0.000207794121531 0.000408231378865 0.00017843057043)
(7.43089670428e-06 0.000430100301165 0.000144321372785)
(-0.000138336628611 0.000422840246897 9.08594770321e-05)
(-0.000214508934718 0.000393280433647 2.70838922813e-05)
(-0.000225694326361 0.000348705193815 -3.9314324699e-05)
(-0.000177968980053 0.000294454727642 -0.000100367274526)
(-8.60085306864e-05 0.000232387556524 -0.000144118378387)
(2.1175457339e-05 0.000160750344083 -0.000158139000177)
(0.000114091286235 7.66763283997e-05 -0.000110713257846)
(5.05335630091e-05 -8.53924045096e-06 3.81623481805e-05)
(0.000181623428116 -0.000119150685838 -0.000251569421329)
(0.000477140947392 -6.76186767144e-05 -0.000209131919537)
(0.000791316896286 -1.94265034265e-05 -0.000151104891842)
(0.00104517741624 1.88779788821e-05 -7.43442853223e-05)
(0.00119930996245 4.85423246364e-05 1.51860819873e-05)
(0.00123067969895 7.44075915043e-05 0.00010632051203)
(0.00114563307854 9.77860692557e-05 0.000190719301195)
(0.000966635498704 0.000119405480824 0.000262287046358)
(0.000745115967483 0.000138200034521 0.000315077517)
(0.000475078279357 0.00016700498762 0.000315258527238)
(0.000239823704806 0.000161450554163 0.000355071137008)
(7.02892104091e-05 0.000177169627915 0.000315007750252)
(-7.96965856873e-05 0.000181360631261 0.000270528405052)
(-0.000161343995383 0.000177111168324 0.000222431951713)
(-0.000181851799982 0.000165816520681 0.000173992131004)
(-0.000151156443855 0.000148498948987 0.000127883810702)
(-8.7077177399e-05 0.00012265195939 8.73755731415e-05)
(-1.88118935881e-05 8.60632715704e-05 5.64848268215e-05)
(2.90799163997e-05 3.71804733045e-05 3.58184008452e-05)
(-9.67658741131e-06 -2.31914379067e-05 1.50477905236e-05)
(0.000241624841751 0.000227662746875 -0.00100385895578)
(0.000635798778998 0.000238786699201 -0.000924237746207)
(0.00101930765046 0.000232172689919 -0.000785608413142)
(0.00131749330629 0.000224313282916 -0.000581108433201)
(0.00148580097267 0.000209207486196 -0.000326576759659)
(0.00149830666007 0.00018537685996 -5.32727836717e-05)
(0.00135652143547 0.000154779057915 0.000205666454236)
(0.00107897288287 0.000121741064373 0.000419375977703)
(0.000714165317953 9.61510350652e-05 0.000558216921757)
(0.000311371892562 7.60986098706e-05 0.000623464494069)
(-9.17197148238e-05 6.78656747061e-05 0.000609535014489)
(-0.000451756550618 7.3922664876e-05 0.000523360254233)
(-0.000742752371165 8.86470788302e-05 0.000379310988925)
(-0.000937457872446 0.000115438028928 0.000185589409656)
(-0.00101773762225 0.000145449270356 -3.23054140218e-05)
(-0.000985060764762 0.000175378839259 -0.000251570819444)
(-0.000850602153032 0.000199832156562 -0.000448053614086)
(-0.000638558033587 0.000217927688025 -0.000601657354938)
(-0.000383403610512 0.000236848566209 -0.00070018213253)
(-0.000163060231858 0.00023484528801 -0.000755490092479)
(0.000261530923827 0.000591871538178 -0.000929773749296)
(0.00065022025506 0.00059043306732 -0.00103989677591)
(0.00102588441694 0.000561088007994 -0.000977525848473)
(0.00132492909093 0.000526105895791 -0.000800588309666)
(0.00148977054729 0.000473930452221 -0.00055156417479)
(0.00149772190189 0.000400934536486 -0.000267834828395)
(0.00135006599628 0.000311852131019 9.00358314733e-06)
(0.00107089254383 0.000217854575909 0.000241476566813)
(0.000703274651707 0.000138542552474 0.000399726158978)
(0.000295562576713 8.26113342175e-05 0.000471536166669)
(-0.000106872596141 5.74138355614e-05 0.000454377762345)
(-0.000467762218996 8.12265575899e-05 0.00035914496061)
(-0.000756691210147 0.000131884984573 0.000195196137117)
(-0.000946982830075 0.00020890604934 -1.83553319774e-05)
(-0.00102582924164 0.000297328177069 -0.00025507823983)
(-0.000992980956373 0.000384572215145 -0.000486129178133)
(-0.0008606025203 0.000460955005795 -0.000681396578408)
(-0.000649426212248 0.000522453268765 -0.00081005505494)
(-0.000408574063046 0.000575394606883 -0.000827202018745)
(-0.000192378262168 0.000590405091094 -0.000670353643167)
(0.000257401076344 0.000941216292983 -0.000805344686525)
(0.000626843324062 0.000931968598304 -0.000996233808637)
(0.000991760964642 0.000891317764551 -0.000965902674797)
(0.00127435737229 0.000832827694852 -0.000790574150999)
(0.00141798121145 0.000745397224588 -0.000532991333898)
(0.00140728560417 0.00062537610264 -0.000241512415773)
(0.00124957664095 0.000482060640615 3.7777922124e-05)
(0.000974558511791 0.000328882985935 0.000267115788911)
(0.000627663701591 0.000195229330097 0.000417979641593)
(0.000248516056226 0.000104004435846 0.000480126224614)
(-0.000109696671251 7.26382733057e-05 0.000449932902964)
(-0.000426190820125 0.000104993183161 0.000356174411788)
(-0.000687440664094 0.000192361570386 0.00019221640658)
(-0.000858001837958 0.000318527906509 -2.03436160932e-05)
(-0.000930128031749 0.000461659001464 -0.000256558110494)
(-0.000902428753021 0.000602559263838 -0.000487664804706)
(-0.000784071207268 0.00072688838489 -0.000681242095336)
(-0.000590824878076 0.000826536833002 -0.000798440292677)
(-0.000367800382313 0.000899821545998 -0.000775889047792)
(-0.000180503544177 0.000923248877612 -0.000532741072468)
(0.000250911062773 0.00122376272149 -0.000624609114985)
(0.000595944025859 0.00121666701229 -0.000848611813986)
(0.000938083869337 0.00116205568534 -0.000820828360933)
(0.00118771346806 0.00107353002466 -0.000627711095108)
(0.00129311541869 0.000941787647349 -0.00035319414474)
(0.00125126057462 0.000765562258728 -5.83869567368e-05)
(0.00107628637096 0.00056048408976 0.000207037824028)
(0.000808740636091 0.000348262111006 0.000412395180943)
(0.000499447751095 0.000163335133841 0.000533785929566)
(0.000185502349287 3.91077765371e-05 0.000572257787184)
(-0.000104809759776 5.82276933527e-06 0.000537133264607)
(-0.000358034625404 5.20468042443e-05 0.000441065659967)
(-0.000561403886206 0.000179315834424 0.000289844959798)
(-0.000700044997006 0.000359411168914 9.6507640435e-05)
(-0.00076371446973 0.000562660064746 -0.000122785167051)
(-0.000747134511073 0.000762487056088 -0.000343464191222)
(-0.000654316370829 0.000938687700027 -0.00053361009545)
(-0.000494342079152 0.00107783315083 -0.000648321652831)
(-0.000305106477294 0.00117128930649 -0.000611216432574)
(-0.000160508483031 0.00119085175214 -0.000336966117947)
(0.000237477478694 0.0013975847427 -0.000397183715416)
(0.000549608531724 0.00139021710558 -0.000632508662929)
(0.000857867860592 0.00131855268882 -0.000595933199161)
(0.00106048239509 0.00119693666865 -0.00038416029862)
(0.00111409127701 0.00102010983123 -0.00010141060028)
(0.00103116470582 0.000792216379625 0.000179674219433)
(0.000840291219015 0.000529151819311 0.000411611229466)
(0.000587759226972 0.000264439283515 0.000564624915363)
(0.000329246180704 3.49736813046e-05 0.000632789177445)
(9.94179162466e-05 -0.00011553637338 0.000632697291657)
(-9.27386830121e-05 -0.000157360289573 0.000584899702207)
(-0.000253294176842 -8.66813019644e-05 0.000500772321426)
(-0.000384441495934 8.04008853156e-05 0.000381678953037)
(-0.000481323111415 0.000311734094438 0.000229635107604)
(-0.000534146594074 0.000570572426875 5.05194526675e-05)
(-0.000533271831513 0.00082473184662 -0.000140307802152)
(-0.000475262668216 0.0010490430499 -0.000313562866205)
(-0.000360927338131 0.00122500824944 -0.000420854461319)
(-0.000218537547871 0.00133808340455 -0.000376572052789)
(-0.000130676283908 0.00135797372441 -9.43468832405e-05)
(0.0002178948291 0.00143688403878 -0.000146442296101)
(0.000485524581733 0.00142867873233 -0.000376935939047)
(0.000748802998284 0.00134182196363 -0.000330703204697)
(0.000894661523833 0.00119269806144 -0.000111472821369)
(0.000891613572146 0.000981102774359 0.000160993754154)
(0.000762802057424 0.000716630515411 0.000405363520935)
(0.000552235464495 0.00041469276415 0.000574293825375)
(0.000320087535366 0.000111679941487 0.000647430808258)
(0.000125975238707 -0.000148529220017 0.000637173892332)
(-7.47131545926e-07 -0.000316654167849 0.00058334084164)
(-7.15344168891e-05 -0.000359522161309 0.000520950778274)
(-0.000118176438589 -0.00027094416845 0.000463503483695)
(-0.000163253705502 -7.27083707454e-05 0.000400624819987)
(-0.000211904306716 0.000198237444032 0.000317587959433)
(-0.000253521256714 0.000498287284541 0.000203885931118)