/*--------------------------------*- C++ -*----------------------------------*\
| =========                 |                                                 |
| \\      /  F ield         | OpenFOAM: The Open Source CFD Toolbox           |
|  \\    /   O peration     | Version:  3.0.1                                 |
|   \\  /    A nd           | Web:      www.OpenFOAM.org                      |
|    \\/     M anipulation  |                                                 |
\*---------------------------------------------------------------------------*/
FoamFile
{
    version     2.0;
    format      ascii;
    class       surfaceVectorField;
    location    "1.2";
    object      ddt0(Uf);
}
// * * * * * * * * * * * * * * * * * * * * * * * * * * * * * * * * * * * * * //

dimensions      [0 1 -2 0 0 0 0];

internalField   nonuniform List<vector> 
22672
(
(0.000329120976262 0.000148676098899 -0.000293227432507)
(0.000160890259888 0.000303651709706 -0.000293707490858)
(0.000212933326273 0.000200262266672 -0.00063102720458)
(0.000673061595403 0.000105079050279 -0.000247302223371)
(0.000468397975608 0.000233042412538 -0.000327455890323)
(0.000569209404121 0.000182137940866 -0.000575176053604)
(0.000978943759423 6.89831641115e-05 -0.000182445748819)
(0.000822967462852 0.000176926250257 -0.000302298271754)
(0.000929426746402 0.000158969477612 -0.000480872591748)
(0.00119599710452 4.04529894988e-05 -0.000100468467336)
(0.00111096260772 0.000129475208942 -0.00023649668267)
(0.0012147138572 0.000138843601375 -0.000344478705108)
(0.00128717226296 1.78533886208e-05 -1.03381686712e-05)
(0.00128356727756 8.87351332903e-05 -0.000147392029864)
(0.00137995552561 0.000118974406999 -0.000177865854614)
(0.00124087830747 -1.14697057832e-06 7.77196579555e-05)
(0.00131142125057 4.96471731631e-05 -4.89359230038e-05)
(0.00139759312677 9.67979974434e-05 -1.51681248533e-06)
(0.0010689206015 -1.75984025596e-05 0.000154879649894)
(0.00119842847131 1.04138295111e-05 4.46576579456e-05)
(0.0012703218337 7.27821018152e-05 0.000162913788678)
(0.000810772617991 -3.4894829357e-05 0.000207527491571)
(0.000969479445592 -2.76742985079e-05 0.000122802250764)
(0.00102074158263 4.85489476173e-05 0.000286417790281)
(0.000474044427161 -5.01630199136e-05 0.000234510332375)
(0.00065519759213 -6.97204572153e-05 0.000169358429039)
(0.000685010932378 2.618838909e-05 0.000405896421336)
(0.000124669199965 -5.79567178036e-05 0.000241217855378)
(0.000296664947309 -9.55315657621e-05 0.000191741406774)
(0.000306448215669 1.04708353993e-05 0.000442760734121)
(-0.000208040652236 -5.99600210617e-05 0.000225429753472)
(-6.01284538171e-05 -0.000104854341174 0.000185314124476)
(-7.03540622656e-05 4.25642694272e-06 0.000433349204027)
(-0.000496570012039 -5.50515111161e-05 0.000192190555181)
(-0.000383511756109 -0.000101665680759 0.00015495456775)
(-0.000410032434747 7.37654741678e-06 0.000383530615004)
(-0.000693898880437 -4.44404294077e-05 0.000140492850381)
(-0.000637206173761 -7.79982217672e-05 0.00010499667175)
(-0.000680866686035 1.95457746623e-05 0.000266109360207)
(-0.000806927458217 -3.03023783151e-05 7.3077326482e-05)
(-0.000799565200249 -4.79982351332e-05 3.29295632338e-05)
(-0.000858111940442 3.87301028051e-05 0.000149593153648)
(-0.000821856969407 -1.07028002641e-05 -2.93297755222e-07)
(-0.000863368901102 -9.57178009305e-06 -4.8164430954e-05)
(-0.000931478575678 6.20663325075e-05 1.16681500755e-05)
(-0.000740142338287 1.50742934069e-05 -7.3295112231e-05)
(-0.000821969793964 3.53841140903e-05 -0.000131692917219)
(-0.000897979704339 8.82799839767e-05 -0.00013021788754)
(-0.000578934730933 4.84098259898e-05 -0.000138307921766)
(-0.000682484667111 8.60882204737e-05 -0.000205312320817)
(-0.000766858708688 0.000115014876905 -0.000259689174931)
(-0.000372116989947 9.12900937821e-05 -0.000188041375971)
(-0.000471595881633 0.000145335284345 -0.000257307218845)
(-0.000563771860004 0.000142870610789 -0.000363519111364)
(-0.000166198319478 0.000143744823572 -0.00022172109134)
(-0.00022848126887 0.000214499170072 -0.000266576290449)
(-0.000324124795601 0.00017638653413 -0.000431760267619)
(-8.48389615971e-05 0.000296932420129 -0.000213914146956)
(-0.000137038672323 0.000203790192439 -0.000471265876409)
(0.000263828764145 0.000429115350189 -0.000327935948674)
(0.000117976954542 0.000619478607985 -0.000249611971161)
(0.000200038628135 0.000528985822761 -0.000577822494504)
(0.000622550587795 0.000358032493469 -0.000382451938706)
(0.000400722771682 0.000560776581707 -0.000385126091363)
(0.000543049837858 0.000492135928178 -0.00068441800441)
(0.000961933795814 0.000291793418118 -0.000356349205605)
(0.000779535665387 0.000495821419725 -0.00040186011432)
(0.000917192178742 0.000442499236442 -0.000655847947674)
(0.00120454908028 0.000231616925293 -0.000283420245198)
(0.00108673309804 0.000431964540717 -0.000346633602513)
(0.00121849450095 0.000393790317785 -0.000542090570305)
(0.00131088666581 0.000173216964295 -0.000185989784197)
(0.00126976951827 0.000364919577815 -0.000254109300061)
(0.00139236098251 0.000338795829502 -0.00037876444921)
(0.00126860798453 0.000112740800097 -8.19979230138e-05)
(0.0012997817692 0.00028830847549 -0.000144436910926)
(0.00141271021703 0.00027285765847 -0.000191774273614)
(0.0010916824826 5.10656971195e-05 1.25802588154e-05)
(0.00118316179763 0.000202418528581 -3.74463792408e-05)
(0.00128213381358 0.000197333452968 -9.61420132134e-06)
(0.000812449274112 -9.63777077677e-06 8.46331882317e-05)
(0.000945983267058 0.000114350868423 5.17986425737e-05)
(0.00102422766339 0.000119691948967 0.000143347823934)
(0.000469225474768 -5.94728104871e-05 0.000126589503439)
(0.00062823503778 3.37320641559e-05 0.000111138972849)
(0.000679250270501 5.00162236655e-05 0.000246127297605)
(0.000109023968904 -8.41939963047e-05 0.000135837675873)
(0.00027756789794 -2.26128960664e-05 0.000137123590826)
(0.000293788566368 2.2627451765e-06 0.000293094178405)
(-0.000236055357241 -8.75721047151e-05 0.000114838938753)
(-7.57313075057e-05 -3.45146177823e-05 0.00012285148056)
(-8.92140126469e-05 -1.52595469465e-05 0.000279033412491)
(-0.000524872859042 -6.912604354e-05 6.77606843186e-05)
(-0.000393495067584 -3.08264904594e-05 9.12277519137e-05)
(-0.000433620907459 -1.81723281808e-06 0.000219784666559)
(-0.000733082193777 -2.80393060636e-05 -2.56661539713e-06)
(-0.000637260977052 1.43455660475e-05 2.88784813071e-05)
(-0.000706656409794 4.03948838945e-05 0.000114498284578)
(-0.00084488498136 2.6674982272e-05 -8.83121942022e-05)
(-0.000794334573181 8.4345475772e-05 -5.44179461785e-05)
(-0.000884444416821 0.000103068427173 -2.52463284594e-05)
(-0.000850642138724 9.16156055512e-05 -0.000179564050418)
(-0.000850717528499 0.000169965937282 -0.00014846498733)
(-0.000954577896044 0.000177781593543 -0.000181396198048)
(-0.000750128886892 0.00016337713422 -0.000263710125805)
(-0.000799474392626 0.000260969950785 -0.000243015927924)
(-0.000914006823265 0.000255789441347 -0.000335785010889)
(-0.000561438433917 0.000241085166134 -0.000324311617896)
(-0.000646030123022 0.000353347981474 -0.00032121084864)
(-0.000772277380299 0.000331303618364 -0.000466838746603)
(-0.00032007571989 0.000324947156129 -0.000335842133323)
(-0.000415449058707 0.000444110508656 -0.00036374049701)
(-0.000552866402964 0.000402385461111 -0.000551876582009)
(-9.9106287912e-05 0.000409935189015 -0.000258769346065)
(-0.000149437201051 0.000531225099181 -0.000328469414109)
(-0.000301258514624 0.000472339675304 -0.000550840062539)
(-3.43796011166e-05 0.000598810036751 -0.000164267801751)
(-0.000126148621123 0.000521361145086 -0.000410775196342)
(0.000206768673026 0.000753000662612 -0.000306802113849)
(8.09890941321e-05 0.000905932292044 -0.000189281599746)
(0.000177961767428 0.000857832717221 -0.000491149629333)
(0.000560180300752 0.000703152850671 -0.000404534266977)
(0.000334930729787 0.000877341651345 -0.00036659737397)
(0.000497055248264 0.000832807867502 -0.000667391950529)
(0.000907523874524 0.000641400118881 -0.000392144511228)
(0.000720200939864 0.000819247313636 -0.000397887205757)
(0.0008722213416 0.000783019207862 -0.000667110765526)
(0.00115359941256 0.000571911432672 -0.000317322657375)
(0.00102650780099 0.000747102406084 -0.00033731852309)
(0.00116891235331 0.000721542668144 -0.000555737850019)
(0.00125661547543 0.000489013792979 -0.00021255642679)
(0.00120056996339 0.000656187964851 -0.00023393533887)
(0.00133225338528 0.000640644563719 -0.000386162521468)
(0.00120799532512 0.000389681253584 -9.98853671531e-05)
(0.00121736385807 0.000540712207552 -0.000114259321136)
(0.00134045813451 0.00053500085197 -0.000192244143959)
(0.00102737769411 0.000279998245394 1.77200451757e-06)
(0.001090844909 0.000404030036267 1.25853668361e-08)
(0.00120160455186 0.000409728432333 -5.54632189099e-06)
(0.000751454371531 0.000173220192617 7.83044271908e-05)
(0.000853958253009 0.000262398172697 8.96931066735e-05)
(0.00094506271785 0.000277152161542 0.000147184089776)
(0.000424234660546 8.693649759e-05 0.000121673060236)
(0.000551951774686 0.000136600615014 0.000147707024509)
(0.000614820091391 0.000159602924431 0.000246744510178)
(9.97332688364e-05 3.70297157108e-05 0.000124137395512)
(0.000231517792299 4.9278232821e-05 0.000170241309434)
(0.000255940004183 7.84752348078e-05 0.000276575197615)
(-0.000240156492273 3.14502403215e-05 9.924029372e-05)
(-8.39256404918e-05 4.4801777734e-06 0.000152271851053)
(-9.49358294386e-05 4.84170193077e-05 0.000324390934218)
(-0.000495293653686 7.03258167916e-05 5.23455489023e-05)
(-0.000363070638078 3.91389877467e-05 0.000117429280372)
(-0.000407228996913 7.33740583507e-05 0.000206019861654)
(-0.000683775590521 0.000145594402492 -2.29728494742e-05)
(-0.000574856158924 0.000118436594898 5.19831753636e-05)
(-0.00065326355746 0.000147108555624 0.000100718759598)
(-0.000782938830697 0.000244795590904 -0.000114570739306)
(-0.000710700779966 0.000234164696091 -3.32922158747e-05)
(-0.0008131482924 0.000255342255391 -4.00567770593e-05)
(-0.000781007914433 0.000354245388732 -0.000211916864836)
(-0.000757023469418 0.000370687078461 -0.000130777703412)
(-0.000875010607535 0.00038087820984 -0.000198172835736)
(-0.000675994020347 0.000463631234684 -0.000300516650759)
(-0.000703707373273 0.000509209517752 -0.000230028458825)
(-0.000834147894602 0.000506723755767 -0.000354577911368)
(-0.000481987007088 0.000566908984442 -0.000360639727753)
(-0.000552463628286 0.000638602058317 -0.000313248787194)
(-0.000697110834416 0.000622797339603 -0.000485666119348)
(-0.000236521407923 0.000658681334247 -0.000356367777796)
(-0.000325540285984 0.000750479896429 -0.000356346573948)
(-0.000483725440892 0.000721914795344 -0.000562664797295)
(-2.95407685139e-05 0.000725718799928 -0.000233967869796)
(-6.23330539209e-05 0.000837893046942 -0.000304085040995)
(-0.00023724372225 0.000800975717913 -0.000528508421619)
(1.15714675432e-05 0.000873582400875 -9.89796158511e-05)
(-9.52829816248e-05 0.000837306386489 -0.000315702113868)
(0.000158022747954 0.00102771940269 -0.000249076859866)
(5.09513092506e-05 0.00111952592024 -0.000114022352157)
(0.000157780380157 0.00112955807299 -0.000369141547848)
(0.000496506784431 0.000994853739356 -0.00035995031275)
(0.000274226952901 0.00111480781157 -0.000304699907301)
(0.000450176717651 0.00111939887486 -0.000572398056826)
(0.000837246670263 0.000931719943248 -0.000343061217619)
(0.00065237841287 0.00106014413553 -0.000335757154071)
(0.000814014542733 0.00106581604847 -0.00057574175048)
(0.00106925785224 0.000844773320434 -0.000253931204585)
(0.000941346644245 0.000975344063937 -0.000260693683967)
(0.00108972519438 0.000984762151875 -0.000450319874599)
(0.00115266096992 0.000728892286433 -0.000135638233216)
(0.00108982264135 0.000854715089867 -0.0001423948904)
(0.00122490635114 0.000868827915514 -0.000266064449548)
(0.00108584239258 0.000583148251226 -1.43613686157e-05)
(0.00107916732634 0.000697260509342 -1.62083688558e-05)
(0.00120713851739 0.000715002400365 -6.62097936173e-05)
(0.000899294450379 0.000420452092704 8.79336875228e-05)
(0.000936616696662 0.000505942306232 9.8348791375e-05)
(0.00105300165046 0.000532544058987 0.000116864115539)
(0.000636590010141 0.000264265149988 0.000159095703992)
(0.000705087434834 0.000310618550752 0.000180251097814)
(0.000801190178577 0.000343765320737 0.000255332239019)
(0.000343305153531 0.000140114324305 0.000196275273707)
(0.00043277856529 0.0001393174673 0.000227380422471)
(0.000501096633583 0.000177876218318 0.000338546516586)
(5.56122769048e-05 6.78095129577e-05 0.000198375764975)
(0.000161085667617 2.29655112759e-05 0.000240504043333)
(0.000192723665381 6.51012272532e-05 0.000366328144778)
(-0.000209655274282 6.47197020191e-05 0.000170460837706)
(-8.8386475445e-05 -1.78589047091e-05 0.000222752726874)
(-9.63921170722e-05 2.68381176203e-05 0.000340639332574)
(-0.000424347239772 0.000130317389669 0.000117066906834)
(-0.00030172466663 2.53056293569e-05 0.000182105866906)
(-0.000348375485452 6.84584753868e-05 0.000278426748047)
(-0.000579050789529 0.000245948522612 4.16638089632e-05)
(-0.000465491606156 0.000139304712647 0.000119477623885)
(-0.000546670808703 0.000179118842085 0.000177177414891)
(-0.000659602937164 0.000393911938835 -4.94991799807e-05)
(-0.000570051911665 0.000303419557829 3.97573425978e-05)
(-0.000677415140426 0.000337678630931 4.55103027267e-05)
(-0.000653519165346 0.000552719442085 -0.000148889297401)
(-0.000604843770828 0.000491556769576 -5.29221587999e-05)
(-0.000729901802142 0.000518645732065 -0.000103368681825)
(-0.000554474176937 0.000704363462338 -0.00024276059526)
(-0.000556638802688 0.000678350858989 -0.000152006936866)
(-0.000695387874001 0.00069791270124 -0.000255664611208)
(-0.000371410086986 0.000836082096549 -0.000308955633389)
(-0.000421757070431 0.00084519358581 -0.000239567206068)
(-0.000575632042935 0.000858198845585 -0.000387692872689)
(-0.000141908288901 0.000938348425522 -0.000304063837147)
(-0.000216197687685 0.000978976408952 -0.00028760103986)
(-0.000385471899188 0.000987212292781 -0.000465465876104)
(3.38061319735e-05 0.000990915835181 -0.00016909678705)
(2.42636915823e-05 0.0010681331052 -0.00023230963608)
(-0.000162460131392 0.00107669923471 -0.000420919785082)
(4.964215328e-05 0.00107986384634 -1.86862676792e-05)
(-6.42712082502e-05 0.0010962849353 -0.000184294484979)
(0.000116115237892 0.0012046026318 -0.000169645399592)
(2.79139130407e-05 0.0012256837044 -3.04165693878e-05)
(0.000137982043654 0.00129969410198 -0.000219226974311)
(0.000430298295909 0.00118240476523 -0.000280506748623)
(0.000216354490567 0.00123645591468 -0.000219277004834)
(0.00039778713595 0.00129976018109 -0.000430802501967)
(0.000748244511924 0.00111180828198 -0.000253389620419)
(0.000572640926284 0.00118011999442 -0.000243968650662)
(0.000737527533407 0.00123796629484 -0.00042856422257)
(0.000949627938341 0.00100079947301 -0.000149157369782)
(0.000828258776912 0.0010780982019 -0.000154833287145)
(0.000976906204003 0.00113259829994 -0.000287405445924)
(0.00100036165939 0.000846031598126 -2.29650260407e-05)
(0.000936242454468 0.000925111907642 -2.62930512348e-05)
(0.0010696666375 0.000977842160538 -9.37463623623e-05)
(0.000903473597262 0.000652565506015 9.65017911349e-05)
(0.000888986584704 0.000722472981562 9.77918397534e-05)
(0.00101431343439 0.00077559427488 0.000112509944249)
(0.00071329038664 0.000439278089382 0.000190666201666)
(0.000727715706864 0.000489069654335 0.000198855804636)
(0.000842843031527 0.000539032119879 0.000262823488365)
(0.000473916148954 0.000236446860924 0.000248535816293)
(0.000506132596579 0.000249221151075 0.000262073850963)
(0.000602885997734 0.000298552722884 0.000370962557139)
(0.000231946312594 7.8263646662e-05 0.000271609192097)
(0.000277292829464 4.14819353011e-05 0.000288211161996)
(0.000346502094227 8.92290825131e-05 0.000421704436746)
(1.4409100988e-05 -6.14133580129e-06 0.000264881005232)
(7.76738110003e-05 -9.55729883377e-05 0.000285886472727)
(0.000110981713351 -4.95372487786e-05 0.000425139387326)
(-0.000169739743831 -1.81116975335e-06 0.000234397756074)
(-8.48606397402e-05 -0.000136384078797 0.00026232746327)
(-9.09401651041e-05 -9.13136257699e-05 0.00039334173571)
(-0.000316878155169 8.79652605774e-05 0.000184516583957)
(-0.000214312956955 -7.66119418096e-05 0.000225102022082)
(-0.000259498311713 -3.08081443313e-05 0.000335672073399)
(-0.000423364772096 0.000244598461422 0.00011757115752)
(-0.000312252516317 7.03474529884e-05 0.000174371218537)
(-0.000392492784255 0.000117262845277 0.000252984231857)
(-0.000480034605519 0.000441451074375 3.63343637786e-05)
(-0.000377017272463 0.000277195773111 0.000110420153165)
(-0.000484268998104 0.000324915923346 0.000147381978866)
(-0.000472272098519 0.000649245181529 -5.60397982647e-05)
(-0.000399747792322 0.000511944407148 3.32106459797e-05)
(-0.000524951944607 0.000559067283654 2.05527351112e-05)
(-0.000389709467319 0.000842936078107 -0.000148813547674)
(-0.00036351192236 0.000740801749824 -5.5603617278e-05)
(-0.000502606026348 0.000789074450896 -0.000113469776006)
(-0.00023389488832 0.00100429886611 -0.000218212612539)
(-0.000257145218936 0.000941496810144 -0.000140473853775)
(-0.000412092286524 0.000991870260877 -0.000237586420475)
(-3.83416723092e-05 0.00111915950504 -0.000215846838794)
(-8.91822059484e-05 0.00109606956677 -0.000190529651504)
(-0.000259507998771 0.00115047073022 -0.000313454496878)
(9.30158698418e-05 0.00116353576788 -8.18991167096e-05)
(0.000110551887278 0.001189795224 -0.000136554205831)
(-7.60648989191e-05 0.00125117698049 -0.000265264449297)
(8.14905640139e-05 0.00118783929279 6.94187841548e-05)
(-3.23137716464e-05 0.00126131867232 -2.52869168901e-05)
(7.80240679903e-05 0.00125607704305 -8.00481746302e-05)
(9.3515962379e-06 0.0012085274628 5.26777835433e-05)
(0.000118259339178 0.00134206823704 -5.71023506779e-05)
(0.000357656701971 0.00123819012694 -0.000182738906874)
(0.000158307417823 0.00122701275416 -0.00012501416484)
(0.000337149079805 0.00134764611604 -0.00026316978755)
(0.000637728385446 0.00115764356016 -0.000145412317389)
(0.000479344970173 0.00116727415098 -0.000141504908198)
(0.000639719669565 0.00127664700895 -0.000253168493303)
(0.000793288589144 0.00102361966538 -3.19689685977e-05)
(0.000689205786252 0.00105188305143 -4.36689653161e-05)
(0.000830217063177 0.00114918841255 -0.000103558765305)
(0.00079907107091 0.000835100074864 9.44638145593e-05)
(0.000746282492798 0.000878329432913 8.52354978828e-05)
(0.000870699229691 0.000962376490881 8.33100614987e-05)
(0.000674126819814 0.000603646146514 0.000200145853255)
(0.00065824547634 0.000650000692174 0.000197728733843)
(0.000772863568064 0.000722770307804 0.00026000976081)
(0.000478411298133 0.000352732666389 0.000270263453933)
(0.000478493156154 0.000387437624605 0.000272945281216)
(0.000582209596761 0.000447868165793 0.000381762984012)
(0.000270583954081 0.000116439682663 0.000301749196666)
(0.000271439572029 0.000122416472995 0.000304891564126)
(0.000358026011911 0.000169534593915 0.000439414785825)
(9.69593069328e-05 -6.4262977285e-05 0.000302488442627)
(9.77623516246e-05 -0.00010479167539 0.00030040925765)
(0.000158955669294 -6.9899794704e-05 0.000440614270245)
(-2.767879188e-05 -0.000155899898877 0.000283332930765)
(-1.34883264216e-05 -0.000251066775251 0.000277522985234)
(1.62163079483e-05 -0.000225239802761 0.000410193332937)
(-0.000111259539182 -0.000142864912493 0.000253031729278)
(-7.21366515019e-05 -0.000289751455319 0.00024803172955)
(-7.62571885196e-05 -0.000266998495937 0.000368866565335)
(-0.0001724503308 -3.00664912362e-05 0.000214956656662)
(-0.000102526645987 -0.000215982745276 0.000220724789658)
(-0.000141115186709 -0.000189383515176 0.000327096286343)
(-0.000219674121924 0.00016012744737 0.000167220214183)
(-0.000123504470457 -4.65637844482e-05 0.000190897075715)
(-0.000194473419072 -1.08877722563e-05 0.000278971053957)
(-0.000249367618249 0.000395610357571 0.000107296435366)
(-0.000143105694819 0.000188208992662 0.00015363316914)
(-0.000240444071608 0.000235265708643 0.000216648997526)
(-0.000244527985469 0.000641373972559 3.36468269663e-05)
(-0.000154371983313 0.000450832284071 0.000102378148022)
(-0.000269843657985 0.00050994040075 0.000133440991161)
(-0.000186957258787 0.000867598777107 -4.72639233788e-05)
(-0.000135548272679 0.000706668186288 3.40603455106e-05)
(-0.000264474149656 0.000777629920743 3.05021422633e-05)
(-7.12953738483e-05 0.00105303292911 -0.000112790892739)
(-6.58359223142e-05 0.000927842443792 -3.89294426212e-05)
(-0.000211131112083 0.00101250520547 -7.16614487478e-05)
(7.4803020098e-05 0.00117964920768 -0.000111237018541)
(5.26258596526e-05 0.00109583259321 -8.55997814058e-05)
(-0.000109028696114 0.00119430523533 -0.000136916665023)
(0.000150339979211 0.00122168994563 1.47636950336e-05)
(0.000197328584664 0.00119328784109 -3.37032921661e-05)
(2.06663145738e-05 0.00130463275485 -8.54503549946e-05)
(0.000109223671837 0.00118665104529 0.000156563658806)
(1.538780017e-06 0.0013112376932 0.000144695298246)
(4.03514704295e-05 0.00118015929254 7.7117933332e-06)
(-6.87697076742e-06 0.00107422614196 0.000127451248339)
(9.67162399677e-05 0.00125346618729 9.84936338852e-05)
(0.000277520425604 0.0011622939178 -8.37801661638e-05)
(0.000100831168391 0.00109243150654 -3.52999896253e-05)
(0.000268236697096 0.00125865109062 -9.32215837996e-05)
(0.000508932926237 0.00107566212864 -3.97615561251e-05)
(0.000378275900166 0.00103336130585 -4.49772277228e-05)
(0.000523924371044 0.00118266821218 -7.78521693595e-05)
(0.000612401065995 0.000930254175012 7.35355011645e-05)
(0.000537003455203 0.000915521856725 5.4967295046e-05)
(0.000658538878078 0.00104376954445 6.92561743462e-05)
(0.000566922850464 0.000728557638385 0.000188500417167)
(0.000541321207546 0.000740331887771 0.000175316770449)
(0.000642866031271 0.000844187265118 0.000242747292719)
(0.000411750687483 0.00048267862624 0.000270528161804)
(0.000411598050595 0.000513883114362 0.00026678778562)
(0.000501392595961 0.000591478858066 0.000377828986527)
(0.000215100926255 0.000218626815441 0.000307573391409)
(0.000214762635447 0.000255187654475 0.000309274231893)
(0.000292541753536 0.000304250367952 0.000443779560882)
(4.64990428599e-05 -2.67524294843e-05 0.00030355162511)
(2.6754149069e-05 -3.83522642876e-06 0.00030255171581)
(8.86264275721e-05 1.61497397028e-05 0.000435166543783)
(-4.77108791701e-05 -0.000211711832779 0.000275443800257)
(-8.65814342064e-05 -0.000224178583967 0.000261075662336)
(-4.46735468469e-05 -0.000230196510109 0.000372903091199)
(-6.59515853712e-05 -0.000301883870405 0.000242221784019)
(-0.000103371943531 -0.000363754755304 0.000214171561219)
(-8.31477404938e-05 -0.000387521607958 0.000300653611353)
(-3.7904564621e-05 -0.000281573692782 0.00021572478993)
(-5.19558064501e-05 -0.000396999974872 0.000180107176363)
(-5.33176503646e-05 -0.000425659482761 0.00025030839241)
(-3.97754688398e-06 -0.000156902716027 0.00019666520871)
(2.16233922128e-05 -0.000318981638586 0.00016776162453)
(-3.06894671315e-06 -0.000338858974041 0.000233285767811)
(1.35972626312e-05 4.78862283957e-05 0.000177310030673)
(8.05479435621e-05 -0.000147472454723 0.000165768295914)
(3.11554897984e-05 -0.000147689899274 0.000233575223606)
(1.23057593173e-05 0.000298695670554 0.000148714881796)
(0.000107060590553 8.85865196648e-05 0.000162959855953)
(3.46706798747e-05 0.000113795524125 0.000231177663174)
(1.25397023648e-05 0.000559580919385 0.000102791666566)
(0.0001071144354 0.000350481332995 0.000145271455364)
(1.64229414682e-05 0.000403515315997 0.000205412376992)
(3.95477826361e-05 0.000798851739128 4.23948262683e-05)
(0.000106455135218 0.00060573256975 0.00010358582576)
(1.6470427801e-06 0.000685891937323 0.000150742409694)
(0.000107668097856 0.000993451913062 -1.17383312876e-05)
(0.000135576712478 0.000825685389023 4.93307162344e-05)
(1.30103108067e-05 0.000932295292152 8.1386426462e-05)
(0.000194628222719 0.00112541425423 -8.06605503108e-06)
(0.000200137247102 0.000993337631729 1.07759446514e-05)
(5.81745590008e-05 0.00112313413152 3.60436615995e-05)
(0.000206673644833 0.00116860512588 0.000108096671607)
(0.000282572144024 0.00108976306349 6.17056653397e-05)
(0.000124491709778 0.0012381837383 9.31797443458e-05)
(0.000133349302757 0.00108501526537 0.000235751985664)
(3.5826616764e-05 0.00124690230241 0.000306362864424)
(4.77630530345e-06 0.000989924734545 8.44394653803e-05)
(-2.02680772593e-05 0.000845041725979 0.000186568121182)
(7.45946956417e-05 0.00104555998049 0.000229600521806)
(0.000196587663287 0.000971670634829 3.50294881566e-06)
(4.87334484321e-05 0.000855950045503 3.79417588933e-05)
(0.000198175933172 0.00104740378356 5.63724696473e-05)
(0.000378064110317 0.000889163160799 4.97516234482e-05)
(0.000282308259148 0.000804302790808 3.28782160304e-05)
(0.000403911770743 0.000975664669851 7.29693445618e-05)
(0.000428514443298 0.000752138764465 0.00015674856433)
(0.000393330781527 0.000702425690072 0.000130126846451)
(0.000483612603072 0.000844517435969 0.000209742532758)
(0.000335807664346 0.000565070318302 0.000253604138902)
(0.000350800687676 0.000553864560914 0.000238068977307)
(0.000415079036741 0.000660068203123 0.000355214646759)
(0.000151744651937 0.000339107297604 0.000305533855709)
(0.000184524723577 0.000363641769317 0.00030515716126)
(0.000232478084461 0.000428492919318 0.000443746997564)
(-4.33042446992e-05 9.87606528264e-05 0.000304252556295)
(-2.58022509058e-05 0.000147975663987 0.000313159079839)
(8.03967355258e-06 0.000167354405935 0.000445219395396)
(-0.000172188535462 -0.000122937145393 0.000260075753036)
(-0.000194683436087 -6.61322964932e-05 0.000267101731488)
(-0.000174222157468 -9.25433308312e-05 0.000363013235677)
(-0.000186376396378 -0.000288842403415 0.000199803423298)
(-0.000252119721492 -0.000248502150908 0.000187124861508)
(-0.000242055779733 -0.000314610732128 0.000230849330995)
(-9.81787125694e-05 -0.000367628398901 0.000152056953563)
(-0.000181869374419 -0.000362758263006 0.000115776168189)
(-0.00017676101232 -0.000455267278207 0.000113527848955)
(4.05494910425e-05 -0.000345076540276 0.000132144010963)
(-2.93021198634e-05 -0.000388322434427 7.85275519803e-05)
(-2.58218178365e-05 -0.00048692948914 5.57715582069e-05)
(0.00016790972222 -0.000227155633974 0.000136864711734)
(0.000139416179835 -0.000319976236907 8.30857258302e-05)
(0.000137650076019 -0.000404870307406 6.86240685934e-05)
(0.000248741114068 -3.54393985627e-05 0.000151418121194)
(0.000271964762116 -0.000173151455829 0.000110520190365)
(0.000258023587503 -0.000227792129216 0.000124324255619)
(0.000275082340917 0.000198925309189 0.000159516429521)
(0.000341237230953 2.93560636413e-05 0.000144242764647)
(0.000310056142667 1.52122350493e-05 0.000190333943211)
(0.000269709440155 0.000442891590047 0.000146065614558)
(0.000351830343249 0.000255246900865 0.000161437695542)
(0.000302673552814 0.000284658301691 0.000230138081589)
(0.000265588807618 0.00066779872135 0.000110521715727)
(0.000333819575238 0.000477434305727 0.000147706934676)
(0.0002678208088 0.000548616799311 0.000229509738686)
(0.000285668552095 0.000851018975786 7.18449921734e-05)
(0.000324772965167 0.000670966631566 0.000113733669658)
(0.000237207453645 0.000779852369929 0.000197678144923)
(0.000311819625373 0.000975870903801 8.05476650222e-05)
(0.000338191505783 0.000817948131166 8.59470597206e-05)
(0.000225586362321 0.000959053323784 0.000181193552539)
(0.000259567795691 0.00101973722506 0.000189360979397)
(0.000360359477576 0.000905479819364 0.000137706906192)
(0.000227102598994 0.0010684786935 0.000247066662934)
(0.00015373049741 0.000908307906305 0.000300754733184)
(6.92530885123e-05 0.00108361291789 0.000439546230927)
(-2.59436581882e-05 0.000718537370625 0.000140070414695)
(-3.33608475726e-05 0.000561835990267 0.000216786692568)
(5.57375349107e-05 0.000749289608166 0.000314579645315)
(0.000126441272495 0.000697553281989 6.7317026108e-05)
(4.81751742245e-06 0.000551456490549 8.47118153454e-05)
(0.000137397949418 0.000745606920981 0.000165602787916)
(0.000264793353593 0.000632457853969 0.000113253439033)
(0.000207041875053 0.000514839157241 8.34069024533e-05)
(0.000299128892328 0.000689451963677 0.000181369330268)
(0.00027108602011 0.000527615913812 0.000211447259428)
(0.000283216457775 0.000447759280563 0.000176507335415)
(0.000333378610219 0.000589157199159 0.000304635256646)
(0.000140733605829 0.000386825976843 0.000289621999665)
(0.000207117922378 0.000352197001245 0.000273017673971)
(0.000222276920411 0.00045060537754 0.000422074855465)
(-6.5784849749e-05 0.000218883426659 0.00031278238539)
(1.55276624509e-05 0.000231916676275 0.000320200804186)
(7.25345517265e-06 0.00027867444048 0.000466185632496)
(-0.000258202896665 4.19401171675e-05 0.000276008255032)
(-0.000203040334608 9.72633863883e-05 0.000300705902934)
(-0.000228362810878 8.66787416523e-05 0.000407854169251)
(-0.000353230783054 -0.00012068701508 0.00019415083996)
(-0.000357142873648 -3.48141980353e-05 0.000223759241029)
(-0.000392000388217 -0.000102906707059 0.000258931881139)
(-0.000299935419489 -0.000242281656451 0.000103097606399)
(-0.000373383850522 -0.000147029462206 0.00011288761714)
(-0.000405362877483 -0.000265085051384 6.11233848284e-05)
(-0.000121556829402 -0.000299157332948 4.22467666061e-05)
(-0.000238406658914 -0.000218046423111 2.14168734583e-05)
(-0.000253272679868 -0.000368885502891 -9.75029013749e-05)
(0.00010926187628 -0.000280539455776 2.94692668476e-05)
(-1.04604953794e-05 -0.000232548000951 -1.81924230967e-05)
(-1.09557990773e-06 -0.000391413586295 -0.000161431715719)
(0.000315700920349 -0.000190369202934 5.67412044615e-05)
(0.000229621400078 -0.000188341392235 -1.04524129241e-06)
(0.00025721439988 -0.000330111655434 -0.000121827335104)
(0.00045173502209 -4.29977309895e-05 0.000103344833818)
(0.000419176402921 -9.25803045105e-05 4.8791120561e-05)
(0.00045158343639 -0.000197182603528 -1.65441257195e-05)
(0.000502744073449 0.000139392264543 0.000146164030668)
(0.000523525239381 4.28396241555e-05 0.000111519882805)
(0.000547003406437 -1.14337012825e-05 0.000112516180976)
(0.000493687748281 0.000331802084735 0.00016307901566)
(0.000544650174367 0.000198385151228 0.000156630299845)