/*--------------------------------*- C++ -*----------------------------------*\
| =========                 |                                                 |
| \\      /  F ield         | OpenFOAM: The Open Source CFD Toolbox           |
|  \\    /   O peration     | Version:  3.0.1                                 |
|   \\  /    A nd           | Web:      www.OpenFOAM.org                      |
|    \\/     M anipulation  |                                                 |
\*---------------------------------------------------------------------------*/
FoamFile
{
    version     2.0;
    format      ascii;
    class       surfaceScalarField;
    location    "6.5";
    object      phi;
}
// * * * * * * * * * * * * * * * * * * * * * * * * * * * * * * * * * * * * * //

dimensions      [0 3 -1 0 0 0 0];

internalField   nonuniform List<scalar> 
22672
(
1.16718221172e-05
1.16799699699e-05
-2.33518054036e-05
2.5139785162e-05
9.94219084422e-06
-2.34101696081e-05
3.67965382867e-05
9.03136796163e-06
-2.06881384959e-05
4.42008551907e-05
9.01494377457e-06
-1.64192795042e-05
4.5725585862e-05
1.0115805212e-05
-1.16405557383e-05
4.23835253471e-05
1.16026805947e-05
-8.26064059085e-06
3.50872408307e-05
1.32577067356e-05
-5.96144312756e-06
2.48058367944e-05
1.49875394566e-05
-4.70615651792e-06
1.27634637118e-05
1.64642846498e-05
-4.42193265105e-06
2.42855429195e-08
1.73078582668e-05
-4.56870089822e-06
-1.27170648506e-05
1.7308277204e-05
-4.56694699686e-06
-2.47652273707e-05
1.6465491437e-05
-4.41734815692e-06
-3.50551920036e-05
1.49891599637e-05
-4.69921338456e-06
-4.23614636783e-05
1.32591849919e-05
-5.95293012762e-06
-4.57118455716e-05
1.16037103984e-05
-8.25334422124e-06
-4.41963171549e-05
1.01190625135e-05
-1.16346058281e-05
-3.67964782511e-05
9.01794822867e-06
-1.64178014047e-05
-2.51410698454e-05
9.03538512226e-06
-2.06908074408e-05
-1.1672358841e-05
9.94752059074e-06
-2.34162458485e-05
1.16864156901e-05
-2.33587842302e-05
9.93792047478e-06
2.51464059909e-05
-2.34043721356e-05
2.52158936454e-05
2.52144823038e-05
-3.05502827983e-05
3.88822307183e-05
2.57622186344e-05
-3.03972076442e-05
4.74923580357e-05
2.73799083293e-05
-2.69751131393e-05
4.97108495179e-05
3.02446452028e-05
-2.23473536841e-05
4.61843979151e-05
3.33946973348e-05
-1.82655879044e-05
3.82224431562e-05
3.62874483456e-05
-1.5067809921e-05
2.69833470465e-05
3.90026217609e-05
-1.27760093843e-05
1.38692918859e-05
4.11246473559e-05
-1.15463306697e-05
3.15310764128e-08
4.22794274529e-05
-1.11338312182e-05
-1.3808164243e-05
4.22788581051e-05
-1.11309078868e-05
-2.69280793884e-05
4.11231630914e-05
-1.15377780185e-05
-3.81768576011e-05
3.90006268301e-05
-1.27627091765e-05
-4.61508723539e-05
3.62852988249e-05
-1.50521185557e-05
-4.9688629175e-05
3.33924090869e-05
-1.82509603592e-05
-4.74813313291e-05
3.02462231561e-05
-2.23344760695e-05
-3.88781820691e-05
2.7382438163e-05
-2.69676558142e-05
-2.52153808981e-05
2.57674058172e-05
-3.03948375566e-05
-9.93821823536e-06
2.52229059006e-05
-3.05525631375e-05
2.51590852015e-05
-2.34108976361e-05
9.02960347488e-06
3.67968255727e-05
-2.06800401772e-05
2.57684821626e-05
3.88702705263e-05
-3.03946865783e-05
4.09422780278e-05
4.09235443133e-05
-3.0335142778e-05
5.04886564389e-05
4.40295869275e-05
-2.61960793685e-05
5.31852382344e-05
4.82761532824e-05
-2.0728112922e-05
4.9613918597e-05
5.26170051092e-05
-1.56510114852e-05
4.1198523568e-05
5.63217593541e-05
-1.16189393905e-05
2.92062070125e-05
5.96481760623e-05
-8.65326107855e-06
1.50722623156e-05
6.21433167257e-05
-6.88474785887e-06
3.82931521721e-08
6.34650830051e-05
-6.151709404e-06
-1.49980924976e-05
6.34637692378e-05
-6.14854830671e-06
-2.91393138659e-05
6.21395400252e-05
-6.87517810856e-06
-4.11430252183e-05
5.96423768108e-05
-8.6380607649e-06
-4.95721247087e-05
5.63150284105e-05
-1.16006517096e-05
-5.3157145232e-05
5.26102589784e-05
-1.56328503007e-05
-5.04730421924e-05
4.82740062382e-05
-2.07119060807e-05
-4.09351179721e-05
4.4029527019e-05
-2.6185031605e-05
-2.57663607685e-05
4.09278500902e-05
-3.0329218338e-05
-9.02958188926e-06
3.88798580291e-05
-3.03937466191e-05
3.68144917308e-05
-2.06849984568e-05
9.01490179299e-06
4.41909106397e-05
-1.64090050986e-05
2.73897018194e-05
4.74673064167e-05
-2.69718566483e-05
4.40533432436e-05
5.04563219525e-05
-2.61964411405e-05
5.45276471107e-05
5.44897248079e-05
-2.09344646761e-05
5.75520157541e-05
5.95432287592e-05
-1.42914674448e-05
5.37266931323e-05
6.45919585233e-05
-8.14965408297e-06
4.45873759491e-05
6.87512578346e-05
-3.29020424194e-06
3.16029566294e-05
7.23618845569e-05
2.70688356641e-07
1.63161498672e-05
7.50316109188e-05
2.39849050929e-06
4.30918132278e-08
7.64329424362e-05
3.30517662108e-06
-1.62325010803e-05
7.64306649787e-05
3.30867489866e-06
-3.15271577229e-05
7.50250046329e-05
2.4091693723e-06
-4.45234284973e-05
7.23519180595e-05
2.86706448053e-07
-5.36778714429e-05
6.87387921533e-05
-3.26934413208e-06
-5.75185945184e-05
6.45794809895e-05
-8.12852212894e-06
-5.45079744231e-05
5.95356831091e-05
-1.42723192243e-05
-4.40434362753e-05
5.4485140211e-05
-2.09201717301e-05
-2.73861419632e-05
5.04577292586e-05
-2.61871914711e-05
-9.01458835285e-06
4.7475890726e-05
-2.69676024481e-05
4.42114632846e-05
-1.64115703365e-05
1.01183211829e-05
4.57032019459e-05
-1.16306314601e-05
3.02578155594e-05
4.96743040887e-05
-2.2346513481e-05
4.83042862951e-05
5.31422690787e-05
-2.07324404783e-05
5.95862389934e-05
5.75037991865e-05
-1.4296050336e-05
6.28140665974e-05
6.27600555152e-05
-6.444677727e-06
5.86222785182e-05
6.79291113791e-05
8.54612377828e-07
4.8610012203e-05
7.20887804598e-05
6.67472186996e-06
3.44333249289e-05
7.55715512928e-05
1.09670000103e-05
1.77701008355e-05
7.81089399428e-05
1.35858753951e-05
4.6479480427e-08
7.94471930104e-05
1.4709351236e-05
-1.76800452202e-05
7.94436403319e-05
1.47135291815e-05
-3.43519730634e-05
7.80983780646e-05
1.35985331002e-05
-4.85422775121e-05
7.5555021893e-05
1.09871778882e-05
-5.85705335948e-05
7.20682896789e-05
6.69873447711e-06
-6.27783586995e-05
6.79084266642e-05
8.78854718751e-07
-5.95648772391e-05
6.27444068448e-05
-6.42222934388e-06
-4.82932034202e-05
5.74918000471e-05
-1.42783557586e-05
-3.02537814432e-05
5.31375842029e-05
-2.07192961708e-05
-1.01185385674e-05
4.96783412504e-05
-2.23377104928e-05
4.5721767165e-05
-1.16288537252e-05
1.16053062405e-05
4.23559891165e-05
-8.25811290625e-06
3.34085820982e-05
4.61436777714e-05
-1.8272671559e-05
5.26466005627e-05
4.95678328308e-05
-1.56636053595e-05
6.46366310108e-05
5.36767558914e-05
-8.16301079407e-06
6.79847809076e-05
5.85664558156e-05
8.45426422527e-07
6.3333082413e-05
6.32754087335e-05
9.30537897698e-06
5.24326323483e-05
6.69841453689e-05
1.60050651576e-05
3.70731680403e-05
7.00329369441e-05
2.08980609345e-05
1.91031649291e-05
7.22431510601e-05
2.38357759282e-05
4.6992593691e-08
7.34132774446e-05
2.50900722577e-05
-1.9011866699e-05
7.34084853989e-05
2.50939977581e-05
-3.69899265654e-05
7.22287435673e-05
2.3847676048e-05
-5.23624850148e-05
7.00101531343e-05
2.0917406335e-05
-6.3278512493e-05
6.69553449592e-05
1.6028948774e-05
-6.79461146578e-05
6.32453899046e-05
9.33061370154e-06
-6.46122764749e-05
5.85411235874e-05
8.69419719353e-07
-5.26324343979e-05
5.36553574876e-05
-8.14342312139e-06
-3.34017511832e-05
4.95550478805e-05
-1.5648167651e-05
-1.16038174519e-05
4.6141529652e-05
-1.82611408493e-05
4.23712655042e-05
-8.25332849606e-06
1.32642381908e-05
3.50566659444e-05
-5.96493517886e-06
3.63060128553e-05
3.81843759957e-05
-1.50824957768e-05
5.6355572616e-05
4.11581513013e-05
-1.16399022856e-05
6.87994964175e-05
4.45459735127e-05
-3.31316584086e-06
7.21477640391e-05
4.85642654084e-05
6.65389909196e-06
6.70446170472e-05
5.23853044792e-05
1.5993229787e-05
5.53785359874e-05
5.53295660997e-05
2.33206422255e-05
3.90401776416e-05
5.76906340995e-05
2.86806467066e-05
2.00193535105e-05
5.92329661972e-05
3.20309971436e-05
4.47640424252e-08
6.00856325918e-05
3.33022234376e-05
-1.99318887284e-05
6.00800720476e-05
3.33050544098e-05
-3.89604203907e-05
5.92154897417e-05
3.20417713232e-05
-5.53114782223e-05
5.76629628232e-05
2.86982304018e-05
-6.69922764037e-05
5.52937516149e-05
2.33423698322e-05
-7.2110356288e-05
5.23464099805e-05
1.60170350172e-05
-6.87756877605e-05
4.85286044996e-05
6.677824559e-06
-5.6341341078e-05
4.45147230047e-05
-3.29373717962e-06
-3.62986747632e-05
4.11359658907e-05
-1.16236069495e-05
-1.32626730499e-05
3.81739747525e-05
-1.50684678917e-05
3.5065066879e-05
-5.95648907712e-06
1.49975673388e-05
2.47734823311e-05
-4.71440500196e-06
3.90258460279e-05
2.69533946118e-05
-1.27973216513e-05
5.9685954439e-05
2.9179180363e-05
-8.68116309447e-06
7.24131426949e-05
3.1579095357e-05
2.39664058745e-07
7.56339164099e-05
3.44086508663e-05
1.09348163091e-05
7.00975767164e-05
3.70479602478e-05
2.08736626342e-05
5.77438928726e-05
3.90148013647e-05
2.86684320519e-05
4.05168008185e-05
4.04877695202e-05
3.44299450719e-05
2.07584799701e-05
4.15393749729e-05
3.74519042931e-05
3.91860004587e-08
4.21175552888e-05
3.86873651986e-05
-2.06824087623e-05
4.21119401673e-05
3.86897199102e-05
-4.04483502421e-05
4.15218689709e-05
3.7459552664e-05
-5.76861242081e-05
4.04587237641e-05
3.44419988826e-05
-7.00529980603e-05
3.89747654186e-05
2.86858406754e-05
-7.56019574367e-05
3.70030310081e-05
2.08923144853e-05
-7.23923719466e-05
3.43648625884e-05
1.09541300853e-05
-5.96732224081e-05
3.15397185199e-05
2.55828609753e-07
-3.90187875713e-05
2.91487031877e-05
-8.66719693685e-06
-1.49961846396e-05
2.69351814747e-05
-1.27838336114e-05
2.47733521908e-05
-4.70448680298e-06
1.64755600563e-05
1.27267026075e-05
-4.42880335285e-06
4.11503211653e-05
1.38471820868e-05
-1.15685750715e-05
6.21828120457e-05
1.5060726672e-05
-6.91406508046e-06
7.50833464733e-05
1.63125968824e-05
2.36593610706e-06
7.81716458222e-05
1.77708277245e-05
1.35494977469e-05
7.23095004445e-05
1.9104943032e-05
2.38051408079e-05
5.92915318284e-05
2.00225282021e-05
3.20102260154e-05
4.15750209886e-05
2.07568765179e-05
3.74473943552e-05
2.12781151446e-05
2.12683366124e-05
4.05679396618e-05
3.18280994269e-08
2.15457518863e-05
4.18180883979e-05
-2.12168599224e-05
2.15405707683e-05
4.18200550142e-05
-4.15208385311e-05
2.1252055865e-05
4.05737861976e-05
-5.92469478709e-05
2.07288766227e-05
3.74559456508e-05
-7.22760861283e-05
1.99836080014e-05
3.20202785291e-05
-7.81479633961e-05
1.90601130977e-05
2.38147722713e-05
-7.50677785188e-05
1.77252392857e-05
1.35594118275e-05
-6.21731159632e-05
1.62710510484e-05
2.37397721659e-06
-4.11450576958e-05
1.50267184703e-05
-6.90610063092e-06
-1.64747104227e-05
1.38244572225e-05
-1.15596499692e-05
1.27192446833e-05
-4.42062186842e-06
1.73182339451e-05
-2.17747191288e-08
-4.56978192753e-06
4.23032770246e-05
1.29325441495e-08
-1.11508226878e-05
6.35015506306e-05
3.8597420856e-08
-6.17617502977e-06
7.64798810795e-05
5.60006163325e-08
3.27823524877e-06
7.95029473249e-05
6.89275182348e-08
1.46788058007e-05
7.34730208022e-05
7.26638790765e-08
2.50621826147e-05
6.01351971589e-05
6.9181847315e-08
3.32911539842e-05
4.21502116959e-05
5.78023497374e-08
3.86840510051e-05
2.15586321641e-05
4.24531142777e-08
4.18174602841e-05
2.49164423283e-08
2.97286100288e-08
4.30497394369e-05
-2.15111531738e-05
2.55850829135e-08
4.30510557099e-05
-4.21095212737e-05
2.9299552874e-08
4.18211216148e-05
-6.01038100389e-05
3.48089713088e-08
3.86883478589e-05
-7.34509124605e-05
3.7286846633e-08
3.32934079046e-05
-7.94876380926e-05
3.56423053506e-08
2.50611741165e-05
-7.64698849175e-05
3.03884312928e-08
1.46770707004e-05
-6.34957974321e-05
2.03635832845e-08
3.27657098506e-06
-4.2300905031e-05
8.46771349876e-09
-6.17667081887e-06
-1.73180685248e-05
-8.67200604416e-09
-1.11497368566e-05
-3.21088551129e-08
-4.56673560706e-06
1.73165972867e-05
-1.27723243205e-05
-4.56607553509e-06
4.22967189156e-05
-1.38249758414e-05
-1.11422452295e-05
6.34919060855e-05
-1.49899994655e-05
-6.16662390712e-06
7.64669462558e-05
-1.62085941262e-05
3.28952113666e-06
7.94863599498e-05
-1.76426715842e-05
1.46921547013e-05
7.34540223312e-05
-1.89685687461e-05
2.5073545143e-05
6.01173858385e-05
-1.98909346014e-05
3.3296735561e-05
4.21359397126e-05
-2.0646505877e-05
3.86857449683e-05
2.1549375407e-05
-2.11868140975e-05
4.18158286298e-05
2.0271684087e-08
-2.14870476059e-05
4.30458806936e-05
-2.151117689e-05
-2.14895270811e-05
4.30465617522e-05
-4.21044440619e-05
-2.11948907567e-05
4.18174554001e-05
-6.00948829108e-05
-2.06612201763e-05
3.86864600089e-05
-7.34397864697e-05
-1.99113177706e-05
3.32934928571e-05
-7.94770216553e-05
-1.8990946485e-05
2.50638015698e-05
-7.64611282424e-05
-1.76660869254e-05
1.46805543631e-05
-6.3489329529e-05
-1.62306003399e-05
3.27913505275e-06
-4.22967394177e-05
-1.5009036254e-05
-6.1751169566e-06
-1.73170656057e-05
-1.38391974913e-05
-1.11491797978e-05
-1.27801924423e-05
-4.56900365395e-06
1.64708666385e-05
-2.48238800597e-05
-4.41934115226e-06
4.11326630414e-05
-2.694102519e-05
-1.15457816378e-05
6.2156268975e-05
-2.91258276129e-05
-6.88781413725e-06
7.50470908331e-05
-3.14963332456e-05
2.39688104072e-06
7.81238307321e-05
-3.43056524955e-05
1.35862075266e-05
7.22537639562e-05
-3.69344892773e-05
2.3835959519e-05
5.92360715639e-05
-3.89036557357e-05
3.20303934779e-05
4.15298541107e-05
-4.03929774398e-05
3.7452677095e-05
2.12483244842e-05
-4.14680572028e-05
4.05627673882e-05
1.70612535974e-08
-4.20621514317e-05
4.18063655491e-05
-2.12165067999e-05
-4.20626671163e-05
4.18067070924e-05
-4.15046266917e-05
-4.14698913818e-05
4.05631167006e-05
-5.92194332483e-05
-4.03970057659e-05
3.74505828006e-05
-7.22434006349e-05
-3.89089496771e-05
3.20215828433e-05
-7.81172217208e-05
-3.69390357916e-05
2.3821887083e-05
-7.50428484459e-05
-3.43099520651e-05
1.35694633972e-05
-6.21547624796e-05
-3.15003060335e-05
2.38158863105e-06
-4.11332133221e-05
-2.91292827457e-05
-6.90133450045e-06
-1.64713843304e-05
-2.69432385024e-05
-1.15578203955e-05
-2.48246800947e-05
-4.42691858994e-06
1.49900682015e-05
-3.51101705373e-05
-4.70380990969e-06
3.90015627387e-05
-3.81846424594e-05
-1.27679138936e-05
5.96479391879e-05
-4.11265993355e-05
-8.64564328752e-06
7.23602517225e-05
-4.44898140548e-05
2.81129598457e-07
7.55626281332e-05
-4.84929086966e-05
1.09848435057e-05
7.00135720813e-05
-5.23014597967e-05
2.09159954547e-05
5.76594391953e-05
-5.52450525192e-05
2.86955057902e-05
4.04458632647e-05
-5.76164548889e-05
3.44370370043e-05
2.0710335009e-05
-5.9176118835e-05
3.7443579762e-05
1.47974456032e-08
-6.00372182835e-05
3.86705980196e-05
-2.06824155352e-05
-6.00360696334e-05
3.86706098425e-05
-4.04229118056e-05
-5.91726382045e-05
3.74432351906e-05
-5.76430594115e-05
-5.76112830277e-05
3.44344121488e-05
-7.00026505937e-05
-5.52372250308e-05
2.86878476555e-05
-7.55549836739e-05
-5.22903351318e-05
2.09036074119e-05
-7.23548111948e-05
-4.84803896122e-05
1.09702355385e-05
-5.96456034076e-05
-4.44779697771e-05
2.68424221101e-07
-3.90010009047e-05
-4.11152615838e-05
-8.65865579001e-06
-1.49901316626e-05
-3.81742964939e-05
-1.27798435894e-05
-3.51025294345e-05
-4.71230377523e-06
1.32554754375e-05
-4.2408865705e-05
-5.95681377387e-06
3.62796205694e-05
-4.61549157393e-05
-1.50539098723e-05
5.63120071244e-05
-4.95557468687e-05
-1.16032791916e-05
6.87371070418e-05
-5.36460566723e-05
-3.26889799501e-06
7.20633897555e-05
-5.85247022564e-05
6.70547182014e-06
6.69445688336e-05
-6.32206186264e-05
1.60379449489e-05
5.52761462406e-05
-6.69260906755e-05
2.3349431904e-05
3.89511867743e-05
-6.99799342463e-05
2.86884164782e-05
1.99576689305e-05
-7.21994948427e-05
3.20168769494e-05
1.36339638621e-08
-7.33772254909e-05
3.32840287405e-05
-1.99311524073e-05
-7.33749476714e-05
3.32836520048e-05
-3.89273784011e-05
-7.21929000589e-05
3.20164739686e-05
-5.52564183785e-05
-6.996923826e-05
2.8686977782e-05
-6.69292100519e-05
-6.69105939124e-05
2.3346138235e-05
-7.2051813122e-05
-6.320027697e-05
1.6032517832e-05
-6.87292158571e-05
-5.85022636722e-05
6.69924627363e-06
-5.63074575734e-05
-5.36238496284e-05
-3.27591027671e-06
-3.62772245813e-05
-4.95347268188e-05
-1.16107993339e-05
-1.32546520733e-05
-4.61358139016e-05
-1.50610863106e-05
-4.23948533973e-05
-5.96234837902e-06
1.15960961462e-05
-4.57506042772e-05
-8.25439191933e-06
3.33813453765e-05
-4.96906495623e-05
-1.8249554349e-05
5.2599975202e-05
-5.31428110965e-05
-1.5631606901e-05
6.45699491523e-05
-5.74922630058e-05
-8.12380992425e-06
6.78961546624e-05
-6.27410680972e-05
8.90118830979e-07
6.32282867425e-05
-6.78989036829e-05
9.34611431589e-06
5.23244823658e-05
-7.20540110248e-05
1.60316905958e-05
3.6977621598e-05
-7.55374505472e-05
2.0904347965e-05
1.90344242615e-05
-7.80786026969e-05
2.38222805897e-05
1.39217966326e-08
-7.94194509301e-05
2.50627064274e-05
-1.90066246289e-05
-7.94169427921e-05
2.50625214565e-05
-3.69503778267e-05
-7.80711872187e-05
2.3822019845e-05
-5.22992288781e-05
-7.55252202007e-05
2.09048103308e-05
-6.32066109896e-05
-7.20365402696e-05
1.60333027083e-05
-6.7879171185e-05
-6.78764692352e-05
9.34872356834e-06
-6.45583946964e-05
-6.27164960522e-05
8.93425006436e-07
-5.25927867852e-05
-5.74670659789e-05
-8.12242266799e-06
-3.33770308317e-05
-5.31185754546e-05
-1.56319373327e-05
-1.1594270696e-05
-4.96685116203e-05
-1.82500914258e-05
-4.57342914958e-05
-8.25485100382e-06
1.0106393393e-05
-4.42250570643e-05
-1.16319756487e-05
3.02283791e-05
-4.74825616801e-05
-2.23301132494e-05
4.82564767703e-05
-5.04630457014e-05
-2.0707905169e-05
5.95198102117e-05
-5.44900642324e-05
-1.42655756493e-05
6.2728351937e-05
-5.95394961762e-05
-6.41015709067e-06
5.85231187957e-05
-6.45798561342e-05
8.86143800613e-07
4.85080258809e-05
-6.87352249071e-05
6.69626796919e-06
3.43425372444e-05
-7.23441736485e-05
1.09721765679e-05
1.77040205626e-05
-7.50143784383e-05
1.35742607666e-05
1.45713113119e-08
-7.6416477965e-05
1.46864474622e-05
-1.76741545574e-05
-7.6414393249e-05
1.46861493506e-05
-3.43115218403e-05
-7.50081112604e-05
1.3574265e-05
-4.84775170191e-05
-7.23337392368e-05
1.09744874019e-05
-5.84958614879e-05
-6.87203390989e-05
6.70211515711e-06
-6.27066463829e-05
-6.45608015184e-05
8.95087680786e-07
-5.95048112939e-05
-5.95188256089e-05
-6.39953556587e-06
-4.82467434831e-05
-5.44680904729e-05
-1.4257072471e-05
-3.02223658671e-05
-5.04415496017e-05
-2.07014308148e-05
-1.01036075988e-05
-4.74629150229e-05
-2.23243806835e-05
-4.4210511617e-05
-1.16274034623e-05
8.99819607164e-06
-3.68140889303e-05
-1.64091999395e-05
2.73548887904e-05
-3.88793540319e-05
-2.69599406219e-05
4.40013502247e-05
-4.09301661694e-05
-2.61793835004e-05
5.4459269751e-05
-4.40342344434e-05
-2.0913793165e-05
5.74680582504e-05
-4.82790238952e-05
-1.42693049668e-05
5.36328181126e-05
-5.26136937153e-05
-8.1309656616e-06
4.44930412958e-05
-5.63158855857e-05
-3.27960401736e-06
3.1520047532e-05
-5.9641263215e-05
2.70044334417e-07
1.62565001848e-05
-6.21368211443e-05
2.38595379979e-06
1.51605783443e-08
-6.34592905373e-05
3.2841185618e-06
-1.62250324473e-05
-6.34579693838e-05
3.283737837e-06
-3.1486494806e-05
-6.21326525497e-05
2.38597402342e-06
-4.44590130074e-05
-5.96339895054e-05
2.72739752058e-07
-5.3601433467e-05
-5.63053091105e-05
-3.27263797762e-06
-5.74420881746e-05
-5.25999450476e-05
-8.12023008852e-06
-5.44403783314e-05
-4.82643370076e-05
-1.42562261044e-05
-4.39887113621e-05
-4.40184632128e-05
-2.09013202269e-05
-2.73471232147e-05
-4.09149306241e-05
-2.61682308461e-05
-8.99468665255e-06
-3.88658313595e-05
-2.69495421085e-05
-3.68044726314e-05
-1.64007388513e-05
9.00919292876e-06
-2.51499993835e-05
-2.06733195102e-05
2.57300860034e-05
-2.52168227879e-05
-3.03834654256e-05
4.08891641095e-05
-2.57663582582e-05
-3.03229289235e-05
5.04226655656e-05
-2.7385102278e-05
-2.61826774094e-05
5.3107828139e-05
-3.02499009535e-05
-2.07143294727e-05
4.95302409257e-05
-3.33958155211e-05
-1.5640334364e-05
4.111549508e-05
-3.62869038151e-05
-1.16142780505e-05
2.91337681334e-05
-3.90016034321e-05
-8.65797313189e-06
1.50208107398e-05
-4.11240560953e-05
-6.89984569719e-06
1.57608060704e-08
-4.22793976642e-05
-6.17487842473e-06
-1.49878420799e-05
-4.2278750352e-05
-6.1756489706e-06
-2.90979521408e-05
-4.11218693868e-05
-6.90070348596e-06
-4.10784052996e-05
-3.89975514107e-05
-8.65601340634e-06
-4.94951460527e-05
-3.62808062042e-05
-1.16077892683e-05
-5.30777857676e-05
-3.33876236735e-05
-1.56297076561e-05
-5.03998688286e-05
-3.02416522555e-05
-2.07006262768e-05
-4.0873447332e-05
-2.73763708287e-05
-2.61685363478e-05
-2.57203798006e-05
-2.57583794045e-05
-3.03096387209e-05
-9.00475950616e-06
-2.52102538091e-05
-3.03712158293e-05
-2.51456738837e-05
-2.06635690583e-05
9.91473694408e-06
-1.16763383017e-05
-2.33884381765e-05
2.51757715882e-05
-9.94076704192e-06
-3.05371331537e-05
3.88304921331e-05
-9.03320699925e-06
-3.03879155722e-05
4.74313304077e-05
-9.01898884106e-06
-2.69669957232e-05
4.96424245959e-05
-1.01214206915e-05
-2.23396182036e-05
4.6113298266e-05
-1.16066962202e-05
-1.8260036079e-05
3.81538583567e-05
-1.32614557122e-05
-1.50660502875e-05
2.69256107255e-05
-1.49912002559e-05
-1.27821961525e-05
1.38302230387e-05
-1.64670851624e-05
-1.15616218376e-05
1.71089010053e-08
-1.7309385152e-05
-1.11569344288e-05
-1.37944109317e-05
-1.73091051618e-05
-1.11581585415e-05
-2.68866723258e-05
-1.64662709554e-05
-1.15633673955e-05
-3.81133447224e-05
-1.49897979788e-05
-1.27811089708e-05
-4.60745009277e-05
-1.32595278494e-05
-1.50601481638e-05
-4.96080795298e-05
-1.16041945408e-05
-1.82498748656e-05
-4.74046219453e-05
-1.01192237075e-05
-2.23259085925e-05
-3.88115828473e-05
-9.01698085109e-06
-2.69524491105e-05
-2.51638309642e-05
-9.03175251355e-06
-3.03743961236e-05
-9.9089448881e-06
-9.93999444523e-06
-3.05251609475e-05
-1.16760097177e-05
-2.33786181009e-05
1.16507279117e-05
-2.33270942127e-05
2.51044400596e-05
-2.33945079336e-05
3.6754115287e-05
-2.06829111919e-05
4.41546767707e-05
-1.64195791876e-05
4.56767588959e-05
-1.1643531374e-05
4.23356496381e-05
-8.26561509391e-06
3.50425307983e-05
-5.96836441453e-06
2.47690531175e-05
-4.71774922847e-06
1.27397880605e-05
-4.43784549029e-06
1.90848395455e-08
-4.58870567474e-06
-1.27000388921e-05
-4.59000331316e-06
-2.47255153613e-05
-4.44081454513e-06
-3.49967353342e-05
-4.71859647038e-06
-4.22912083523e-05
-5.96507192816e-06
-4.56365007031e-05
-8.25891795545e-06
-4.41217432224e-05
-1.16339954095e-05
-3.67301961983e-05
-1.64085401938e-05
-2.50890119686e-05
-2.06729472621e-05
-1.16427987012e-05
-2.33862167372e-05
-2.33188119603e-05
1.74329600041e-05
1.74393282352e-05
-5.8224106794e-05
3.30227228378e-05
2.01236602093e-05
-5.91236070711e-05
4.40182597008e-05
2.24922348173e-05
-5.41759261262e-05
4.96428985572e-05
2.51084046175e-05
-4.71523404739e-05
4.99792927238e-05
2.77310129461e-05
-3.97079816823e-05
4.52996817105e-05
2.99757324387e-05
-3.35567819743e-05
3.68026609713e-05
3.18967915142e-05
-2.93612348599e-05
2.56538615174e-05
3.36191810869e-05
-2.71765599674e-05
1.30862943751e-05
3.50110654503e-05
-2.68654533714e-05
2.84658249236e-08
3.57916569763e-05
-2.73025519372e-05
-1.30311376997e-05
3.57899206877e-05
-2.72972865101e-05
-2.56041544906e-05
3.5005994216e-05
-2.685034724e-05
-3.67617741926e-05
3.36112361062e-05
-2.71528504211e-05
-4.52693697857e-05
3.18868924022e-05
-2.9332246352e-05
-4.99595963183e-05
2.99653859052e-05
-3.35285217383e-05
-4.96304819596e-05
2.77218438842e-05
-3.96855809408e-05
-4.40108649782e-05
2.51012948242e-05
-4.71387287911e-05
-3.30183585448e-05
2.24877197707e-05
-5.41710480866e-05
-1.7430702787e-05
2.01216685578e-05
-5.91255839005e-05
1.7439902381e-05
-5.82293979852e-05
2.01274526963e-05
3.30213043046e-05
-5.91138152175e-05
3.57324584359e-05
3.57179919202e-05
-6.17496360669e-05
4.5788254754e-05
3.90149828191e-05
-5.69757693737e-05
5.06189305775e-05
4.30659314327e-05
-4.97633347626e-05
5.06075809003e-05
4.73454338594e-05
-4.19504453151e-05
4.59607023324e-05
5.12644275223e-05
-3.49074260744e-05
3.74852624112e-05
5.46457370394e-05
-2.93413383251e-05
2.62986601894e-05
5.7503931225e-05
-2.54741810719e-05
1.35135197934e-05
5.96518616301e-05
-2.34020109126e-05
3.70840868852e-08
6.08060906709e-05
-2.26718539748e-05
-1.34412335413e-05
6.08033369587e-05
-2.26660312277e-05
-2.62320857871e-05
5.96439238265e-05
-2.33848796393e-05
-3.7427842944e-05
5.74916474795e-05
-2.5447386881e-05
-4.59147133106e-05
5.46305548714e-05
-2.93089331156e-05
-5.0573809387e-05
5.12486356902e-05
-3.4875135235e-05
-5.05949950709e-05
4.73315376367e-05
-4.19230037511e-05
-4.57728085567e-05
4.30552356593e-05
-4.97438009509e-05
-3.57235415934e-05
3.90081602864e-05
-5.69645609394e-05
-2.01235089882e-05
3.57152791087e-05
-6.17462206623e-05
3.30245189437e-05
-5.91190319247e-05
2.25007203227e-05
4.40044606697e-05
-5.41639325308e-05
3.90353905657e-05
4.57624892125e-05
-5.69738713485e-05
4.92293132034e-05
4.91983939898e-05
-5.07124953243e-05
5.38749436321e-05
5.37596329248e-05
-4.15354315171e-05
5.35627052771e-05
5.8656357568e-05
-3.17268198775e-05
4.86260382896e-05
6.3245378079e-05
-2.26953178928e-05
3.97568862558e-05
6.71584723321e-05
-1.52625465507e-05
2.80428579797e-05
7.0279908718e-05
-9.71523505682e-06
1.4495649563e-05
7.25243180297e-05
-6.21002120606e-06
4.29794853064e-08
7.36966908068e-05
-4.5896652891e-06
-1.44117978489e-05
7.36932013968e-05
-4.5836615368e-06
-2.79654613791e-05
7.25141335771e-05
-6.19175057381e-06
-3.96895083917e-05
7.02643276266e-05
-9.68672002626e-06
-4.85708713179e-05
6.71390413999e-05
-1.52278009345e-05
-5.35207762198e-05
6.32254523038e-05
-2.26597866012e-05
-5.38443266286e-05
5.86384174376e-05
-3.16952582979e-05
-4.92086908077e-05
5.37455422887e-05
-4.15109944184e-05
-3.90228775796e-05
4.91891495632e-05
-5.06960384176e-05
-2.24946914223e-05
4.57590071294e-05
-5.6965676066e-05
4.40105451098e-05
-5.41657253291e-05
2.51200923947e-05
4.96139605361e-05
-4.71386143464e-05
4.30903983597e-05
5.0582770976e-05
-4.97624629852e-05
5.37939153064e-05
5.38363380831e-05
-4.15379222448e-05
5.83751286761e-05
5.83350696991e-05
-3.00911363535e-05
5.76544943864e-05
6.31647599168e-05
-1.80792584058e-05
5.21344145806e-05
6.76840002129e-05
-7.06822038953e-06
4.2494250385e-05
7.1488072437e-05
2.02033511426e-06
2.99602428943e-05
7.4488214132e-05
8.59636531715e-06
1.54894675233e-05
7.65561227367e-05
1.28374356634e-05
4.66622466674e-08
7.76150214195e-05
1.48296252691e-05
-1.53984579891e-05
7.76107669902e-05
1.48362028132e-05
-2.98758187547e-05
7.65437337284e-05
1.285690243e-05
-4.24206005492e-05
7.44690056803e-05
8.62678189764e-06
-5.20727680129e-05
7.14650144033e-05
2.0568216911e-06
-5.76070230812e-05
6.76595607121e-05
-7.0284035129e-06
-5.83398948585e-05
6.31422900315e-05
-1.80433462864e-05
-5.37695195894e-05
5.83165597323e-05
-3.00615876119e-05
-4.30749547726e-05
5.38235522862e-05
-4.15161785577e-05
-2.51121635569e-05
5.05772583573e-05
-4.97486615091e-05
4.96212431038e-05
-4.7134442174e-05
2.77461594805e-05
4.99371169496e-05
-3.96999654727e-05
4.73740052159e-05
5.05644958218e-05
-4.19561039479e-05
5.86941242191e-05
5.35203887861e-05
-3.17366316009e-05
6.32068804632e-05
5.76131584983e-05
-1.80869183452e-05
6.19895173187e-05
6.19478333273e-05
-4.01041221944e-06
5.57910092155e-05
6.60926676255e-05
8.64442812973e-06
4.5384046202e-05
6.95869061209e-05
1.89828263419e-05
3.19258727306e-05
7.22660601039e-05
2.66473029702e-05
1.64854752348e-05
7.40937265449e-05
3.14886447425e-05
4.81538814777e-08
7.50263100013e-05
3.37353592993e-05
-1.63916651857e-05
7.50215392277e-05
3.37425502991e-05
-3.1839101952e-05
7.40798170375e-05
3.15098593145e-05
-4.53078130437e-05
7.22442602695e-05
2.6680605357e-05
-5.5727493487e-05
6.95598620785e-05
1.90235368663e-05
-6.1939558695e-05
6.60636637253e-05
8.68678627813e-06
-6.31693803787e-05
6.19198576684e-05
-3.97000436389e-06
-5.86675045252e-05
5.75890446699e-05
-1.80527423425e-05
-4.73565948807e-05
5.35027576537e-05
-3.17094328659e-05
-2.77368062e-05
5.05555104765e-05
-4.19357697946e-05
4.99431227364e-05
-3.96875513443e-05
2.99948992399e-05
4.52497157212e-05
-3.3565630138e-05
5.12979027351e-05
4.59152924657e-05
-3.49264929644e-05
6.32873980612e-05
4.85848601985e-05
-2.27175950669e-05
6.77290327344e-05
5.20971211342e-05
-7.08863264547e-06
6.61356821389e-05
5.57544260779e-05
8.6321587245e-06
5.93428201473e-05
5.93062957192e-05
2.28845875228e-05
4.81523900171e-05
6.22658244143e-05
3.45165527656e-05
3.38065615389e-05
6.45179938457e-05
4.29919330169e-05
1.74394285652e-05
6.60625171058e-05
4.82340967575e-05
4.75358659091e-08
6.6885171367e-05
5.06230821058e-05
-1.73469271322e-05
6.68798826728e-05
5.06300947562e-05
-3.37211884853e-05
6.60467888609e-05
4.82549408389e-05
-4.80773863585e-05
6.44929050734e-05
4.3024931866e-05
-5.9280350391e-05
6.2234079228e-05
3.45576654178e-05
-6.60865866405e-05
5.92714587329e-05
2.29290233738e-05
-6.76915376327e-05
5.57198387676e-05
8.67435883821e-06
-6.32604642453e-05
5.20652978585e-05
-7.05077753003e-06
-5.127960901e-05
4.85600616196e-05
-2.26863507087e-05
-2.99844459525e-05
4.58998212961e-05
-3.49006356184e-05
4.52502149733e-05
-3.35448803818e-05
3.19217000536e-05
3.67551016689e-05
-2.93920417916e-05
5.46857381642e-05
3.74456770343e-05
-2.93769414874e-05
6.72062691674e-05
3.9723700735e-05
-1.52992987273e-05
7.15371336221e-05
4.24664421723e-05
1.9866222705e-06
6.96328238024e-05
4.53588080473e-05
1.89538002082e-05
6.23038584774e-05
4.81286857734e-05
3.44997795716e-05
5.04488903793e-05
5.04248534729e-05
4.70165584911e-05
3.53834052119e-05
5.22551141122e-05
5.60089918521e-05
1.82955440697e-05
5.36705993937e-05
6.15107585323e-05
4.48680298551e-08
5.43550797961e-05
6.40829744435e-05
-1.82089081062e-05
5.43494287017e-05
6.4089266995e-05
-3.53037602564e-05
5.3654377331e-05
6.15290148531e-05
-5.03792995606e-05
5.22287071254e-05
5.60379436108e-05
-6.22461305876e-05
5.03898272657e-05
4.70534247823e-05
-6.95877938625e-05
4.80889881993e-05
3.4541138023e-05
-7.15028667984e-05
4.53181640541e-05
1.89945409995e-05
-6.71809690013e-05
4.24281035363e-05
2.02153015272e-06
-5.46682861908e-05
3.96914751355e-05
-1.5267729222e-05
-3.19111493276e-05
3.74224547895e-05
-2.93482618582e-05
3.67466072611e-05
-2.93640464755e-05
3.36492321149e-05
2.56172038581e-05
-2.72257618274e-05
5.75495068136e-05
2.62713362952e-05
-2.55232809336e-05
7.03324874537e-05
2.80228761514e-05
-9.76334644376e-06
7.4541889104e-05
2.99467116046e-05
8.54996450863e-06
7.2315971768e-05
3.191643468e-05