/*--------------------------------*- C++ -*----------------------------------*\
| =========                 |                                                 |
| \\      /  F ield         | OpenFOAM: The Open Source CFD Toolbox           |
|  \\    /   O peration     | Version:  3.0.1                                 |
|   \\  /    A nd           | Web:      www.OpenFOAM.org                      |
|    \\/     M anipulation  |                                                 |
\*---------------------------------------------------------------------------*/
FoamFile
{
    version     2.0;
    format      ascii;
    class       volScalarField;
    location    "4.7";
    object      ddt0(epsilon);
}
// * * * * * * * * * * * * * * * * * * * * * * * * * * * * * * * * * * * * * //

dimensions      [0 2 -4 0 0 0 0];

internalField   nonuniform List<scalar> 
7968
(
-0.000147117188631
-0.00016949927071
-0.000187270004032
-0.000198303435535
-0.0002045338073
-0.000207673988776
-0.000208920665397
-0.000209247970902
-0.00020919915888
-0.000209108549747
-0.000209211147916
-0.00020940036955
-0.000209500199286
-0.000209205788974
-0.000207975305998
-0.000204837855536
-0.000198582825443
-0.000187494436343
-0.000169643846943
-0.000147169053332
-0.000169499215022
-0.000278987214727
-0.000361061109351
-0.000413333493628
-0.000444162929508
-0.000460207216066
-0.000466973218038
-0.000469038190954
-0.000469367645674
-0.000469372635614
-0.000469485127949
-0.000469658414893
-0.000469482902769
-0.000467553526175
-0.000460903746414
-0.000444961386882
-0.000414141743491
-0.000361763579147
-0.000279440889554
-0.000169645795469
-0.000187292915826
-0.00036112992798
-0.000494504919193
-0.000580904360972
-0.000632589597343
-0.000659869746679
-0.000671672806862
-0.000675501258604
-0.000676318755029
-0.000676499682509
-0.0006765977926
-0.000676573992193
-0.000675924465555
-0.000672276525638
-0.000660664137584
-0.000633537355515
-0.000581912435841
-0.000495400613986
-0.000361711236607
-0.000187498152517
-0.000198334765073
-0.000413449336068
-0.000580936152888
-0.00068917224798
-0.000752512722352
-0.000784051690978
-0.000796281353275
-0.000799051937499
-0.000798398727223
-0.000798172855719
-0.000798237282165
-0.000798546860265
-0.000799344916521
-0.000796769138771
-0.000784786810982
-0.000753442617978
-0.000690193752392
-0.000581873331372
-0.000414067004512
-0.000198569906986
-0.000204569565983
-0.000444231701347
-0.000632575198435
-0.000752437872719
-0.000819030276772
-0.00084870834611
-0.000863412458122
-0.000871180211534
-0.000873555821801
-0.000874178968279
-0.000874281201269
-0.000873794931852
-0.000871557172694
-0.000863924695402
-0.000849421675812
-0.000819956884193
-0.000753459305926
-0.000633510997211
-0.000444855072383
-0.000204820746105
-0.000207703049975
-0.000460227455191
-0.000659741687213
-0.000783818143364
-0.000848518550377
-0.000887424949484
-0.000908073156142
-0.000915870120251
-0.00091783840469
-0.000918200356316
-0.00091832082027
-0.000918106098417
-0.0009162631808
-0.000908610200326
-0.000888104762351
-0.000849523415103
-0.000784902725393
-0.000660710655994
-0.000460882686343
-0.000207968072288
-0.000208933967797
-0.000466890742433
-0.000671359367418
-0.000795788389025
-0.000863206319728
-0.000907938733148
-0.000928405972208
-0.000934518583813
-0.000935094463768
-0.000934792627553
-0.000934939867639
-0.000935404452234
-0.000934947165791
-0.000929003371288
-0.000908690095947
-0.00086403214633
-0.000797019077792
-0.000672421402877
-0.000467581201365
-0.000209209079601
-0.000209236049676
-0.00046881906463
-0.000674973440797
-0.000798280696506
-0.000870809316473
-0.000915570870193
-0.000934353872144
-0.000938320379633
-0.000937209771972
-0.000935978530788
-0.00093616266903
-0.000937586513111
-0.000938822237749
-0.000935029342031
-0.000916425489327
-0.000871730124431
-0.000799698194695
-0.000676161303611
-0.000469577940575
-0.000209520334304
-0.000209151384599
-0.000469000883254
-0.000675580746521
-0.000797404283338
-0.000872996755056
-0.000917363392433
-0.000934751913696
-0.000937006385779
-0.000934141369682
-0.000931959889642
-0.00093220949971
-0.00093464974614
-0.000937608075233
-0.000935509829171
-0.000918307495283
-0.000874012997819
-0.000798939099862
-0.00067688371538
-0.000469827084222
-0.000209443834898
-0.000209001340342
-0.000468867445051
-0.000675597602921
-0.000797048594572
-0.00087346566134
-0.000917548713163
-0.000934235941841
-0.00093549086606
-0.000931598129441
-0.000928770615469
-0.000929091743648
-0.000932225683508
-0.000936189526386
-0.00093505028059
-0.000918541596058
-0.000874527214512
-0.000798624128047
-0.000676961636913
-0.000469732006401
-0.000209299865986
-0.000209005787535
-0.000468859909301
-0.000675568208721
-0.000796992341903
-0.000873416039956
-0.000917485932284
-0.000934151910331
-0.000935377844074
-0.000931451637517
-0.00092859585626
-0.000928915324548
-0.000932073456323
-0.000936070195667
-0.000934961149266
-0.000918474061522
-0.000874470802745
-0.0007985547581
-0.000676918516787
-0.000469715559847
-0.000209302249938
-0.000209157958926
-0.000468973774165
-0.000675492491814
-0.000797235738709
-0.000872855111535
-0.000917188411143
-0.000934524450031
-0.000936711481933
-0.000933773358278
-0.000931542306238
-0.000931785241944
-0.000934266334877
-0.000937297973109
-0.000935267564225
-0.000918115777935
-0.000873847164955
-0.000798725872429
-0.000676752070754
-0.000469770800469
-0.000209442983395
-0.000209248667373
-0.000468783227288
-0.000674847784622
-0.000798025269783
-0.000870608791135
-0.000915323133918
-0.000934037555729
-0.000937925099845
-0.000936737260484
-0.000935461698148
-0.000935641196676
-0.000937103587249
-0.000938412782981
-0.000934691379495
-0.000916148011141
-0.000871487441888
-0.000799369533069
-0.000675965657608
-0.000469494397019
-0.000209522172006
-0.000208955174089
-0.000466867888445
-0.00067123570368
-0.000795504189912
-0.00086297306432
-0.000907658473729
-0.00092804834846
-0.000934082581062
-0.000934590151122
-0.00093425207081
-0.00093439793769
-0.000934895016927
-0.000934497903829
-0.000928617191214
-0.000908364572176
-0.000863734043673
-0.000796630384238
-0.000672205563621
-0.00046749664222
-0.000209217701864
-0.000207733525999
-0.000460245923506
-0.000659671172462
-0.000783578235206
-0.000848123750041
-0.000887128594657
-0.000907720088016
-0.000915438301664
-0.000917336571761
-0.000917667911012
-0.000917786122232
-0.000917596037509
-0.00091581031962
-0.000908216142185
-0.000887740741728
-0.000849015430832
-0.000784541566535
-0.000660538135789
-0.000460826891297
-0.000207985560395
-0.000204610226999
-0.000444301916103
-0.000632595249842
-0.000752306942279
-0.000818705442865
-0.00084825461518
-0.000863079529677
-0.00087077323551
-0.000873064705892
-0.000873669376749
-0.000873768269984
-0.000873292830286
-0.0008711185991
-0.000863532438737
-0.000848855942832
-0.000819508936199
-0.00075320994146
-0.000633435173086
-0.000444867745391
-0.000204851042348
-0.00019838266296
-0.000413573144983
-0.000581056754812
-0.000689182662368
-0.000752348469167
-0.000783719902041
-0.00079580209797
-0.000798462847052
-0.000797713451924
-0.000797484426583
-0.000797543350545
-0.000797843121508
-0.000798707218486
-0.000796201493279
-0.000784345855433
-0.000753167574502
-0.000690102760491
-0.000581912363946
-0.000414141510604
-0.000198606753825
-0.000187337530914
-0.000361283073884
-0.000494690892956
-0.000581031709031
-0.000632597899064
-0.000659745032993
-0.000671424158042
-0.000675155838417
-0.00067589833151
-0.000676049373307
-0.000676136688238
-0.000676120172446
-0.000675521162798
-0.000671947323067
-0.000660447854544
-0.000633455044805
-0.000581957327274
-0.000495527325331
-0.000361828231224
-0.000187534164429
-0.000169536313795
-0.000279114674564
-0.000361228998825
-0.000413483177529
-0.000444259074437
-0.000460227988376
-0.000466921079182
-0.000468924966974
-0.000469210908668
-0.000469192286318
-0.000469298060949
-0.000469478947032
-0.000469331340108
-0.000467450354125
-0.000460868122736
-0.000444990668963
-0.000414242412014
-0.000361893949265
-0.000279540187338
-0.000169674861435
-0.00014712926926
-0.000169537623115
-0.000187326206908
-0.000198366004112
-0.000204594209085
-0.000207726881619
-0.000208961893627
-0.000209277578327
-0.000209219050489
-0.000209120073878
-0.00020922164424
-0.000209415715167
-0.000209522921705
-0.000209237889202
-0.000208018620909
-0.000204889238986
-0.000198637699428
-0.00018754482252
-0.000169677646864
-0.000147177604481
-0.000167362749957
-0.000267957628639
-0.000345317798329
-0.000395423148224
-0.000425653385353
-0.000442185633596
-0.000449870863997
-0.000452636853525
-0.000453223383253
-0.000453225328157
-0.000453327350919
-0.000453484233095
-0.000453010767066
-0.000450316022946
-0.000442663168087
-0.000426125070534
-0.000395834563976
-0.000345617609909
-0.000268122877765
-0.000167457675532
-0.00026791767464
-0.000323849797535
-0.000391651907232
-0.000439576523784
-0.000469842008665
-0.000487059437815
-0.000495606963633
-0.000499161440663
-0.000500339615861
-0.000500646993998
-0.000500704206316
-0.00050048924748
-0.000499380786596
-0.000495872189013
-0.000487349198067
-0.000470143006226
-0.000439870397197
-0.000391927154744
-0.000324105031987
-0.000268148309942
-0.000345304266857
-0.00039162461071
-0.000466832399956
-0.000522536839285
-0.000558672298921
-0.000579588954726
-0.000590130317388
-0.000594565126942
-0.00059602391558
-0.000596418733876
-0.000596461448764
-0.000596134053304
-0.000594727580851
-0.000590327034176
-0.000579809884385
-0.000558911387974
-0.000522795371932
-0.000467119366567
-0.000391955061639
-0.000345634286515
-0.000395444088233
-0.000439532828206
-0.000522516388437
-0.000585395611841
-0.000626743552266
-0.000650904495379
-0.000663345537116
-0.000668682062913
-0.000670182668603
-0.000670706535189
-0.000670745847441
-0.00067028120862
-0.00066882704228
-0.000663513099549
-0.000651090259863
-0.000626947436012
-0.00058563338896
-0.000522815375629
-0.000439917639188
-0.00039582456601
-0.000425692963219
-0.000469776853993
-0.000558626587144
-0.000626718153761
-0.000671725208919
-0.000698380108435
-0.000713642734912
-0.000721361200067
-0.000724490221659
-0.000725527549121
-0.000725584991203
-0.000724636553637
-0.0007215627355
-0.000713853227583
-0.000698578230913
-0.000671932079064
-0.000626960872788
-0.000558946589533
-0.000470204566861
-0.000426097539132
-0.000442213430806
-0.000486963850204
-0.000579507545069
-0.000650844419985
-0.000698356928125
-0.000729415781584
-0.000747787368096
-0.000757135946806
-0.000761116962058
-0.000762473655259
-0.000762552586134
-0.000761322766491
-0.000757412110613
-0.00074806321975
-0.000729650577861
-0.000698588135378
-0.00065112065922
-0.000579866194443
-0.000487435313022
-0.000442639478545
-0.000449855159237
-0.000495466323923
-0.000589997394793
-0.000663235082528
-0.000713619209446
-0.000747791172034
-0.000768086781783
-0.000778409024092
-0.00078281394064
-0.000784318645146
-0.000784413086491
-0.000783066163441
-0.000778756054922
-0.00076838250669
-0.000748069859133
-0.000713864498522
-0.000663565730927
-0.000590409299461
-0.000495986086229
-0.000450311805075
-0.000452549211006
-0.000498961600163
-0.000594369556044
-0.000668513796507
-0.00072131345574
-0.000757147230162
-0.00077838670059
-0.000789018761416
-0.000793468965349
-0.00079489221813
-0.000794981650729
-0.000793713140878
-0.000789428595102
-0.000778759427606
-0.0007574317476
-0.000721591148225
-0.000668901863244
-0.000594837505715
-0.000499529282754
-0.000453043475035
-0.000453039822895
-0.000500072267343
-0.000595761225844
-0.000669973689372
-0.000724387385463
-0.000761080511323
-0.000782708465446
-0.000793348546295
-0.000797413289634
-0.000798668066463
-0.000798779347142
-0.000797709484409
-0.000793807715097
-0.000783122773674
-0.00076137444628
-0.000724694443449
-0.00067036780507
-0.000596272704393
-0.000500680286202
-0.000453570614935
-0.000452933313536
-0.000500314051747
-0.0005960952964
-0.000670444997193
-0.000725352502894
-0.000762345912797
-0.000784119253271
-0.000794654667178
-0.000798549892819
-0.000799737007309
-0.000799865333608
-0.000798901048472
-0.000795169225889
-0.000784537714008
-0.000762666534785
-0.000725684627548
-0.000670853118199
-0.000596629876971
-0.000500944262964
-0.000453486561383
-0.000452931857252
-0.000500315150299
-0.000596087469302
-0.00067043226216
-0.000725341962753
-0.000762337149957
-0.000784120449231
-0.000794664064131
-0.00079856184141
-0.000799747156643
-0.000799873463378
-0.000798911718928
-0.000795176376789
-0.000784534932937
-0.000762658710785
-0.000725672552112
-0.000670836374574
-0.000596617427792
-0.000500941358301
-0.000453480688555
-0.000453032767639
-0.000500072708428
-0.00059573641656
-0.000669934280174
-0.000724357104237
-0.000761058380216
-0.000782709157743
-0.000793363784824
-0.000797425145187
-0.000798674982721
-0.0007987924007
-0.000797728506903
-0.000793823794787
-0.00078311271229
-0.000761349073904
-0.000724656323208
-0.000670314634256
-0.000596232799313
-0.00050066719773
-0.000453547747911
-0.000452542382782
-0.000498962460534
-0.000594330901789
-0.000668447322698
-0.00072126707437
-0.000757115750872
-0.000778378982614
-0.000789028110097
-0.000793475757826
-0.000794891541178
-0.000794984073552
-0.00079372416504
-0.000789437294365
-0.000778738559385
-0.000757388620988
-0.000721528730427
-0.000668811260074
-0.000594773228163
-0.000499507426733
-0.000453010276348
-0.000449858179529
-0.000495471983604
-0.000589952906514
-0.000663151400991
-0.000713554168096
-0.00074774137524
-0.000768056012223
-0.000778390779199
-0.000782798170518
-0.000784301545094
-0.00078439740326
-0.000783052348704
-0.00077873629184
-0.000768340552753
-0.00074800368432
-0.000713774979438
-0.000663446574458
-0.000590329302809
-0.000495961383521
-0.000450280580301
-0.000442236833884
-0.000486981531355
-0.000579470548096
-0.000650759532003
-0.000698258865686
-0.000729339656822
-0.000747719634135
-0.00075707412112
-0.000761052703812
-0.00076240724591
-0.000762487566776
-0.000761260579731
-0.000757345451694
-0.000747981031208
-0.000729550550591
-0.000698453370272
-0.000650991408138
-0.00057978702694
-0.000487418107186
-0.000442624945286
-0.000425744771747
-0.000469813543815
-0.000558609985538
-0.000626649519064
-0.000671617896131
-0.000698264793465
-0.00071354093372
-0.000721251306645
-0.000724364591167
-0.000725397765648
-0.000725454795769
-0.000724508370194
-0.00072144145899
-0.000713729385168
-0.000698427206691
-0.000671779369391
-0.000626843760313
-0.000558886134921
-0.000470206606225
-0.000426112001254
-0.000395518736358
-0.000439588667443
-0.000522529930315
-0.000585362769866
-0.000626665770312
-0.00065079057273
-0.000663201332685
-0.000668518082227
-0.00067000252888
-0.000670524361449
-0.000670562305571
-0.000670095494807
-0.000668648728459
-0.000663339266576
-0.000650935973986
-0.000626823290734
-0.000585553615488
-0.000522787063772
-0.000439940781827
-0.000395862857703
-0.000345384681158
-0.000391693736756
-0.000466878152405
-0.00052255264487
-0.000558652029855
-0.000579532786863
-0.000590041491161
-0.000594451271218
-0.000595889928296
-0.000596277223569
-0.000596316951468
-0.000595990109832
-0.000594594030507
-0.00059020823694
-0.000579716163699
-0.000558849891248
-0.000522770456912
-0.000467129394348
-0.000391995111844
-0.000345682798043
-0.000267982655769
-0.00032391842956
-0.000391722090543
-0.000439638583374
-0.000469885110648
-0.000487077228926
-0.00049559892677
-0.000499131477732
-0.00050029420444
-0.000500594111206
-0.000500648522529
-0.000500434328704
-0.000499333393382
-0.000495839232421
-0.000487337259762
-0.000470154239348
-0.000439902048039
-0.000391969423372
-0.000324147957903
-0.00026818727523
-0.000167385679866
-0.000268009134551
-0.000345396718296
-0.000395506637458
-0.000425719136035
-0.000442219182098
-0.000449866852928
-0.000452599901599
-0.000453162078007
-0.000453150341465
-0.000453248957535
-0.00045341174705
-0.000452953885647
-0.000450283606475
-0.000442663454703
-0.000426156902712
-0.000395885854048
-0.000345667563286
-0.000268152649129
-0.000167479005134
-0.000182632786
-0.000337834237314
-0.000460555579791
-0.000542258486988
-0.000593166915569
-0.000622243124591
-0.000636775781378
-0.000642747412889
-0.000644529896413
-0.000644818696633
-0.000644902276594
-0.000644757364191
-0.000643092542572
-0.000637200602498
-0.000622700468923
-0.000593606692379
-0.000542621167379
-0.000460794015485
-0.00033795574743
-0.000182765536676
-0.00033775587051
-0.00038600023636
-0.000461801705554
-0.000518494599233
-0.000556172767842
-0.000579006045755
-0.000591434988743
-0.000597381637026
-0.000599822200029
-0.000600625213255
-0.000600680175611
-0.000599971976404
-0.000597600543614
-0.000591689898562
-0.000579265081954
-0.000556417269683
-0.000518722258664
-0.000462032091458
-0.000386267052988
-0.000338014464029
-0.000460494974851
-0.000461725582937
-0.000528492091211
-0.000583040611914
-0.000620792433283
-0.000644229914957
-0.000657210250538
-0.000663527637972
-0.00066626190383
-0.000667196311407
-0.000667236065347
-0.000666368507567
-0.000663677919476
-0.000657374575875
-0.000644388819301
-0.000620944559815
-0.000583211962058
-0.000528737299704
-0.000462106237
-0.000460847608305
-0.000542242437145
-0.000518371752263
-0.000582984260062
-0.000638788916333
-0.000678458739143
-0.000703560620477
-0.000717673800748
-0.000724461721658
-0.000727876938985
-0.000729034638085
-0.000729074569028
-0.000727984853779
-0.000724612167739
-0.000717827602959
-0.000703697840226
-0.000678589470706
-0.000638956346212
-0.000583265274007
-0.000518842821464
-0.000542638192352
-0.000593170814633
-0.000556014832942
-0.000620691235933
-0.000678414216433
-0.000720157739613
-0.000747073556046
-0.00076262899118
-0.000770989831312
-0.000775040192854
-0.000776391437174
-0.000776441478713
-0.000775180930504
-0.000771677467366
-0.000763457278588
-0.00074727411554
-0.000720330444343
-0.000678622516646
-0.000621031197971
-0.000556564957941
-0.000593593230928
-0.000622219761244
-0.000578810241835
-0.000644085737222
-0.000703476414041
-0.000747037471884
-0.000775362398678
-0.00079230166333
-0.000802764776813
-0.000807996609512
-0.000809505323101
-0.000809562639274
-0.000808168191632
-0.000804845551
-0.00079611976339
-0.000777376373615
-0.000747300142535
-0.000703754742502
-0.000644501293798
-0.000579435930183
-0.000622680638052
-0.00063667524138
-0.000591190682838
-0.000657019535984
-0.000717550805394
-0.000762570942336
-0.000791010817353
-0.000809593908166
-0.000822181584415
-0.000828451079846
-0.000830016162618
-0.000830076612603
-0.000828628748155
-0.000825714553937
-0.000817275135958
-0.000797140268543
-0.000763510906782
-0.000717908055079
-0.000657512923759
-0.000591888604117
-0.000637197515614
-0.000642533370708
-0.00059707844228
-0.000663287036744
-0.000724312074611
-0.000770229244847
-0.000798753741091
-0.00081854230598
-0.000832031627538
-0.00083869549263
-0.000840240139146
-0.000840256223919
-0.00083879821775
-0.000836377638316
-0.000828498881787
-0.000808014907632
-0.000772290641235
-0.000724716923855
-0.000663843679175
-0.000597834309438
-0.000643122106271
-0.000644185285687
-0.000599451667612
-0.000665959947198
-0.000727649421852
-0.000773659673158
-0.000802416817446
-0.00082255115072
-0.000836159077719
-0.00084267785853
-0.000844072451375
-0.000844093507759
-0.000842842986402
-0.000840760829098
-0.000833119541847
-0.000812550736288
-0.00077626353942
-0.000728133575587
-0.000666567665182
-0.000600249105921
-0.000644827786444
-0.000644348678389
-0.000600188331855
-0.000666835209982
-0.000728740251269
-0.000774921391996
-0.000803820351708
-0.00082407376834
-0.000837627278869
-0.000844049926123
-0.000845380475937
-0.000845393052797
-0.000844243101902
-0.000842304100963
-0.000834611356934
-0.000814022899612
-0.000777580533705
-0.000729260795504
-0.000667470550276
-0.000601008170207
-0.000645020063518
-0.000644331419882
-0.00060018988679
-0.000666830504332
-0.000728732226306
-0.000774914335425
-0.000803820997096
-0.000824099023732
-0.000837673922822
-0.000844105598021
-0.000845437155187
-0.000845446677526
-0.000844300963678
-0.000842347927354
-0.000834628000007
-0.000814025721684
-0.000777573772479
-0.000729250738229
-0.000667462871984
-0.000601006449798
-0.000644997531425
-0.000644136901208
-0.000599455407823
-0.00066594497677
-0.00072762526585
-0.000773639007353
-0.000802419500194
-0.000822614419081
-0.000836256809415
-0.000842779685923
-0.000844178943481
-0.000844217920072
-0.000842968737575
-0.000840875487117
-0.0008331616009
-0.000812554745296
-0.000776240091931
-0.000728101240203
-0.000666542029971
-0.000600240378679
-0.000644758392024
-0.000642464217775
-0.000597083541407
-0.000663261056809
-0.000724272448652
-0.000770128064362
-0.000798506810266
-0.000818172001556
-0.000831603325152
-0.000838245232403
-0.000839773519572
-0.000839802637749
-0.000838366826474
-0.000835947638357
-0.000828100770289
-0.00080775276387
-0.000772177541209
-0.000724660926295
-0.000663797979106
-0.00059781747668
-0.000643016354633
-0.000636601718722
-0.000591196613682
-0.000656980859043
-0.000717483953096
-0.000762425052664
-0.000790498341857
-0.000808609582474
-0.000820937189031
-0.000827139716664
-0.000828703297812
-0.000828770680994
-0.000827324178465
-0.000824464870237
-0.000816258690644
-0.000796601864142
-0.000763345694557
-0.000717815032727
-0.000657445121245
-0.000591864291756
-0.000637073424859
-0.000622162935461
-0.000578820134001
-0.000644040184818
-0.000703392595633
-0.000746944528965
-0.000775044990253
-0.000791454804256
-0.000801513229912
-0.000806642124281
-0.000808149165415
-0.000808209506459
-0.000806819752233
-0.000803590591706
-0.000795249389966
-0.000777039473545
-0.000747180029054
-0.000703635251041
-0.000644418794483
-0.000579410131173
-0.000622563930053
-0.000593149670944
-0.000556033813603
-0.000620648459651
-0.000678325899525
-0.000720044404953
-0.000746958114535
-0.000762435450175
-0.000770655259247
-0.000774637386235
-0.000775979119783
-0.000776028627527
-0.000774776502995
-0.000771334341904
-0.00076324435727
-0.000747132324922
-0.000720181727707
-0.000678492357262
-0.000620947080327
-0.0005565458113
-0.000593508745844
-0.000542260601002
-0.000518402882932
-0.000582957995836
-0.000638718074513
-0.000678357515039
-0.000703441270947
-0.000717543797551
-0.000724335468234
-0.000727736812063
-0.000728885861784
-0.000728923668925
-0.000727837942582
-0.000724472538487
-0.000717676212418
-0.000703545948564
-0.000678447918373
-0.000638841358307
-0.00058319651663
-0.000518836332466
-0.00054259329693
-0.00046054271882
-0.000461771085793
-0.00052849727653
-0.000583012591326
-0.000620737077044
-0.000644152590546
-0.000657116047181
-0.000663424266106
-0.000666148481034
-0.000667075368106
-0.000667112346544
-0.000666246075708
-0.000663558535537
-0.00065725546985
-0.000644277863917
-0.000620849959513
-0.000583142305973
-0.000528703170536
-0.000462117044548
-0.000460838831629
-0.000337811545585
-0.000386055723607
-0.000461846891068
-0.000518526410865
-0.000556186394918
-0.000578998159215
-0.000591405656476
-0.000597336166429
-0.000599765058974
-0.000600559788511
-0.000600611700947
-0.000599904863976
-0.000597537410325
-0.000591634052869
-0.000579224327599
-0.000556394976767
-0.000518717528534
-0.000462042963174
-0.000386291164606
-0.000338027711154
-0.000182661792815
-0.000337874811181
-0.000460597509555
-0.000542276076191
-0.000593135987398
-0.000622148993129
-0.00063661745269
-0.000642537893404
-0.000644285245403
-0.000644551314881
-0.000644629190092
-0.000644494485309
-0.00064285076848
-0.000636994972553
-0.000622548242273
-0.000593513779482
-0.000542577852525
-0.000460781316359
-0.000337954818153
-0.000182797168537
-0.000191270397404
-0.000381283216864
-0.000534156420854
-0.000637876938418
-0.00070392208043
-0.000742681434648
-0.000762836189714
-0.000771625711588
-0.000774462149854
-0.000774967272219
-0.000774991456612
-0.000774541863387
-0.000771771252417
-0.000763031523933
-0.0007428847819
-0.000704090693454
-0.000637975697662
-0.000534172672368
-0.000381280860824
-0.000191446282579
-0.000381154379873
-0.000428616779054
-0.000512862839501
-0.00057761726691
-0.000621857271898
-0.000649535213194
-0.000665205591793
-0.000673083467651
-0.000676461991358
-0.000677597638901
-0.000677650259104
-0.000676611905685
-0.00067330731518
-0.000665457228197
-0.000649753988284
-0.000622009740813
-0.000577711630192
-0.000512957920922
-0.000428809580841
-0.000381411382899
-0.000534029184989
-0.000512742125543
-0.000579053628334
-0.000636174966246
-0.000677212961554
-0.000703743475791
-0.000719165505274
-0.000727288188224
-0.00073098695972
-0.000732332072462
-0.000732379048575
-0.000731116699621
-0.000727472675842
-0.000719359533832
-0.000703893577849
-0.000677308302745
-0.000636251071827
-0.000579204102834
-0.000513083126422
-0.000534312515225
-0.000637787673997
-0.00057742538581
-0.00063608869527
-0.000691052015912
-0.000731926045894
-0.000758481297207
-0.000773761567317
-0.000783687947444
-0.000788461127718
-0.000789985514115
-0.000790037815038
-0.000788608565468
-0.000785032446122
-0.000776382309228
-0.000759739832158
-0.000732059106899
-0.000691183423936
-0.000636331479147
-0.000577903693987
-0.000638073359718
-0.000703834569443
-0.000621615444857
-0.00067706015144
-0.000731857993166
-0.000772414979048
-0.000798493044312
-0.000815434575762
-0.000827851846453
-0.000834501388139
-0.000836131626821
-0.000836177630755
-0.000834646040001
-0.000832338895201
-0.000825216689521
-0.000806545805633
-0.000775188161727
-0.000732112764529
-0.000677438744614
-0.000622235445674
-0.00070414940965
-0.000742530724699
-0.000649241666418
-0.000703529024133
-0.000758356879183
-0.000796783353409
-0.000822332388023
-0.000841538802581
-0.000857768514043
-0.000866640884476
-0.000868288202366
-0.000868308334334
-0.000866733369692
-0.000866305791733
-0.000861902683786
-0.000843076075267
-0.000807887272886
-0.000759835829767
-0.000704064698912
-0.000650006103045
-0.000742922623951
-0.000762554608851
-0.000664846472393
-0.000718885652869
-0.000772341412279
-0.00080897299725
-0.000834321911324
-0.000855381216932
-0.000874751614988
-0.000885306182209
-0.000886852461345
-0.000886841927082
-0.000885334103229
-0.000886760461724
-0.000885609531999
-0.000867886994318
-0.000830391539115
-0.00077747798208
-0.000719574385955
-0.000665743601245
-0.000763064555921
-0.000771177413304
-0.000672648117557
-0.000726936245637
-0.000779450813914
-0.000814830341723
-0.000839635744167
-0.000861702170128
-0.00088247732096
-0.000893756748215
-0.00089516545723
-0.00089511234159
-0.00089368045024
-0.000896282269805
-0.000897318010202
-0.000881216099888
-0.000842800196355
-0.000788307690864
-0.000727737132057
-0.000673636258495
-0.000771793163923
-0.000773857998366
-0.000675946471552
-0.000730557561016
-0.000782828908389
-0.000817901175842
-0.000842545892932
-0.000864722976965
-0.000885701314802
-0.00089694586857
-0.000898152452148
-0.000898091667337
-0.000896872398869
-0.000899990249158
-0.000901798292142
-0.000886348182407
-0.000847930155628
-0.000792954790362
-0.000731431023365
-0.000676985255162
-0.000774531553974
-0.000774243418599
-0.000677009720707
-0.000731830897308
-0.000784255030517
-0.000819417108411
-0.000844090213352
-0.000866257972241
-0.000887133046756
-0.000898244686789
-0.000899313428479
-0.000899240514886
-0.000898169591619
-0.000901479552443
-0.000903388266738
-0.000888022286238
-0.000849561899978
-0.000794452652983
-0.000732740557357
-0.000678070232046
-0.000774935311986
-0.000774188932475
-0.000677004629852
-0.00073182384017
-0.000784248901667
-0.000819423684047
-0.000844119675258
-0.000866313324937
-0.000887208486238
-0.000898330760492
-0.000899405071434
-0.000899327919069
-0.000898253777706
-0.00090155208868
-0.000903439484742
-0.000888051146836
-0.000849566574641
-0.000794443492334
-0.000732730775208
-0.000678062423833
-0.000774875007411
-0.000773708930329
-0.000675933536797
-0.00073053617171
-0.00078280959541
-0.000817917855475
-0.000842628169027
-0.000864874922919
-0.000885899527711
-0.000897165377763
-0.000898380859222
-0.000898324501975
-0.000897095459377
-0.000900195643991
-0.000901944231636
-0.000886429889295
-0.000847941837575
-0.000792925089833
-0.000731399361582
-0.000676959092215
-0.000774354574326
-0.000770950930932
-0.000672625836642
-0.000726897966993
-0.000779261197748
-0.000814288541613
-0.000838668990149
-0.000860353248181
-0.000880897503199
-0.00089210319051
-0.000893508951421
-0.000893459312632
-0.000892040020345
-0.000894648780933
-0.00089583262163
-0.000880126527646
-0.000842202893905
-0.000788096407311
-0.000727679548893
-0.000673590643552
-0.000771520387729
-0.000762279335538
-0.000664810190568
-0.000718825139163
-0.000771950647567
-0.000807694597098
-0.000831788028555
-0.000851632419215
-0.000870238087317
-0.000880542362984
-0.000882087282758
-0.000882085777123
-0.000880588531219
-0.000882125612388
-0.000881555520627
-0.000865102989662
-0.00082902101549
-0.000777059928514
-0.000719485242568
-0.000665675058191
-0.000762723671925
-0.000742245750201
-0.000649190113194
-0.000703442599802
-0.000758099893227
-0.000795645961142
-0.00081961551335
-0.000837205770924
-0.000852335162367
-0.000860868824564
-0.000862512334048
-0.00086253950686
-0.000860977677307
-0.000860766957695
-0.000857325263197
-0.000840192524905
-0.000806697090296
-0.000759544473481
-0.000703940382856
-0.000649915494816
-0.000742556906184
-0.000703582111672
-0.000621552400269
-0.000676952529869
-0.000731715851064
-0.000771909669832
-0.000796926788173
-0.000812547928819
-0.000824089809895
-0.000830455595434
-0.000832074564516
-0.000832123138548
-0.000830606248084
-0.000828537937787
-0.000822239919246
-0.000804927952032
-0.000774647662192
-0.000731927774617
-0.000677286237885
-0.000622128119246
-0.000703807207792
-0.000637600013517
-0.000577361099395
-0.000635977434808
-0.000690906570633
-0.000731763772455
-0.000758176339637
-0.000772989795963
-0.000782421662158
-0.000787026140893
-0.000788539098445
-0.000788590821278
-0.000787170637688
-0.000783752694113
-0.000775582508218
-0.000759400784738
-0.000731854706193
-0.00069098898063
-0.000636170959144
-0.000577791650403
-0.000637791637507
-0.000533922716868