/*--------------------------------*- C++ -*----------------------------------*\
| =========                 |                                                 |
| \\      /  F ield         | OpenFOAM: The Open Source CFD Toolbox           |
|  \\    /   O peration     | Version:  3.0.1                                 |
|   \\  /    A nd           | Web:      www.OpenFOAM.org                      |
|    \\/     M anipulation  |                                                 |
\*---------------------------------------------------------------------------*/
FoamFile
{
    version     2.0;
    format      ascii;
    class       volScalarField;
    location    "4.7";
    object      k;
}
// * * * * * * * * * * * * * * * * * * * * * * * * * * * * * * * * * * * * * //

dimensions      [0 2 -2 0 0 0 0];

internalField   nonuniform List<scalar> 
7968
(
0.000633435951557
0.000723142192001
0.000793355936835
0.000837122520818
0.000861810729581
0.000873292062641
0.000876373513953
0.000874555092232
0.000870960629634
0.000867770103809
0.000867692042651
0.000870823597057
0.000874421269347
0.000876286265019
0.000873286835261
0.000861912673344
0.000837319374838
0.000793604099524
0.00072335559155
0.000633546995774
0.000723199673171
0.00106945382152
0.00129592935128
0.00142658325411
0.00149429254242
0.0015209711305
0.00152424030826
0.00151645495545
0.00150718453775
0.0015014343729
0.00150121102481
0.0015066002972
0.00151568926555
0.00152348903402
0.00152037160283
0.00149392459542
0.00142643754006
0.00129599089523
0.00106960303412
0.000723291983584
0.000793560094438
0.00129609370687
0.00161667483568
0.00180063855214
0.00189616719473
0.00193439152154
0.00193960269574
0.00193026762703
0.00191923430762
0.00191261742538
0.00191221523253
0.00191818030469
0.0019288833238
0.00193823660533
0.00193323542736
0.00189528283605
0.0018000275412
0.0016163400925
0.00129597932872
0.000793543457764
0.00083738696682
0.00142688275908
0.00180076722939
0.00201231623061
0.00211824733995
0.00215622884442
0.00215676856565
0.00214239692922
0.00212842807928
0.0021208692888
0.00212026427705
0.00212684484114
0.00214031803843
0.00215480823807
0.00215459638991
0.00211689725628
0.00201119659166
0.00179993810145
0.00142636900796
0.000837164327478
0.000862119106564
0.00149456707591
0.00189630040729
0.00211821292905
0.00222097975354
0.002250387834
0.00226521639068
0.00226522384034
0.00225841301095
0.0022530055099
0.00225241412813
0.00225692002668
0.0022633653911
0.0022634744956
0.00224861748852
0.00221947652944
0.00211678594895
0.00189505354783
0.00149365401229
0.000861663023999
0.000873614676278
0.00152120055085
0.00193437563014
0.00215588789276
0.00224996700234
0.00230888175008
0.0023333090358
0.00233440973701
0.00232674776467
0.00232032738138
0.00231958503122
0.00232491249329
0.00233222462738
0.00233142687553
0.00230743436435
0.00224875844884
0.00215454996219
0.00193299308651
0.00152010403377
0.00087298588083
0.000876669766793
0.00152433017275
0.00193929685083
0.00215591548913
0.00226467028855
0.00233300453482
0.00235700856539
0.00235419673095
0.00234249254439
0.00233352471903
0.00233258256875
0.00234019318948
0.0023515276192
0.00235485457283
0.00233155677202
0.00226367761132
0.00215494047381
0.00193803090233
0.00152319335158
0.000875965853858
0.000874792654687
0.00151638443946
0.00192971294584
0.0021411604701
0.00226446200348
0.00233390456749
0.00235401671193
0.00234515718555
0.00232772848699
0.0023151641405
0.00231401852045
0.00232495822052
0.00234194590655
0.00235148702062
0.0023323275263
0.00226355018666
0.00214050019162
0.00192863758963
0.00151533365897
0.000874087971369
0.000871126812309
0.00150702036319
0.00191863007462
0.00212727716452
0.00225772913384
0.00232639707729
0.0023425669672
0.0023280420633
0.00230455105339
0.00228742714029
0.00228608859835
0.00230135183067
0.00232435259398
0.00233963146889
0.00232459575449
0.00225675410895
0.00212666670542
0.00191765784828
0.00150606363271
0.000870449092316
0.000867861708861
0.00150125634251
0.00191213634138
0.0021200921795
0.00225266495022
0.00232045989333
0.00233424468801
0.00231622922663
0.0022882215488
0.00226723791781
0.00226575923523
0.00228474187181
0.00231221166644
0.00233100920991
0.00231844848681
0.00225156349708
0.00211935799376
0.00191116119472
0.00150032368054
0.00086717801795
0.000867712165673
0.0015010688645
0.0019119219755
0.00211987080018
0.00225245776872
0.00232025115857
0.00233401703278
0.00231595841311
0.00228787790348
0.00226681629635
0.00226532665656
0.00228437792717
0.00231192072865
0.00233076135615
0.00231821699143
0.00225132618774
0.00211908068582
0.00191088061021
0.00150007120309
0.000866979639291
0.000870818194912
0.00150650128626
0.00191801499116
0.00212662218079
0.00225713725044
0.00232580749468
0.00234193805234
0.00232732511586
0.00230369784844
0.00228644599892
0.00228508495156
0.00230045598902
0.00232359267091
0.00233895632866
0.00232394936826
0.00225608253721
0.00212586368712
0.00191687317669
0.00150538402495
0.000870040699153
0.000874413014363
0.00151559796975
0.00192873601495
0.00214005649976
0.00226350626153
0.00233295417376
0.00235301028535
0.00234404071282
0.00232648924145
0.00231381547795
0.0023126496256
0.00232367775714
0.00234078101955
0.00235042117961
0.00233129714673
0.00226247808851
0.00213918520461
0.00192742927157
0.00151433281833
0.00087358822236
0.000876284719328
0.00152339558744
0.00193807751903
0.00215446949947
0.0022633935826
0.00233174734936
0.0023556863822
0.00235276070734
0.00234093801477
0.0023318865137
0.00233092572803
0.00233859540542
0.00235003193315
0.00235345321227
0.00233019201572
0.00226224851028
0.00215324745282
0.00193654444146
0.00152201268785
0.000875455867185
0.000873286323787
0.0015202701042
0.00193309602925
0.00215429434301
0.00224811029376
0.0023073202776
0.00233176302129
0.00233275603748
0.00232498981951
0.00231850287731
0.00231773946818
0.00232309927683
0.00233048643552
0.00232976847546
0.00230571864753
0.00224666626231
0.0021526735411
0.00193141414545
0.00151890102289
0.000872537769624
0.000861893026346
0.00149376102607
0.00189515039241
0.00211670794877
0.00221907356135
0.00224817688959
0.00226344112175
0.0022633543077
0.00225645794633
0.00225099602992
0.00225037838401
0.00225488934109
0.00226137064025
0.00226153278959
0.00224615443673
0.00221727798283
0.0021149621838
0.0018935821371
0.00149258323726
0.000861329447107
0.000837285231823
0.0014263312982
0.00179992107841
0.00201112081891
0.00211663652119
0.00215420195348
0.00215437241932
0.00213972765013
0.00212570450701
0.0021181097926
0.00211746164153
0.00212398717655
0.00213741915066
0.00215213164348
0.00215225736437
0.00211494532652
0.00200964884261
0.0017987581365
0.00142555364877
0.000836967267118
0.000793557054649
0.0012958420332
0.00161621950787
0.00179988224284
0.00189503628132
0.00193288541789
0.00193776658374
0.0019281753041
0.00191696672986
0.00191023281494
0.00190977554806
0.00191575637396
0.00192654405134
0.00193610008263
0.0019313979594
0.00189379345208
0.00179892090232
0.00161557566278
0.00129548669784
0.000793467546189
0.000723268337079
0.00106946003735
0.00129584630243
0.00142629130025
0.00149370499083
0.00152008734196
0.00152310273932
0.00151510366052
0.00150566282145
0.00149979415621
0.00149951808889
0.00150493589288
0.00151412016429
0.00152209108042
0.00151920416068
0.00149302841994
0.00142587507443
0.00129566363574
0.00106942732257
0.000723315007637
0.000633477183926
0.000723213867744
0.000793422808111
0.000837134376524
0.000861718360036
0.000873073296896
0.000876038932218
0.000874112555094
0.000870421885772
0.000867147465483
0.000867026595002
0.000870192796392
0.000873857142328
0.000875818471171
0.0008729354254
0.000861695211169
0.00083722670204
0.00079358717837
0.000723369946823
0.0006335651049
0.000711193772731
0.00100432696076
0.00121324056076
0.00134383082397
0.00142006100745
0.00145920904409
0.00147458347388
0.00147658735405
0.00147345048786
0.00147045292228
0.00147027599749
0.00147298840733
0.00147596578108
0.00147392753949
0.00145860938033
0.00141957477294
0.00134348213478
0.00121303223076
0.0010042556724
0.000711338586723
0.00100443082521
0.00201498892123
0.00254309021473
0.00285422636537
0.0030267484839
0.00310855005675
0.00313561435505
0.00313417091935
0.00312369896747
0.00311564523827
0.00311508934418
0.00312219586831
0.0031320455233
0.00313320883836
0.00310608537324
0.00302432275195
0.00285192902904
0.00254102842205
0.00201336252679
0.00100402370565
0.00121349074892
0.00254337143134
0.00323803752032
0.00365640918891
0.00389694279324
0.00401847312334
0.00406562559516
0.00407311617996
0.00406605827309
0.00405896415565
0.00405818259941
0.00406395076281
0.00407014854555
0.00406233738669
0.00401516933176
0.00389369788269
0.00365327063265
0.0032351503952
0.0025410433269
0.00121273929748
0.00134418698597
0.00285473493195
0.00365666679739
0.0041443541999
0.00442815860592
0.00457449358999
0.00463337815034
0.00464587162656
0.00464293195373
0.0046381437866
0.00463719833454
0.0046403769257
0.00464207698485
0.00462934174746
0.00457064096159
0.00442440443552
0.00414063150094
0.00365312285144
0.00285180201358
0.00134312198349
0.00142047763675
0.00302734829278
0.00389728495356
0.00442820802279
0.00473746194872
0.00489910736945
0.00496244098778
0.00497278109319
0.0049649485179
0.00495680690206
0.00495536549607
0.0049611681904
0.00496785656033
0.00495766334171
0.00489511796135
0.00473359150152
0.00442426954087
0.00389338170606
0.00302402440612
0.00141913833052
0.00145961337542
0.00310904057781
0.00401865195471
0.00457426884567
0.00489885690215
0.00505670655677
0.00511068649632
0.00511254428732
0.00509784814199
0.00508577815081
0.00508383026275
0.00509279505147
0.00510623009936
0.00510498969667
0.00505224272132
0.00489517821547
0.0045705246634
0.00401477798463
0.00310565825165
0.00145811436392
0.00147490606181
0.0031358801647
0.00406548113568
0.00463267296203
0.00496150759803
0.00511010413561
0.00515254165922
0.00514298698826
0.00511941391763
0.00510243272322
0.00509996202149
0.00511300801838
0.00513503971481
0.00514567647343
0.00510515760172
0.00495789827072
0.00462929144449
0.00406189325716
0.00313268305041
0.00147338956998
0.00147680098641
0.00313424534158
0.00407276043588
0.00464497849116
0.00497162519669
0.00511181048714
0.00514297468226
0.00512136549179
0.00508872717251
0.00506715296898
0.00506422777931
0.00508112896459
0.00511172102025
0.00513465970394
0.00510610828602
0.00496785621499
0.00464178726581
0.00406944656879
0.00313129760758
0.00147535502156
0.00147357233452
0.00312374041587
0.00406579873404
0.00464255074531
0.00496435737246
0.00509799586809
0.00512067727621
0.00509022654886
0.0050506098051
0.00502355106838
0.0050202338334
0.00504195569369
0.00507925262726
0.00511098942923
0.00509138864784
0.00496015936965
0.00463929390334
0.00406259154931
0.00312096090762
0.00147221207245
0.00147052443588
0.00311581166235
0.00405901424217
0.00463832625416
0.00495728135394
0.00508754366859
0.00510583662403
0.00507110905484
0.00502613808405
0.00499543622053
0.00499190712431
0.00501688775073
0.00505925501831
0.0050952619128
0.00508026787672
0.00495269228157
0.00463492453297
0.00405578915104
0.00311307578774
0.00146919708237
0.00147034950128
0.00311546471043
0.00405861876715
0.00463794675573
0.00495690782361
0.00508718739097
0.00510547959641
0.00507072590105
0.00502568852642
0.0049949279972
0.00499138677761
0.00501641323747
0.00505884559394
0.0050948765617
0.00507987877764
0.00495228151775
0.00463450657337
0.00405533469541
0.00311266671524
0.00146897364853
0.00147309619994
0.00312273897462
0.00406464772317
0.00464143210277
0.00496324606782
0.00509692895273
0.00511962316473
0.00508914180598
0.00504940936829
0.00502223975647
0.00501889407406
0.00504069618113
0.00507811002892
0.00510987243224
0.00509023979946
0.00495894591108
0.00463806648385
0.00406128610197
0.00311980488254
0.00147161905171
0.00147610523054
0.00313265942943
0.00407090887782
0.00464307642169
0.0049697522284
0.00510996790581
0.00514113680951
0.00511947022768
0.00508680616957
0.00506513903524
0.00506218695102
0.00507915220703
0.00510976203024
0.00513274521702
0.00510415295377
0.00496582766212
0.00463969292867
0.0040673743725
0.00312950326931
0.00147450784059
0.00147410311482
0.00313386002554
0.00406308398819
0.00463013947514
0.00495898444885
0.00510751378552
0.00514987799623
0.00514024221349
0.0051165927833
0.00509954735692
0.00509704970828
0.00511012613377
0.00513221444834
0.00514290164938
0.00510241190879
0.00495517192995
0.00462651081068
0.00405922536057
0.00313041784668
0.00147242013271
0.00145882135578
0.00310680228815
0.00401595739691
0.00457137540496
0.00489609102002
0.00505362581373
0.00510736336035
0.00510907605681
0.00509430210602
0.00508217918319
0.00508019877861
0.00508916418033
0.00510263386201
0.0051014978871
0.00504895572117
0.00489217252294
0.0045673261942
0.00401175645646
0.00310313461292
0.00145714907859
0.00141980152923
0.00302511390644
0.00389457016041
0.00442519261749
0.00473426952268
0.00489603643789
0.0049587891888
0.00496892269511
0.00496106579757
0.00495287623498
0.00495139749162
0.00495717701879
0.00496381667243
0.00495377683435
0.00489178952241
0.00473007146971
0.00442087648674
0.00389027783161
0.00302145458539
0.00141828696164
0.00134370224644
0.00285276727416
0.00365422929534
0.00414155156827
0.00442503085711
0.00457110129818
0.00462969010294
0.00464209693126
0.0046396033615
0.00463483532711
0.00463385010521
0.0046369282459
0.00463806896783
0.00462535381839
0.0045668968697
0.00442087060344
0.00413738700953
0.00365024520447
0.00284946080379
0.00134246639578
0.00121321945344
0.00254185337841
0.00323611563529
0.00365410823144
0.00389426594637
0.00401545823943
0.00406232508665
0.00406962472438
0.00406247713196
0.00405528587165
0.00405444731695
0.00406020494272
0.00406639030022
0.00405869737384
0.00401176025726
0.00389058242125
0.00365050935316
0.00323277899851
0.00253914616564
0.00121231471647
0.00100436118802
0.00201407204992
0.00254187933012
0.00285269146564
0.00302486554766
0.00310634682303
0.00313314890309
0.00313149943843
0.00312086494918
0.00311269141548
0.00311207913606
0.00311920388555
0.00312912619735
0.00313043613871
0.00310353347455
0.00302205824205
0.00284999853581
0.0025394326195
0.00201211568037
0.00100384083024
0.000711238891299
0.0010041447775
0.0012129201093
0.00134337279123
0.00141943408165
0.00145839762763
0.00147360034667
0.00147544838985
0.00147217350422
0.00146907223302
0.00146885326039
0.00147160012474
0.00147466289115
0.00147275519425
0.00145760011547
0.00141875166901
0.00134284105327
0.0012125482346
0.00100394952715
0.000711358132094
0.000772007501791
0.00118887376693
0.00148433207352
0.00167125637181
0.00178330609202
0.00184422328381
0.00187205147049
0.00188092929517
0.00188155900771
0.0018803644019
0.00188008303456
0.00188078728509
0.00187981800779
0.00187076184309
0.00184288892197
0.00178202886485
0.00167011905377
0.00148341826271
0.00118832330412
0.000772184065344
0.0011890447472
0.00247776364403
0.00315615911594
0.00356666359272
0.00380508554501
0.00392880822255
0.00398083460481
0.00399352874151
0.00399032913908
0.00398518920507
0.00398433991793
0.00398798364277
0.0039901175888
0.00397678693188
0.00392441983181
0.00380051993117
0.00356210664384
0.00315186369197
0.00247416621601
0.00118794745803
0.00148467106597
0.00315653111613
0.00402907639123
0.0045675961997
0.00489200321969
0.00507038415122
0.00515415130155
0.00518402189754
0.00518855628076
0.0051858663014
0.00518475069461
0.00518551526021
0.00517971796255
0.00514916828032
0.005065113455
0.00488657015088
0.00456207133847
0.00402368353484
0.00315181815365
0.00148291074252
0.0016717389203
0.00356737394932
0.00456797452371
0.00519125965299
0.00557305949936
0.00578885590217
0.00589465641392
0.00593961757967
0.0059510690146
0.00595040774361
0.00594898861827
0.00594726150949
0.00593452775391
0.00588882452626
0.00578294849527
0.00556710769444
0.00518513696921
0.00456181436243
0.0035618202598
0.00166951016096
0.0017838803501
0.00380599806181
0.00489260131533
0.00557325105812
0.00599365535564
0.00623574518109
0.00635178987704
0.00639539282873
0.00640401925936
0.00640162631979
0.00639970349164
0.00639883890788
0.00638815214757
0.00634419956491
0.00622904027935
0.00598737049238
0.00556683666382
0.00488600514742
0.00379992349068
0.00178129180372
0.00184479790326
0.00392970131945
0.00507095470523
0.005788942691
0.0062356361279
0.00648245019096
0.00659665476715
0.00663342683909
0.00663506663784
0.00662848166846
0.00662591886889
0.00662805020968
0.00662300615633
0.00658530453261
0.00647340842446
0.00622888170491
0.00578250332233
0.00506429004221
0.00392352713024
0.00184202182834
0.00187253136514
0.00398156101309
0.00515454947455
0.00589458267459
0.00635169225067
0.0065975330406
0.00670363287623
0.00672878348087
0.00672012081502
0.00670760929817
0.0067044349195
0.00671123720354
0.00671471307016
0.00668709202125
0.00658421056231
0.00634363559645
0.00588811367433
0.00514804173653
0.00397558764319
0.001869766408
0.00188127874639
0.00399412545404
0.00518438525275
0.00593986720142
0.00639627379772
0.00663690517932
0.00673239813361
0.00674427242579
0.0067241277635
0.00670494602282
0.00670121939041
0.00671356761964
0.00672709264132
0.00671130024426
0.00661926170724
0.00638623289769
0.00593306400053
0.00517799228753
0.00398843292313
0.00187865663995
0.00188180300187
0.00399097314552
0.00518913884698
0.00595180101036
0.00640648082935
0.0066414901242
0.00672772999288
0.00672859586856
0.00669842619641
0.00667328767196
0.00666911809107
0.00668647392636
0.00670905859724
0.00670374029601
0.00662115692815
0.00639482918517
0.00594444534526
0.00518271840365
0.00398547489672
0.00187935298474
0.00188057175614
0.00398608377413
0.00518696438508
0.00595209547964
0.00640579358673
0.00663750264899
0.00671855101773
0.00671322179769
0.00667729639756
0.0066485946249
0.00664416128592
0.00666454313515
0.00669239492848
0.00669316067631
0.00661593600288
0.00639332647986
0.00594435136235
0.00518044900536
0.00398063691082
0.0018782105472
0.00188035046613
0.00398560612467
0.00518646372941
0.0059516534428
0.00640542271684
0.00663719772963
0.00671827903758
0.00671293642278
0.00667697085837
0.00664823471228
0.006643795187
0.00666420769856
0.00669209508837
0.00669287505807
0.00661561330501
0.0063929260877
0.00594386705618
0.00517988910002
0.00398008861521
0.00187793272574
0.00188116209583
0.00398956209889
0.0051876654164
0.00595049958232
0.00640537391197
0.00664058367077
0.00672694118163
0.00672782368855
0.00669760119113
0.00667240887988
0.00666823703736
0.00668562743968
0.00670825690301
0.00670293074628
0.00662020278116
0.00639364158345
0.00594303218789
0.00518109576328
0.00398389759632
0.0018785785536
0.00188028742176
0.00399185267406
0.00518200971925
0.00593777456855
0.00639443928028
0.00663544497515
0.00673126249962
0.00674329907074
0.00672316825701
0.00670395911723
0.00670022313659
0.00671256909727
0.00672605796345
0.0067101054899
0.00661771011511
0.00638426997828
0.00593082185953
0.00517541633517
0.00398594932
0.00187749403428
0.00187132127587
0.00397860239671
0.00515140901976
0.00589164120495
0.00634908702401
0.00659542185088
0.00670207257095
0.00672757399803
0.00671902396788
0.00670650981634
0.0067033179516
0.00671008433536
0.00671341602044
0.00668541062661
0.006581948528
0.00634084452438
0.00588495767891
0.00514465320789
0.00397238506022
0.0018683649986
0.00184352977088
0.00392633151515
0.00506731216023
0.00578538875777
0.00623232391705
0.0064794613819
0.00659412820113
0.006631276366
0.00663303867479
0.00662644973261
0.00662385872639
0.0066259414024
0.00662072719055
0.00658260541291
0.00647021188818
0.00622532418848
0.00577866765227
0.0050603326348
0.00391986018746
0.00184054510877
0.0017827070838
0.0038025271368
0.00488878466951
0.00556938400462
0.0059898270348
0.00623203592927
0.00634817881469
0.00639194070766
0.00640054790075
0.00639810361813
0.0063961427146
0.00639525948142
0.00638453051806
0.00634036124714
0.00622505669767
0.00598322439163
0.00556260122005
0.00488178902037
0.00379608090635
0.00177989518603
0.0016707819018
0.00356414887431
0.00456432619037
0.0051874080504
0.0055690650478
0.00578476306007
0.00589056312518
0.00593580241661
0.00594686611672
0.00594606784168
0.0059445977175
0.0059429141808
0.00593050333118
0.0058844366176
0.00577850278559
0.00556270315765
0.00518082535844
0.00455768362324
0.00355815624895
0.0016683231329
0.00148400100875
0.00315382549099
0.00402590325436
0.00456408331544
0.00488818969934
0.00506631548953
0.00514989288869
0.00517963058413
0.00518394763742
0.0051811052782
0.00517992317495
0.00518071810907
0.00517503566163
0.00514454362283
0.00506061928367
0.00488227924881
0.00455804293225
0.00401998499998
0.00314864543613
0.00148202431932
0.00118871185075
0.00247585005022
0.00315379789479
0.00356390396188
0.00380193954348
0.00392532742863
0.0039770899275
0.00398957307579
0.00398617076285
0.00398087988472
0.00397996185882
0.00398363304329
0.0039858623003
0.00397267783411
0.00392052736184
0.00379691967987
0.00355886498533
0.00314902062295
0.00247183135605
0.00118744837592
0.000772051814313
0.00118835778719
0.00148352046957
0.00167022311796
0.0017820433775
0.00184272639388
0.00187034134131
0.00187903461595
0.00187950240665
0.00187819166431
0.00187786086732
0.00187859603799
0.00187771850428
0.00186881287542
0.00184113866485
0.00178050920616
0.00166883665055
0.00148237959778
0.0011876346116
0.000772203427057
0.000814901670393
0.00132176501287
0.00167805815226
0.00190513430259
0.00204442356442
0.00212382238733
0.00216415956261
0.00218149670081
0.00218764540268
0.00218929681671
0.00218894597796
0.00218664998975
0.002180006898
0.00216233062273
0.00212180192948
0.00204237217115
0.00190322114523
0.00167645460578
0.00132073282357
0.000815145005771
0.00132204671029
0.00281488800668
0.00360240990356
0.00408787721213
0.0043794578617
0.0045403923883
0.00461793205885
0.00464768982919
0.0046551792723
0.00465527469363
0.00465416584448
0.00465205478116
0.00464304161445
0.00461226331107
0.00453405870749
0.00437270955805
0.00408101076176
0.00359580901965
0.00280915713303
0.00132016332746
0.00167854855403
0.00360289286165
0.00460221598807
0.00522689071222
0.00561373179902
0.00583713482987
0.0059526759154
0.00600320840351
0.00601983566384
0.00602263937799
0.00602116418175
0.00601576485917
0.00599736797509
0.0059459153298
0.00582991465002
0.00560620741432
0.00521911139732
0.00459439807705
0.00359566358276
0.00167566422026
0.00190581270281
0.0040888521565
0.00522743168304
0.00594205597219
0.0063906119575
0.00665577502322
0.00679797041035
0.00686276390835
0.00688447947306
0.00688833973955
0.00688633159962
0.00687894815626
0.00685446740739
0.00678851925508
0.00664695144508
0.00638237838251
0.00593356047921
0.00521865163363
0.00408041827987
0.00190224028754
0.00204524772419
0.00438082023683
0.00561469699042
0.00639099822312
0.00688192501083
0.00717570035309
0.00732772260775
0.00739232840374
0.007411416133
0.00741292915008
0.00741009811312
0.00740334539323
0.00737924832969
0.00731155638759
0.00716097160926
0.00687129599512
0.00638188022048
0.0056051845833
0.00437152507347
0.00204114099204
0.0021246869819
0.00454192748801
0.00583829722336
0.00665638853173
0.00717713200713
0.00747968273567
0.00762982349638
0.00768632552467
0.00769692098884
0.0076931232786
0.00768938147537
0.00768575628507
0.00766698984432
0.0076038885528
0.00745412473315
0.00715953716007
0.00664592886595
0.00582834245407
0.00453226316227
0.00212030420111
0.00216492251904
0.00461943392673
0.00595388357463
0.00679991009991
0.00733380037261
0.00763608779377
0.00777622144401
0.00781850341234
0.00781688463982
0.00780619490453
0.00780179220586
0.00780325505472
0.00779354823073
0.00774058728285
0.00759845151303
0.00730601290384
0.00678600789712
0.00594369477517
0.00460982493324
0.00216058404215
0.00218207689111
0.00464914026976
0.00600455696175
0.00686718682922
0.00740438100902
0.00770086003189
0.00782787890527
0.00785446301584
0.00783984378928
0.00782202355341
0.00781725441871
0.00782478272428
0.00782586205008
0.00778536809553
0.0076541586185
0.00736821044259
0.00684908762468
0.00599413753865
0.00463979466553
0.00217802781787
0.00218804696233
0.00465673862748
0.00602167268137
0.00689111173188
0.00742804506969
0.00771801448213
0.00783388531446
0.00784784017244
0.00782231508408
0.00779838057587
0.00779337266806
0.00780632413048
0.00781704003438
0.00778775669806
0.00766670087954
0.00738765352785
0.00687070373791
0.00601098569689
0.00464765339002
0.00218436156964
0.00218961447999
0.00465716010975
0.00602529246102
0.00689672392098
0.00743268548032
0.00771869300396
0.00782839240205
0.00783535460559
0.00780366115454
0.00777616529645
0.00777099107195
0.00778713346146
0.00780344397462
0.00778069857118
0.00766558747594
0.00739077186113
0.00687545700257
0.00601437996486
0.00464817655613
0.00218614131724
0.00218934989419
0.00465656139519
0.00602473245102
0.00689630213321
0.0074324293285
0.00771857689992
0.00782833988381
0.00783526253051
0.0078035043226
0.00777596819288
0.00777078808924
0.00778697567005
0.00780334465523
0.00778063108926
0.00766546252046
0.00739050229463
0.00687500349656
0.00601375573143
0.00464748110939
0.00218580424847
0.00218724545042
0.00465492066473
0.00601999139149
0.00688984868878
0.00742728866681
0.00771773940515
0.00783388264558
0.00784784056646
0.00782221042195
0.00779820249216
0.00779320544758
0.00780622163387
0.00781702631519
0.00778772712194
0.00766639571187
0.00738686276636
0.00686935992744
0.00600915331153
0.00464562567573
0.00218339681188
0.00218079642746
0.00464616602193
0.0060018030597
0.00686515700659
0.00740324411338
0.00770067816716
0.00782838630943
0.00785522573747
0.00784059383052
0.00782271634316
0.0078179430634
0.00782550102698
0.00782656139049
0.00778579835412
0.00765389668214
0.00736700503486
0.00684693708769
0.00599119544492
0.00463657511318
0.00217654210322
0.00216331556973
0.0046155287233
0.00595021824849
0.00679718148493
0.00733221192114
0.00763596682648
0.00777734510729
0.00782030620325
0.0078188615388
0.0078081510872
0.00780372456564
0.0078051497119
0.00779522299103
0.00774156104944
0.00759819502264
0.00730429415333
0.00678311645014
0.00593980586936
0.00460564919063
0.0021587466403
0.00212295842746
0.00453744491709
0.00583395725638
0.00665265497722
0.00717458022062
0.00747878810961
0.00763052364245
0.00768801907146
0.00769894804457
0.00769517569068
0.00769139704708
0.00768767187568
0.00766851041434
0.00760439145806
0.0074530303834
0.0071567852433
0.00664196777931
0.00582370381
0.00452744452673
0.00211831794429
0.00204359924757
0.0043761704334
0.00561004940311
0.00638666446667
0.00687816196806
0.00717304412629
0.00732646782603
0.00739198739106
0.00741137400194
0.0074128955803
0.0074100154313
0.00740316607663
0.00737870216678
0.00731006111291
0.00715806002398
0.00686725652512
0.00637721061307
0.00560012923513
0.00436644054275
0.00203921026211
0.00190440240034
0.0040844392945
0.00522282812767
0.00593748644075
0.00638611028086
0.0066514619882
0.00679440654575
0.0068593571831
0.00688108096154
0.00688486358651
0.00688279720064
0.0068753849176
0.00685081334773
0.0067846726477
0.00664230459483
0.00637747957775
0.00592852418149
0.00521351850794
0.00407546909588
0.00190053262501
0.00167747405948
0.00359903518027
0.00459796723985
0.00522237755675
0.00560897933047
0.00583217551221
0.00594758006569
0.00599789979153
0.00601431763047
0.00601696289483
0.006015406356
0.00601001974019
0.00599171389193
0.00594040667254
0.00582448687482
0.00560093180135
0.00521402196162
0.00458953301755
0.00359121232042
0.00167430768153
0.00132140992929
0.00281192071055
0.00359890339508
0.00408387965553
0.00437497435434
0.00453548156356
0.00461268511699
0.00464216899103
0.00464941317796
0.00464932628657
0.00464812242597
0.00464602907957
0.00463711688949
0.00460654537464
0.00452863220528
0.00436766689347
0.00407641757482
0.00359169252958
0.00280564062704
0.001319313886
0.000814969075762
0.00132087563221
0.00167674177302
0.0019035078027
0.00204247736876
0.00212156007373
0.0021616242317
0.00217874634169
0.00218472123011
0.00218625296546
0.00218583872293
0.0021835538163
0.00217698969699
0.00215948581779
0.00211921292022
0.00204009479804
0.00190127047597
0.00167484352875
0.00131962785709
0.000815182553938
0.000849649654954
0.00143665022899
0.00184375284183
0.0021048224272
0.00226906147789
0.00236733376554
0.00242193495981
0.00244968532212
0.0024628948594
0.00246819561129
0.00246789505075
0.00246201720223
0.0024483495199
0.00242018770304
0.00236522909864
0.00226680376681
0.00210269713755
0.00184197249812
0.00143546468888
0.000849974218245
0.00143710729833
0.00311045766161
0.00398842614606
0.00453875545669
0.00487954883267
0.00507791043447
0.00518350444486
0.00523332586652
0.00525407497916
0.00526086260782
0.00525967374207
0.00525068381329
0.00522824889774
0.00517720562534
0.00507071144227
0.00487172734689
0.00453071416884
0.0039805932457
0.00310334027559
0.00143460939523
0.00184449375924
0.00398907454181
0.00508854586904
0.0057807618597
0.00621706380643
0.00647729474003
0.00661984606144
0.00668795500788
0.00671545751353
0.00672348374537
0.00672164587153
0.00671036128308
0.00668008810931
0.00661033681377
0.00646827025174
0.00620848143521
0.0057719373852
0.00507953896249
0.00398025876338
0.0018407707163
0.00210582386735
0.00454010361315
0.00578152967223
0.00655999010241
0.00705429910584
0.00735217188412
0.00751616816881
0.00759159691243
0.00761939300195
0.00762572387602
0.00762274735904
0.0076108745843
0.00757760062271
0.00749844909691
0.00733544651718
0.00704137603093
0.00654994029152
0.00577119619669
0.00452962342197
0.00210116183234
0.00227028624124
0.00488154519857
0.00621855568484
0.00705537375709
0.00758859670377
0.00790799328544
0.00807449504293
0.00814521552982
0.00816627462301
0.00816761379052
0.00816312958182
0.00815263580574
0.00812122609431
0.00804144547738
0.00787374811422
0.0075631920452
0.00704026854287
0.00620684265653
0.00486967194634
0.00226484326662
0.002368639546
0.00508034341039
0.00647963397125
0.00735745703553
0.00791567835921
0.00823884007075
0.00839650683035
0.00845293474474
0.00846111708813
0.00845502271575
0.00844929964698
0.00844286530647
0.00841843106987
0.00834475201154
0.00817967364645
0.00786740785223
0.00733062436955
0.00646547470212
0.00506765572727
0.00236284719884