/*--------------------------------*- C++ -*----------------------------------*\
| =========                 |                                                 |
| \\      /  F ield         | OpenFOAM: The Open Source CFD Toolbox           |
|  \\    /   O peration     | Version:  3.0.1                                 |
|   \\  /    A nd           | Web:      www.OpenFOAM.org                      |
|    \\/     M anipulation  |                                                 |
\*---------------------------------------------------------------------------*/
FoamFile
{
    version     2.0;
    format      ascii;
    class       surfaceVectorField;
    location    "3.6";
    object      ddt0(Uf);
}
// * * * * * * * * * * * * * * * * * * * * * * * * * * * * * * * * * * * * * //

dimensions      [0 1 -2 0 0 0 0];

internalField   nonuniform List<vector> 
45932
(
(0.000750333382519 -1.59510221265e-05 -0.000134899918161)
(0.000352772401516 0.000157025172556 -0.000290225682262)
(0.000486155701399 0.000138369172913 -0.000532402387858)
(0.00126891053002 -3.16107458471e-06 -5.57315578742e-05)
(0.00110809887423 0.000174433589059 -0.000327317699601)
(0.00121900500703 0.000213250708729 -0.000433895184042)
(0.00126858914672 8.1686327116e-05 1.40507890723e-05)
(0.00143546965008 0.000362036113773 -0.000282273205519)
(0.00149866275251 0.00036857315075 -0.000362007640261)
(0.000780029541972 0.000162910006829 5.77933223117e-05)
(0.00114611374798 0.000507280378488 -0.000203906941929)
(0.00118609280527 0.000474385993209 -0.000263094371239)
(2.55667068669e-05 0.000204313937145 7.15242220426e-05)
(0.000455540725601 0.000616575331645 -0.000177475633408)
(0.000463859980415 0.000555655066011 -0.000239421347989)
(-0.000786612012352 0.000176379539859 7.52082777749e-05)
(-0.000399121207254 0.000627797658938 -0.000166630048496)
(-0.000423422228795 0.00055941258848 -0.00022180042599)
(-0.00144089819551 9.48668266537e-05 6.83675588843e-05)
(-0.00120911098585 0.000534852057576 -0.000168601744142)
(-0.00126088840868 0.000483783521362 -0.000207846512989)
(-0.00179382784942 7.79520975906e-06 5.08058389448e-05)
(-0.00171539526692 0.00038666550525 -0.000185330935549)
(-0.00177109055429 0.000368855970144 -0.00021039462913)
(-0.00176912264075 -7.96768968379e-05 3.30496591424e-05)
(-0.00188965314564 0.000188294347712 -0.000184108134903)
(-0.0019586301933 0.000229556501347 -0.000200872071939)
(-0.00141438828216 -0.000133970318397 1.86509838932e-05)
(-0.00162118109849 -1.40342998996e-05 -0.00015458778234)
(-0.00169113859883 6.50977212973e-05 -0.000163533680102)
(-0.000927200882257 -0.000128781088741 4.04751372128e-06)
(-0.00116208585707 -0.000116655072122 -0.000115144673305)
(-0.00122578400308 -1.87320185965e-05 -0.000127072925949)
(-0.000463158381504 -0.000103337371915 -7.44123836337e-06)
(-0.000671239780442 -0.000137576935558 -7.73748441699e-05)
(-0.000720588723675 -5.24268660145e-05 -9.45109362499e-05)
(-8.6865141956e-05 -7.26547666647e-05 -1.56267211527e-05)
(-0.000248391508186 -0.000116425007239 -5.27270909687e-05)
(-0.000282065923835 -5.34008643551e-05 -7.17477191038e-05)
(0.000198688596948 -4.64087729286e-05 -2.16708229917e-05)
(7.63592310497e-05 -8.25956880579e-05 -4.01001263975e-05)
(5.56760627565e-05 -4.08289385613e-05 -6.01932254682e-05)
(0.000416341905912 -2.76748457791e-05 -2.60700342929e-05)
(0.000320613663022 -5.21571792436e-05 -3.55888860678e-05)
(0.000308660014484 -2.65220563155e-05 -5.66803728715e-05)
(0.000591996516613 -1.57708685617e-05 -2.8898741897e-05)
(0.00051185594932 -3.02513112363e-05 -3.50115295822e-05)
(0.000505116649977 -1.52210809763e-05 -5.7588726206e-05)
(0.000743206633714 -8.92681306062e-06 -2.95780847782e-05)
(0.000671972302062 -1.65888460809e-05 -3.49354468402e-05)
(0.000668694077393 -7.92698489461e-06 -5.90315253378e-05)
(0.000876052765479 -5.43802231448e-06 -2.68466429633e-05)
(0.000812227360288 -9.24640009852e-06 -3.32448345167e-05)
(0.000812032637208 -4.02351225717e-06 -5.71929139198e-05)
(0.000983525524058 -3.91004607328e-06 -1.93959131722e-05)
(0.000931553489438 -6.12899801477e-06 -2.74790711027e-05)
(0.000934388770954 -2.39794307647e-06 -4.76209378862e-05)
(0.00104980705652 -3.27440682116e-06 -7.17055516307e-06)
(0.00101752015263 -4.97982134325e-06 -1.66405105241e-05)
(0.00102306559084 -1.81950973618e-06 -2.81684395909e-05)
(0.00105903015946 -3.00817553937e-06 8.40858169383e-06)
(0.00105430840481 -4.44983680914e-06 -1.56660477114e-06)
(0.00106174735467 -1.52082771493e-06 -1.6401525769e-07)
(0.00100199795953 -2.8831174892e-06 2.5150120544e-05)
(0.0010296714229 -4.19199917928e-06 1.56466117484e-05)
(0.001037843256 -1.27823599987e-06 3.27064495814e-05)
(0.000880079529909 -2.9295965474e-06 4.03392402465e-05)
(0.000939653551013 -4.07175557995e-06 3.2585993932e-05)
(0.000947223164601 -1.18309906415e-06 6.5025130166e-05)
(0.000704855624935 -3.23368193872e-06 5.11120036547e-05)
(0.000790702252983 -4.41750742206e-06 4.62775721865e-05)
(0.000796317787695 -1.35747129122e-06 9.20188284712e-05)
(0.000499242512056 -3.80692180148e-06 5.53651201872e-05)
(0.000599819543191 -5.24445025341e-06 5.39122205087e-05)
(0.00060245289732 -1.7833021682e-06 0.000108039462457)
(0.000293434614327 -4.487758023e-06 5.23649232641e-05)
(0.00039412125444 -6.57528715514e-06 5.40369571474e-05)
(0.00039319941466 -2.49613893987e-06 0.000109471386868)
(0.000116368124774 -4.95410244538e-06 4.365371684e-05)
(0.00020354837484 -7.84389832371e-06 4.71373704296e-05)
(0.000199433495104 -3.1439561312e-06 9.6375365893e-05)
(-1.679798618e-05 -4.54334662979e-06 3.1595554406e-05)
(4.67025672048e-05 -8.54916880345e-06 3.64283533822e-05)
(4.01880913417e-05 -3.57030384014e-06 7.51337639684e-05)
(-0.000101462709711 -3.82825262159e-06 1.84186351248e-05)
(-6.16271698278e-05 -6.33710448325e-06 2.34197631885e-05)
(-6.89705777826e-05 -2.72320730119e-06 4.86704568801e-05)
(-0.000133894888734 -3.2379510418e-06 6.66631856013e-06)
(-0.000116448880385 -5.77907602662e-06 1.0686702339e-05)
(-0.000123041883132 -2.68009208202e-06 2.19927026876e-05)
(-0.000127723376536 -2.20459069379e-06 -1.8265610506e-06)
(-0.000127814184579 -4.23722932769e-06 7.04664098551e-07)
(-0.000133070307612 -1.99026906544e-06 1.14815100561e-06)
(-0.000101674640409 -7.07184140265e-07 -6.14508356984e-06)
(-0.000110085715405 -2.11831749948e-06 -5.1467455853e-06)
(-0.000113676442948 -9.40174624713e-07 -1.09024597365e-05)
(-7.20653992962e-05 1.08607030624e-06 -7.15452776913e-06)
(-8.27963173965e-05 7.21232871234e-07 -6.57543825885e-06)
(-8.49406346644e-05 2.60551176509e-07 -1.55079132221e-05)
(-4.73586691816e-05 2.56538520105e-06 -6.82512274662e-06)
(-5.70634107038e-05 3.23281492099e-06 -5.81282289214e-06)
(-5.82650270523e-05 1.4772759406e-06 -1.55537491829e-05)
(-2.87614063504e-05 3.60575425818e-06 -6.17165958861e-06)
(-3.58791560542e-05 4.77924567045e-06 -4.50985798033e-06)
(-3.65617145275e-05 2.40751238971e-06 -1.40407809552e-05)
(-1.54500112548e-05 4.33600409673e-06 -5.26877825812e-06)
(-2.07924972131e-05 6.01114263033e-06 -3.43837350138e-06)
(-2.09986686472e-05 3.04722909837e-06 -1.26388394992e-05)
(-8.21395727382e-06 4.77832954334e-06 -4.14812742501e-06)
(-1.09964346016e-05 6.54250999766e-06 -2.17736656111e-06)
(-1.08234790944e-05 3.31796348817e-06 -1.01485070256e-05)
(-5.95813762546e-06 4.57521040739e-06 -2.99172775117e-06)
(-6.6957039925e-06 6.81539655075e-06 -9.40228248144e-07)
(-6.20970818232e-06 3.54721251629e-06 -7.94123727484e-06)
(-5.3549004298e-06 3.14119016101e-06 -2.1429866399e-06)
(-7.0452076443e-06 5.62595590633e-06 1.98621364124e-08)
(-5.93676560176e-06 2.85357874115e-06 -5.92397845097e-06)
(-4.09304142766e-06 2.38549151084e-06 -8.40335918934e-07)
(-2.78887853105e-06 1.05131984228e-06 -5.05516647717e-06)
(0.000721020656243 0.00036406805783 -0.000482643463702)
(0.00031616429146 0.000554227723974 -0.000414907970021)
(0.000454794976053 0.000480679779614 -0.000757848573911)
(0.00129562601256 0.000561460648118 -0.000553859347246)
(0.00117343812928 0.000745478153598 -0.000600401244546)
(0.00123300385689 0.000704756518913 -0.000858456086249)
(0.00129318861376 0.000813973602838 -0.00050023093652)
(0.00148427492067 0.00112359095357 -0.000549701567056)
(0.00146810891928 0.00103906442904 -0.000760404164282)
(0.000786674513477 0.000989777510454 -0.000439175897648)
(0.00116629114095 0.00136953013077 -0.000450611328565)
(0.00114149534303 0.00126048724589 -0.000609027260607)
(2.97488102759e-05 0.00107079964388 -0.000415629903947)
(0.000464009911437 0.00154262328778 -0.000414673488581)
(0.000441458700387 0.00140877380703 -0.000547614326309)
(-0.000778875156989 0.00101506009057 -0.000410440070413)
(-0.000394018538331 0.00155771363888 -0.00040051132418)
(-0.000406228069766 0.00141450819256 -0.000525663509774)
(-0.00144513577199 0.000850944600379 -0.000422300238576)
(-0.00120124378043 0.0014038431964 -0.000400911358514)
(-0.00119858375868 0.00127076657745 -0.000535980449482)
(-0.00181502575744 0.000586418780911 -0.000420244909397)
(-0.00174212748316 0.00114817102997 -0.000423557435075)
(-0.0017154917581 0.00103946450018 -0.000576748030035)
(-0.00177417059444 0.000262230693966 -0.000371745576385)
(-0.00191980831109 0.000743073446645 -0.000420470523784)
(-0.00188616325677 0.000685936736244 -0.000575433061341)
(-0.00140892753222 8.80575388373e-06 -0.000288383439538)
(-0.00165276437402 0.000311289028027 -0.000370637985935)
(-0.00163873814983 0.00032167188661 -0.00050815221247)
(-0.000912431744596 -0.000115485047146 -0.000196567031196)
(-0.00116840518869 2.46905349573e-05 -0.000280009263823)
(-0.00118300439953 7.38997802248e-05 -0.000389732543073)
(-0.000446526379912 -0.00014359298669 -0.000122660696775)
(-0.000656634938183 -0.000108055297248 -0.000181891192994)
(-0.000687438853548 -4.87803482711e-05 -0.000262544577906)
(-7.4494112923e-05 -0.000122050142051 -7.72004962135e-05)
(-0.000226527472709 -0.00013417723343 -0.000111451492774)
(-0.000259599255609 -8.33677412378e-05 -0.000168292543978)
(0.000204952332839 -8.56898902332e-05 -5.40181894736e-05)
(9.61732063382e-05 -0.00011040754739 -7.10869063978e-05)
(6.87525812255e-05 -7.34670159938e-05 -0.000111924767866)
(0.000417563693141 -5.26206359659e-05 -4.45303813571e-05)
(0.000334544508499 -7.36726503494e-05 -5.19605463568e-05)
(0.000314700896742 -4.96022779635e-05 -8.48026546585e-05)
(0.000589899957805 -2.90632052411e-05 -4.10482345255e-05)
(0.000519734753249 -4.18744180887e-05 -4.4569917855e-05)
(0.000506797572631 -2.73487246996e-05 -7.45626017931e-05)
(0.000739086697252 -1.50825957074e-05 -3.86021965788e-05)
(0.000675076893499 -2.06387581369e-05 -4.14275476529e-05)
(0.000668012181857 -1.22063822681e-05 -7.05671631466e-05)
(0.000871112547379 -8.37520841405e-06 -3.38772626561e-05)
(0.0008121572214 -9.26221486176e-06 -3.81851709137e-05)
(0.000810347736332 -4.39378968867e-06 -6.60230547715e-05)
(0.000978343788484 -6.03956513995e-06 -2.47236684546e-05)
(0.000929763265995 -5.11231336876e-06 -3.13265883659e-05)
(0.000932625419133 -2.00355489238e-06 -5.4654175229e-05)
(0.00104479602973 -5.50400124289e-06 -1.10365601321e-05)
(0.00101510718794 -4.47350533073e-06 -1.95523879762e-05)
(0.0010216690253 -2.02381724089e-06 -3.37460901728e-05)
(0.00105449259599 -5.4135002885e-06 5.67142528346e-06)
(0.00105179809563 -4.61096573535e-06 -3.67743494103e-06)
(0.00106075733246 -2.36288982691e-06 -4.69375181934e-06)
(0.000998082910136 -5.39779746629e-06 2.30824851365e-05)
(0.00102721885053 -4.68682843932e-06 1.41952579523e-05)
(0.00103711752844 -2.4040208848e-06 2.86940783952e-05)
(0.000876376101481 -5.67544279091e-06 3.8524325872e-05)
(0.000937167488355 -4.75010248514e-06 3.1439974382e-05)
(0.000946549144931 -2.41887806013e-06 6.15211725836e-05)
(0.00070133823611 -6.51009500804e-06 4.90777890404e-05)
(0.00078801902004 -5.4082441372e-06 4.52277162967e-05)
(0.000795559169385 -2.9250773689e-06 8.84930331022e-05)
(0.000496434307643 -7.88215217233e-06 5.25840574689e-05)
(0.000596954883613 -6.75822111909e-06 5.24759433513e-05)
(0.000601654301335 -3.95123649147e-06 0.000103947335427)
(0.000291622472736 -9.42326995384e-06 4.88094043129e-05)
(0.000391507555518 -8.68509599862e-06 5.19323686083e-05)
(0.000392869768752 -5.46501500796e-06 0.000104500792522)
(0.000115481297757 -1.03451651774e-05 3.99120069718e-05)
(0.000201949780062 -1.04765845648e-05 4.45230615871e-05)
(0.000200417808908 -7.01580047626e-06 9.0693275726e-05)
(-1.8820856096e-05 -9.73112236927e-06 2.82525621648e-05)
(4.658179152e-05 -1.07981275515e-05 3.38529027109e-05)
(4.31242476456e-05 -7.92608015554e-06 6.93937664616e-05)
(-9.97020383682e-05 -8.40223582996e-06 1.56878304028e-05)
(-6.09021168365e-05 -9.86557035969e-06 2.13646650642e-05)
(-6.49951208832e-05 -6.45066553398e-06 4.39608077015e-05)
(-0.000130958933041 -6.9578328213e-06 4.72504787741e-06)
(-0.000115218184831 -8.50765894939e-06 8.91534689246e-06)
(-0.00011844975517 -6.01073871551e-06 1.83432284047e-05)
(-0.000123745074378 -4.72624682219e-06 -2.61552043615e-06)
(-0.000125685899279 -6.47814591557e-06 -5.03536662138e-07)
(-0.000127309411483 -4.54275045589e-06 -1.38263387467e-06)
(-9.65252586527e-05 -1.7166875604e-06 -5.57710027432e-06)
(-0.000106953279726 -3.58147136186e-06 -5.42070717542e-06)
(-0.00010702646758 -2.29571052678e-06 -1.21571172171e-05)
(-6.65468389975e-05 1.85422919141e-06 -5.23373338186e-06)
(-7.90331569353e-05 -7.37782488767e-08 -5.75922810639e-06)
(-7.79626221645e-05 1.22400158039e-07 -1.41882443051e-05)
(-4.25315516488e-05 4.83221020385e-06 -3.49755812586e-06)
(-5.35987968324e-05 3.98185187178e-06 -4.23259215736e-06)
(-5.17318384242e-05 2.70113604287e-06 -1.27322283529e-05)
(-2.44346163272e-05 6.73916418041e-06 -1.7765718931e-06)
(-3.31049890405e-05 6.31201843641e-06 -1.98683896402e-06)
(-3.09456453774e-05 4.48689617625e-06 -1.05487859848e-05)
(-1.14821196463e-05 8.02157263568e-06 -3.46961804375e-07)
(-1.8634885242e-05 7.76131462839e-06 -3.46109317798e-07)
(-1.65678432195e-05 5.77194272366e-06 -8.20271675215e-06)
(-5.52042048237e-06 8.71099513167e-06 1.03053261575e-06)
(-9.36632467937e-06 8.81278828186e-06 1.17794199284e-06)
(-7.2108594055e-06 6.35869068218e-06 -5.24477513591e-06)
(-4.74978676422e-06 8.0942931198e-06 2.07136163944e-06)
(-5.94660582695e-06 8.92799707241e-06 2.60863193716e-06)
(-3.49490662941e-06 6.64952360433e-06 -2.50230972496e-06)
(-6.47143896633e-06 5.02701697706e-06 1.32251285738e-06)
(-7.69327074408e-06 7.23898123811e-06 3.19205616828e-06)
(-4.33306300885e-06 5.30417145013e-06 -7.55024928173e-07)
(-5.53077059184e-06 2.56432507433e-06 -5.86312309655e-08)
(-2.48683065975e-06 1.2369849745e-06 -3.41263876667e-06)
(0.000769747634071 0.000918176990644 -0.000532665750865)
(0.000353931751511 0.000950827870122 -0.00040815226838)
(0.000489482317256 0.000893086707527 -0.000781621539977)
(0.00138101065119 0.00128237054406 -0.000596243464357)
(0.00132059283822 0.00130271155263 -0.000580044140147)
(0.00132492384326 0.00122925035514 -0.00086298121487)
(0.00134073956717 0.00163922646122 -0.000500081959101)
(0.00158826887856 0.00179463781929 -0.000448950155776)
(0.00150981068071 0.00164665535549 -0.000650988613455)
(0.000805054055672 0.00186804244335 -0.000426108919498)
(0.00121506619758 0.00208095096269 -0.000321884418317)
(0.00114335917949 0.00191160010253 -0.000443628010219)
(3.93859108142e-05 0.0019690664041 -0.000399554908814)
(0.000487195385418 0.00228158919768 -0.000279371152525)
(0.000442623299294 0.00208594028841 -0.000356186577805)
(-0.000775164747103 0.00189171054075 -0.000390982612281)
(-0.000394000180179 0.0022981417875 -0.000265856226219)
(-0.000396782638707 0.00209019326879 -0.00033324932713)
(-0.00145745351175 0.00166218690878 -0.000402168555014)
(-0.0012186090098 0.00210882645667 -0.000265029247089)
(-0.00117339968415 0.00191108527688 -0.000364005665769)
(-0.00185136688709 0.00128106571635 -0.000423783049462)
(-0.00180020811205 0.00179078811162 -0.000300857920704)
(-0.00170235154162 0.00161545485359 -0.000445901204544)
(-0.00182909270035 0.000780436420182 -0.000419362933334)
(-0.00201169118926 0.00126347722737 -0.000353885237678)
(-0.00188465201604 0.0011579217066 -0.000531819656896)
(-0.00145074717054 0.000324989226735 -0.00036226381022)
(-0.00175420476639 0.000670469447488 -0.000373234912804)
(-0.0016568274583 0.000646138373678 -0.000548595910058)
(-0.000917424218308 3.32079202965e-05 -0.000265333425622)
(-0.001228459298 0.000223784897201 -0.000318391929491)
(-0.0011874781547 0.0002492939054 -0.000465916013771)
(-0.000426939736361 -9.61323830602e-05 -0.000170681988993)
(-0.000667933746729 -2.13423477197e-05 -0.000221775237303)
(-0.000671514668725 2.03875975806e-05 -0.000332036335581)
(-4.55235067286e-05 -0.000119578839558 -0.000105337902958)
(-0.000208271677423 -0.000109349107589 -0.000139998867678)
(-0.000233068085275 -6.89165934155e-05 -0.000215570049365)
(0.000232099462972 -9.60796394558e-05 -6.9029263281e-05)
(0.000123580290382 -0.000109512161564 -8.79492075568e-05)
(9.61234538575e-05 -7.94211894517e-05 -0.000139722335683)
(0.000437939251677 -6.1373612343e-05 -5.20000828546e-05)
(0.000359671276045 -7.74339667975e-05 -6.05817404609e-05)
(0.000337068578159 -5.76045487791e-05 -9.91717067208e-05)
(0.000602802726679 -3.24927137025e-05 -4.49492309824e-05)
(0.000537989767064 -4.29671161491e-05 -4.84392190664e-05)
(0.000522279727251 -3.0907105374e-05 -8.13574172758e-05)
(0.000745834970092 -1.43264306546e-05 -4.10105219878e-05)
(0.000686084695069 -1.83029226195e-05 -4.31608175387e-05)
(0.00067712228714 -1.12153081647e-05 -7.38779883565e-05)
(0.00087351464882 -5.82182183983e-06 -3.56344966235e-05)
(0.000817431409008 -5.22318429531e-06 -3.90663278059e-05)
(0.000814617086385 -1.02100998786e-06 -6.7909361807e-05)
(0.000978333766291 -3.54229671976e-06 -2.61553078876e-05)
(0.00093143827333 -1.31926075212e-06 -3.20605101073e-05)
(0.000933963596302 1.39207256811e-06 -5.62308400611e-05)
(0.00104388460618 -3.70316240814e-06 -1.21932627851e-05)
(0.00101521139198 -1.89745685415e-06 -2.0248768119e-05)
(0.00102178933409 2.21626226593e-07 -3.53718315838e-05)
(0.00105340742877 -4.14013373291e-06 4.84639772777e-06)
(0.00105148118051 -3.1574447943e-06 -4.21802584477e-06)
(0.00106057498566 -1.14445380759e-06 -6.22711693191e-06)
(0.000996829926477 -4.41338891656e-06 2.25527471978e-05)
(0.00102678088262 -3.89613288527e-06 1.39589213576e-05)
(0.00103681363371 -1.77181040775e-06 2.7488655705e-05)
(0.000874843992885 -4.91346054504e-06 3.81433648068e-05)
(0.000936479658007 -4.35728969891e-06 3.14125777096e-05)
(0.000945937502283 -2.071441921e-06 6.05869392063e-05)
(0.000699431186463 -6.05647017007e-06 4.86258706076e-05)
(0.000786879053668 -5.24552006283e-06 4.52724319124e-05)
(0.000794448112169 -2.81177225764e-06 8.75253069796e-05)
(0.000494342187765 -7.83173925474e-06 5.18242544907e-05)
(0.000595368789381 -6.85196686761e-06 5.23737535111e-05)
(0.000600082595199 -4.22428209464e-06 0.000102619204684)
(0.000289721871037 -9.81946812078e-06 4.76460258825e-05)
(0.000389799601384 -8.97093487915e-06 5.14857841526e-05)
(0.000391178821018 -6.16252254886e-06 0.000102582092624)
(0.000114263060141 -1.10120843793e-05 3.84639573261e-05)
(0.000200800026289 -1.10410079749e-05 4.36874432784e-05)
(0.00019930374048 -8.16239394266e-06 8.82873128675e-05)
(-1.73027043189e-05 -1.07986159191e-05 2.69650056103e-05)
(4.62639730175e-05 -1.16911266691e-05 3.28474914628e-05)
(4.30126190424e-05 -9.06674509944e-06 6.66735260837e-05)
(-9.97483298448e-05 -9.69112756722e-06 1.45921815539e-05)
(-6.07617916129e-05 -1.09143612242e-05 2.06310461156e-05)
(-6.46127338712e-05 -8.2578997141e-06 4.22668198097e-05)
(-0.000130614448473 -7.94569268776e-06 3.68676235291e-06)
(-0.000114731417397 -9.60024243345e-06 8.0915851867e-06)
(-0.000117780420132 -7.30715996503e-06 1.65134055563e-05)
(-0.000122856689289 -5.32193325691e-06 -3.30872340141e-06)
(-0.000124660311576 -7.38146179554e-06 -1.17305056075e-06)
(-0.000126041286859 -5.4185395702e-06 -2.99296561229e-06)
(-9.50937147853e-05 -2.01870644699e-06 -5.60283500749e-06)
(-0.00010537375959 -4.17046474904e-06 -5.72051932902e-06)
(-0.000105239155831 -2.63029247033e-06 -1.33050525322e-05)
(-6.54583269836e-05 1.86863023649e-06 -4.75808688188e-06)
(-7.70245997116e-05 -7.02991899571e-07 -5.39643328321e-06)
(-7.59743564717e-05 3.57562622049e-07 -1.41845379863e-05)
(-4.13673347081e-05 5.29406749486e-06 -2.72187299552e-06)
(-5.18177159047e-05 3.68652414331e-06 -3.79758220329e-06)
(-5.00638740132e-05 3.40936995432e-06 -1.17263514195e-05)
(-2.36445544017e-05 7.33467625629e-06 -5.56376388717e-07)
(-3.20352455846e-05 6.46032869204e-06 -1.34482179493e-06)
(-2.9817772639e-05 5.45620877136e-06 -8.97625569168e-06)
(-1.12225414297e-05 8.62058846151e-06 1.17879447942e-06)
(-1.7990060654e-05 7.93144689348e-06 6.4150435166e-07)
(-1.58374836519e-05 6.75139524398e-06 -6.35528634158e-06)
(-5.42993009483e-06 9.17818924957e-06 2.75604131425e-06)
(-9.02560489844e-06 9.03983611462e-06 2.29212315273e-06)
(-6.67862165941e-06 7.56895710515e-06 -3.11454032466e-06)
(-5.59495585226e-06 8.2487005685e-06 3.72932646599e-06)
(-6.27874417269e-06 9.01290485352e-06 3.91510805306e-06)
(-3.27838128747e-06 7.6213856281e-06 -4.51995201928e-09)
(-7.71003610113e-06 4.90861686853e-06 1.81091207994e-06)
(-9.07028395511e-06 7.08267543027e-06 4.16532569903e-06)
(-4.61376167757e-06 5.99441998957e-06 1.21300648599e-06)
(-6.67096215126e-06 2.46001277932e-06 -6.32583843186e-07)
(-2.80380299769e-06 1.6781566125e-06 -3.74725950829e-06)
(0.000904842634306 0.00132365769665 -0.000455530657662)
(0.000452221416533 0.00122836277329 -0.000366958703705)
(0.000586038559974 0.0012116995445 -0.000730078201553)
(0.00154793018986 0.00178938003277 -0.000432750831566)
(0.00153850581191 0.00165517394291 -0.000443831064903)
(0.00148932573163 0.00158066759624 -0.000674094887425)
(0.00144052107961 0.00219506488706 -0.000270752614992)
(0.00174858780321 0.00218641039271 -0.000211821996358)
(0.00160968810904 0.00201411568612 -0.000338125297864)
(0.000856123581029 0.00244226222547 -0.000175146651345)
(0.00131388968164 0.00245849901571 -4.19217442259e-05)
(0.00118821720736 0.00226312751919 -8.5391789085e-05)
(5.28633800241e-05 0.00255521221614 -0.00014567246993)
(0.000536315609637 0.00266303832802 2.4940106658e-05)
(0.000461987301795 0.00243371609387 2.01170601751e-05)
(-0.000795578444638 0.00246512235513 -0.000139902861027)
(-0.000413215151143 0.00268813232316 3.90859827304e-05)
(-0.000397644302028 0.00244350823155 3.41082517367e-05)
(-0.00151411259826 0.00219645803804 -0.00016371861278)
(-0.00128229492633 0.00247722905635 1.33530899467e-05)
(-0.00118460216781 0.00225036069114 -9.33918120124e-06)
(-0.00196190057387 0.00174845954713 -0.000230960108921)
(-0.00190403825562 0.00214221362482 -5.72024362305e-05)
(-0.00173949204343 0.00194171657549 -0.000127815125637)
(-0.00197481293281 0.00114634373539 -0.000307757217149)
(-0.00216894285633 0.00157718904948 -0.000180821113804)
(-0.00196077865434 0.0014477271238 -0.000307567454588)
(-0.00157197099769 0.000571103152191 -0.000329363032076)
(-0.00192409119309 0.00091700791965 -0.000292844472592)
(-0.00175243921208 0.000870208744751 -0.000448225506023)
(-0.000982346821205 0.000170717547152 -0.000274833741173)
(-0.00134938217564 0.000385406428956 -0.000307014118674)
(-0.0012560646341 0.000390325926227 -0.000456606767361)
(-0.000438134015447 -3.38626594242e-05 -0.000191092115988)
(-0.000720452693699 6.46507364312e-05 -0.000237316218044)
(-0.000695504191718 9.2195998314e-05 -0.000358188252686)
(-2.82156525021e-05 -9.74220111374e-05 -0.000122610172277)
(-0.0002108447706 -6.94538925331e-05 -0.00015838113887)
(-0.000223906338995 -4.00236199279e-05 -0.000244892816363)
(0.000257911237397 -8.97990137354e-05 -7.95016847367e-05)
(0.000143606681158 -9.28839419751e-05 -0.000100340691706)
(0.000119223747105 -7.00415348766e-05 -0.000159709499788)
(0.000461112796626 -5.87413375943e-05 -5.70208766727e-05)
(0.000383917278181 -6.95549875964e-05 -6.69414486548e-05)
(0.000361277017011 -5.40239056708e-05 -0.000109493736573)
(0.000619101336515 -2.90542015221e-05 -4.66508056227e-05)
(0.000557619163587 -3.71802342853e-05 -5.05236647417e-05)
(0.000541191222426 -2.71829645993e-05 -8.48002779189e-05)
(0.000755097122664 -9.74488191251e-06 -4.12166233568e-05)
(0.000698554453196 -1.25281790799e-05 -4.30911462566e-05)
(0.00068908086427 -6.18764375392e-06 -7.38010584671e-05)
(0.000877396824938 -1.25139778643e-06 -3.54923412897e-05)
(0.000823504302616 2.69011278402e-07 -3.8324965846e-05)
(0.000820532668996 4.3830049343e-06 -6.66776618849e-05)
(0.00097927598063 -9.21255904183e-09 -2.61539703387e-05)
(0.000933347778992 3.13049500534e-06 -3.15506769395e-05)
(0.000936002955889 5.82476752513e-06 -5.54251629172e-05)
(0.00104392257751 -1.45429860355e-06 -1.22735311786e-05)
(0.00101542487013 1.08088837657e-06 -2.01216214799e-05)
(0.00102232755163 2.99378612003e-06 -3.53304730061e-05)
(0.00105342534692 -2.8447564686e-06 4.8944977851e-06)
(0.00105145847875 -1.39153650099e-06 -4.18115936022e-06)
(0.00106095684403 2.37312913176e-07 -6.5367838414e-06)
(0.00099688182944 -3.67788629827e-06 2.28187518694e-05)
(0.00102684697034 -2.90184001572e-06 1.41494482868e-05)
(0.00103727037071 -1.26213042396e-06 2.72624038947e-05)
(0.000874596208315 -4.48239154273e-06 3.85416448152e-05)
(0.000936426136934 -3.78763753486e-06 3.17919257181e-05)
(0.000946206119657 -2.02391762234e-06 6.05553206956e-05)
(0.000698785521896 -5.79465513499e-06 4.90203148159e-05)
(0.000786453119478 -4.88375332577e-06 4.57060548006e-05)
(0.000794256449376 -3.00434072375e-06 8.75211144398e-05)
(0.000493399504646 -7.6868376037e-06 5.2035283173e-05)
(0.000594539245142 -6.56149511971e-06 5.27419848545e-05)
(0.000599422757936 -4.59747054795e-06 0.000102380328127)
(0.000288863292734 -9.82114376562e-06 4.75272015485e-05)
(0.000388806278313 -8.6964179364e-06 5.15837111246e-05)
(0.000390328485131 -6.67824367731e-06 0.000101978173343)
(0.000113964429161 -1.13093442734e-05 3.80709774151e-05)
(0.000200195889584 -1.08362782356e-05 4.34480111556e-05)
(0.000198860849631 -8.82179523161e-06 8.72385115473e-05)
(-1.65130970758e-05 -1.13273158947e-05 2.65135319681e-05)
(4.64329192686e-05 -1.18355765422e-05 3.24839784831e-05)
(4.33771177137e-05 -9.84749401581e-06 6.53821362473e-05)
(-9.90844327852e-05 -1.03289235645e-05 1.41304497484e-05)
(-6.01322922678e-05 -1.09370866516e-05 2.01891226285e-05)
(-6.37918252466e-05 -9.19347711706e-06 4.13040440019e-05)
(-0.000129497993016 -8.61968852706e-06 3.23177227304e-06)
(-0.000113787743679 -9.85221559957e-06 7.61759149477e-06)
(-0.000116680716364 -8.1269702825e-06 1.54442117707e-05)
(-0.000121256111127 -5.88216889048e-06 -3.58484648837e-06)
(-0.000123194368423 -7.60756996226e-06 -1.56361616985e-06)
(-0.000124478480627 -6.01177066888e-06 -3.91790799262e-06)
(-9.32376559327e-05 -2.52725664165e-06 -5.51411760474e-06)
(-0.000103518073574 -4.35750066746e-06 -5.88204419704e-06)
(-0.000103371273301 -2.98837291974e-06 -1.38426546878e-05)
(-6.34166797036e-05 1.17523946148e-06 -4.43592860463e-06)
(-7.49527584287e-05 -9.17820173077e-07 -5.18040248351e-06)
(-7.40561092588e-05 1.4324569399e-07 -1.46995960623e-05)
(-3.98195469004e-05 4.68299341635e-06 -2.4205310027e-06)
(-4.98883837283e-05 2.51321165356e-06 -3.23446847928e-06)
(-4.84657490168e-05 3.49970258238e-06 -1.06072953582e-05)
(-2.27547406779e-05 6.95496034197e-06 -1.46941054555e-07)
(-3.07810929161e-05 5.88557173405e-06 -1.2287610766e-06)
(-2.8808930329e-05 5.50709466267e-06 -7.9271331286e-06)
(-1.08363955968e-05 8.20639790783e-06 1.75483302497e-06)
(-1.72966524728e-05 7.30533212173e-06 9.40345435257e-07)
(-1.52325391592e-05 6.80583989238e-06 -5.30773497021e-06)
(-5.38721330466e-06 8.68638387478e-06 3.45118989154e-06)
(-8.68299695438e-06 8.26551556338e-06 2.67973323846e-06)
(-6.30057109787e-06 7.68633949831e-06 -1.94085865361e-06)
(-6.21819117569e-06 7.70920502063e-06 4.3511072861e-06)
(-6.6148164993e-06 8.13960736783e-06 4.45363116959e-06)
(-3.31665001364e-06 7.66157778463e-06 1.28733681342e-06)
(-8.85220671497e-06 4.57770346123e-06 1.72182977591e-06)
(-1.03491375218e-05 6.34556854075e-06 4.448264832e-06)
(-5.26083197163e-06 6.00292593158e-06 2.05368442142e-06)
(-7.60617966103e-06 2.3199220711e-06 -1.26386242281e-06)
(-3.31496073014e-06 1.98100041605e-06 -4.28240050792e-06)
(0.00109240035394 0.00154365862227 -0.000355259110946)
(0.000583492426436 0.00134551543122 -0.000326506858275)
(0.00072015199951 0.0013990493138 -0.000663429974411)
(0.0017601290723 0.00202941501432 -0.000222902229694)
(0.00177755217162 0.00175927304578 -0.00029210728919)
(0.00168316800923 0.00173312053273 -0.000438007710157)
(0.0015808675934 0.00243286850347 1.70088744083e-05)
(0.00193142399111 0.00226666749949 3.2048647334e-05)
(0.00174255159111 0.00213547427828 9.34956127884e-06)
(0.000938370357987 0.00267360645009 0.000158165013777)
(0.00144008856288 0.00249071611199 0.000233769312657)
(0.00126993462252 0.00235350689535 0.000289005540437)
(7.09226990662e-05 0.00279189371718 0.000209698559318)
(0.000600804126644 0.00268670331097 0.000328961701274)
(0.000506178288386 0.00251867458641 0.000409989896707)
(-0.00084653458324 0.00269283488309 0.000192341933704)
(-0.000441952129144 0.00271595994214 0.000344187926909)
(-0.000416460468148 0.00253515305981 0.000430755119502)
(-0.00160388258689 0.00240862392892 0.000119869266496)
(-0.00136657464321 0.00250743328727 0.000278251954374)
(-0.00123520600125 0.00232725457741 0.000348232276508)
(-0.0021062532254 0.001950403637 -7.0634411138e-06)
(-0.00201471921791 0.0021923840065 0.000180420121056)
(-0.00180542959206 0.00202502112843 0.000200699281343)
(-0.00216837425346 0.00133036510949 -0.000165908369247)
(-0.00234736678973 0.00165937999914 -4.1296572016e-06)
(-0.00207315435219 0.00154905749398 -5.14689381105e-05)
(-0.00174867567074 0.000721174900094 -0.000270495559191)
(-0.00212277254067 0.0010160923237 -0.000198580263419)
(-0.0018912774139 0.00097894540127 -0.000309211335772)
(-0.00109149953757 0.000274479958801 -0.000269496595546)
(-0.00150546362554 0.000475635443699 -0.000283161671766)
(-0.00136787520329 0.000479473557188 -0.000418995763425)
(-0.000480510552108 2.66748942194e-05 -0.000204605240926)
(-0.000802534713047 0.000128531571277 -0.000245682445208)
(-0.000752208529458 0.000151803716607 -0.000369468383995)