/*--------------------------------*- C++ -*----------------------------------*\
| =========                 |                                                 |
| \\      /  F ield         | OpenFOAM: The Open Source CFD Toolbox           |
|  \\    /   O peration     | Version:  3.0.1                                 |
|   \\  /    A nd           | Web:      www.OpenFOAM.org                      |
|    \\/     M anipulation  |                                                 |
\*---------------------------------------------------------------------------*/
FoamFile
{
    version     2.0;
    format      ascii;
    class       volScalarField;
    location    "3.6";
    object      k;
}
// * * * * * * * * * * * * * * * * * * * * * * * * * * * * * * * * * * * * * //

dimensions      [0 2 -2 0 0 0 0];

internalField   nonuniform List<scalar> 
15984
(
0.00109212556302
0.0012314964236
0.00129496740699
0.0013108151497
0.00131022504763
0.00131213304664
0.00131924343099
0.00132545202747
0.00132462506269
0.00131582887106
0.00130678226995
0.00129733084873
0.00128875615291
0.00128230011894
0.00127782968093
0.00127490116139
0.00127303481362
0.0012719088187
0.0012712460176
0.00127086130776
0.00127063798052
0.00127049948026
0.0012703998519
0.00127032054221
0.00127025931508
0.00127020379627
0.00127014414949
0.00127007895082
0.00127005229669
0.00127003787645
0.00127001306921
0.00126996038423
0.00126988468236
0.00126972832059
0.00126925386912
0.00126754607074
0.00126149190118
0.00124213824713
0.00118795265613
0.00106715011112
0.00145426635989
0.00197229844299
0.0021835397314
0.00223230333115
0.0022353611195
0.00224183267102
0.0022721046107
0.00232226510247
0.00236159805692
0.00236690739609
0.0023439521835
0.00231762403206
0.00229596199509
0.00228034371452
0.00227020599704
0.00226391483517
0.00226005517845
0.00225772214861
0.00225636947109
0.0022556069441
0.00225518217397
0.00225493517664
0.00225476284473
0.0022546251359
0.0022545202889
0.00225445582775
0.00225438920946
0.00225431156107
0.00225429999841
0.00225432710008
0.00225433625941
0.00225424863132
0.00225395059613
0.00225308504669
0.00224995833772
0.00223912443904
0.00220532733123
0.00211211661405
0.00188257977208
0.00138185058537
0.00161663954122
0.0024397964899
0.00275897070797
0.00283570603456
0.002845062018
0.00285946504522
0.00291158267527
0.00300049500139
0.00307685238191
0.00309901277317
0.00307557163718
0.00303749705931
0.00300575898552
0.00298357199362
0.00296942263978
0.00296088737358
0.00295580788898
0.00295279968205
0.00295104589503
0.00295006521424
0.00294952151035
0.00294920390934
0.00294898109475
0.00294880751536
0.00294868258215
0.0029486139371
0.0029485600327
0.00294849733198
0.00294851192688
0.00294856963918
0.00294859987161
0.00294846486984
0.00294785798732
0.00294600654486
0.00293967748766
0.00291911722916
0.00285929727001
0.00270446274712
0.0023391207784
0.00151793994377
0.00169885245774
0.0027029780338
0.00307755844131
0.00316035124936
0.00316937673491
0.00319232932919
0.00327141671713
0.00340932537594
0.00353755929782
0.00358991064918
0.00357243941101
0.00353051993008
0.00349099813347
0.00346332161994
0.0034458567144
0.00343542645074
0.00342936467429
0.00342585404729
0.0034238289214
0.00342269380968
0.00342206465081
0.00342169692252
0.00342144013977
0.00342124313163
0.00342110766067
0.00342104626614
0.00342101735461
0.00342097236558
0.00342101162494
0.00342109685884
0.00342113853519
0.00342093213163
0.00342001437224
0.00341704054609
0.00340738933713
0.00337755498775
0.00329495400423
0.00309055732648
0.0026245023931
0.00158412915016
0.00174334604823
0.00283551022533
0.00322421464166
0.0033329375811
0.00336305088383
0.00339883159946
0.00349080412172
0.00363917014251
0.00383121886158
0.0039262738127
0.00392122778229
0.00387725182214
0.00383225796563
0.00379956389004
0.00377905368686
0.00376688565483
0.00375992735852
0.00375599105006
0.00375375583642
0.00375249844498
0.00375180124652
0.00375139470372
0.00375111680812
0.00375090374268
0.00375076634477
0.00375071740021
0.00375071379331
0.0037506858198
0.00375074957755
0.00375086044396
0.00375090133377
0.00375061214206
0.00374936935303
0.00374531849364
0.00373242603823
0.00369413445984
0.00359199558465
0.00334776183185
0.00280657127728
0.00161887689281
0.00176684678785
0.00288515579754
0.00329238278555
0.00343534167705
0.00346931126747
0.00351399563143
0.00362845123229
0.00380878386924
0.00401158816678
0.0041553473706
0.00416662286921
0.00412261341389
0.00407305490286
0.00403582800793
0.00401240070732
0.00399870812421
0.00399092722511
0.00398662024532
0.00398422087439
0.0039828686407
0.00398211378189
0.00398167404998
0.00398138028883
0.00398116211228
0.00398102619859
0.00398099093575
0.00398100816581
0.00398099751933
0.00398108523279
0.00398121693546
0.00398125274166
0.00398087894057
0.00397932091938
0.00397426428674
0.0039584578042
0.00391283802538
0.00379453621016
0.00351901321104
0.00292262409082
0.00163781538824
0.00177794179808
0.00288796276956
0.00332548585003
0.00347147749801
0.00350181931487
0.00355372846667
0.003692933466
0.00390747724113
0.0041207590115
0.00430749160823
0.0043357317691
0.00429298099716
0.00423972692885
0.0041987110441
0.00417272074556
0.00415766739433
0.00414921231155
0.00414459241668
0.0041420535653
0.00414063950956
0.00413983763949
0.00413936781074
0.00413906223783
0.0041388426593
0.00413871074868
0.00413868749855
0.0041387219111
0.00413872709861
0.00413883644538
0.00413898564299
0.00413901510467
0.00413856214754
0.00413672302316
0.00413079172886
0.00411253924127
0.00406093612288
0.00392989752129
0.00363074206468
0.00299506800971
0.00164816004582
0.00178270552409
0.00287265124658
0.00332810163122
0.0034697378092
0.003492552396
0.00355026163668
0.00371344226112
0.00395971150045
0.00420140034009
0.00440463052092
0.00444724371053
0.00440618817481
0.00435021404262
0.00430626765778
0.00427824233676
0.00426205482465
0.00425312102469
0.00424824799172
0.00424560854646
0.00424414304559
0.00424330568697
0.00424281195056
0.00424249665166
0.00424227895987
0.00424215070404
0.00424213610724
0.00424218501846
0.00424220369153
0.00424232975078
0.00424249393654
0.00424251645719
0.00424199701861
0.00423992988242
0.00423330554235
0.00421316474537
0.00415704094869
0.00401663459003
0.00370068153208
0.00303847942751
0.00165366609045
0.00178496746263
0.00285785087076
0.00332001522158
0.00345637553958
0.00347059633866
0.003532494397
0.00371549802302
0.00398503432386
0.00424850682072
0.0044619149903
0.00451443294592
0.00447478054278
0.00441705196836
0.00437110190993
0.00434168117399
0.00432470990841
0.0043154330183
0.00431040469466
0.00430769897173
0.00430620078393
0.00430534030364
0.00430482759791
0.00430450619361
0.00430428874627
0.00430416345239
0.00430415524413
0.00430421381869
0.00430424227346
0.00430438104988
0.00430455495516
0.00430457157257
0.00430400426867
0.00430177700757
0.00429467492952
0.00427325600936
0.00421411863379
0.00406758651317
0.00374092831283
0.00306249622922
0.00165641808024
0.00178613838524
0.00285040258054
0.00331382059123
0.00344692179555
0.0034547794282
0.00351901644934
0.0037140027813
0.00399550015849
0.00427006677208
0.0044886787415
0.00454597477951
0.00450701566675
0.00444840785572
0.00440144514457
0.00437132382608
0.00435396322049
0.0043444990067
0.00433940495981
0.00433666800682
0.00433515468013
0.00433428119271
0.00433375758585
0.00433343199902
0.00433321496087
0.00433309073414
0.0043330854225
0.00433314875945
0.00433318245861
0.00433332810549
0.0043335073205
0.00433351962672
0.00433292682915
0.00433061682829
0.00432327145201
0.0043012097835
0.0042405697521
0.00409101845733
0.00375916855309
0.00307307387453
0.00165754516681
0.0017862472595
0.00285082960044
0.00331420372914
0.00344734278439
0.00345533903664
0.00351953728755
0.00371435570197
0.00399575757043
0.00427022708902
0.00448883861222
0.00454596849868
0.00450695732361
0.00444835342896
0.00440140786
0.0043712975253
0.00435394544706
0.00434448879731
0.00433939789839
0.0043366619786
0.004335149814
0.00433427663666
0.00433375136593
0.00433342512701
0.00433320712732
0.00433308128908
0.00433307553844
0.00433313867436
0.00433317253269
0.00433331833274
0.00433349681425
0.00433350787285
0.00433291393897
0.00433060317743
0.00432325757265
0.0043011971534
0.00424055853766
0.00409100905198
0.00375916100947
0.00307306837482
0.00165754428676
0.00178525904113
0.00285905823385
0.00332110137017
0.0034575574865
0.00347203084966
0.00353383829401
0.00371648089575
0.00398576398095
0.00424896719327
0.00446236666714
0.00451441176181
0.00447461373322
0.00441689510134
0.0043709906834
0.00434160419882
0.00432465516717
0.00431539915406
0.0043103824859
0.00430768150979
0.00430618666024
0.00430532633049
0.00430480936713
0.00430448542072
0.00430426531943
0.00430413630072
0.0043041263898
0.00430418463346
0.00430421364896
0.00430435270902
0.00430452486149
0.00430453788195
0.0043039671995
0.00430173767161
0.0042946349621
0.00427321964058
0.0042140862968
0.0040675591467
0.00374090605649
0.00306247992702
0.00165641517178
0.00178309705639
0.00287450038528
0.00332979484588
0.0034715850253
0.00349463339999
0.00355220161572
0.00371495428359
0.00396082182958
0.00420209281585
0.00440524753586
0.00444716206268
0.00440590407302
0.00434995735769
0.00430608735558
0.00427812096742
0.00426196426722
0.00425306359734
0.00424820821966
0.00424557887742
0.00424411839135
0.00424327964253
0.00424278286704
0.00424246425139
0.0042422427973
0.00424210880141
0.0042420915631
0.00424214002826
0.00424215960351
0.00424228577671
0.00424244681299
0.00424246416191
0.00424193930511
0.00423986896862
0.00423324361327
0.00421310805661
0.0041569900836
0.00401659099279
0.00370064587737
0.00303845282023
0.00165366036711
0.00177832048227
0.00289018035792
0.00332759960509
0.00347380922302
0.00350435173213
0.00355608019551
0.00369482276222
0.0039088555536
0.00412179143489
0.00430809123623
0.00433552848971
0.0042925732584
0.00423938058333
0.00419846872087
0.00417255589857
0.00415754831985
0.00414913764992
0.00414453668375
0.0041420110706
0.00414060490156
0.0041398016136
0.00413933050132
0.00413902186769
0.00413879828953
0.00413865996451
0.00413863279529
0.00413866655059
0.00413867219381
0.00413878100562
0.00413892671052
0.00413895047204
0.00413849068227
0.00413664735517
0.0041307150363
0.00411246868416
0.00406087192113
0.00392984161003
0.00363069567329
0.00299503249566
0.00164815182124
0.00176710052241
0.00288737062637
0.00329479653312
0.00343791362062
0.0034720533131
0.00351653094379
0.00363052158325
0.00381030164156
0.00401330313005
0.00415573889137
0.00416624381054
0.00412208476804
0.00407263745187
0.00403553335158
0.00401219816925
0.00399857948968
0.00399083681468
0.00398655058892
0.00398416608444
0.00398282433606
0.00398207281781
0.0039816333191
0.00398133729972
0.00398111581643
0.00398097404655
0.00398093430465
0.00398095000424
0.00398093888263
0.00398102564793
0.00398115345932
0.0039811827519
0.00398080265808
0.00397924072284
0.00397418290951
0.00395838249442
0.00391276798385
0.00379447381549
0.00351896036652
0.00292258305185
0.00163780459033
0.00174339500642
0.00283736705873
0.00322771775408
0.00333566357754
0.00336594833115
0.00340148800864
0.00349297548024
0.00364103473923
0.00383247509155
0.00392630586766
0.00392064541031
0.0038766280938
0.00383177945344
0.00379923092309
0.00377882865384
0.00376675362807
0.00375982897838
0.00375591401538
0.00375369689569
0.00375245060201
0.00375175923527
0.00375135526704
0.00375107694509
0.00375086204059
0.00375072024224
0.00375066736942
0.00375066190238
0.00375063270506
0.00375069540277
0.00375080170621
0.00375083621077
0.00375054148337
0.00374929520769
0.00374524392573
0.00373235598209
0.00369406687449
0.00359193358341
0.00334770835381
0.00280652866046
0.00161886504857
0.0016986819499
0.00270421473432
0.00308027505337
0.00316402262129
0.0031734064279
0.00319594289575
0.00327438808374
0.00341115087313
0.00353817268727
0.00358955690758
0.00357170526109
0.00352983800867
0.00349049367788
0.0034629719317
0.00344565487179
0.00343529629425
0.00342927069154
0.00342578182091
0.0034237715145
0.00342264827824
0.0034220266472
0.00342166369968
0.00342140905603
0.00342121293806
0.0034210735697
0.00342100885881
0.00342097884635
0.00342093224877
0.00342097091074
0.00342105148105
0.00342108817885
0.00342087714813
0.00341995687969
0.00341698351902
0.00340733228532
0.00337749798026
0.00329489952078
0.00309050902795
0.00262446354215
0.00158411715417
0.00161629474787
0.00244036765493
0.00276070342367
0.00283828803842
0.00284795611276
0.00286203285686
0.00291354622944
0.00300151179006
0.00307688455819
0.00309839730998
0.00307478650689
0.00303683828469
0.00300527604018
0.0029832714043
0.00296923661146
0.00296077257419
0.00295572657321
0.00295273803139
0.00295099915041
0.00295002864728
0.00294949179115
0.00294918028082
0.00294896174733
0.00294879189344
0.0029486635207
0.00294859298159
0.00294853806485
0.00294847492576
0.00294848877224
0.00294854311366
0.00294856999093
0.00294843246667
0.00294782448747
0.00294596970927
0.00293963895866
0.00291907704613
0.00285925615115
0.0027044254727
0.00233909202039
0.0015179323492
0.00145388241193
0.00197234188223
0.00218438510136
0.00223377587815
0.00223708161899
0.00224330410219
0.00227311762748
0.00232261669334
0.00236131408962
0.00236626744883
0.00234329207463
0.00231707295237
0.00229558190141
0.00228011003811
0.00227006521795
0.00226382382254
0.00225999095538
0.00225767686534
0.00225633490528
0.00225558058592
0.00225516206356
0.00225491963362
0.00225475028953
0.00225461536996
0.00225451202685
0.00225444528486
0.00225437976844
0.00225430243067
0.00225429021617
0.00225431658947
0.00225432484002
0.0022542361627
0.00225393474384
0.00225306822636
0.00224993986478
0.00223910478073
0.00220530463253
0.00211209543621
0.00188256634698
0.00138184963519
0.00109195886526
0.00123133105871
0.00129502851355
0.0013111165229
0.00131065973045
0.0013124451409
0.00131936321177
0.00132534246402
0.00132433828528
0.00131547829372
0.0013064482825
0.00129706885155
0.00128857970174
0.00128219065079
0.00127776309244
0.00127485836915
0.0012730111804
0.00127189762843
0.00127124196488
0.00127086252823
0.00127064134315
0.00127050301303
0.00127040430969
0.00127032538515
0.00127026367058
0.00127020688137
0.00127014691014
0.00127008067148
0.00127005226426
0.00127003737466
0.00127001179244
0.00126996236587
0.00126988750733
0.0012697324649
0.0012692592274
0.00126755302138
0.00126149679021
0.00124214246696
0.00118796004634
0.00106716127718
0.00140435581482
0.00189725790502
0.0021147567419
0.00217954296639
0.00219163551613
0.00220115507403
0.00222829633177
0.00226909481035
0.00230253259353
0.00231349576392
0.00230631397633
0.00229285754067
0.00228191379305
0.00227375528117
0.00226728497544
0.00226269157137
0.00225962514491
0.00225765665124
0.00225642801841
0.0022556724071
0.0022552090912
0.00225491259163
0.00225470700756
0.00225455774429
0.00225445892863
0.00225440645617
0.00225437916027
0.00225434658008
0.00225436436893
0.00225440844829
0.00225442733126
0.00225436304867
0.0022540911158
0.0022532106642
0.00225005949716
0.00223918226576
0.00220532782433
0.00211208474551
0.00188258072882
0.00138196195341
0.00266189210117
0.00401182880377
0.00454950241694
0.0046986627594
0.00472577396516
0.00475941877433
0.00485578576449
0.00501203628788
0.00516521985436
0.00525345065653
0.00527403899354
0.00526093681673
0.00523856641999
0.00521968116933
0.00520617785132
0.00519734670324
0.00519179297486
0.00518838301026
0.0051863335514
0.00518513597888
0.00518445593312
0.005184068075
0.00518382883245
0.00518367687505
0.00518361666076
0.00518365697886
0.00518374143287
0.00518381577138
0.00518391021054
0.00518401808333
0.0051840662759
0.00518386411241
0.00518285895682
0.00517941102601
0.00516745623518
0.00512911446248
0.00501936435511
0.00474000410287
0.00409383503706
0.0026405653088
0.00312268033121
0.00506618604547
0.00582666921931
0.00605948442059
0.00611571214832
0.00617136416555
0.00630562341552
0.00651734824578
0.00672052066121
0.00683467145465
0.00685728474356
0.00683450888531
0.00680141504968
0.00677415808222
0.00675543376681
0.00674360943839
0.00673641079223
0.00673211042465
0.00672958125147
0.00672813069643
0.00672731980901
0.00672686489288
0.00672658635595
0.00672641108345
0.00672634603356
0.00672639847196
0.00672650316306
0.00672659189752
0.0067267092789
0.00672684149823
0.00672687636839
0.00672649108226
0.00672474981188
0.00671866334221
0.00669851346561
0.00663734365423
0.00647148020925
0.00606895175832
0.00516971847114
0.00307263111643
0.00336794133017
0.00568839967821
0.00659804709645
0.00688589659179
0.00696251396281
0.00703997853381
0.00721546764452
0.00749207771799
0.00775807902273
0.00791172052318
0.00794513291768
0.00791755937818
0.00787598573286
0.00784130663829
0.0078179044972
0.00780341612862
0.00779480902412
0.00778979122162
0.00778690027574
0.0077852666422
0.00778436200725
0.00778385822061
0.00778355354984
0.00778336400367
0.00778329675985
0.00778335842433
0.00778347907095
0.00778357953515
0.00778371469749
0.00778386117455
0.00778386293242
0.00778325421251
0.00778066658285
0.00777181303874
0.00774346212382
0.00766089722316
0.0074459261965
0.00694277989937
0.00585003718087
0.00330045290628
0.00350396449112
0.00604064895033
0.00704183455392
0.00736411526263
0.00744983946011
0.00754695227468
0.00777162469103
0.00812396567449
0.00846252380699
0.00866860640823
0.00872086563726
0.00869243033028
0.00864406070761
0.00860273988338
0.00857496818174
0.00855798393317
0.00854807837595
0.00854242866426
0.00853923629977
0.00853745369405
0.00853647218839
0.00853592847411
0.0085356054034
0.00853540875021
0.00853534338127
0.00853541699929
0.00853555581535
0.0085356716658
0.0085358248779
0.00853598130686
0.00853593759759
0.00853508256279
0.00853161203412
0.00851997697893
0.00848379837644
0.00838175724823
0.00812429711596
0.00753862190808
0.00629649786644
0.0034306046205
0.00357660465616
0.00621613508292
0.00726972903968
0.007586863725
0.00767113232783
0.00778663534982
0.00806487539382
0.00850145523326
0.00893108731166
0.00919652294398
0.00927283964364
0.00924669249907
0.00919295300618
0.00914592450513
0.00911412687076
0.00909485861448
0.00908376744615
0.00907755726913
0.00907410967993
0.00907220244108
0.00907115380272
0.00907057401709
0.00907023621492
0.00907003751969
0.00906997708668
0.00907006431478
0.00907022306185
0.0090703569571
0.00907052846719
0.00907069170785
0.00907059688577
0.00906949369963
0.00906517071646
0.00905093556345
0.0090076892085
0.00888872752921
0.00859579584
0.00794420543854
0.00658936109125
0.00350747873157
0.00361119202264
0.00628254179653
0.00735141192008
0.00765934347482
0.00773597510336
0.00786731918548
0.00819793349602
0.00871477950496
0.00923511800083
0.00955548001713
0.0096569653448
0.00963507360031
0.00957746868912
0.00952570075758
0.00949041342945
0.00946914438505
0.00945703624593
0.0094503476399
0.00944668602732
0.0094446790165
0.00944357179015
0.00944295848681
0.00944260761396
0.00944240922362
0.00944235494273
0.00944245619864
0.00944263462719
0.00944278662543
0.00944297559733
0.00944314340187
0.00944299788823
0.00944166555805
0.00943658233236
0.00942008866284
0.00937086463653
0.00923800949594
0.00891685461583
0.00821472611203
0.00677778680544
0.00355280891567
0.00362496293609
0.00629321225885
0.00736176217351
0.00765872274162
0.00772528082584
0.00786918265764
0.00824475924322
0.00882795326016
0.00941957660955
0.0097887090664
0.00991256747906
0.00989544687331
0.00983532165439
0.00977991436437
0.00974186609869
0.00971898464366
0.00970607999049
0.00969901510597
0.0096951880967
0.00969310172577
0.00969194649373
0.00969130356938
0.00969094085767
0.00969074321707
0.00969069424126
0.00969080812574
0.00969100407812
0.00969117254553
0.00969137619798
0.0096915469589
0.00969135668122
0.00968983325561
0.00968413356988
0.00966584691535
0.00961197295999
0.00946854308638
0.0091264285792
0.00838787741163
0.00689431309128
0.00357875541286
0.00362938699328
0.0062848525595
0.00734935409539
0.00763798160931
0.00769615737142
0.00784869377308
0.0082563738891
0.00888479407316
0.00952447270959
0.00992766120746
0.0100677249343
0.0100545066612
0.00999291088876
0.00993505004321
0.00989510919388
0.00987110703276
0.0098576515001
0.00985033142824
0.00984639198712
0.00984425169244
0.0098430608581
0.00984239416586
0.00984202142648
0.00984182343114
0.00984177775902
0.00984190095302
0.00984211010656
0.00984229146425
0.00984250642127
0.00984267852331
0.00984245437367
0.00984079355682
0.00983466042914
0.00981513368144
0.00975808952868
0.00960756124788
0.00925162134214
0.00848957940073
0.00696072145482
0.00359259659238
0.00363057110651
0.00627723481721
0.00733923494831
0.00762382138892
0.00767680813845
0.00783371304648
0.00825857734596
0.00890914700048
0.00957240162326
0.00999254191213
0.0101408376263
0.0101296957207
0.0100674085683
0.0100083161851
0.00996742540673
0.00994285663438
0.00992911931816
0.00992167339716
0.00991767757762
0.00991550931986
0.00991429814541
0.00991361657728
0.00991323642499
0.00991303680233
0.00991299160643
0.00991311931611
0.00991333578744
0.00991352487647
0.00991374648792
0.00991391893995
0.00991367546681
0.00991194164147
0.00990558421933
0.00988542434375
0.00982677700954
0.00967269108872
0.00930989675369
0.00853636743815
0.00699062501831
0.00359854303812
0.00363075360203
0.0062779630553
0.00734002371255
0.0076245747983
0.00767763265472
0.00783448726642
0.00825921345121
0.00890970472113
0.00957282424099
0.00999273124805
0.010140827568
0.0101296148072
0.0100673311361
0.0100082617051
0.00996738648645
0.00994282828491
0.00992909872143
0.00992165713072
0.0099176628404
0.00991549452799
0.00991428157339
0.00991359670139
0.00991321331203
0.00991301065593
0.0099129627848
0.00991308962891
0.00991330663492
0.00991349697628
0.00991371935866
0.00991389090174
0.00991364494886
0.0099119082496
0.00990554866463
0.00988538832463
0.00982674270367
0.0096726601937
0.00930987167517
0.00853634836995
0.00699061187567
0.00359853878161
0.00362988850991
0.00628694718463
0.0073516856541
0.00764024428859
0.00769852106011
0.00785091289592
0.00825825864085
0.00888643332072
0.00952569101145
0.00992820763102
0.0100676950131
0.0100542727181
0.00999268628112
0.00993488758222
0.00989499402926
0.00987102269837
0.0098575903281
0.00985028286572
0.00984634842769
0.00984420812546
0.00984301186217
0.00984233606951
0.00984195405733
0.00984174738234
0.00984169441098
0.00984181499398
0.00984202571899
0.00984221071486
0.00984242783278
0.00984259741423
0.00984236624262
0.00984069715224
0.0098345578596
0.00981502972239
0.00975799052382
0.00960747215762
0.00925154819274
0.00848952353314
0.00696068269608
0.00359258383717
0.00362567520799
0.00629647886746
0.00736557953897
0.00766250903543
0.00772911909033
0.00787276071503
0.00824788175199
0.00883058060211
0.00942140700041
0.00978948603497
0.00991247234587
0.00989505780134
0.00983495821176
0.00977965063054
0.0097416804524
0.00971884793808
0.00970597984492
0.00969893465447
0.00969511632874
0.00969303011588
0.0096918669062
0.00969121188475
0.00969083588515
0.00969062552497
0.00969056559755
0.00969067546937
0.00969087380294
0.00969104760227
0.00969125411944
0.00969142082475
0.00969122002211
0.0096896840303
0.00968397519371
0.00966568637131
0.00961181935642
0.00946840458786
0.00912631276961
0.00838778890792
0.00689425064897
0.00357873425566
0.00361195875113
0.00628660572811
0.00735644352285
0.00766453913478
0.00774126539174
0.00787224370249
0.00820219628009
0.00871818314794
0.00923733891026
0.00955629992098
0.00965674001096
0.00963452847236
0.00957698150037
0.00952534811869
0.00949016537885
0.00946896428656
0.00945690234097
0.00945023792299
0.00944658794474
0.0094445826069
0.00944346710842
0.00944284115129
0.00944247554637
0.00944226273382
0.00944219576759
0.00944229179553
0.00944247269807
0.0094426305368
0.00944282228784
0.00944298508128
0.00944282706333
0.00944147967682
0.00943638549269
0.00941988930996
0.0093706736223
0.00923783518314
0.00891670731847
0.00821461208422
0.00677770475008
0.00355277899625
0.00357726204136
0.00622047039526
0.00727543164643
0.00759300097396
0.00767738016808
0.00779244385405
0.00806990475675
0.00850519176123
0.008933410462
0.00919719220521
0.00927242898597
0.00924600359948
0.00919236551554
0.00914550110174
0.00911383080355
0.0090946487298
0.00908360746044
0.00907742368964
0.00907399026112
0.00907208687591
0.00907103249416
0.00907044176218
0.0090700902837
0.00906987784843
0.00906980500121
0.00906988640229
0.00907004701311
0.00907018609847
0.0090703597909
0.00907051762284
0.00907040961879
0.00906929128148
0.00906495733771
0.00905071952679
0.0090074808815
0.00888853583801
0.00859563196174
0.00794407599207
0.00658926725858
0.00350744335787
0.00350438989402
0.00604470332446
0.00704753532221
0.00737050518296
0.00745640184191
0.00755301174023
0.00777679536439
0.00812741694113
0.00846455734385
0.00866896056655
0.00872025124423
0.00869163037533
0.0086434078695
0.00860227228553
0.00857464552995
0.00855775887608
0.00854790349533
0.00854228169237
0.00853910554704
0.00853732854344
0.00853634455441
0.00853579328718
0.00853545973394
0.00853525211513
0.00853517620308
0.00853524405769
0.00853538406441
0.00853550386994
0.00853565839276
0.00853580923119
0.00853575343918
0.00853488500083
0.00853140498572
0.00851976771796
0.00848359491936
0.00838156679314
0.00812413172008
0.00753848976607
0.00629639960511
0.0034305664718
0.0033680954018
0.00569175019015
0.00660308259207
0.00689181679224
0.00696854247534
0.00704511415093
0.00722016213008
0.00749527491574
0.00775960823547
0.00791170836022
0.0079443607182
0.00791670674578
0.00787532111292
0.00784083215541
0.00781758646877
0.00780319280552
0.00779463520799
0.00778964516646
0.00778676968483
0.00778514323419
0.00778423928667
0.00778373202472
0.00778342135539
0.00778322523694
0.00778314965389
0.00778320629894
0.00778332757447
0.00778343057755
0.00778356629457
0.00778370776836
0.00778370010306
0.0077830811231
0.0077804866056
0.00777163170519
0.00774328476529
0.0076607290914
0.00744577649299
0.00694265807083
0.00584994660294
0.00330041866832
0.00312261239236
0.00506860882696
0.00583067298904
0.00606440634818
0.00612089165612
0.00617610473774
0.00630955573168
0.00651990442037
0.00672148795681
0.00683437470587
0.00685646124862
0.00683368810692
0.00680078595722
0.00677372707013
0.00675514393588
0.00674340688147
0.0067362540931
0.00673197941936
0.00672946469343
0.00672802145849
0.00672721318695
0.00672675821762
0.00672647798114
0.00672630066163
0.00672623036917
0.00672627866733
0.00672638352896
0.00672647372975
0.00672659091299
0.0067267196739
0.00672674869896
0.00672635718284
0.0067246124282
0.0067185262517
0.00669837900145
0.00663721333171
0.00647135964883
0.00606885182455
0.00516964545179
0.00307260524027
0.00266172061877
0.00401325587693
0.00455222078932
0.0047021870893
0.0047295919163
0.00476289830421
0.00485858532296
0.00501375793102
0.00516570953888
0.0052530444728
0.0052733158824
0.0052602584909
0.00523806086671
0.00521934016666
0.00520594844506
0.00519718525953
0.00519166992668
0.00518828241056
0.0051862443042
0.00518505311979
0.00518437633022
0.00518398937714
0.00518375032883
0.00518359811449
0.00518353641484
0.00518357325156
0.00518365801317
0.0051837330882
0.00518382673813
0.00518393456715
0.00518398050942
0.00518377607778
0.00518277200705
0.00517932447995
0.00516737064423
0.00512902970173
0.00501928080092
0.00473993292534
0.00409378266054
0.00264054302299
0.00140420239012
0.00189749071647
0.00211547477415
0.00218066576752
0.00219294579988
0.00220227668193
0.00222905503378
0.00226936454043
0.00230235088562
0.00231307063689
0.00230586132086
0.00229248781363
0.00228165130298
0.00227358098441
0.00226716841532
0.00226261285172
0.00225957155705
0.00225761715586
0.00225639558012
0.002255643379
0.0022551807397
0.00225488236034
0.00225467545714
0.00225452421807
0.00225442315001
0.0022543678725
0.00225433917139
0.00225430694215
0.00225432386023
0.0022543720823
0.00225439044874
0.0022543252678
0.00225405543018
0.00225317632004
0.00225002439844
0.00223914666792
0.00220528614499
0.00211204609832
0.00188255032139
0.00138195328199
0.00153720524964
0.00231735853476
0.00265310481873
0.00276204046332
0.00279006319116
0.00280856873829
0.00284968646715
0.00291323978022
0.00297111434199
0.00299950325869
0.0030006538233
0.0029897036455
0.00297719286386
0.00296892902206
0.00296234453757
0.0029574769854
0.00295415894264
0.00295201232155
0.00295065229206
0.00294979922595
0.00294926362712
0.00294891363765
0.00294867108564
0.0029484946325
0.00294838372043
0.0029483315443
0.002948312381
0.00294829232472
0.00294833339902
0.00294839487582
0.00294843242166
0.00294833145421
0.00294781582301
0.00294601371116
0.0029396860244
0.00291910535548
0.00285924592596
0.00270441260941
0.00233918661708
0.00151824183477
0.00306497436207
0.00498191548967
0.00573357354681
0.00596748406372
0.00602805041657
0.00608534525538
0.00621721237568
0.0064240920922
0.00663017802163
0.00675896806593
0.00680325983854
0.00680078482458
0.00678258164506
0.00676428536688
0.00675035502581
0.00674100687292
0.00673505679366
0.00673138799095
0.00672917064571
0.00672785985426
0.00672710538016
0.00672667124911
0.00672640755877
0.00672624317637
0.00672618676801
0.0067262431934
0.00672634936159
0.00672643751488
0.00672654717754
0.00672666961489
0.00672669698642
0.00672632258619
0.00672460369836
0.00671857914435
0.00669847327987
0.00663733348576
0.00647148333384
0.00606900419664
0.00516988822622
0.00307301387797
0.00366309715188
0.00630604176102
0.00732954286349
0.00767722156713
0.00778245005275
0.00787027573254
0.00804549918576
0.00830999019434
0.00856748853542
0.00872489213895
0.00877390031595
0.00876335291937
0.00873474993184
0.00870802753584
0.00868888702824
0.00867654059652
0.00866894714229
0.0086643966042
0.00866171597332
0.0086601691139
0.00865929987094
0.00865881388559
0.00865852483789
0.00865834830005
0.00865829378034
0.00865836614468
0.00865849003957
0.00865858673949
0.0086587072255
0.00865883884899
0.00865881521775
0.00865812908553
0.00865522589874
0.00864524464993
0.0086134377813
0.00852146172427
0.0082836143734
0.00773020656307
0.00653297199655
0.00365034156269
0.0039983437418
0.00710564490586
0.00831732077555
0.00874481395478
0.00888707666998
0.00900377610725