/*--------------------------------*- C++ -*----------------------------------*\
| =========                 |                                                 |
| \\      /  F ield         | OpenFOAM: The Open Source CFD Toolbox           |
|  \\    /   O peration     | Version:  3.0.1                                 |
|   \\  /    A nd           | Web:      www.OpenFOAM.org                      |
|    \\/     M anipulation  |                                                 |
\*---------------------------------------------------------------------------*/
FoamFile
{
    version     2.0;
    format      ascii;
    class       volScalarField;
    location    "3.6";
    object      k_0;
}
// * * * * * * * * * * * * * * * * * * * * * * * * * * * * * * * * * * * * * //

dimensions      [0 2 -2 0 0 0 0];

internalField   nonuniform List<scalar> 
15984
(
0.00110234509697
0.00124231308396
0.00130596517355
0.00132185258595
0.00132127231922
0.00132315973594
0.00133021982515
0.00133636732256
0.00133549139979
0.0013266752356
0.00131760537795
0.00130817389067
0.00129962800969
0.00129319828432
0.00128874805603
0.00128583410438
0.00128397847963
0.00128286121562
0.00128220569957
0.00128182688664
0.0012816080364
0.00128147267815
0.00128137509145
0.0012812969292
0.00128123600245
0.0012811800878
0.00128112023016
0.00128105549717
0.00128102707344
0.00128101121249
0.00128098528466
0.00128093199652
0.00128085551385
0.0012806998954
0.00128023016149
0.00127853561964
0.00127250511215
0.00125315454142
0.00119881198213
0.0010774194494
0.00146692639963
0.00198817593205
0.00220070130147
0.00224985669627
0.00225300244151
0.00225940871078
0.00228949167228
0.00233939958447
0.00237846785956
0.00238356827288
0.00236055663986
0.00233424406015
0.00231263840458
0.00229707158664
0.00228697048396
0.00228070359079
0.00227686099178
0.00227454139315
0.00227320170419
0.00227245085435
0.00227203519402
0.0022717945266
0.00227162595306
0.00227148978048
0.00227138385792
0.00227131642613
0.00227124728836
0.00227116938139
0.0022711559882
0.00227118216012
0.00227119127426
0.00227110583986
0.00227081252573
0.0022699568603
0.00226685974236
0.00225608517381
0.00222233805708
0.00212894249936
0.00189834969886
0.00139457638306
0.00163020951422
0.00245898137131
0.00278034958743
0.00285775830262
0.00286725770627
0.00288157026182
0.0029334421828
0.00302203623667
0.00309802488278
0.00311984036237
0.00309623038351
0.00305817248672
0.00302650285012
0.0030043881154
0.00299029079623
0.00298178917552
0.00297673210762
0.0029737406122
0.00297200170971
0.00297103476732
0.00297050195245
0.00297019169758
0.0029699730184
0.00296980080793
0.0029696738998
0.00296960103192
0.00296954382121
0.0029694809516
0.00296949402732
0.00296955103562
0.00296958193401
0.00296945132543
0.00296885720001
0.00296702736452
0.00296074963059
0.00294027656851
0.00288048606831
0.00272523346605
0.00235803232844
0.00153158115673
0.00171277261785
0.00272411610585
0.00310149370519
0.00318510383942
0.00319428537522
0.0032171289234
0.00329597897455
0.00343361256717
0.00356148664973
0.00361339869613
0.0035956464189
0.0035536827752
0.00351423799018
0.00348664966965
0.00346925140905
0.00345886418072
0.00345283005593
0.00344933900819
0.00344733007144
0.00344620979313
0.00344559263225
0.00344523302266
0.00344498048941
0.00344478454776
0.00344464642204
0.00344458004905
0.00344454764403
0.00344450265284
0.0034445405353
0.00344462534984
0.00344466849581
0.00344446839877
0.00344356870672
0.00344063317971
0.00343105129798
0.00340132151823
0.00331871599395
0.00311369513259
0.0026451840902
0.001598110006
0.001757403013
0.00285777226511
0.00324962478987
0.0033591952249
0.00338949212295
0.00342515454227
0.00351687770861
0.00366499300923
0.00385684872065
0.00395141311244
0.00394597253435
0.00390188742642
0.00385695818805
0.00382436524268
0.00380393593398
0.00379182038012
0.00378489480963
0.00378098049316
0.00377876257053
0.00377752055856
0.00377683614923
0.0037764383617
0.00377616490005
0.00377595245196
0.00377581195312
0.00377575746259
0.0037757502612
0.0037757223015
0.00377578471085
0.00377589536958
0.00377593827073
0.00377565730146
0.00377443767328
0.0037704366679
0.00375763445133
0.00371946055446
0.00361728512345
0.00337226485884
0.00282820139365
0.00163297255113
0.00178096147646
0.00290802678861
0.00331851402287
0.00346249862123
0.00349663132316
0.00354117264814
0.00365538942706
0.00383550219436
0.0040381894078
0.00418145081504
0.00419222997108
0.00414804467448
0.00409853383858
0.00406141710682
0.00403808374165
0.00402445266238
0.00401670907835
0.00401242598391
0.00401004453457
0.00400870793274
0.00400796641455
0.00400753590747
0.00400724668854
0.00400702889155
0.00400688943883
0.00400684818963
0.00400686155023
0.0040068509636
0.00400693725469
0.00400706876684
0.00400710709943
0.00400674340605
0.00400521334252
0.00400021684989
0.003984519469
0.00393902948373
0.00382066824102
0.0035442437299
0.00294471214817
0.00165193678089
0.00179208743913
0.00291114220983
0.00335204538365
0.00349905052945
0.00352952647552
0.00358126578215
0.00372024175729
0.00393462454123
0.00414767129733
0.0043341004216
0.00436176229977
0.00431877437842
0.00426554840507
0.00422465065357
0.00419876553187
0.00418378158018
0.00417536769293
0.00417077306132
0.00416825236714
0.00416685398354
0.00416606579121
0.00416560552328
0.00416530458557
0.00416508512411
0.00416494933142
0.00416491966287
0.00416494988131
0.00416495524581
0.00416506296758
0.00416521194777
0.004165244428
0.00416480331105
0.00416299643337
0.00415713433366
0.00413900668172
0.00408754565023
0.0039564356997
0.00365630672127
0.00301733325668
0.00166227424378
0.00179687470753
0.00289598463191
0.00335486240019
0.00349747671088
0.00352040159629
0.00357791332512
0.00374086247659
0.00398700927855
0.00422846114544
0.00443146639357
0.00447343670348
0.00443209369415
0.00437613191902
0.00433230743366
0.00430439608163
0.00428828418312
0.00427939459193
0.00427454772684
0.00427192643537
0.00427047649039
0.00426965298391
0.00426916905569
0.00426885840669
0.00426864069358
0.00426850827149
0.00426848681756
0.00426853124121
0.00426855024344
0.00426867442185
0.00426883836751
0.00426886433345
0.00426835818719
0.00426632683316
0.00425977909313
0.00423977532221
0.00418380549337
0.00404332476009
0.00372635965254
0.00306077925621
0.00166776471913
0.00179915389888
0.00288126337262
0.00334687257747
0.00348418513494
0.00349850535647
0.00356018213273
0.00374293789276
0.00401236504798
0.00427562097037
0.00448882851873
0.00454065923991
0.00450068420789
0.00444295649103
0.00439713050278
0.00436782962812
0.00435093822999
0.00434170756506
0.00433670594419
0.00433401828351
0.00433253550457
0.00433168895534
0.00433118618487
0.00433086952467
0.00433065185653
0.00433052223871
0.00433050687702
0.00433056070293
0.00433058962785
0.00433072628219
0.00433089994117
0.00433092032686
0.00433036737099
0.00432817842802
0.00432115823896
0.00429988473359
0.00424091095165
0.00409430621656
0.00376661928387
0.00308477676656
0.00167050327498
0.00180033321409
0.00287384967185
0.00334072064661
0.00347476550885
0.00348272380961
0.00354672536716
0.00374144350964
0.00402282837539
0.00429718671018
0.00451560697616
0.00457219406007
0.00453289499562
0.00447428229322
0.00442744463831
0.00439744606906
0.00438016746519
0.00437075047621
0.0043656833838
0.00436296442951
0.00436146641931
0.00436060691986
0.00436009331694
0.00435977251027
0.00435955516764
0.00435942653528
0.00435941391768
0.00435947235649
0.00435950659913
0.00435964997856
0.00435982895654
0.00435984521628
0.00435926733747
0.0043569969905
0.00434973626809
0.00432782426521
0.00426735326717
0.00411773155613
0.00378484765334
0.00309533303188
0.00167162306219
0.00180044121866
0.00287427573076
0.00334110277161
0.00347518599638
0.00348328311345
0.00354724621791
0.00374179672423
0.00402308582021
0.00429734652131
0.00451576563275
0.00457218742253
0.00453283692876
0.00447422824632
0.00442740760326
0.00439741991332
0.00438014977451
0.00437074032102
0.00436567637203
0.00436295846065
0.0043614616275
0.00436060245198
0.00436008719867
0.00435976575467
0.00435954746938
0.00435941724259
0.00435940418943
0.00435946241292
0.00435949679966
0.00435964033422
0.00435981859856
0.00435983363858
0.00435925465251
0.00435698356674
0.00434972261388
0.00432781172174
0.00426734213778
0.00411772219987
0.00378484012606
0.00309532752262
0.00167162219553
0.00179944309848
0.00288246778936
0.00334795605317
0.00348536575628
0.00349993956071
0.0035615266111
0.0037439213751
0.00401309444617
0.00427607971766
0.00448927652078
0.00454063693643
0.00450051811774
0.00444280068652
0.00439702001981
0.00436775308609
0.00435088372981
0.00434167385498
0.00433668387227
0.00433400098691
0.00433252158854
0.00433167522857
0.0043311682332
0.00433084907596
0.0043306287994
0.00433049549848
0.0043304784508
0.0043305319143
0.00433056135657
0.00433069829383
0.00433087025606
0.00433088712427
0.00433033087436
0.00432813972437
0.00432111890211
0.0042998485928
0.00424087883608
0.00409427897987
0.00376659705531
0.00308476042519
0.00167050039851
0.0017972628113
0.00289782819558
0.00335655089876
0.00349932134736
0.00352248162678
0.00357985348877
0.00374237446493
0.00398811843186
0.00422915171656
0.00443207771885
0.00447335355667
0.00443181084895
0.0043758769418
0.00433212834569
0.00430427540978
0.0042881940035
0.00427933740155
0.00427450816121
0.00427189701509
0.00427045214738
0.00426962729513
0.00426914037631
0.00426882646663
0.00426860506353
0.00426846697649
0.00426844289253
0.00426848681724
0.00426850666314
0.00426863094518
0.00426879182966
0.00426881274532
0.0042683013072
0.0042662668409
0.004259718082
0.00423971893509
0.00418375490803
0.00404328133528
0.00372632401059
0.00306075256718
0.00166775902852
0.00179246229737
0.00291335137659
0.00335415201749
0.00350137775476
0.00353205596696
0.00358361584763
0.00372212949538
0.0039360009579
0.00414871178313
0.00433469324349
0.00436155774438
0.0043183685727
0.00426520436854
0.00422440992738
0.00419860159749
0.00418366299403
0.00417529333263
0.00417071758112
0.00416821017046
0.00416681974059
0.0041660301694
0.0041655686624
0.00416526470495
0.00416504132471
0.0041648992051
0.00416486563687
0.00416489514658
0.0041649009071
0.00416500806826
0.00416515366531
0.00416518059265
0.00416473279345
0.0041629218141
0.00415705868576
0.0041389364322
0.00408748173805
0.00395637994625
0.00365626030617
0.00301729761259
0.0016622660566
0.00178121168035
0.00291023092226
0.00332091775231
0.00346506367101
0.00349936803843
0.00354370397868
0.00365745643527
0.00383701734195
0.00403989591378
0.00418183549952
0.00419185052183
0.00414751873663
0.00409811904923
0.00406112434816
0.00403788226267
0.00402432459472
0.00401661900605
0.00401235659804
0.00400999005091
0.00400866399836
0.00400792584194
0.00400749557767
0.00400720411741
0.00400698309588
0.00400683786577
0.00400679217159
0.00400680395312
0.00400679284762
0.00400687814855
0.00400700588042
0.00400703786077
0.00400666803024
0.00400513415214
0.00400013647351
0.00398444448601
0.00393895971062
0.00382060595453
0.00354419082507
0.00294467094434
0.00165192600765
0.0017574492735
0.00285961732014
0.00325311602073
0.00336191111742
0.00339238069356
0.00342780424951
0.00351904428125
0.00366688708182
0.00385809556198
0.00395143968329
0.00394539107078
0.00390126716878
0.00385648285484
0.00382403434247
0.003803712034
0.00379168894784
0.00378479677817
0.00378090371828
0.00377870390905
0.00377747303089
0.00377679445356
0.00377639921177
0.00377612531524
0.00377591106693
0.00377576623814
0.00377570787612
0.00377569877388
0.00377566956232
0.00377573086883
0.00377583707049
0.00377587373972
0.00377558737486
0.00377436434047
0.00377036290674
0.00375756476542
0.00371939323548
0.0036172232095
0.00337221131213
0.00282815861022
0.00163296073676
0.0017126004898
0.00272534131399
0.00310419717502
0.00318876385176
0.00319830360233
0.00322074153063
0.0032989429739
0.00343542890309
0.00356209142639
0.0036130416673
0.00359491457403
0.00355300476402
0.00351373674208
0.00348630201436
0.00346905069295
0.00345873456764
0.00345273638942
0.003449266999
0.00344727289404
0.003446164509
0.00344555484388
0.00344519993473
0.00344494949241
0.00344475442508
0.00344461246527
0.00344454283021
0.00344450931493
0.00344446269917
0.00344449995684
0.00344458019948
0.00344461849238
0.00344441387492
0.00344351173259
0.00344057655115
0.00343099459908
0.00340126474062
0.00331866157619
0.00311364677682
0.00264514510111
0.00159809802826
0.00162986407486
0.00245954302379
0.00278206922624
0.00286032794777
0.00287013942704
0.00288412759784
0.00293539663646
0.00302304402339
0.0030980505779
0.00311922394167
0.00309544839094
0.00305751735983
0.00302602280803
0.0030040893428
0.00299010576248
0.00298167483875
0.00297665103851
0.00297367910661
0.00297195513325
0.00297099838149
0.00297047231406
0.00297016806993
0.0029699535813
0.0029697850218
0.00296965468952
0.00296958001101
0.00296952175988
0.00296945847375
0.00296947078036
0.00296952450039
0.00296955212828
0.0029694190666
0.00296882388863
0.00296699087172
0.00296071137068
0.00294023655532
0.00288044499556
0.00272519616448
0.00235800351247
0.00153157360695
0.00146654254368
0.00198821351225
0.00220153670434
0.00225131858423
0.00225471177748
0.00226087053748
0.00229049693655
0.00233974474434
0.00237818030374
0.00238292889284
0.00235989921903
0.00233369604478
0.00231226052881
0.00229683926862
0.00228683045349
0.00228061297443
0.00227679695279
0.00227449625199
0.00227316733086
0.00227242467314
0.00227201521463
0.00227177902618
0.00227161331799
0.00227147983767
0.00227137539208
0.00227130573673
0.00227123768701
0.00227116007016
0.00227114604069
0.00227117149577
0.00227117974923
0.00227109327209
0.00227079676312
0.00226994013061
0.00226684132633
0.00225606553823
0.0022223153397
0.00212892126521
0.00189833624713
0.00139457542915
0.00110217874387
0.00124214648043
0.00130602269877
0.00132214911243
0.00132170142118
0.00132346732249
0.00133033626492
0.0013362557155
0.00133520423333
0.00132632564107
0.00131727335283
0.00130791366758
0.00129945283028
0.00129308964115
0.00128868194684
0.00128579159322
0.001283955038
0.00128285021431
0.00128220185897
0.00128182832467
0.00128161158011
0.00128147634717
0.00128137966017
0.00128130187347
0.0012812404623
0.00128118329508
0.00128112313712
0.00128105730305
0.00128102712695
0.00128101079042
0.00128098409998
0.00128093365768
0.00128085804176
0.0012807038036
0.00128023533694
0.00127854241922
0.00127250988722
0.00125315864684
0.00119881923276
0.00107743051492
0.00141701971335
0.0019131203874
0.00213181351593
0.00219691388329
0.00220904398378
0.00221849839368
0.0022454987445
0.0022861198068
0.0023193807926
0.00233021128045
0.00232297799128
0.00230953713255
0.00229862136996
0.00229049886864
0.00228406174872
0.00227949359022
0.00227644542348
0.00227449005847
0.00227327157749
0.00227252389662
0.00227206637189
0.00227177358195
0.00227156996146
0.00227142144204
0.00227132211942
0.00227126844854
0.00227124059284
0.00227120846152
0.00227122344145
0.00227126541328
0.00227128298451
0.0022712192943
0.0022709516354
0.00227008316335
0.00226696298707
0.00225614537926
0.00222234034808
0.00212891215795
0.00189835207311
0.00139468866279
0.00268531123614
0.00404535988363
0.00458684456256
0.00473712345301
0.00476441881955
0.00479791661871
0.00489397298257
0.00504985107917
0.00520260390924
0.00529041191312
0.00531075750297
0.00529761218859
0.00527530563014
0.00525650048007
0.00524306157933
0.00523427440998
0.00522874955429
0.00522535890051
0.00522332370835
0.00522213739735
0.00522146566571
0.00522108323251
0.00522084695022
0.00522069600881
0.00522063438626
0.00522067175512
0.00522075426767
0.00522083034814
0.00522092712055
0.00522103793939
0.00522109045369
0.00522089724188
0.00521991483682
0.0052165121914
0.00520465335316
0.00516645596645
0.00505671231936
0.00477651184199
0.00412692151483
0.00266401816953
0.00314930653628
0.00510778681782
0.00587375987355
0.00610831486695
0.006164879226
0.00622034760771
0.00635419119009
0.00656540463068
0.00676797883502
0.00688152584283
0.00690376537234
0.00688090472595
0.00684788736628
0.00682073813658
0.00680210144712
0.00679033601293
0.00678317476504
0.00677889868797
0.00677638705236
0.00677495015535
0.00677414926483
0.0067737007572
0.00677342551561
0.00677325107655
0.00677318391968
0.0067732323248
0.00677333437687
0.00677342507465
0.00677354575484
0.00677368201974
0.00677372317429
0.00677335160847
0.00677164341133
0.00676563025266
0.00674562001955
0.00668462802895
0.00651867312417
0.00611478333602
0.00521060628933
0.00309925575836
0.00339597536636
0.00573471557833
0.00665105771038
0.00694104985399
0.00701807539778
0.00709528725024
0.00727038717137
0.00754649795674
0.007811870431
0.00796478049775
0.00799767423492
0.0079699409608
0.00792843517301
0.00789388340122
0.00787058926685
0.00785617364805
0.00784761164903
0.00784262212662
0.00783975086931
0.00783813244337
0.00783723901301
0.00783674239229
0.00783644128978
0.00783625242111
0.00783618260221
0.00783623950744
0.00783635702246
0.00783645969311
0.00783659883335
0.00783675015379
0.00783675992462
0.00783616961474
0.00783362659865
0.00782487011858
0.00779669622241
0.00771432724399
0.00749915786563
0.00699420323414
0.00589536147644
0.0033284337719
0.00353264136333
0.00608973742784
0.00709842829272
0.00742304791338
0.00750919921084
0.00760608314059
0.00783035539593
0.00818229895615
0.00852030828518
0.00872558897632
0.00877718648521
0.00874849910773
0.00870017274942
0.0086589927148
0.00863134767744
0.00861444947722
0.00860459630839
0.0085989782224
0.00859580692395
0.00859404037751
0.00859307086912
0.00859253487818
0.00859221556012
0.00859201934916
0.00859195101174
0.00859201925944
0.00859215456734
0.00859227289414
0.00859243067449
0.0085925927453
0.00859255882877
0.00859172699578
0.00858831260674
0.00857679736321
0.00854082813498
0.00843899554021
0.00818124164382
0.00759339923112
0.00634433191742
0.00345916419349
0.00360557298937
0.00626677614306
0.00732834686042
0.00764786210025
0.00773253204484
0.00784778319783
0.0081256763627
0.00856204985397
0.00899125946664
0.00925587540546
0.00933140653018
0.00930491196138
0.00925118435865
0.00920430373791
0.00917264895789
0.00915347905635
0.00914244688626
0.00913627106695
0.00913284532398
0.00913095443313
0.00912991823459
0.00912934651223
0.00912901251103
0.00912881398506
0.00912875020025
0.00912883153872
0.0091289864872
0.00912912312627
0.00912929973436
0.00912946939791
0.00912938616568
0.0091283108692
0.00912405494985
0.00910996084534
0.00906695263625
0.00894821159819
0.00865491261429
0.00800088902465
0.00663852358441
0.00353625671339
0.0036402883877
0.00633398344869
0.00741106168328
0.00772134354858
0.00779833457157
0.00792939121391
0.00825970672409
0.0087765256993
0.00929660590824
0.00961615309976
0.0097167560232
0.00969442995257
0.00963680438206
0.00958518723711
0.00955005601498
0.00952889591803
0.00951685240751
0.00951020026705
0.00950656084641
0.00950457010362
0.00950347547632
0.00950287040936
0.00950252329063
0.00950232477185
0.00950226678381
0.00950236174511
0.009502536128
0.00950269110638
0.0095028856247
0.0095030605841
0.00950292834913
0.00950162819768
0.00949662180256
0.00948028791592
0.00943132765597
0.00929870641561
0.00897713509948
0.00827239289067
0.00682756719641
0.00358163781744
0.00365411655551
0.00634503201839
0.00742189877431
0.00772115771077
0.00778803555384
0.00793161013822
0.00830691711968
0.00889020745809
0.00948170629384
0.00985003665748
0.00997294145664
0.00995531619329
0.00989514177445
0.00983988562181
0.0098020034279
0.00977923921295
0.00976640357351
0.00975937665602
0.0097555719161
0.00975350154657
0.00975235890168
0.00975172428333
0.00975136524605
0.00975116721483
0.00975111422942
0.00975122152085
0.00975141321974
0.00975158485645
0.0097517944089
0.00975197295166
0.0097517973986
0.00975030973777
0.00974469491466
0.00972658333177
0.0096729946917
0.00952981215963
0.0091872533513
0.00844597793133
0.00694431752485
0.00360756684101
0.00365856696548
0.00633683426266
0.00740971753567
0.00770060632541
0.00775907693409
0.0079112508623
0.00831866541471
0.00894723685327
0.00958687720853
0.00998926114227
0.0101283254553
0.0101145542494
0.0100528885787
0.00999517834458
0.00995541008159
0.00993153079607
0.00991814724839
0.00991086609655
0.00990694889167
0.00990482432946
0.00990364601391
0.00990298765397
0.00990261853914
0.00990241995999
0.00990237006864
0.00990248647444
0.00990269121773
0.00990287587386
0.00990309697614
0.00990327733029
0.00990306898193
0.0099014465348
0.00989540401713
0.00987606323545
0.00981932019367
0.009669050502
0.00931265336506
0.00854782779714
0.00701076783477
0.00362137511925
0.00365976119842
0.00632927463189
0.00739969244761
0.00768653162183
0.00773981122986
0.00789633215968
0.00832091325413
0.00897164316058
0.00963489624844
0.0100542262732
0.0102015010082
0.010189782493
0.0101274149399
0.0100684727588
0.0100277576855
0.0100033145896
0.00998965074435
0.00998224421114
0.009978270601
0.0099761179346
0.00997491925325
0.00997424605151
0.0099738695248
0.00997366924628
0.00997361973695
0.00997374056122
0.00997395253463
0.00997414498209
0.00997437286873
0.0099745538444
0.00997432677858
0.00997263272776
0.00996636894123
0.00994640071334
0.00988806281038
0.00973424192791
0.00937098589295
0.00859464802228
0.00704066146674
0.00362729972995
0.00365994235179
0.00633000180008
0.00740048128267
0.00768728631487
0.00774063814947
0.00789710940719
0.00832155228347
0.00897220266549
0.00963531854665
0.0100544145579
0.010201490621
0.0101897020371
0.0101273381163
0.010068418716
0.0100277190489
0.0100032864313
0.00998963030445
0.00998222810934
0.00997825606377
0.00997610339428
0.00997490299025
0.00997422654272
0.00997384683998
0.00997364358786
0.00997359144033
0.00997371141285
0.00997392390637
0.00997411759585
0.00997434626585
0.00997452637819
0.0099742969056
0.00997260005669
0.00996633415856
0.00994636546155
0.00988802920678
0.00973421159736
0.00937096121235
0.00859462916793
0.00704064839647
0.0036272955026
0.00365906476052
0.00633892478335
0.0074120491981
0.00770287243409
0.00776144761428
0.00791347871372
0.00832055753403
0.00894888004239
0.00958809363902
0.00998980419499
0.0101282944808
0.0101143215868
0.0100526657373
0.00999501719493
0.00995529576574
0.00993144702889
0.00991808653528
0.00991081800514
0.00990690590205
0.00990478147792
0.00990359789346
0.00990293059877
0.00990255238604
0.00990234529346
0.00990228821001
0.00990240204636
0.00990260832156
0.00990279658582
0.00990301988069
0.00990319784209
0.00990298267949
0.00990135217468
0.00989530363624
0.0098759614542
0.00981922318864
0.00966896301887
0.00931258134474
0.00854777253115
0.00701072927388
0.0036213624455
0.0036548232743
0.00634829058515
0.0074257142977
0.00772494782861
0.00779188323228
0.00793519974633
0.00831004836035
0.00889283787431
0.00948353001197
0.0098508078538
0.00997284487106
0.00995492928467
0.00989478116823
0.0098396240185
0.00980181915789
0.00977910342104
0.00976630415828
0.00975929694341
0.00975550103046
0.00975343103151
0.00975228063849
0.00975163416778
0.00975126209901
0.00975105159102
0.00975098781971
0.00975109116815
0.00975128518484
0.00975146210668
0.00975167456784
0.0097518492448
0.0097516634799
0.00975016357669
0.00974453981801
0.0097264260543
0.00967284415653
0.00952967608621
0.0091871391884
0.00844589032182
0.00694425535816
0.00360754580533
0.00364104859696
0.00633803480228
0.00741608731704
0.00772654040873
0.00780363162169
0.00793432483407
0.00826397623009
0.0087799282894
0.00929881302321
0.00961696507808
0.00971652943121
0.00969388799124
0.00963632098736
0.00958483742419
0.00954980978815
0.00952871702899
0.00951671945836
0.00951009149609
0.00950646386935
0.00950447504274
0.00950337239922
0.00950275495859
0.00950239339989
0.00950218073942
0.00950211027336
0.00950220009461
0.00950237687294
0.00950253763311
0.00950273497711
0.00950290514945
0.00950276078395
0.00950144596141
0.0094964288621
0.00948009244573
0.00943114026373
0.00929853498944
0.00897698975294
0.0082722798972
0.00682748539259
0.00358160800203
0.00360622387251
0.00627109477504
0.007334038217
0.00765399646987
0.00773878224518
0.00785359661914
0.00813070919336
0.00856577748792
0.00899357040043
0.00925653666202
0.0093309955693
0.00930422730596
0.00925060143637
0.00920388369241
0.00917235505158
0.00915327060538
0.00914228801778
0.00913613855974
0.00913272712508
0.00913084032347
0.00912979861834
0.00912921621742
0.00912886882189
0.00912865683442
0.00912858085414
0.00912865646211
0.00912881319028
0.00912895495519
0.00912913378277
0.00912929827084
0.00912920223724
0.00912811218262
0.00912384555983
0.009109748781
0.00906674797743
0.00894802286264
0.00865475073732
0.00800076056318
0.00663842994941
0.00353622145035
0.00353306117091
0.00609377226678
0.00710411296021
0.00742942933458
0.00751575733909
0.00761214558225
0.00783552397383
0.00818571594449
0.00852232934155
0.0087259360367
0.00877657324667
0.0087477043646
0.00869952498323
0.00865852876827
0.008631027369
0.00861422597238
0.00860442261787
0.00859883235067
0.00859567738238
0.0085939166259
0.00859294482294
0.00859240149139
0.00859207192602
0.00859186499165
0.00859178630817
0.00859184888112
0.00859198530321
0.00859210752412
0.00859226664249
0.00859242332917
0.0085923776717
0.00859153278394
0.00858810913075
0.00857659166021
0.00854062790544
0.00843880767373
0.00818107795147
0.00759326786442
0.00634423361154
0.0034591260891
0.00339612540678
0.00573804563387
0.00665607352431
0.00694695728302
0.00702409340939
0.00710045789822
0.00727507804757
0.00754967968919
0.00781338793623
0.00796476306347
0.00799690470048
0.00796909406917
0.00792777561397
0.00789341252894
0.00787027355066
0.00785595182504
0.00784743896224
0.00784247707189
0.00783962133934
0.0078380102216
0.00783711759665
0.00783661763425
0.0078363106969
0.00783611543164
0.00783603742734
0.00783608938775
0.00783620746754
0.00783631262184
0.00783645233563
0.00783659880653
0.00783659941758
0.00783599911224
0.00783344936663
0.00782469148816
0.0077965212964
0.00771416105682
0.00749900940707
0.00699408184356
0.00589527064789
0.00332839951274
0.00314923637348
0.00511019093435
0.00587774301404
0.00611322061592
0.00617004402798
0.00622507927564
0.00635811388204
0.00656794833241
0.00676893568429
0.00688122601173
0.00690294545304
0.00688008945121
0.00684726290431
0.00682031031593
0.0068018136389
0.00679013473529
0.00678301896936
0.00677876842093
0.00677627125021
0.00677484173344
0.00677404350537
0.00677359499618
0.00677331813215
0.00677314174923
0.00677306944706
0.00677311376698
0.006773215941
0.00677330805507
0.00677342855145
0.00677356144515
0.00677359692176
0.00677321928852
0.00677150767521
0.00676549471217
0.0067454869509
0.00668449876539
0.00651855313557
0.00611468340151
0.00521053275645
0.00309922967932
0.00268513940006
0.00404677358992
0.00458954570965
0.00474063261347
0.00476822220218
0.00480138353509
0.00489676214861
0.00505156242914
0.00520308604448
0.00529000458918
0.00531003779615
0.00529693821853
0.00527480359163
0.00525616184239
0.00524283361972
0.00523411382579
0.00522862702004
0.00522525864448
0.00522323478907
0.00522205486584
0.00522138638369
0.00522100483938
0.0052207687594
0.00522061760118
0.00522055455677
0.00522058847449
0.00522067128065
0.00522074806149
0.00522084405553
0.00522095483309
0.00522100518028
0.00522080977225
0.00521982835518
0.00521642609547
0.00520456810816
0.00516637136753
0.00505662865886
0.00477644026005
0.00412686852827
0.00266399561484
0.00141686652545
0.00191334808784
0.00213252262231
0.00219802659081
0.00221034352412
0.00221961081948
0.00224625038365
0.00228638438561
0.00231919673479
0.00232978675283
0.00232252753222
0.00230916966335
0.00229836066804
0.00229032580866
0.00228394594761
0.00227941531159
0.00227639203482
0.00227445063595
0.00227323918173
0.00227249488803
0.00227203800321
0.00227174327948
0.00227153834459
0.00227138787453
0.00227128631478
0.0022712298435
0.00227120060651
0.00227116881718
0.00227118292464
0.00227122896144
0.00227124607887
0.00227118178077
0.00227091591764
0.00227004869145
0.00226692772381
0.00225610957585
0.00222229838738
0.00212887316885
0.00189832127976
0.0013946797788
0.00155077017585
0.00233639934855
0.00267417831613
0.00278368599921
0.00281177980067
0.00283020219823
0.00287115766178
0.0029345040033
0.00299215675165
0.00302035724738
0.00302141760751
0.00301047125086
0.00299800523367
0.00298978203456
0.00298323763408
0.00297840143995
0.00297510614924
0.00297297564938
0.00297162753923
0.00297078348547
0.00297025427467
0.00296990814839
0.00296966736909
0.00296949118317
0.00296937923843
0.0029693252335
0.00296930505208
0.00296928505151
0.00296932271791
0.00296938153306
0.00296941729276
0.00296931730765
0.00296881009551
0.00296703080956
0.00296075668155
0.00294026389975
0.00288043327926
0.00272518184763
0.00235809712842
0.00153188204427
0.00309157080336
0.00502334466467
0.00578036423929
0.00601592436472
0.00607677716787
0.00613390838472
0.00626543745373
0.00647191673477
0.00667752199256
0.0068058151875
0.00684979124183
0.00684723831422
0.00682909393485
0.00681089007467
0.00679703758299
0.00678774370696
0.00678182908394
0.00677818339549
0.00677598240882
0.00677468402624
0.00677393857159
0.0067735102089
0.00677324952732
0.00677308588511
0.00677302767468
0.00677308043085
0.00677318397703
0.00677327369426
0.00677338566187
0.0067735111281
0.00677354353232
0.00677318137905
0.0067714944163
0.00676553965975
0.0067455725233
0.00668461023109
0.00651866870522
0.0061148288735
0.00521077042751
0.00309963517977
0.00369392441688
0.00635763409567
0.00738845927552
0.00773855153298
0.0078442624331
0.00793190298864
0.00810667338405
0.00837062377115
0.00862746036167
0.00878417742412
0.00883273040903
0.00882205217891
0.00879351608763
0.00876691362346
0.00874787519895
0.00873559883923
0.00872804973703
0.00872352716367
0.00872086578106
0.00871933334292
0.00871847444763
0.00871799493216
0.00871770901448
0.00871753281971
0.00871747559862
0.00871754309399
0.00871766355342
0.00871776205771
0.00871788614837
0.00871802238194
0.00871800662852
0.00871733963602
0.0087144839751
0.00870460717906
0.00867298933916
0.00858121365131
0.00834311826814
0.00778768470173
0.00658371007974
0.00368113599376
0.00403119491359
0.0071632781823
0.00838368163267
0.00881409118876
0.0089569010891
0.00907343782964