/*--------------------------------*- C++ -*----------------------------------*\
| =========                 |                                                 |
| \\      /  F ield         | OpenFOAM: The Open Source CFD Toolbox           |
|  \\    /   O peration     | Version:  3.0.1                                 |
|   \\  /    A nd           | Web:      www.OpenFOAM.org                      |
|    \\/     M anipulation  |                                                 |
\*---------------------------------------------------------------------------*/
FoamFile
{
    version     2.0;
    format      ascii;
    class       volVectorField;
    location    "3.6";
    object      U;
}
// * * * * * * * * * * * * * * * * * * * * * * * * * * * * * * * * * * * * * //

dimensions      [0 1 -1 0 0 0 0];

internalField   nonuniform List<vector> 
15984
(
(0.00152251857668 0.00031493512196 -0.00108802930721)
(0.00452749003234 0.00020760390094 -0.000904243883612)
(0.0062234354257 0.000761855300877 -0.000777314802495)
(0.00481641018948 0.00143320966118 -0.000672900516154)
(0.00127730737532 0.00183853889786 -0.000652944307442)
(-0.00301798278955 0.00187241987648 -0.000601128587327)
(-0.00710798547921 0.00150551035557 -0.000523612475093)
(-0.00952771920971 0.000850851677403 -0.000446298841593)
(-0.00977574048202 0.000188752549573 -0.000361185881695)
(-0.0082719330994 -0.000240236573589 -0.000272593458871)
(-0.00633834067584 -0.000344026552953 -0.000185374660587)
(-0.0045578991684 -0.000307930020247 -0.000125674952372)
(-0.00318146192806 -0.000235169918484 -8.25455943254e-05)
(-0.00221727651875 -0.000162441224282 -5.6684240755e-05)
(-0.00156425827948 -0.000106947776453 -4.1740555438e-05)
(-0.00112598649594 -6.91863184382e-05 -3.19140129599e-05)
(-0.000829645236812 -4.53292431332e-05 -2.39960954813e-05)
(-0.000626488296576 -3.00988417191e-05 -1.79261703258e-05)
(-0.000484281623427 -2.07430770393e-05 -1.30015685946e-05)
(-0.000383144727269 -1.51858334414e-05 -9.01256934348e-06)
(-0.000309689192781 -1.19442879617e-05 -6.06276930016e-06)
(-0.000254169158372 -1.00310547724e-05 -3.97911470877e-06)
(-0.000209536529375 -8.93332034598e-06 -2.70075347816e-06)
(-0.000171196623193 -8.2840885095e-06 -2.20456288244e-06)
(-0.000134209420883 -8.29612292965e-06 -2.51637630073e-06)
(-9.37786368318e-05 -8.39319790066e-06 -3.75198553049e-06)
(-4.77357513084e-05 -8.62488598738e-06 -4.80610952119e-06)
(2.01871026927e-06 -8.87640130967e-06 -4.57616982684e-06)
(5.01859340746e-05 -9.40537922647e-06 -3.9487814021e-06)
(9.45777214473e-05 -9.73897854138e-06 -2.89264562017e-06)
(0.000136053062515 -9.90439106698e-06 -1.62448067531e-06)
(0.000172228132837 -9.74130676378e-06 4.66007793634e-07)
(0.000197565442177 -9.04041245974e-06 3.88108418294e-06)
(0.000206805156225 -8.27425379109e-06 6.7350317227e-06)
(0.000201239727756 -7.40830645567e-06 9.49204497931e-06)
(0.00018444890718 -6.73893887386e-06 1.17047550771e-05)
(0.000158719889535 -5.81650132788e-06 1.26745476633e-05)
(0.000125908167019 -5.08233661442e-06 1.42991688604e-05)
(8.51586627673e-05 -5.26387577567e-06 1.67602482039e-05)
(3.62963365998e-05 -7.29342673431e-06 2.28259614318e-05)
(0.00126312839925 0.00168172291643 -0.00184693106298)
(0.0047590134609 0.00219610274646 -0.00261758239246)
(0.00668024675385 0.0041846062642 -0.00293385408295)
(0.00519917900542 0.00616296093766 -0.00300577217529)
(0.00143321188911 0.00725782632029 -0.00306624746448)
(-0.00310098337947 0.00730960125341 -0.00298334774962)
(-0.00740336809544 0.00627980205115 -0.00276113403402)
(-0.0099957599107 0.00434773225452 -0.00245076170641)
(-0.0101131934091 0.00214847412664 -0.00197976132314)
(-0.00841869869417 0.000589266098678 -0.00141997230749)
(-0.00632497894677 -0.000148496062782 -0.000911511488325)
(-0.00449044854318 -0.00038178859401 -0.000543577147697)
(-0.00311276179602 -0.000381636705006 -0.000314067818446)
(-0.00216375503743 -0.00030209723135 -0.000177734369969)
(-0.00152891793999 -0.000214263698887 -0.000104200119031)
(-0.00110490703153 -0.000144599198687 -6.44131575102e-05)
(-0.000818018218818 -9.67602933328e-05 -4.13072586902e-05)
(-0.000620693212313 -6.56068274748e-05 -2.71780941976e-05)
(-0.000482231420227 -4.61911606875e-05 -1.80880837719e-05)
(-0.000383338140618 -3.43373158612e-05 -1.20620741729e-05)
(-0.00031103416016 -2.71664281012e-05 -8.3143375628e-06)
(-0.000255943812881 -2.28466362271e-05 -6.06217975427e-06)
(-0.000211399825559 -2.0454138199e-05 -4.70501425091e-06)
(-0.000173146268132 -1.92222651685e-05 -4.01518256943e-06)
(-0.000136340155731 -1.91199840098e-05 -4.25775165878e-06)
(-9.58981052945e-05 -1.94962415775e-05 -5.71292402255e-06)
(-4.95657227797e-05 -2.02459236921e-05 -6.7822506769e-06)
(3.85854054685e-07 -2.10603143369e-05 -6.32717798683e-06)
(4.87740096085e-05 -2.2129605146e-05 -5.58441692553e-06)
(9.36923832225e-05 -2.3063674438e-05 -4.61514955262e-06)
(0.000135994964293 -2.34390716679e-05 -3.39235888503e-06)
(0.000173381213815 -2.30528296144e-05 -1.10492212651e-06)
(0.000199641471664 -2.15997791618e-05 3.06639290458e-06)
(0.000209231612907 -2.01276253982e-05 6.9384522911e-06)
(0.000203545399247 -1.81826912077e-05 1.02984509619e-05)
(0.000186437636271 -1.66338301633e-05 1.30462858628e-05)
(0.000160245852494 -1.47757677936e-05 1.45075149103e-05)
(0.000126856385279 -1.32665400981e-05 1.68187412124e-05)
(8.51644423565e-05 -1.3334894312e-05 1.97027899504e-05)
(3.38910529149e-05 -1.61012057504e-05 2.30028482724e-05)
(0.00141804441597 0.00368055164357 -0.00197884515475)
(0.00561016997922 0.0053083348707 -0.00308816519008)
(0.00779807486934 0.00889643491735 -0.0031765125744)
(0.00601389446658 0.012221907964 -0.00299981357678)
(0.00173556938368 0.0139917839978 -0.0029631983473)
(-0.00332487931359 0.0140399062006 -0.00286955022793)
(-0.00812675084825 0.0122981600714 -0.00271201908432)
(-0.0110416996455 0.00899286409466 -0.00258794290233)
(-0.0110383007767 0.00515226612407 -0.00231979781076)
(-0.00898576638221 0.00223732347296 -0.00181057096852)
(-0.00654701602064 0.000609922566656 -0.00121080592163)
(-0.00451256935214 -0.000112139709827 -0.000732488596205)
(-0.00305546394151 -0.000327965254194 -0.000420032015939)
(-0.00209031876415 -0.00032987852087 -0.000238035393349)
(-0.00146491424539 -0.000261290801414 -0.000135891570608)
(-0.00105762028931 -0.000187392396903 -8.18314921659e-05)
(-0.000785677678579 -0.000130025219092 -5.205826893e-05)
(-0.000599176621439 -9.07926348434e-05 -3.46651281744e-05)
(-0.000467821636098 -6.54570639511e-05 -2.3727815015e-05)
(-0.000373415881359 -4.93371564831e-05 -1.68998844011e-05)
(-0.000303867145489 -3.91001371366e-05 -1.27120237174e-05)
(-0.000250522696397 -3.26858947485e-05 -1.02704958561e-05)
(-0.000207167009428 -2.90825760371e-05 -8.73351957813e-06)
(-0.000169791920512 -2.73829893657e-05 -7.99546807787e-06)
(-0.000133728129061 -2.71001873563e-05 -8.33535344433e-06)
(-9.38414709114e-05 -2.77038954975e-05 -9.76470919929e-06)
(-4.78436899277e-05 -2.89572121672e-05 -1.09005363081e-05)
(1.83439923748e-06 -3.04015124025e-05 -1.03169930482e-05)
(4.99425045439e-05 -3.20007796032e-05 -9.71343441142e-06)
(9.48367848261e-05 -3.34444255862e-05 -8.89599826648e-06)
(0.00013745539684 -3.39915405537e-05 -7.80461833778e-06)
(0.000175368370388 -3.34771198124e-05 -5.43862600988e-06)
(0.000201791418118 -3.17437752773e-05 -9.16739315927e-07)
(0.000211286933412 -3.01339251795e-05 3.48708080064e-06)
(0.000205314361597 -2.7698688336e-05 7.124157689e-06)
(0.000187628676051 -2.55580079545e-05 9.99822900638e-06)
(0.000160832739373 -2.35188977914e-05 1.18533454635e-05)
(0.000126632526058 -2.17854879999e-05 1.44216812067e-05)
(8.35831580684e-05 -2.19044703289e-05 1.7019654858e-05)
(3.25785909209e-05 -2.39117929751e-05 1.7801526886e-05)
(0.00193261301128 0.00521807297617 -0.00196491383145)
(0.00718085082358 0.0077621175764 -0.00288381817984)
(0.00967078742487 0.0125335941214 -0.00228680891385)
(0.00735561861893 0.0167791387095 -0.00151053139593)
(0.00221217927983 0.0190068452028 -0.00122557965805)
(-0.00373448844798 0.0190517188885 -0.00112595909966)
(-0.00938492820318 0.0168095148914 -0.00120769270409)
(-0.0128207294285 0.0125332037901 -0.00161599675301)
(-0.0126975182092 0.0074874623452 -0.00193862065842)
(-0.0100879861336 0.00356662938132 -0.00179470195124)
(-0.00709816807128 0.00128080863589 -0.00130305935968)
(-0.00471066907263 0.000178313940838 -0.000821963692489)
(-0.00307708754678 -0.00022498488974 -0.000482933638658)
(-0.00204859125432 -0.000306700927286 -0.000277140175798)
(-0.00141135716758 -0.000268211893938 -0.000159916865047)
(-0.00101209998848 -0.00020138079453 -9.56300733277e-05)
(-0.000752726492834 -0.00014291121227 -6.10164978392e-05)
(-0.000576880409441 -0.000100856783895 -4.12909699648e-05)
(-0.000452983143904 -7.29436188511e-05 -2.92952325906e-05)
(-0.000363371646439 -5.46605657462e-05 -2.17524787717e-05)
(-0.000296890505389 -4.26776874121e-05 -1.70965865626e-05)
(-0.000245613397926 -3.50070738543e-05 -1.43288978388e-05)
(-0.000203739178073 -3.06273586512e-05 -1.26386050543e-05)
(-0.000167424271523 -2.8640805132e-05 -1.183962313e-05)
(-0.000132192572322 -2.82537795409e-05 -1.21946564757e-05)
(-9.29351100061e-05 -2.91158781446e-05 -1.37157173541e-05)
(-4.7279890854e-05 -3.07897186039e-05 -1.50447441623e-05)
(2.15436590838e-06 -3.27192519177e-05 -1.45705835634e-05)
(5.0115059701e-05 -3.48813659476e-05 -1.4182283874e-05)
(9.51971661573e-05 -3.66342070907e-05 -1.3557016655e-05)
(0.000138289579182 -3.73030347904e-05 -1.25990424887e-05)
(0.000176806067391 -3.67158071599e-05 -1.0179274724e-05)
(0.000203454118684 -3.49075696679e-05 -5.47579735949e-06)
(0.00021296909559 -3.30790542682e-05 -6.13559235978e-07)
(0.000206895534162 -3.05408033916e-05 3.17631995171e-06)
(0.000188824972449 -2.81112090635e-05 6.17073734376e-06)
(0.000161622417282 -2.59191290227e-05 8.29060064216e-06)
(0.000126841628659 -2.39667843603e-05 1.09781241182e-05)
(8.30628413749e-05 -2.35753849415e-05 1.33633432107e-05)
(3.24080803201e-05 -2.34363681801e-05 1.40678198804e-05)
(0.0027096679714 0.00616845950339 -0.00196953061993)
(0.00924212406539 0.00921697424539 -0.00244698957053)
(0.0120392375191 0.0145506404811 -0.000936417956501)
(0.00905790530046 0.0191265994248 0.000609669975782)
(0.00282112281338 0.021522337136 0.00124250681819)
(-0.00429125045851 0.0215642566384 0.0013365903774)
(-0.0110143078235 0.0191010779164 0.000900370055567)
(-0.0150763532248 0.0144339893745 -0.000216085122155)
(-0.0148380409991 0.00883028592499 -0.00131431260221)
(-0.0115657233317 0.00441120634814 -0.00165842483745)
(-0.00789895606184 0.0017662702056 -0.0013379383358)
(-0.0050549151911 0.000431727754979 -0.000889510531265)
(-0.00317562060214 -0.000104729094162 -0.000534816556636)
(-0.00204301280096 -0.000252854935821 -0.000308459451086)
(-0.00137392954794 -0.000244979609264 -0.000179524468382)
(-0.000973155432361 -0.000192355322572 -0.000106604157875)
(-0.000722325894949 -0.000138986746693 -6.74478152259e-05)
(-0.000555710266378 -9.8747750113e-05 -4.58792356305e-05)
(-0.000438732747067 -7.13850630716e-05 -3.30126688284e-05)
(-0.000353693365389 -5.30579796659e-05 -2.48463285181e-05)
(-0.000290231250405 -4.07229196875e-05 -1.97616819478e-05)
(-0.00024109450501 -3.27003429498e-05 -1.66868712055e-05)
(-0.000200823486524 -2.80801812307e-05 -1.48765610767e-05)
(-0.000165651221831 -2.6051766342e-05 -1.40451007131e-05)
(-0.000131291104063 -2.56662347396e-05 -1.44359046708e-05)
(-9.27013831893e-05 -2.66710515433e-05 -1.61018072151e-05)
(-4.73977358072e-05 -2.85541692027e-05 -1.76493552672e-05)
(1.80657891751e-06 -3.0738825549e-05 -1.73894100614e-05)
(4.97169273013e-05 -3.31577908342e-05 -1.72216524937e-05)
(9.512715369e-05 -3.50234453924e-05 -1.68248538766e-05)
(0.00013879375479 -3.57271511137e-05 -1.59716520358e-05)
(0.000177937891358 -3.50967183197e-05 -1.34791835176e-05)
(0.00020488347751 -3.3356208435e-05 -8.64034619421e-06)
(0.000214471807036 -3.14202216702e-05 -3.54815602194e-06)
(0.00020838007108 -2.89799886604e-05 5.51578750985e-07)
(0.000190083891642 -2.6520736471e-05 3.63226657079e-06)
(0.000162649011221 -2.43708327786e-05 5.92875234154e-06)
(0.000127550849963 -2.23091008891e-05 8.69599705858e-06)
(8.36517318871e-05 -2.15606818781e-05 1.11555609143e-05)
(3.29253387901e-05 -2.00585604672e-05 1.29582137718e-05)
(0.00360015012961 0.00636604474243 -0.00199090781676)
(0.0114542398522 0.00944255114242 -0.00195655239553)
(0.0145271569779 0.0146462806707 0.000478424725893)
(0.0108154119754 0.0188583204569 0.00272657556869)
(0.00343288688828 0.0210671838946 0.00362699985224)
(-0.00485707563215 0.0211149987938 0.00371519173669)
(-0.0127030462249 0.0188143794929 0.00298324048514)
(-0.0174243945428 0.0144334434033 0.00122449535678)
(-0.0171346380276 0.00900429332465 -0.000647603880319)
(-0.0131900849532 0.00464051405431 -0.00149849464493)
(-0.00882196471945 0.00197450901814 -0.00135629186523)
(-0.00548350199087 0.000583613683754 -0.000946274518781)
(-0.00332438570453 -4.33621402509e-06 -0.000580685930776)
(-0.00206500167361 -0.00019004876114 -0.00033604038383)
(-0.00135136010404 -0.000205232320683 -0.000193500214268)
(-0.000942407273342 -0.000167690619977 -0.000115002081131)
(-0.000696126403739 -0.000123273811386 -7.13946829826e-05)
(-0.000536892895099 -8.79217270701e-05 -4.82607894862e-05)
(-0.000425879121393 -6.33446620219e-05 -3.49792446741e-05)
(-0.000344849073461 -4.66959544262e-05 -2.63763329587e-05)
(-0.000284111540399 -3.51906515298e-05 -2.08870116047e-05)
(-0.00023700573967 -2.75901334815e-05 -1.7541878463e-05)
(-0.00019831469558 -2.3204076909e-05 -1.5622858171e-05)
(-0.000164271946217 -2.1334104197e-05 -1.47927745693e-05)
(-0.000130750550486 -2.10151188599e-05 -1.5246088741e-05)
(-9.281008877e-05 -2.20347998775e-05 -1.70542278402e-05)
(-4.78572060813e-05 -2.39138070224e-05 -1.88304937434e-05)
(1.15163477261e-06 -2.61057531216e-05 -1.87953114012e-05)
(4.90756343718e-05 -2.8462654417e-05 -1.88479725607e-05)
(9.48626879206e-05 -3.025835176e-05 -1.86611311258e-05)
(0.000139129656866 -3.09245096134e-05 -1.78890926689e-05)
(0.000178873518204 -3.02969613862e-05 -1.53223641045e-05)
(0.000206123389708 -2.87182707224e-05 -1.03550039401e-05)
(0.000215822552403 -2.68875430727e-05 -5.09381060397e-06)
(0.000209755130725 -2.46375493883e-05 -7.42831401619e-07)
(0.000191312660091 -2.23811103404e-05 2.37763704451e-06)
(0.000163779574314 -2.0415257361e-05 4.82931803912e-06)
(0.000128532727394 -1.84027735358e-05 7.66090832878e-06)
(8.47915430109e-05 -1.7515486191e-05 1.03469119252e-05)
(3.36856182743e-05 -1.55252787027e-05 1.31378222405e-05)
(0.00443518383244 0.00580413061572 -0.00201781914296)
(0.0134733094152 0.00847466821204 -0.00152326652792)
(0.0167337122016 0.0129873434655 0.00168596036297)
(0.012401259065 0.0164654770887 0.00440445592309)
(0.00397287903971 0.0183384656739 0.00551629817473)
(-0.0053452733834 0.01839377505 0.00560584261627)
(-0.0142128147864 0.0164391032937 0.00464100900432)
(-0.0195170984032 0.0127535974073 0.00243206394385)
(-0.0192698194005 0.00807248457029 -6.31607970234e-05)
(-0.0147295805577 0.00426004913327 -0.00135502651962)
(-0.00972999964115 0.00188657288344 -0.00136844099884)
(-0.00592512685567 0.000615955965834 -0.000993270099463)
(-0.00349232461116 5.92174953151e-05 -0.000619712956147)
(-0.00210339388451 -0.000130077705241 -0.000358888207853)
(-0.0013405186931 -0.000158577395067 -0.000204351781866)
(-0.000919752940206 -0.000133710033024 -0.000120164570841)
(-0.000675232763987 -0.000100150167061 -7.36140522657e-05)
(-0.000521256888059 -7.15852291388e-05 -4.92071726766e-05)
(-0.000415068967659 -5.1348530794e-05 -3.54238879043e-05)
(-0.000337353533515 -3.75062933592e-05 -2.68425817331e-05)
(-0.000278851585196 -2.77697020109e-05 -2.10570665886e-05)
(-0.000233511285282 -2.12412011588e-05 -1.74374933165e-05)
(-0.000196246855159 -1.74759258355e-05 -1.54249706114e-05)
(-0.000163223537433 -1.59146444875e-05 -1.46252354124e-05)
(-0.000130445063756 -1.56762149852e-05 -1.51458047614e-05)
(-9.30832602813e-05 -1.66011376358e-05 -1.70892233588e-05)
(-4.8447654562e-05 -1.82779765578e-05 -1.9055381479e-05)
(4.07814298534e-07 -2.02429383451e-05 -1.92110603144e-05)
(4.83790707029e-05 -2.22781505219e-05 -1.94755997685e-05)
(9.45298382477e-05 -2.38447148893e-05 -1.94554154916e-05)
(0.000139362348585 -2.44048350535e-05 -1.87605768574e-05)
(0.000179637953773 -2.38269950967e-05 -1.61107231855e-05)
(0.00020715862772 -2.24855866626e-05 -1.10400091581e-05)
(0.000216981491315 -2.09183518999e-05 -5.61791596043e-06)
(0.000210950734115 -1.89874634986e-05 -1.09909230995e-06)
(0.000192407450233 -1.70942749312e-05 2.07259047347e-06)
(0.000164858918062 -1.54419205273e-05 4.6029366634e-06)
(0.000129540115032 -1.36885483287e-05 7.47976393207e-06)
(8.59761744079e-05 -1.27968210749e-05 1.04279602369e-05)
(3.44025911235e-05 -1.09111895169e-05 1.37231749751e-05)
(0.00513650840953 0.00458416918091 -0.0020560410269)
(0.0150791433607 0.00656342596916 -0.00124105798799)
(0.0184634444471 0.00999256191171 0.00253075380974)
(0.0137442605752 0.0124492596375 0.00551697404226)
(0.00445142082312 0.0138500236015 0.00666373895323)
(-0.00575626041077 0.0139058667545 0.00675306572989)
(-0.0154543043153 0.0124577334004 0.0057650980332)
(-0.0211604856285 0.00979437195388 0.00327104938846)
(-0.0209951370305 0.00626839055239 0.000355984553539)
(-0.0159977190727 0.00337337884166 -0.0012509464182)
(-0.0105043455579 0.00153614692532 -0.00137820528645)
(-0.00631456479981 0.000531905937158 -0.00102924037765)
(-0.00364854528571 8.0148228476e-05 -0.000649584212476)
(-0.00214559330689 -8.02041054901e-05 -0.000376118324092)
(-0.00133737852655 -0.00011074544155 -0.000212282717479)
(-0.000904375320552 -9.58082336564e-05 -0.000122407936792)
(-0.000659975243706 -7.27720153978e-05 -7.50555780906e-05)
(-0.000509354126415 -5.21201899845e-05 -4.93053989537e-05)
(-0.000406723479999 -3.72454948072e-05 -3.53447803167e-05)
(-0.000331499471552 -2.69327516741e-05 -2.66477802707e-05)
(-0.000274726330891 -1.96242990958e-05 -2.06813687448e-05)
(-0.000230776756035 -1.46651647378e-05 -1.68701045097e-05)
(-0.000194671673694 -1.18126389703e-05 -1.47914963753e-05)
(-0.000162474861206 -1.06666615277e-05 -1.40296322044e-05)
(-0.000130290865187 -1.05091498891e-05 -1.46061999795e-05)
(-9.33969226901e-05 -1.12407201023e-05 -1.6656141472e-05)
(-4.9021835791e-05 -1.25512987916e-05 -1.87837579717e-05)
(-2.67009111281e-07 -1.40894331981e-05 -1.9093359156e-05)
(4.77625320417e-05 -1.56211601803e-05 -1.95071956544e-05)
(9.42166614529e-05 -1.68121329853e-05 -1.96481973987e-05)
(0.000139528206455 -1.72086407143e-05 -1.90007096208e-05)
(0.000180232591879 -1.67303938482e-05 -1.62760600706e-05)
(0.00020796463241 -1.56940612825e-05 -1.11090188611e-05)
(0.00021789811918 -1.45076207726e-05 -5.56034708474e-06)
(0.000211906208295 -1.30203637217e-05 -9.57366367462e-07)
(0.000193283981636 -1.1610387803e-05 2.24603194856e-06)
(0.000165740783933 -1.03777416686e-05 4.85384735411e-06)
(0.000130398063553 -9.0498024704e-06 7.78318144e-06)
(8.69400701219e-05 -8.24604187216e-06 1.08927044654e-05)
(3.4923920617e-05 -6.66893304489e-06 1.43033039558e-05)
(0.00563036760761 0.002889630438 -0.00210255202007)
(0.0161580379952 0.00407039233985 -0.00112874351958)
(0.0196380326759 0.00616775761848 0.00296624217281)
(0.01467213248 0.00756992571587 0.00603515608261)
(0.00479073033275 0.00841804009361 0.00704344872361)
(-0.00602943275983 0.00845986036449 0.00713753502089)
(-0.0162988110788 0.00759736927417 0.0063046672989)
(-0.0222402779999 0.00605450402633 0.00371931011972)
(-0.0221775244228 0.00391164912171 0.000593866872198)
(-0.0168788800366 0.00213440603647 -0.00119257964425)
(-0.0110589034432 0.000988954175675 -0.0013864051358)
(-0.0066002181407 0.000353617646062 -0.00105327961357)
(-0.00376700066173 6.3047859662e-05 -0.000669304196505)
(-0.00218039342521 -4.26155679384e-05 -0.000387282996073)
(-0.00133794319238 -6.48768353542e-05 -0.000217191126066)
(-0.000894967453504 -5.71174599213e-05 -0.000123622677472)
(-0.000650052163843 -4.34850745928e-05 -7.52026501707e-05)
(-0.000501449832098 -3.11765023216e-05 -4.90389168546e-05)
(-0.000401104500927 -2.21407212824e-05 -3.4980719694e-05)
(-0.00032753671064 -1.58685824194e-05 -2.62413788783e-05)
(-0.000271913080473 -1.13943002844e-05 -2.02313954262e-05)
(-0.000228914477161 -8.34548195489e-06 -1.62722325444e-05)
(-0.000193625229205 -6.61164452172e-06 -1.41294638692e-05)
(-0.000162004162737 -5.94960311695e-06 -1.34177907232e-05)
(-0.000130225395358 -5.87294108685e-06 -1.40242313187e-05)
(-9.36551293276e-05 -6.33670166769e-06 -1.61445683448e-05)
(-4.9460679985e-05 -7.15301534509e-06 -1.83796797398e-05)
(-7.63646966021e-07 -8.10565343635e-06 -1.8791556534e-05)
(4.73211611694e-05 -9.02298982298e-06 -1.93328532913e-05)
(9.39951623635e-05 -9.72526135875e-06 -1.9562990591e-05)
(0.000139646847052 -9.9192295719e-06 -1.8946841979e-05)
(0.000180647529971 -9.57912600399e-06 -1.6165763991e-05)
(0.000208517545904 -8.91262064193e-06 -1.09271030096e-05)
(0.000218531462522 -8.18104829271e-06 -5.29308353497e-06)
(0.000212563962921 -7.25501379989e-06 -6.55608334763e-07)
(0.000193880363768 -6.41078971642e-06 2.58975632543e-06)
(0.000166346420077 -5.66736204282e-06 5.23524278588e-06)
(0.000130993781302 -4.84418427065e-06 8.21360190228e-06)
(8.75758357944e-05 -4.23384361955e-06 1.1412238294e-05)
(3.52264472863e-05 -2.90467145295e-06 1.47283939277e-05)
(0.00588006588983 0.0009397701866 -0.00213658763678)
(0.016686577313 0.00132150877773 -0.00111281229168)
(0.0202445359624 0.00200869232003 0.00310192633178)
(0.0151211548473 0.0024577925094 0.00617496439938)
(0.00494597850453 0.00272621101258 0.00714962714817)
(-0.00614674923119 0.00274330229549 0.00724939274393)
(-0.0167167041553 0.00247370944913 0.00646066532424)
(-0.0227584760571 0.00198249317773 0.00388185690745)
(-0.0227671318703 0.0012826550466 0.000692963692318)
(-0.0173214842893 0.000700198339147 -0.00116996851734)
(-0.0113428933421 0.000324292860077 -0.00139157318876)
(-0.00674840736785 0.000115332239519 -0.00106523405598)
(-0.00382940053782 1.97899544355e-05 -0.000678881943196)
(-0.00219928151164 -1.46477775377e-05 -0.000392594388326)
(-0.00133880613066 -2.15457073924e-05 -0.000219366816038)
(-0.000890416667525 -1.86264051314e-05 -0.000124157648209)
(-0.000645131532447 -1.3879331595e-05 -7.48128733645e-05)
(-0.000497538332043 -9.74468662864e-06 -4.87593768281e-05)
(-0.000398305265627 -6.73226113431e-06 -3.46984672388e-05)
(-0.000325566659772 -4.70168282964e-06 -2.5985189804e-05)
(-0.000270518581582 -3.29121591743e-06 -1.99243302062e-05)
(-0.000228003978232 -2.35885526855e-06 -1.58906420647e-05)
(-0.000193131549968 -1.87432250294e-06 -1.37151891835e-05)
(-0.000161794482777 -1.72632969019e-06 -1.30471078159e-05)
(-0.000130207461229 -1.72470477055e-06 -1.36746680507e-05)
(-9.37921248872e-05 -1.87828272188e-06 -1.58209341838e-05)
(-4.96827954954e-05 -2.12649013677e-06 -1.8104753017e-05)
(-1.004972274e-06 -2.39525173924e-06 -1.85663173144e-05)
(4.71165273256e-05 -2.6283438642e-06 -1.91698485274e-05)
(9.39081770732e-05 -2.77502752077e-06 -1.94577690978e-05)
(0.000139733490107 -2.74994991655e-06 -1.88404137133e-05)
(0.000180874170533 -2.57220956954e-06 -1.60279015321e-05)
(0.00020880082393 -2.32028859832e-06 -1.07490259004e-05)
(0.000218846420523 -2.08311045031e-06 -5.07106915552e-06)
(0.000212885193817 -1.80301519524e-06 -4.14078433793e-07)
(0.000194163465227 -1.57021350253e-06 2.84605910744e-06)
(0.000166628803313 -1.35978812554e-06 5.52252243981e-06)
(0.000131264492673 -1.08695134001e-06 8.52067298989e-06)
(8.78550227575e-05 -7.25442885215e-07 1.17381587571e-05)
(3.53444546255e-05 4.82695020672e-07 1.49655177577e-05)
(0.005877184534 -0.00108586246677 -0.00213771347168)
(0.0166807917589 -0.00148977494827 -0.00111465877188)
(0.020237620455 -0.00221031478262 0.00309965199736)
(0.0151151996799 -0.00267630969775 0.00617395068942)
(0.00494451726453 -0.00295514553089 0.00714654418904)
(-0.00614342011655 -0.00296694379844 0.00724602784487)
(-0.0167093891373 -0.00268083050243 0.00645735348071)
(-0.0227499802402 -0.00216409166557 0.00387757898695)
(-0.0227557568685 -0.00142292911357 0.00068882892564)
(-0.0173106806197 -0.000793072301067 -0.00117187304708)
(-0.0113345972003 -0.000377686092044 -0.00139193424323)
(-0.00674321636555 -0.000142740950661 -0.00106501807086)
(-0.00382651980489 -3.24211149171e-05 -0.000678604045687)
(-0.00219778614578 9.83998522557e-06 -0.000392390415368)
(-0.00133806837482 2.06900482591e-05 -0.000219216510723)
(-0.000890087477229 1.96899254847e-05 -0.000124072680611)
(-0.000645010563432 1.56606277749e-05 -7.48058535678e-05)
(-0.000497509445255 1.17767023849e-05 -4.87521239353e-05)
(-0.000398337726403 8.72910031225e-06 -3.4678133453e-05)
(-0.000325636329356 6.46036101661e-06 -2.59780555066e-05)
(-0.000270598285546 4.73206717156e-06 -1.99331196725e-05)
(-0.000228083722437 3.47493389687e-06 -1.58824223582e-05)
(-0.00019319958841 2.66885084497e-06 -1.37183299333e-05)
(-0.000161830313679 2.29600871795e-06 -1.30508356956e-05)
(-0.000130213489397 2.21846925659e-06 -1.36629705935e-05)
(-9.3778580489e-05 2.39031436453e-06 -1.58103508114e-05)
(-4.9648706859e-05 2.72864661141e-06 -1.80910571398e-05)
(-9.52657441243e-07 3.17424893967e-06 -1.85480931007e-05)
(4.71825758515e-05 3.64694735505e-06 -1.91495055887e-05)
(9.39780810271e-05 4.07925431023e-06 -1.9426659956e-05)
(0.000139790002231 4.31875844136e-06 -1.88002101541e-05)
(0.000180906574979 4.32228480997e-06 -1.59826479042e-05)
(0.00020880642815 4.14308944884e-06 -1.07018151372e-05)
(0.000218828416401 3.87148287965e-06 -5.02312116329e-06)
(0.000212847199067 3.47947354411e-06 -3.67431526372e-07)
(0.000194113388421 3.07348890033e-06 2.89170249708e-06)
(0.00016656587401 2.74102395694e-06 5.57453820773e-06)
(0.000131183850349 2.44348842149e-06 8.57353798031e-06)
(8.77818565912e-05 2.54155669864e-06 1.17800421344e-05)
(3.53041736174e-05 3.6938264915e-06 1.49880023849e-05)
(0.00562183531034 -0.00302715575354 -0.00210568405831)
(0.0161399719969 -0.00423024627108 -0.00113439219995)
(0.0196172028751 -0.00636298463524 0.00295766029365)
(0.0146563036666 -0.00778469291704 0.00602608873871)
(0.00478663535447 -0.00864162768315 0.00703381110973)
(-0.00601893999582 -0.0086768207354 0.00712715375647)
(-0.016277703768 -0.00779702133323 0.0062929589934)
(-0.0222145850441 -0.00622565778384 0.00370652329727)
(-0.0221439323099 -0.0040414858524 0.000582480467464)
(-0.0168471161998 -0.00221982366006 -0.00119790279112)
(-0.0110346890712 -0.00103793809457 -0.00138731406562)
(-0.00658508575356 -0.000378800949965 -0.00105268786081)
(-0.00375860065154 -7.46696205674e-05 -0.00066850800576)
(-0.00217602131944 3.8187331203e-05 -0.000386674924306)
(-0.0013357612253 6.41153413561e-05 -0.000216757915872)
(-0.000893987559415 5.81865484775e-05 -0.00012330113862)
(-0.000649692573127 4.52643781038e-05 -7.50517294627e-05)
(-0.000501371364613 3.32104520215e-05 -4.89793194418e-05)
(-0.000401206849002 2.41228127131e-05 -3.49246609762e-05)
(-0.000327742014879 1.76216694249e-05 -2.62204472216e-05)
(-0.000272151493421 1.28428595316e-05 -2.02460175997e-05)
(-0.000229155034103 9.43842133639e-06 -1.62472487177e-05)
(-0.000193828149061 7.37794767984e-06 -1.4112111252e-05)
(-0.000162117361703 6.48645107435e-06 -1.34132600891e-05)
(-0.00013024763503 6.32078301324e-06 -1.4000841221e-05)
(-9.36144006494e-05 6.79920437515e-06 -1.61085487266e-05)
(-4.93616358031e-05 7.69694524753e-06 -1.83374661939e-05)
(-6.08397917411e-07 8.81277855839e-06 -1.87383565745e-05)
(4.75169946148e-05 9.9738399449e-06 -1.9268289524e-05)
(9.41998377217e-05 1.09477488954e-05 -1.94774899557e-05)
(0.00013981343024 1.13882197418e-05 -1.88311996459e-05)
(0.000180743406497 1.12195447406e-05 -1.60334288047e-05)
(0.000208533248489 1.06167427261e-05 -1.07864239486e-05)
(0.000218476687329 9.84538130022e-06 -5.15133624833e-06)
(0.000212448384904 8.80970583627e-06 -5.15289009292e-07)
(0.000193730460914 7.78110169856e-06 2.73609916459e-06)
(0.00016615916743 6.91566628905e-06 5.38043616384e-06)
(0.000130750018998 6.05532324729e-06 8.37164047098e-06)
(8.73564263723e-05 5.89344711243e-06 1.15411750192e-05)
(3.51044051273e-05 6.94415374174e-06 1.47986884857e-05)
(0.00512283223953 -0.00470514301495 -0.00206047683782)
(0.0150472057628 -0.00670605029639 -0.00125048853249)
(0.0184294637501 -0.010169656723 0.00251220048899)
(0.0137171568008 -0.0126507822302 0.00549667189768)
(0.00444479396216 -0.0140563305985 0.0066479823266)
(-0.00573749408705 -0.0141040992694 0.00673714507434)
(-0.0154191089363 -0.0126397734903 0.005742641477)
(-0.0211164333327 -0.00994429017746 0.00324962416201)
(-0.020940505246 -0.0063789165691 0.000339301665718)
(-0.0159468403369 -0.0034448987761 -0.00125856683894)
(-0.0104661082967 -0.00157703134565 -0.00137913137706)
(-0.00629074396807 -0.000553024276612 -0.00102803020908)
(-0.00363530416391 -8.99741650408e-05 -0.00064819545987)
(-0.00213868280716 7.64990750321e-05 -0.000375119663877)
(-0.00133390316502 0.000110202530075 -0.000211654310661)
(-0.000902782653777 9.68132300696e-05 -0.000121823294795)
(-0.000659374367112 7.44709392533e-05 -7.47480276626e-05)
(-0.000509223540994 5.41055830354e-05 -4.91238377029e-05)
(-0.000406893734593 3.9191989889e-05 -3.52373651244e-05)
(-0.000331832073125 2.86587968497e-05 -2.65922422792e-05)
(-0.000275131958733 2.10460348398e-05 -2.06276277777e-05)
(-0.000231193848717 1.57037427747e-05 -1.68248300871e-05)
(-0.000195014839938 1.25113870421e-05 -1.47663067571e-05)
(-0.000162668130961 1.1126113303e-05 -1.40193529583e-05)
(-0.000130333267105 1.08620555532e-05 -1.45554389015e-05)
(-9.33351252827e-05 1.16021812622e-05 -1.65976156669e-05)
(-4.88657428682e-05 1.29844012827e-05 -1.8718703632e-05)
(-1.1963832188e-08 1.46673399816e-05 -1.9016840388e-05)
(4.80853980607e-05 1.64459988189e-05 -1.94129112678e-05)
(9.4545063908e-05 1.78789208532e-05 -1.95073581692e-05)
(0.00013979405792 1.84879709075e-05 -1.88192449459e-05)
(0.000180384497518 1.81581782585e-05 -1.60617747347e-05)
(0.000207985670541 1.71730363518e-05 -1.08867085729e-05)
(0.000217808012061 1.59337583334e-05 -5.33548675856e-06)
(0.000211713484419 1.43313050879e-05 -7.46791430828e-07)