/*--------------------------------*- C++ -*----------------------------------*\
| =========                 |                                                 |
| \\      /  F ield         | OpenFOAM: The Open Source CFD Toolbox           |
|  \\    /   O peration     | Version:  3.0.1                                 |
|   \\  /    A nd           | Web:      www.OpenFOAM.org                      |
|    \\/     M anipulation  |                                                 |
\*---------------------------------------------------------------------------*/
FoamFile
{
    version     2.0;
    format      ascii;
    class       surfaceVectorField;
    location    "1.8";
    object      ddt0(Uf);
}
// * * * * * * * * * * * * * * * * * * * * * * * * * * * * * * * * * * * * * //

dimensions      [0 1 -2 0 0 0 0];

internalField   nonuniform List<vector> 
22672
(
(0.000519823606459 0.000185996524957 -0.000472142092767)
(0.00018197308455 0.000527958774049 -0.000472985446809)
(0.000325947277788 0.000329428982013 -0.00105226001382)
(0.00119215011706 8.91776710114e-05 -0.000434643351475)
(0.000743321946217 0.000389554634955 -0.000656890535392)
(0.000970947804052 0.000300025405717 -0.00106591164272)
(0.00184143530118 5.78112513217e-05 -0.000361697919422)
(0.0015286944032 0.000356269548494 -0.000697269396092)
(0.00171844878271 0.000316390787184 -0.00100717770198)
(0.00232052157537 8.44667521629e-05 -0.000273585905362)
(0.00215171816694 0.000418865726379 -0.000661949686412)
(0.0023094182643 0.000389594734421 -0.000896000821354)
(0.00253627751198 0.00015618610845 -0.000188030668483)
(0.00253920310636 0.000560118246 -0.000606481333949)
(0.00266751435912 0.000505884509955 -0.000769817740306)
(0.00245196118099 0.00024215842874 -0.000113112212489)
(0.00261318639458 0.000740333746414 -0.00054689165905)
(0.0027158934441 0.000642363099306 -0.000645811953381)
(0.00209130558282 0.000324298988446 -5.28991358739e-05)
(0.00238167147258 0.000910334213461 -0.000493840510274)
(0.00246548964051 0.000762195372359 -0.000535673961479)
(0.0015012921927 0.000393474885849 -9.95383415379e-06)
(0.00187825771141 0.00105665590037 -0.00045364889731)
(0.00194226406945 0.000868169284238 -0.000449497789674)
(0.000757738974679 0.000436285999284 1.45968521616e-05)
(0.00117797372371 0.00115783573103 -0.000430007519507)
(0.00121852545312 0.000941407736991 -0.000394886568872)
(-6.04204164272e-05 0.000450814889173 2.22552836059e-05)
(0.000364483308582 0.0012085872338 -0.000420419029463)
(0.000378182094733 0.000978263027382 -0.000369824881655)
(-0.000878572581851 0.000436994882815 1.36789733016e-05)
(-0.000485408493351 0.00120967800966 -0.000420911624279)
(-0.000499986470854 0.000979118415682 -0.00037087917358)
(-0.00162157655838 0.000394442752174 -1.19824623042e-05)
(-0.00129909888596 0.00116059658296 -0.000431659996091)
(-0.00134029897 0.000943697851227 -0.000398166312796)
(-0.00220904917442 0.00032488525068 -5.63770611977e-05)
(-0.00199890406361 0.00105979049558 -0.000456788649544)
(-0.00206331115256 0.00087101253808 -0.000455433781429)
(-0.00256363565156 0.000242380740118 -0.000118391981637)
(-0.00249882741808 0.000912699190847 -0.000499106306773)
(-0.00258299236483 0.000764864558481 -0.000545036395914)
(-0.0026378604692 0.000155831452044 -0.000195787307201)
(-0.00272279660936 0.000741744682625 -0.000554633387882)
(-0.00282617629472 0.000645064067558 -0.000659277685431)
(-0.00240648490943 8.34931661473e-05 -0.000284350742401)
(-0.00263577229209 0.000560145544374 -0.000617678380183)
(-0.00276545410699 0.000507628593322 -0.000788724478839)
(-0.00190721643582 5.69420303249e-05 -0.00037511137077)
(-0.00222994247584 0.000418500352139 -0.000676454451767)
(-0.0023896053727 0.000391120953796 -0.000920494771326)
(-0.00123510681392 8.93576492677e-05 -0.000449568767108)
(-0.00158471046699 0.000356279931549 -0.000714333846816)
(-0.00177670901574 0.000317953700486 -0.00103641073751)
(-0.000541921383354 0.000188446975457 -0.000487352350912)
(-0.000774879998336 0.000391182094918 -0.00067419164315)
(-0.00100487937825 0.000302859796167 -0.0010973216416)
(-0.000193609005888 0.000532082108891 -0.00048711569005)
(-0.000338973310319 0.000334381593863 -0.00108434247668)
(0.000380325247748 0.000757064674419 -0.000657733889434)
(8.48966236061e-05 0.0012117120807 -0.000437205013535)
(0.000294680320806 0.000984204490922 -0.00106812531702)
(0.0011209413973 0.000691030040195 -0.000919516580009)
(0.000676222894549 0.00114233414136 -0.000919653426311)
(0.000946842079951 0.000963042734677 -0.00149593823652)
(0.00187233465863 0.000760147386389 -0.000997521163082)
(0.00160004248896 0.00122099247188 -0.00108611658032)
(0.0017448867152 0.00104542725719 -0.00161531789706)
(0.00241920884924 0.000948904282602 -0.000994845114999)
(0.00231726541086 0.00145799418629 -0.00108940843545)
(0.00236035407776 0.00124516616626 -0.00158057634113)
(0.00266664191658 0.00121274322664 -0.000965342324516)
(0.00275176078682 0.0018113126868 -0.00104054240297)
(0.00272133217908 0.00152605527696 -0.00148789192065)
(0.00258650510783 0.00149071635611 -0.000927619956835)
(0.00283523706923 0.00220945044825 -0.000974620421108)
(0.00277081306846 0.00183338958994 -0.0013728161668)
(0.00220096602229 0.00173694294884 -0.00089459027171)
(0.00257329656953 0.00257862167948 -0.000913299040566)
(0.00250783779852 0.00211521665752 -0.00126154413577)
(0.00157708925818 0.0019251163161 -0.000873702582663)
(0.00202154592388 0.00288074665894 -0.000870582144316)
(0.00197300578308 0.00234502608895 -0.00117477816753)
(0.000795491379839 0.00204041613593 -0.000865023401132)
(0.00126447988868 0.00308934155358 -0.000849587168756)
(0.00123729381513 0.00250399659525 -0.00112136394378)
(-6.0592439026e-05 0.00207987960276 -0.000863585937348)
(0.00039376799497 0.00319420541548 -0.000844338932849)
(0.000384705226345 0.00258390713085 -0.00109921716855)
(-0.000917190680135 0.00204383496822 -0.000866250593672)
(-0.000512352578951 0.00319690081952 -0.000844397715289)
(-0.000505550868715 0.00258658565827 -0.00110001619905)
(-0.00169946368284 0.00193054619164 -0.000876466183331)
(-0.00138474442699 0.00309648880964 -0.000850127934561)
(-0.00135913421042 0.00251121198523 -0.0011243228538)
(-0.00232219057701 0.00174246091407 -0.000899517895119)
(-0.00214341529135 0.00288939421299 -0.000872565310341)
(-0.00209557935742 0.00235415288345 -0.00118058343761)
(-0.00270266931722 0.00149493194074 -0.000935347713019)
(-0.00269342297239 0.00258639334006 -0.000917739936356)
(-0.00262831809859 0.0021242670354 -0.0012715988161)
(-0.00277247976574 0.00121517231216 -0.000976524460865)
(-0.0029485151653 0.00221503063275 -0.00098235912493)
(-0.00288492315104 0.00184111593726 -0.00138799231319)
(-0.00250904627332 0.000950091458742 -0.00100978208955)
(-0.00285180402413 0.00181471446301 -0.00105261636876)
(-0.00282338272237 0.00153223605982 -0.00150964341313)
(-0.00194104364388 0.000761195494019 -0.00101567692781)
(-0.00239831454638 0.00146049098626 -0.00110568809075)
(-0.0024447402433 0.00125043732501 -0.00160905996218)
(-0.0011655455354 0.000693158071188 -0.000938956722859)
(-0.00165768836613 0.00122390313319 -0.00110565278469)
(-0.00180699538426 0.00105053659624 -0.00164927300183)
(-0.000401927152823 0.000761153221327 -0.000673954982289)
(-0.000707849074947 0.00114689644492 -0.000938812311952)
(-0.000983894565262 0.000969112405407 -0.00153138092916)
(-9.53539610345e-05 0.00121794845606 -0.000449513098289)
(-0.000308577803446 0.000991867110256 -0.00109732403664)
(0.00034694556342 0.00155553465566 -0.000699124550412)
(5.36014470066e-05 0.00187398653324 -0.000364598544703)
(0.000310423521288 0.00174494952564 -0.00101087430314)
(0.00119875053433 0.0016284819831 -0.00108625342663)
(0.000745042593289 0.00190684841276 -0.00099765770779)
(0.00102801631284 0.00177413789341 -0.00161551739324)
(0.00207400395733 0.0018710419783 -0.0011780038527)
(0.00184181586379 0.00210996677997 -0.00117746063365)
(0.00191898041304 0.00194974318402 -0.00175904308256)
(0.00269808983585 0.00226508798661 -0.00113510572342)
(0.00267729750374 0.00251030232692 -0.00111585116117)
(0.00258651681469 0.00227998474209 -0.00166518611753)
(0.00296781976492 0.00274178942896 -0.00104982049956)
(0.00316296371024 0.0030416273278 -0.000976098342522)
(0.00295954518232 0.00270684683763 -0.00148178955083)
(0.00286325507632 0.00321885600271 -0.000960299504838)
(0.00323473670599 0.00361294880918 -0.000819946814885)
(0.00299047126328 0.00315868658522 -0.00127332371634)
(0.00242352316356 0.00363199970909 -0.000889290913172)
(0.00291255212453 0.00413519325273 -0.000684838399871)
(0.00268753477596 0.00356975131239 -0.00108428308745)
(0.00172900305245 0.0039440410179 -0.000846466730409)
(0.00227267288332 0.004556677628 -0.000591786294939)
(0.00210332272004 0.00390230031743 -0.000942938444119)
(0.000871971007885 0.00413532937865 -0.000828902700472)
(0.00141575268292 0.00484677584127 -0.000542655353404)
(0.00131522958119 0.00413386141909 -0.000857492100523)
(-5.79199330603e-05 0.00420108332152 -0.00082515071079)
(0.000445750250628 0.00499278624393 -0.000528646869803)
(0.000412205455274 0.00424897809283 -0.000823072896231)
(-0.000989310783418 0.00414174438512 -0.000828275056178)
(-0.000557353883817 0.00499695321791 -0.000527248995639)
(-0.000526185171687 0.00425345031253 -0.000822193007332)
(-0.00184981700441 0.00395440005792 -0.000846227061571)
(-0.00153165306987 0.00485766018358 -0.000538639557171)
(-0.00143257008323 0.00414614944602 -0.000855307073734)
(-0.00254566109823 0.00364289785129 -0.000890787351578)
(-0.00239388388689 0.0045698241424 -0.000588825245834)
(-0.00222457470665 0.00391714799569 -0.000942447320055)
(-0.00298188929223 0.00322789836131 -0.000964751348267)
(-0.00303482865385 0.00414680980886 -0.000684349543329)
(-0.00280911292314 0.00358423623383 -0.00108749862792)
(-0.00307650451556 0.00274824787618 -0.00105845103283)
(-0.0033511117348 0.00362105969578 -0.000823554100316)
(-0.00310690814131 0.00317093797447 -0.00128232602962)
(-0.00279021827088 0.00226973045469 -0.00114852236997)
(-0.00326580607911 0.00304689254154 -0.000984558932863)
(-0.00306430678086 0.00271682332115 -0.00149868555668)
(-0.00214404941596 0.00187521372168 -0.00119566394763)
(-0.00276030870832 0.00251430024349 -0.00112967301076)
(-0.00267353712093 0.00228853958832 -0.00169032674775)
(-0.00124340374901 0.00163342356214 -0.00110550837378)
(-0.00190017705194 0.0021141752107 -0.00119563126591)
(-0.00198314560892 0.0019578570212 -0.00179109402887)
(-0.000367527366392 0.00156169945069 -0.000714370427952)
(-0.000776046856527 0.00191221666653 -0.0010155300822)
(-0.00106616920302 0.00178274432987 -0.00164918008077)
(-6.27805158244e-05 0.00188049089943 -0.000374647572967)
(-0.000324032405511 0.00175457291288 -0.00103686504426)
(0.0004094661807 0.00219147339432 -0.000663131702081)
(8.05704966661e-05 0.0023648731176 -0.000275626046674)
(0.000383550745398 0.00234863955048 -0.000898368570092)
(0.00143550300125 0.00235892830626 -0.00108886491481)
(0.000934151377495 0.00246614336163 -0.000993873513291)
(0.00122739622129 0.00240223585677 -0.00157979208943)
(0.00247367637683 0.00272022865336 -0.00111530794212)
(0.0022360152966 0.00274664547586 -0.00113303402309)
(0.00224867565587 0.00262995887903 -0.0016635215183)
(0.00319261882959 0.00325360559237 -0.000956843780265)
(0.00321026974248 0.00324250976454 -0.000955545721791)
(0.00299173709982 0.00303607185317 -0.00143184638876)
(0.00347801488746 0.00387147404621 -0.000746224657845)
(0.00374914013771 0.00387138792937 -0.000675469675492)
(0.00338039967601 0.00354579583369 -0.00108640838727)
(0.00332238118392 0.00447791772266 -0.000544485709917)
(0.00379422642945 0.00453190513089 -0.000382433731212)
(0.003376728126 0.00407717084214 -0.000724647165466)
(0.00278913623199 0.00499865059001 -0.000387333781638)
(0.00338584026914 0.00512746212061 -0.000137279316077)
(0.00300559176342 0.00455722332024 -0.000410992334569)
(0.00197820346848 0.0053901305779 -0.000287974917934)
(0.00262391583306 0.00560625592893 3.33442971665e-05)
(0.00233625738533 0.00494321779592 -0.000182732936288)
(0.00099731341122 0.00563042068137 -0.000242399522735)
(0.00162936804435 0.005935924554 0.000127736988582)
(0.00145404715224 0.00520965015458 -4.65145321692e-05)
(-5.3314792502e-05 0.00571357662697 -0.000230745154652)
(0.000520021310081 0.00610444633759 0.000161940719547)
(0.000459931249581 0.00534653591835 4.29812570689e-06)
(-0.00110704790645 0.00563842624288 -0.000237613496631)
(-0.000622449231373 0.00610881177812 0.000165632089108)
(-0.000562839214491 0.00535173633315 8.58459946417e-06)
(-0.00209594133042 0.00540303895175 -0.000281237741434)
(-0.00173943454478 0.00594700648193 0.00013635720635)
(-0.00156438305578 0.00522276419588 -3.45596101693e-05)
(-0.00291211332673 0.00501213992632 -0.000382387437585)
(-0.00274405914069 0.00562061383855 4.25803191536e-05)
(-0.00245580400536 0.00496053500391 -0.0001719522002)
(-0.00344416467882 0.00448850489921 -0.000543152295377)
(-0.00351094974812 0.00513946821923 -0.000131009134996)
(-0.00312855568212 0.00457364464732 -0.000403962391077)
(-0.00358992603465 0.0038783713807 -0.000749662000349)
(-0.00391450285267 0.0045390431143 -0.000381272728412)
(-0.00349592370312 0.00409005803015 -0.000724632391262)
(-0.00328709922824 0.00325813806848 -0.000965709573654)
(-0.00385496177984 0.00387452641792 -0.000679529777169)
(-0.00348792669013 0.00355554742361 -0.00109465721369)
(-0.00254492049713 0.0027241349063 -0.00112964032904)
(-0.00329490791442 0.00324427136179 -0.00096548225506)
(-0.00308112140036 0.00304423385385 -0.00144975614628)
(-0.00148011020711 0.00236335398502 -0.00110565297433)
(-0.00229479761059 0.0027486825694 -0.00114814460564)
(-0.0023145849246 0.00263763114 -0.00169017420865)
(-0.000428874967088 0.00219681752005 -0.000675807227218)
(-0.000964303344741 0.00246907472167 -0.00100902762099)
(-0.00126616180838 0.00241013357425 -0.00160910214312)
(-8.8592813218e-05 0.00236888345927 -0.000282672598259)
(-0.000396835005764 0.00235733434884 -0.000919420140103)
(0.000551417573271 0.00259007592861 -0.000606367857884)
(0.000153064851336 0.00259055673431 -0.000189176113965)
(0.000500163601087 0.00271806960182 -0.000770783737768)
(0.00178962193774 0.00280490745723 -0.00103804262157)
(0.0011991111575 0.00272352371965 -0.000962607106183)
(0.00150877406092 0.00277431530176 -0.00148443464094)
(0.00300547594811 0.00321786066956 -0.00097327180276)
(0.00271384649457 0.00302662140938 -0.00104562411049)
(0.00267592709154 0.00301405849145 -0.00147712820811)
(0.00382117447487 0.00380535102759 -0.000674171617017)
(0.00382910536377 0.0035387053394 -0.000742105224403)
(0.00350156844642 0.00343617742199 -0.00108281673041)
(0.0041130500679 0.00447376076899 -0.000311678748858)
(0.00441753417859 0.00417521852302 -0.000309434180246)
(0.00390411201362 0.00396062454377 -0.000554351481333)
(0.003890734865 0.00512254851716 2.47726626291e-05)
(0.00442161892866 0.00483214132653 0.000124873287049)
(0.00385589221552 0.00450340908734 -2.38036128723e-05)
(0.00324245465262 0.00567713288217 0.000283398762728)
(0.00391448421144 0.00541501145625 0.000480041163287)
(0.00340121963096 0.00499133002664 0.000426580319793)
(0.00229034283234 0.00609611664304 0.000449056203683)
(0.00301753140573 0.00588703804079 0.000728183582556)
(0.00262607554138 0.00538582253602 0.000746666696585)
(0.00115902746772 0.00635518871543 0.000532077230865)
(0.00186882448901 0.00621362594744 0.000865594272355)
(0.00163251806403 0.00565923549324 0.00093559630431)
(-4.82041221953e-05 0.00644483147733 0.000558317963308)
(0.000602650130881 0.00637896240934 0.00091964642713)
(0.000525039397626 0.00580307127648 0.00101858376987)
(-0.00126122089742 0.00636283582308 0.000539602792089)
(-0.000696129327577 0.0063825526888 0.00092397346238)
(-0.000618249525582 0.00580742962018 0.00102672377002)
(-0.00240408015073 0.00610909113987 0.000460175266938)
(-0.00197251218963 0.0062247692349 0.000877762361682)
(-0.00173551148295 0.00567151691948 0.000952099778704)
(-0.00336676309984 0.00569014576288 0.000293958621742)
(-0.00313701765806 0.00590097810726 0.000743281572855)
(-0.00274232805691 0.00540318060641 0.000766554360673)
(-0.00401665553256 0.00513110103268 3.08704319692e-05)
(-0.00404380671518 0.00542503678249 0.000490964108509)
(-0.0035262601283 0.00500641549154 0.000442637149859)
(-0.00422892128493 0.00447720890444 -0.000311140505232)
(-0.00454696195901 0.00483562943632 0.000128930005475)
(-0.00397884987897 0.00451320092639 -1.59016648615e-05)
(-0.00391781186104 0.00380590242444 -0.000679302458575)
(-0.00452651875567 0.00417362376067 -0.000311403289417)
(-0.0040145556657 0.00396605089283 -0.000555698310336)
(-0.0030773612632 0.00321790957325 -0.000983986531653)
(-0.00391487416005 0.00353559040076 -0.000749239386566)
(-0.00359274782762 0.00344003252534 -0.00109391172294)
(-0.00183388330331 0.00280551625046 -0.00105151925229)
(-0.00277267268635 0.00302381978251 -0.00105776962756)
(-0.00274295074685 0.00301766079734 -0.00149754767825)
(-0.000569472928846 0.00259169879733 -0.000615892992033)
(-0.00122822133029 0.00272148233701 -0.000975405185416)
(-0.00154761325108 0.00277817793252 -0.00150826102364)
(-0.000159944075412 0.00258998110914 -0.0001935443869)
(-0.000512918920666 0.00272299857965 -0.000786390204227)
(0.000732724391118 0.00267279906584 -0.000545415362264)
(0.000239456618303 0.0025133182998 -0.000112933569893)
(0.000637469416385 0.00277546031758 -0.000644583256934)
(0.0021892203154 0.00289712397043 -0.000970188595103)
(0.00147833231986 0.00265051889987 -0.000923243721125)
(0.0018172337071 0.0028324375283 -0.00136638580184)
(0.00357843786006 0.00329858707187 -0.000814457532129)
(0.00319256831511 0.00292883502274 -0.000953676677697)
(0.00312908320019 0.00305334227015 -0.00126482032791)
(0.00448314620695 0.00386016614387 -0.000377367787632)
(0.00443762951373 0.00338975492142 -0.000536880336872)
(0.00403450775311 0.00344090787455 -0.000716197628001)
(0.00477038033624 0.00448870008702 0.000127117855661)
(0.00506770937395 0.00396041141827 3.17564119497e-05)
(0.00444787236014 0.00392176185899 -1.77604060183e-05)
(0.00446848565066 0.00508650797278 0.000580141787707)
(0.00501967845296 0.00453836630441 0.000583266228304)
(0.00434873175836 0.00441466037679 0.000665599674877)
(0.0037017432138 0.00559401364742 0.000924825983114)
(0.0044164312103 0.00504901777768 0.00102364122346)
(0.00381002426871 0.00485618901639 0.00121604170276)
(0.00260572960623 0.0059783571396 0.00114472165123)
(0.00338879696203 0.00546911676771 0.00133298599177)
(0.00292968188445 0.0052156158873 0.00160726426315)
(0.00131921771746 0.0062137553358 0.00125316346862)
(0.0020905495066 0.00576126914702 0.0015014717795)
(0.00181759241657 0.00546658691267 0.00183846978839)
(-4.42297800908e-05 0.0062938255464 0.0012853019262)
(0.000677301643773 0.00590602273726 0.00156520861494)
(0.000589347437469 0.00559425385956 0.00193919858353)
(-0.00141333401344 0.00622035090314 0.00126213303197)
(-0.00076312329916 0.00590931728442 0.00156975114255)
(-0.000673232064599 0.0055978721202 0.0019464703687)
(-0.00271572913054 0.00598938477936 0.0011608686676)
(-0.00218891033767 0.00576915680799 0.00151675770994)
(-0.00191276040882 0.00547767921121 0.00186227070182)
(-0.00382885845033 0.0056041223929 0.000940287059622)
(-0.00350872165848 0.00547882551635 0.00135273505129)
(-0.00304472256576 0.00523078235312 0.00163803704664)
(-0.00460018949811 0.00509108019198 0.000589023682014)
(-0.00455103165777 0.00505475821677 0.00103727815768)
(-0.00393942413588 0.00486749571064 0.00123968904181)
(-0.00489089434129 0.0044871286319 0.000128667221289)
(-0.00515086811343 0.0045376240243 0.000587919752584)
(-0.00447700334845 0.00441960925272 0.000677252379312)
(-0.00458187430381 0.00385525098773 -0.000381340217409)
(-0.00518006829821 0.00395396969735 2.97099030075e-05)
(-0.00456158257921 0.00392148432591 -1.58543488966e-05)
(-0.0036506476885 0.00329327266187 -0.000823022482469)
(-0.00452414376695 0.00338203265969 -0.000543051576411)
(-0.00412690135464 0.00343900393547 -0.000723343339561)
(-0.00223297092343 0.00289247764945 -0.000981655560677)
(-0.00325117815547 0.00292139075445 -0.00096394896931)
(-0.00319661813326 0.00305125169261 -0.00128076466556)
(-0.000749139340267 0.00266935623459 -0.000553056580283)
(-0.00150625130701 0.00264401066822 -0.000934260536833)
(-0.00185557789557 0.00283074056385 -0.00138638833743)
(-0.000245367049139 0.00250852489306 -0.000115249156922)
(-0.000649440531766 0.00277503772331 -0.00065604024223)
(0.000903212772917 0.00244680522778 -0.000490761928755)
(0.000321756453281 0.00215696774443 -5.13396837031e-05)
(0.000757378307858 0.00253085901006 -0.000531535547282)
(0.00255968611966 0.00264025999831 -0.00090673180372)
(0.00172525146334 0.00226877222216 -0.000888414794586)
(0.00209992858336 0.00257478786611 -0.00125186787424)
(0.00410259783807 0.00298076674701 -0.000676099482441)
(0.0036067626299 0.00249183168792 -0.000880394774235)
(0.00354144976164 0.00275475577709 -0.00107162004756)
(0.005081110854 0.00345604584156 -0.000127756137291)
(0.00496055425223 0.0028576755292 -0.000377107115354)
(0.0045167139813 0.00307283609208 -0.000396800992662)
(0.00535450633238 0.00398613306291 0.000487904784593)
(0.00562415828464 0.00331336180137 0.000295396482874)
(0.00493780847407 0.00347088012939 0.000440739223202)
(0.00497936685215 0.00448834673773 0.00102676566406)
(0.00552803060866 0.00377247639499 0.00093268591056)
(0.00479117908463 0.00388028719326 0.00122499406232)
(0.00410315169933 0.00492091461365 0.00143180123211)
(0.00484914783766 0.0041743034787 0.00143444221532)
(0.00417977667166 0.00425017659014 0.00184863670705)
(0.00287812111076 0.00525155197317 0.00168973612004)
(0.00370288545628 0.00450931651771 0.00180829377932)
(0.00320259980476 0.0045588633312 0.00229160203435)
(0.00145461498939 0.00545072853681 0.00181351692582)
(0.00227955316983 0.00474057540876 0.00195219448948)
(0.00198129440157 0.00477124567563 0.00255546664236)
(-4.07546333359e-05 0.00551742937466 0.00184965783129)
(0.000740146758709 0.0048476824312 0.00200891228094)
(0.000645138274879 0.00487675724977 0.00266653516718)
(-0.00154349028962 0.00545454580463 0.00182437582052)
(-0.000821414363085 0.00484929004586 0.0020145079612)
(-0.000721919193029 0.00487880088392 0.00267634718137)
(-0.00298607613638 0.00525695905135 0.00170862409363)
(-0.00237545404495 0.0047424913706 0.00196863045337)
(-0.00207126074226 0.0047760446434 0.00258396472303)
(-0.00423373156388 0.0049249236296 0.00144972614935)
(-0.00382317140341 0.00451080524471 0.00183085798772)
(-0.00331749541432 0.00456527316172 0.00233111959647)
(-0.00511708013523 0.00448805415389 0.00103617422825)
(-0.0049878796395 0.00417376437304 0.00144855162316)
(-0.00431399261884 0.00425444099732 0.00187765069924)
(-0.00547998253554 0.00398056724646 0.000488962434302)
(-0.00566406884909 0.00376800697241 0.00093742665387)
(-0.00492472372928 0.00387994560325 0.00123800796509)
(-0.00518173371477 0.00344741472333 -0.000132001455995)
(-0.00573945020187 0.00330443311665 0.000291920537481)
(-0.00505476531848 0.00346625179082 0.000441885982653)
(-0.00417502220968 0.00297185368223 -0.000683978063252)
(-0.00504749695737 0.00284811779437 -0.000383042586458)
(-0.00461015451729 0.00306714463956 -0.000402839873076)
(-0.00260285934167 0.00263198584204 -0.000916553945466)
(-0.00366519979235 0.00248209412294 -0.000889635686096)
(-0.00360920156527 0.00274845644452 -0.00108491806171)
(-0.000917993094828 0.00243990996277 -0.000496453113471)
(-0.00175207007761 0.00225991069213 -0.000897673871125)
(-0.00213747005968 0.00256891177006 -0.00126874518268)
(-0.000326847283807 0.0021497286507 -5.21407314926e-05)
(-0.000768619754505 0.00252643730711 -0.000539822880026)
(0.001049879254 0.00194621562465 -0.000448992549535)
(0.000391176269496 0.00156897495882 -7.18588986684e-06)
(0.000863489977315 0.00201079752125 -0.00044269544839)
(0.00286207150566 0.00209041378412 -0.000862077765101)
(0.00191327501578 0.00164633632199 -0.000865977492688)
(0.00232955852901 0.00204237113946 -0.00116188216726)
(0.00452470024737 0.00234113588363 -0.000581402407148)
(0.00391841673305 0.00179757588664 -0.00083650451402)
(0.00387365012784 0.00217126960205 -0.000927393109347)
(0.00556264086252 0.00269288375841 4.60455048109e-05)
(0.00535291494701 0.00204511474947 -0.000278511490817)
(0.00490440259722 0.00240080785231 -0.00016713908248)
(0.00582771366231 0.00308729779796 0.000740177608842)
(0.00604466283037 0.00235836062877 0.000462546370931)
(0.00533509209846 0.00269398360432 0.000767154561453)
(0.00540048356699 0.00345852219556 0.00134036246183)
(0.00591314231648 0.00267316947196 0.00115466079695)
(0.00515239698607 0.00299817981373 0.00162110037277)
(0.00443845977037 0.00377243725617 0.00181093476253)
(0.00518009218202 0.00294511635695 0.0016944947812)
(0.00448946883952 0.00327119698686 0.0022985020154)
(0.00309800366242 0.00402061325766 0.00207075214877)
(0.00395154650816 0.00316491873305 0.00207022510067)
(0.00342997056131 0.0034977944858 0.00279891361798)
(0.00156939107412 0.00417609962821 0.0021475898446)
(0.00242495533962 0.00332672750868 0.00219707018188)
(0.00211772432337 0.00365652869735 0.00305822284219)
(-4.00120240071e-05 0.0042249735622 0.00217376241085)
(0.000787677342035 0.00340145244141 0.00224549574963)
(0.00068997009864 0.00373037497564 0.00317082906658)
(-0.00165645282082 0.00417593790355 0.00215876259406)
(-0.000868182533443 0.00340100571155 0.00225171219604)
(-0.000765475768477 0.00372970296675 0.00318025159214)
(-0.00320514093367 0.0040187932853 0.00209086434746)
(-0.00252113418306 0.00332289282379 0.00221335638989)
(-0.00220683520593 0.00365369158199 0.00308653424958)
(-0.00457021033895 0.00376948102251 0.00182968346153)
(-0.00407215430145 0.00315966373554 0.0020933607355)
(-0.00354381648071 0.00349395750068 0.00283826671309)
(-0.0055413095671 0.0034535381531 0.00134980404878)
(-0.00532113814566 0.00293893832249 0.00170865026941)
(-0.00462453673301 0.00326701549763 0.00232929327367)
(-0.00595666151079 0.00307951881666 0.00074038475705)
(-0.00605130999076 0.0026651325988 0.00115911754493)
(-0.00528822492105 0.0029924466279 0.00163641942338)
(-0.00566415108419 0.00268360555256 4.08794070184e-05)
(-0.00616115079591 0.002349154706 0.000459363653934)
(-0.00545337621306 0.00268724750757 0.000767158432594)
(-0.00459767653026 0.0023315280642 -0.000588700209302)
(-0.00544033413864 0.0020362013266 -0.000283164304868)
(-0.0049984595466 0.00239485484863 -0.000171293222511)
(-0.00290491017286 0.00208107434072 -0.000870755611755)
(-0.00397701522584 0.0017882237197 -0.000844929984535)
(-0.00394198538845 0.00216363822801 -0.000938879380835)
(-0.0010630550346 0.00193815306919 -0.000453361489146)
(-0.00193920311422 0.00163768526449 -0.00087410734588)
(-0.00236653190034 0.00203492527936 -0.00117635498903)
(-0.000395404692994 0.00156189957615 -6.98834295361e-06)
(-0.000873980540147 0.00200476348309 -0.000448824325786)
(0.00115083053834 0.00124696603624 -0.00042417083302)
(0.000434113024682 0.000826068596252 1.83639932073e-05)
(0.000936528695707 0.00128809812171 -0.000385799242259)
(0.00306974434775 0.00133407499045 -0.000840404241606)
(0.00202819904686 0.000865575717779 -0.000855957171487)
(0.00248719637821 0.00130763862106 -0.0011064793317)
(0.00481330561029 0.00148448908426 -0.000533613597688)
(0.00410906484053 0.00094200675846 -0.000817938983549)
(0.00410185242558 0.00138451329676 -0.000841933050522)
(0.00589358616628 0.00169729869836 0.000137989375303)
(0.00559296268262 0.00106689029131 -0.00023222762551)
(0.00517097884432 0.00152179815398 -3.74407695259e-05)
(0.006155334933 0.00193533835777 0.000877029559044)
(0.00630323382425 0.00122710406039 0.000545689547764)
(0.00561190015722 0.00169945766278 0.00095378616812)
(0.0056927770104 0.00215549340509 0.00150879311633)
(0.00614804852119 0.00138401459061 0.00126094594481)
(0.00540456866352 0.00188226853292 0.00185280317258)
(0.00466974343697 0.0023444951183 0.00195378511934)
(0.00537981261976 0.00151863315559 0.00181580830658)
(0.00470236727252 0.00204513264727 0.00256142296717)
(0.00325963036643 0.0024907977236 0.00219654313378)
(0.00410901239862 0.00163403443462 0.00214541438444)
(0.00358953657795 0.00218146365612 0.00305679434354)
(0.00164769856714 0.00257688744359 0.0022949760869)
(0.00251171189013 0.00171309594605 0.00229554016999)
(0.00220609283378 0.00227015782141 0.00334013735041)
(-4.08934230607e-05 0.00260346801717 0.00232344553481)
(0.000814616620739 0.00174921002478 0.00234547138912)
(0.000717273019372 0.00231036384328 0.00345308285)
(-0.00173587190879 0.00257357825254 0.00230630599187)
(-0.000897712465628 0.00174696007924 0.00235216624817)
(-0.000795122945372 0.002308009422 0.0034617932758)
(-0.00336780210391 0.0024845465755 0.00221585277794)
(-0.00260985449204 0.00170569498734 0.00231107620596)
(-0.00229636930028 0.00226268657161 0.00336678426953)
(-0.00480291702205 0.00233716415806 0.00197232754339)
(-0.00423042198463 0.00162426224393 0.00216833783636)
(-0.00370326028561 0.00217227691333 0.00309537009343)
(-0.00583464777335 0.00214734003152 0.00151796376556)
(-0.00552173120966 0.00150844634066 0.00183130331507)
(-0.00483712187799 0.00203530384181 0.00259184499591)
(-0.00628409943365 0.00192591981185 0.000878096441817)
(-0.00628679242837 0.00137362726514 0.00126651057569)
(-0.00553883368028 0.001872638521 0.00186801911993)
(-0.0059952633179 0.00168759210711 0.000135319942048)
(-0.00641972072431 0.00121553259945 0.000542731999081)
(-0.00572807819749 0.00168978020945 0.000959291501595)
(-0.004887364581 0.00147553936239 -0.000539394080101)
(-0.00567981822142 0.00105697728536 -0.000236990760693)
(-0.0052651993638 0.00151315859009 -3.53182010902e-05)
(-0.00311247342671 0.00132600318424 -0.000848281718659)
(-0.00416705946041 0.000934144295863 -0.000825857281799)
(-0.00417155363073 0.00137693212071 -0.000851293465377)
(-0.00116252037565 0.00124027151399 -0.000427734199687)
(-0.0020529903477 0.000859427999935 -0.000863438684208)
(-0.00252370763506 0.00130126134923 -0.00111930275497)
(-0.0004375248755 0.000821479987718 1.94595172435e-05)
(-0.000946335571219 0.00128321586366 -0.000390249618722)