/*--------------------------------*- C++ -*----------------------------------*\
| =========                 |                                                 |
| \\      /  F ield         | OpenFOAM: The Open Source CFD Toolbox           |
|  \\    /   O peration     | Version:  3.0.1                                 |
|   \\  /    A nd           | Web:      www.OpenFOAM.org                      |
|    \\/     M anipulation  |                                                 |
\*---------------------------------------------------------------------------*/
FoamFile
{
    version     2.0;
    format      ascii;
    class       volScalarField;
    location    "1.8";
    object      k_0;
}
// * * * * * * * * * * * * * * * * * * * * * * * * * * * * * * * * * * * * * //

dimensions      [0 2 -2 0 0 0 0];

internalField   nonuniform List<scalar> 
7968
(
0.00327035092982
0.00346972201291
0.00360727041055
0.00367774309074
0.00370943794583
0.00372146700854
0.00372430667214
0.00372339549072
0.00372144458992
0.00371993154177
0.00372012324811
0.00372189561931
0.00372398172393
0.00372496167535
0.00372214335187
0.00371008843556
0.0036783110423
0.00360769791283
0.00346999420037
0.00327043448556
0.00346974696432
0.00445775832763
0.00507370032303
0.00539911330942
0.00555596871552
0.00561998721157
0.00563828488096
0.00563844545572
0.00563475690347
0.00563246550212
0.00563267165919
0.00563535335268
0.00563938945863
0.00563951022118
0.00562140210643
0.0055574550432
0.00540046394094
0.00507479170043
0.00445846491564
0.00346994403836
0.00360742876038
0.00507391518927
0.00600839059148
0.00652122418685
0.00678044359314
0.00689299174121
0.00692902313607
0.00693328244332
0.00692984886812
0.00692746659472
0.00692766220635
0.00693041514498
0.00693423033724
0.00693032151167
0.00689455953282
0.00678205468042
0.00652271068921
0.00600959238107
0.0050746562014
0.00360764672468
0.00367794879977
0.00539950386441
0.00652134094572
0.00715000686465
0.00747177072034
0.00760971684573
0.00765108396024
0.00765302548282
0.00764689126356
0.0076433767799
0.00764354231316
0.00764734983862
0.00765383917793
0.00765230627841
0.00761124010067
0.0074733757153
0.00715151324594
0.00652256556595
0.00540024386163
0.00367815493932
0.00370967722937
0.00555624617778
0.00678057141132
0.00747169499283
0.00782071418762
0.00796369286499
0.00802048826202
0.00803918485653
0.00803987350391
0.00803793030246
0.00803809334022
0.00804031697885
0.00803991316285
0.00802149911263
0.00796530404574
0.00782247715438
0.00747331696631
0.00678187308867
0.00555701801206
0.00370987264568
0.00372170255142
0.00562024685838
0.0068929702681
0.00760944150841
0.00796343186542
0.00814467097299
0.00822038631434
0.00823834098065
0.00823668208144
0.00823339420551
0.00823357095797
0.00823718210069
0.00823917761452
0.00822152234658
0.00814600351719
0.00796547904345
0.00761136965924
0.00689448555226
0.00562121505661
0.00372192176774
0.00372451279711
0.0056383454029
0.00692868392656
0.00765039861594
0.00802022092146
0.00822017665692
0.00829344216777
0.00830496966695
0.00829821200924
0.00829240110554
0.00829260138768
0.00829880870957
0.00830601146447
0.00829486594663
0.00822172831727
0.00802172364384
0.00765277156765
0.00693053082592
0.00563948559366
0.0037247831105
0.0037235344281
0.00563822622706
0.00693253996911
0.00765181749068
0.00803861844743
0.00823778677159
0.00830459426345
0.00830849815426
0.00829572767788
0.00828673022427
0.00828697334813
0.00829648739629
0.00830978122653
0.00830632865219
0.00823967538357
0.00804039909339
0.00765469739304
0.00693475696068
0.0056396006045
0.00372386797519
0.00372147024962
0.00563421942615
0.00692869812517
0.007645241932
0.00803898957157
0.00823580831545
0.00829744896626
0.00829524014538
0.00827712735959
0.00826485944218
0.00826513657777
0.00827810079952
0.00829677207842
0.00829938674172
0.00823792267788
0.00804103964661
0.00764850635947
0.00693121091009
0.00563578432544
0.00372186465158
0.0037197705431
0.00563162327033
0.00692598084414
0.00764144250171
0.00803681712428
0.00823226172167
0.00829129066595
0.00828571156247
0.00826414196787
0.00824931035473
0.0082497119972
0.00826522884371
0.00828735052494
0.00829328327773
0.00823442844687
0.00803893669549
0.00764479384497
0.00692862703897
0.00563328626431
0.00372020128596
0.0037197396993
0.0056315874564
0.00692592472659
0.00764135279727
0.00803675276744
0.00823218431771
0.00829119356551
0.00828557929172
0.00826396185607
0.00824908660225
0.00824948419472
0.00826504519693
0.00828721729384
0.00829318615373
0.00823435145435
0.00803886359617
0.00764467207154
0.00692852558237
0.00563321157863
0.00372014364341
0.00372140282611
0.00563411655618
0.00692853307985
0.00764498135019
0.00803880960857
0.00823560036463
0.00829718223665
0.00829488664917
0.00827668477872
0.00826435427508
0.00826460859176
0.00827763527697
0.00829640776004
0.00829910918278
0.00823769501972
0.00804082156605
0.00764813577935
0.00693092187785
0.00563557325577
0.00372173530672
0.0037234556085
0.00563807727634
0.00693228851815
0.00765141004006
0.00803834228357
0.00823747244172
0.00830420336203
0.00830799796295
0.00829513743177
0.00828609294315
0.00828632372015
0.00829588950943
0.00830927844673
0.0083059176898
0.00823932172739
0.00804005541509
0.00765411664483
0.0069343167546
0.00563928386399
0.00372370996342
0.00372444672186
0.00563819006093
0.00692840890666
0.00764990731786
0.00801987642635
0.00821980692667
0.00829298188647
0.00830440965322
0.00829757455413
0.00829173157592
0.00829192872727
0.00829817374524
0.00830544709776
0.00829437027644
0.00822127873945
0.00802126664272
0.00765205070487
0.00693001366069
0.00563912774769
0.00372462652682
0.00372166028597
0.00562016814938
0.00689274256135
0.00760898980685
0.0079627118815
0.00814423421098
0.00821990748549
0.00823777585966
0.00823605092527
0.00823273031931
0.00823290465592
0.00823654413115
0.00823858906142
0.0082209818298
0.00814544914131
0.00796451861978
0.00761062372405
0.00689397503745
0.00562087196379
0.00372178659015
0.00370966451448
0.00555620515555
0.00678046323926
0.00747137387156
0.00782011983142
0.00796289432848
0.00801999919694
0.00803861989697
0.00803923883099
0.00803725712448
0.00803740966189
0.00803965150038
0.00803928716171
0.00802089757881
0.00796420452373
0.00782157670465
0.00747267481099
0.00678145372912
0.00555674943267
0.00370976740255
0.00367796998093
0.00539955934
0.0065213737915
0.00714988927968
0.00747140020511
0.0076091096726
0.00765026923837
0.00765199731863
0.00764572140669
0.00764213883215
0.00764227476043
0.0076460893734
0.0076526504473
0.00765124950937
0.00761035223679
0.00747270679283
0.00715106358678
0.00652228010429
0.00540004648642
0.003678078491
0.0036074614377
0.005074062148
0.00600855277659
0.00652129506665
0.00678033858821
0.00689270214289
0.00692853428836
0.00693262885472
0.00692906495158
0.00692660674251
0.00692676820389
0.00692954014377
0.00693341768275
0.00692961904056
0.00689399755022
0.00678165971869
0.00652246364058
0.00600945646003
0.00507455316342
0.00360759156137
0.00346981008467
0.00445795981036
0.00507392698525
0.0053992824263
0.00555602357741
0.00561991195668
0.00563808604135
0.00563812539369
0.00563434335595
0.00563198974791
0.00563217261952
0.00563487090422
0.0056389539086
0.00563914882033
0.00562113307703
0.00555726722651
0.00540039395541
0.00507477222054
0.00445842132793
0.00346992179031
0.00327036808298
0.00346978966418
0.00360735227108
0.00367781586826
0.00370948001196
0.00372147332983
0.00372427282824
0.00372331827733
0.00372132658048
0.00371977320399
0.00371994441755
0.00372172889098
0.00372383839398
0.0037248469662
0.00372206262193
0.0037100395927
0.00367829107378
0.00360769186589
0.00346997344702
0.00327040708521
0.00345940737393
0.00440315572701
0.00500279179192
0.00532391665652
0.00548231771196
0.00555104414621
0.00557435600604
0.00557812182904
0.00557603029359
0.00557407380795
0.00557424623154
0.00557651041008
0.00557883882827
0.00557521928885
0.00555195347461
0.00548315652538
0.00532457366406
0.00500319302464
0.00440332804602
0.00345952846963
0.00440311325457
0.00839461626046
0.0101745216306
0.0111220650751
0.0116073767825
0.0118279303568
0.0119069796477
0.0119216090345
0.0119156285252
0.0119092929448
0.0119094983341
0.0119162278619
0.0119225766102
0.0119082395178
0.0118293238652
0.0116087012479
0.011123090537
0.0101750516874
0.00839453378231
0.00440328520314
0.0050029152562
0.0101750163907
0.0125176187449
0.0138152463286
0.0145154223214
0.0148583217718
0.0149997077056
0.0150420447127
0.0150467386533
0.0150437803994
0.0150439847906
0.0150473389479
0.0150430361561
0.0150010239354
0.0148597717444
0.0145167432261
0.0138161799513
0.0125179631288
0.0101746546064
0.00500305812439
0.00532419021707
0.0111228922946
0.0138156170446
0.0153458250149
0.0161941818507
0.0166223676272
0.0168065240622
0.0168663193308
0.0168770925899
0.0168759649283
0.0168761500693
0.0168776214111
0.0168672352245
0.0168078080354
0.0166237945267
0.0161954421146
0.0153466426634
0.0138157985171
0.0111223428436
0.00532429448546
0.00548268632317
0.0116083428643
0.0145159442511
0.0161943221343
0.0171361250714
0.0176147311521
0.0178231281523
0.0178874886898
0.0178978644906
0.0178961454467
0.0178963325272
0.0178983570792
0.0178884105156
0.0178245468193
0.0176163316744
0.0171375266231
0.0161952037588
0.0145161221871
0.0116077543053
0.00548278214944
0.00555141525056
0.0118288143536
0.0148587388118
0.0166223491181
0.0176145293994
0.0181137169116
0.018315243088
0.0183707617935
0.0183742718403
0.018369306983
0.0183694878114
0.0183747826176
0.0183718152713
0.0183170130325
0.0181158838682
0.0176164090858
0.0166235919771
0.0148591525441
0.0118283753723
0.00555156863517
0.00557463980077
0.0119076016678
0.0149997718171
0.0168060380992
0.0178223343926
0.018314625405
0.0185020085034
0.0185431362866
0.0185367312212
0.0185271144784
0.0185272713073
0.0185372744366
0.0185444340723
0.0185042933848
0.0183175355121
0.0178250696804
0.0168079139134
0.0150006270847
0.0119074675857
0.00557491343804
0.00557825037043
0.0119218444456
0.0150416133514
0.0168652375948
0.0178860063648
0.0183693426374
0.0185422973944
0.0185692146794
0.0185529638023
0.0185384978991
0.0185386350868
0.0185536551965
0.0185707700434
0.0185450455863
0.0183729234054
0.0178894624333
0.0168677361168
0.0150429539534
0.0119220618513
0.00557866980756
0.00557594487965
0.0119154462114
0.0150458018177
0.016875463498
0.0178957912974
0.0183722905953
0.0185352241503
0.0185520809851
0.0185283443903
0.0185100243765
0.0185100535929
0.0185292486415
0.0185539183656
0.0185381482585
0.0183761956808
0.0178997530871
0.0168784148623
0.015047523372
0.0119159569988
0.00557649840315
0.00557375205833
0.0119087338709
0.0150424328524
0.0168739900805
0.0178937333953
0.0183669611086
0.0185250855693
0.018536689548
0.0185086953314
0.018488337025
0.0184886050025
0.0185096154406
0.0185385378381
0.0185279249018
0.0183708217993
0.017897743519
0.0168770190025
0.0150443074772
0.0119093816529
0.00557437867089
0.00557372167448
0.0119086420319
0.0150423135665
0.0168738404258
0.0178935452951
0.0183667301422
0.0185248147565
0.0185363493122
0.0185082757816
0.0184878658091
0.0184881243067
0.01850918831
0.0185381907318
0.0185276466499
0.0183705939249
0.0178975410866
0.0168768319766
0.0150441390095
0.0119092428806
0.00557432487562
0.00557586048301
0.011915175337
0.0150454519137
0.016875023411
0.017895254778
0.0183716586337
0.0185344609794
0.0185511464309
0.0185272667186
0.0185088694653
0.0185088323384
0.0185280913913
0.0185529334874
0.0185373439907
0.0183755186467
0.0178991432812
0.0168778540272
0.0150470316528
0.0119155547331
0.00557635073928
0.00557812959413
0.0119214239498
0.0150410698743
0.0168645460002
0.0178851625819
0.0183683590549
0.0185411363694
0.0185678240016
0.0185514193311
0.0185368866242
0.0185369809397
0.0185520687023
0.0185693596604
0.0185438312897
0.01837185536
0.0178884826154
0.0168668442798
0.0150421852097
0.0119214399145
0.00557845883363
0.00557451817713
0.0119070997474
0.0149991189965
0.0168051916571
0.0178213024233
0.0183134197906
0.0185005588647
0.0185414637225
0.0185349110613
0.0185252501241
0.0185253914001
0.0185354515415
0.0185427549197
0.0185027697457
0.0183161422552
0.0178238027404
0.0168067765877
0.0149996660355
0.0119066954824
0.00557467896025
0.00555132003474
0.0118283177743
0.0148580875439
0.0166214799705
0.0176134300674
0.0181123669532
0.018313639487
0.0183689418626
0.0183723099623
0.0183672837832
0.0183674566216
0.0183728080281
0.018369951291
0.0183152748612
0.018114302597
0.0176150030633
0.0166223486293
0.0148581124328
0.0118275400121
0.00555134614267
0.00548263898646
0.0116079164299
0.01451538156
0.0161935361373
0.0171350745867
0.0176134230828
0.0178215359604
0.0178856677309
0.0178958938712
0.0178941030932
0.0178942701514
0.0178963262529
0.0178864634038
0.0178227311739
0.0176147165623
0.0171360883799
0.0161939732781
0.0145151040541
0.0116069245033
0.00548259197212
0.00532420127002
0.0111225844582
0.013815204479
0.0153452081721
0.0161932965466
0.0166212013277
0.0168050792613
0.016864649652
0.0168752691121
0.0168741049301
0.0168742580974
0.01687570058
0.0168653853596
0.0168060896322
0.016622270832
0.0161941249594
0.0153455369999
0.0138148764288
0.0111215594302
0.00532414155252
0.00500297026138
0.0101748383765
0.0125173752363
0.0138148354539
0.014514776231
0.0148574180104
0.0149985566079
0.0150406877283
0.0150452287025
0.015042187298
0.0150423561229
0.0150457205651
0.0150414893363
0.0149995971942
0.0148585103973
0.0145156646546
0.0138152718922
0.012517179842
0.0101739405809
0.00500293638379
0.00440320387903
0.00839458849605
0.0101744379711
0.0111218512057
0.011606981194
0.0118273357988
0.0119061965152
0.0119206654062
0.0119145622022
0.0119081493574
0.0119083254734
0.0119150727791
0.0119214779935
0.0119072312576
0.0118284334812
0.0116079342993
0.0111224252787
0.0101744418007
0.00839392770468
0.00440319557691
0.00345942702616
0.00440317742445
0.00500280867945
0.00532391679333
0.00548227305099
0.00555093812508
0.00557418175179
0.00557787881431
0.00557572881426
0.00557373015995
0.00557388712928
0.00557616542543
0.00557852573459
0.00557495058755
0.00555173444228
0.00548297940266
0.00532442044968
0.00500303848918
0.00440317254255
0.00345950634144
0.00358807720857
0.00497761629504
0.00588157081423
0.00638574525932
0.00664867542119
0.00677200430073
0.00682026785225
0.00683351092538
0.00683423170084
0.00683286856484
0.00683302363412
0.0068346772462
0.00683420153111
0.0068211136974
0.00677287797152
0.00664943074745
0.00638625499232
0.00588177375237
0.00497760453326
0.00358823421709
0.00497754733667
0.010103687632
0.0124234339012
0.0137047904599
0.0143939035529
0.0147304187485
0.0148685567252
0.0149089552942
0.0149118990874
0.0149076884618
0.0149078477296
0.0149123717832
0.0149097356627
0.0148695673037
0.0147314769811
0.0143947803405
0.0137052562334
0.0124233068518
0.010102867998
0.00497757524874
0.00588167680129
0.0124240555729
0.0153878711712
0.017075716115
0.0180260023974
0.0185212513494
0.0187476435053
0.0188319374022
0.0188539538767
0.0188563659684
0.01885651874
0.0188544140212
0.0188327216913
0.0187486784926
0.0185223057043
0.0180267771782
0.0170759375119
0.0153873490719
0.0124227179644
0.00588158366887
0.00638605900324
0.0137058621967
0.0170762062763
0.0190352782914
0.0201671716607
0.0207758602088
0.0210654565115
0.0211804885298
0.0212155217416
0.021222704532
0.0212228323948
0.0212158899958
0.0211811758282
0.021066442221
0.0207768681285
0.0201678441395
0.0190352959034
0.017075378659
0.013704158362
0.0063858698404
0.00664912795835
0.0143952019593
0.0180267357337
0.0201674085818
0.0214217962707
0.0221055296614
0.0224316531614
0.0225595203168
0.0225969038239
0.0226033293285
0.022603409623
0.0225971279137
0.0225599520946
0.0224325056903
0.0221066245451
0.0214225705337
0.0201674506786
0.0180258214284
0.0143933347536
0.00664889956549
0.00677247085227
0.0147316703051
0.0185219130444
0.0207759883379
0.022105445132
0.0228227432848
0.0231576129168
0.02328205287
0.0233127742071
0.0233148239934
0.0233148308165
0.0233127962395
0.0232819220881
0.0231576507677
0.0228237107714
0.0221065211454
0.020776372123
0.0185212122385
0.0147298970229
0.006772302357
0.00682062178536
0.0148695122154
0.0187479299621
0.0210651119841
0.0224309701052
0.0231574723673
0.023485350532
0.0235956459061
0.0236133732474
0.0236081101355
0.0236080365861
0.0236131720265
0.0235948930588
0.0234841717634
0.0231575618468
0.0224326968279
0.0210661341547
0.0187477012058
0.0148680625733
0.00682060873929
0.00683366026708
0.0149094549387
0.0188316767323
0.0211795476655
0.0225583852699
0.0232820654172
0.0235960670208
0.0236883138473
0.0236908015218
0.0236771411931
0.0236770133004
0.0236905272042
0.0236871888304
0.0235941273546
0.0232813451707
0.0225602550657
0.0211811217371
0.0188319579281
0.014908413035
0.00683384851664
0.00683412309165
0.0149119073088
0.0188531384917
0.0212141223372
0.0225953902908
0.0233127517595
0.0236139305376
0.0236908772117
0.0236806417882
0.0236598195612
0.0236595443189
0.0236803993487
0.0236896952837
0.0236116923846
0.023311812321
0.0225974035368
0.0212159783543
0.0188538113234
0.0149112105867
0.00683449195161
0.00683250270706
0.0149072749219
0.0188551294231
0.0212211019638
0.0226015180171
0.0233145693976
0.0236084012988
0.0236767040641
0.023659021498
0.0236341392544
0.023634046188
0.0236587130946
0.0236754421183
0.0236060164988
0.0233135296723
0.0226035377762
0.0212227880332
0.0188559355899
0.0149067380733
0.00683296764848
0.00683246149618
0.014907126254
0.0188549606849
0.0212209339342
0.0226013191411
0.0233143399241
0.0236081494607
0.0236764023188
0.0236586573969
0.0236337387678
0.023633635145
0.0236583399259
0.0236751347158
0.0236057622949
0.0233133090904
0.022603324274
0.021222586705
0.0188557173622
0.0149065351946
0.00683290091638
0.00683400075746
0.0149114628636
0.0188526373091
0.0212136135416
0.0225948107906
0.0233121121868
0.0236132223508
0.023690050769
0.0236797001852
0.0236588163067
0.0236584899295
0.0236793943276
0.0236888279152
0.0236109670993
0.0233111603716
0.0225967597047
0.021215335601
0.0188531668035
0.014910616572
0.0068343011334
0.00683347344458
0.0149087509133
0.0188308824811
0.0211786982846
0.0225574697766
0.0232810857183
0.0235950064325
0.0236871227011
0.0236894983235
0.0236757692081
0.023675604204
0.0236891671953
0.0236859648529
0.0235930395905
0.0232803126766
0.0225592101498
0.021180082699
0.018830935556
0.0149074824776
0.00683356233981
0.00682041007495
0.0148686412894
0.0187469368848
0.0210640211492
0.0224298093253
0.0231562267141
0.0234840214188
0.0235942135512
0.0236118399832
0.0236065250459
0.0236064242393
0.0236115924804
0.0235934111485
0.023482770338
0.0231561751767
0.0224313187777
0.0210647597965
0.018746386914
0.0148668846423
0.00682027146704
0.00677227694604
0.0147307522593
0.0185208522044
0.0207748014816
0.0221042568068
0.0228212854739
0.0231559909587
0.0232803185246
0.0233109362583
0.0233129187829
0.0233129070389
0.0233109050683
0.0232801027922
0.0231558894726
0.0228220447008
0.0221050643708
0.0207748107523
0.0185197347874
0.014728584673
0.00677195861219
0.00664898209049
0.0143943415346
0.01802571267
0.0201661982733
0.021420413482
0.0221040834468
0.022429798877
0.0225574714747
0.022594734047
0.022601109831
0.0226011669703
0.0225948910686
0.0225577757238
0.0224304465489
0.0221049142039
0.021420805487
0.0201657764331
0.018024295873
0.0143919919945
0.00664857887849
0.00638597665156
0.0137051299476
0.0170753052034
0.01903414909
0.0201657781945
0.0207742035359
0.0210635071131
0.0211783439138
0.0212133101841
0.021220594242
0.0212206961775
0.0212136040321
0.0211788558257
0.0210642202468
0.020774848431
0.0201659946444
0.0190336354507
0.017073902155
0.0137028585594
0.0063855821835
0.00588165408768
0.0124234808737
0.0153871372978
0.0170747456555
0.0180247380912
0.0185196732835
0.0187457674309
0.0188298239505
0.0188516668829
0.018854000293
0.0188541152966
0.0188520099895
0.0188304010807
0.018746498737
0.0185203309648
0.0180250271019
0.0170744022295
0.0153859897086
0.0124215007542
0.00588132800311
0.00497757985889
0.0101032999659
0.0124228950793
0.0137040350323
0.0143928792141
0.0147291056436
0.0148669742535
0.0149071477112
0.0149099193626
0.0149056047315
0.0149057278882
0.0149102816372
0.0149077333007
0.0148677044791
0.0147297993818
0.0143933031988
0.0137039562548
0.0124221364699
0.0101017873524
0.00497736840175
0.00358810203642
0.00497754915964
0.00588145011833
0.00638557998775
0.00664844068842
0.00677168015519
0.00681984693277
0.00683300039099
0.0068336488925
0.00683223784306
0.00683237677489
0.00683404807416
0.00683361205508
0.00682058497983
0.00677242025147
0.00664903488833
0.00638589694642
0.0058814284822
0.0049773033841
0.00358822949412
0.00365446136646
0.00528717713922
0.0063729327587
0.00699694640744
0.00733503019861
0.00750195397487
0.00757300806762
0.00759674926712
0.00760164208092
0.00760160555548
0.00760174559755
0.00760205058395
0.007597399617
0.00757381274881
0.00750276188211
0.00733568068805
0.00699731606419
0.00637298139302
0.0052870329841
0.0036546640978
0.00528710368108
0.0110394420325
0.0136951501407
0.0152026542646
0.0160409938136
0.0164697747098
0.0166601666921
0.0167269931488
0.0167414426155
0.0167411218182
0.0167412145728
0.0167417354272
0.016727530205
0.0166608850327
0.0164704686479
0.0160414191981
0.0152026082783
0.0136944865298
0.0110380724272
0.00528701136624
0.00637303791868
0.0136958622785
0.0170488565592
0.0189980925628
0.02012720486
0.0207390148653
0.0210354302249
0.0211573227883
0.0211964861344
0.0212046965213
0.0212047664253
0.021196740022
0.021157852977
0.0210361903872
0.0207397310994
0.0201275197481
0.0189977165753
0.0170476220815
0.0136937386955
0.00637275332078
0.00699728480805
0.0152038931654
0.0189986540349
0.0212403038731
0.0225692943514
0.0233104164467
0.0236817981057
0.0238417996405
0.0238979553169
0.0239112001736
0.0239112011163
0.0238980228047
0.0238417907354
0.0236817147502
0.0233107706856
0.0225695524218
0.0212397088615
0.0189970030723
0.0152012021556
0.00699684657813
0.00733552459323
0.0160425006749
0.0201280387263
0.0225695523924
0.0240361599768
0.0248636992933
0.0252762464243
0.0254491753653
0.0255045489549
0.0255155161627
0.0255153511676
0.0255040089853
0.0254477723648
0.0252739556936
0.0248618922187
0.0240356811402
0.0225690505103
0.0201262747163
0.0160395105992
0.00733501784456
0.00750245001074
0.0164712081383
0.0207397208272
0.0233105851521
0.0248642363729
0.0257314111375
0.0261548792043
0.0263211115755
0.0263645390848
0.0263673974608
0.026367026202
0.0263631686434
0.0263176697112
0.0261488902007
0.0257251874348
0.0248610831868
0.0233100360042
0.0207382510352
0.0164682858919
0.00750201992499
0.00757333862621
0.0166611826969
0.021035621837
0.0236820415743
0.0252784905001
0.0261573742667
0.0265702518174
0.0267147893062
0.0267367134893
0.0267268206882
0.026726352504
0.0267347356528
0.0267096150527
0.0265606494681
0.0261461998213
0.0252711584708
0.0236805015629
0.021034762994
0.0166586657284
0.00757312727381
0.00759679827939
0.0167273790951
0.0211567944077
0.0238425431967
0.0254532116146
0.0263262978629
0.0267178085161
0.0268331645339
0.0268294200769
0.0268048940807
0.0268044548097
0.0268274416094
0.026827260648
0.0267061404833
0.0263118983985
0.0254427805799
0.0238396290296
0.0211565504358
0.016725389553
0.00759686981015
0.00760136299171
0.0167411710499
0.021195230165
0.0238984404025
0.0255091251234
0.0263708991961
0.0267411536506
0.0268308193707
0.026804723614
0.0267673769943
0.0267668819793
0.026802890194
0.0268249432441
0.0267289609354
0.0263555408308
0.025497850521
0.0238953998631
0.0211954742105
0.0167396329784
0.00760168280319
0.00760102070426
0.0167403109206
0.0212028677241
0.0239111248222
0.0255199344974
0.0263739299248
0.026731510135
0.0268063036395
0.0267671588633
0.0267224837941
0.0267221448478
0.0267653747295
0.0268005517788
0.0267193191624
0.0263584969246
0.0255087035665
0.023908463214
0.0212033835088
0.0167389984539
0.00760147189516
0.00760095763779
0.0167400770519
0.0212026282807
0.0239109046149
0.0255197266047
0.0263737376484
0.0267313359269
0.0268060630621
0.0267668425073
0.0267221118494
0.0267218014657
0.0267650817827
0.0268003113838
0.0267191388099
0.0263583395358
0.025508516977
0.0239082297387
0.0212030952543
0.0167386971251
0.00760137808795
0.00760117000407
0.0167404655316
0.0211945227905
0.0238978029448
0.0255085244744
0.0263703661213
0.0267406497642
0.0268302311395
0.0268040225911
0.0267665910254
0.0267660676992
0.0268021341508
0.0268243338991
0.0267284883851
0.026355091147
0.0254972966578
0.0238947398264
0.0211946287108
0.0167387446258
0.00760140979881
0.00759649494679
0.0167262509211
0.0211556653912
0.0238415590956
0.0254522801515
0.0263255202025
0.0267171337278
0.0268324450333
0.0268286052547
0.0268040106841
0.0268035245799
0.026826556193
0.0268265141939
0.0267055053645
0.0263111986233
0.0254418639391
0.0238385354456
0.0211551953016
0.0167239925627
0.00759645334964
0.0075729772537
0.0166597683311
0.0210341725518
0.0236806792688
0.0252772733659
0.026156400422
0.0265694904926
0.0267140836257
0.0267359449625
0.0267260072313
0.026725479703
0.026733872812
0.0267088265175
0.0265598361356
0.0261451846372
0.0252698328083
0.0236788917368
0.021032982218
0.0166568874138
0.00757262525615
0.00750209389086
0.0164696905947
0.0207381177778
0.0233089734532
0.0248627267554
0.0257300966194
0.0261537972061
0.0263201344897
0.0263635072346
0.0263662736561
0.0263658533505
0.0263620027043
0.0263165104675
0.0261476170258
0.0257236840102
0.0248593145808
0.0233080534147
0.0207362017499
0.0164663003683
0.00750149404629
0.00733521896701
0.0160410409229
0.020126425135
0.0225678029069
0.0240343147599
0.0248618688565
0.0252744865898
0.0254474687424
0.0255027527911
0.0255135903583
0.0255133741429
0.0255020609052
0.0254458325906
0.0252719203451
0.0248597564326
0.0240334512911
0.0225668227097
0.0201241130869
0.0160374899055
0.00733451478602
0.00699705286954
0.0152026058542
0.0189971450796
0.0212385408083
0.0225672439554
0.0233080878198
0.0236792784899
0.0238393204454
0.0238952648397
0.0239082648116
0.0239082222748
0.0238951961692
0.0238391135918
0.0236789056979
0.0233080612562
0.0225670203573
0.0212373759001
0.0189948614089
0.0151992718649
0.00699638924846
0.00637288377011
0.0136947949408
0.0170475233317
0.0189964219804
0.0201251308821
0.0207365079467
0.0210325193973
0.0211540998614
0.0211930064334
0.0212010319497
0.0212010567275
0.0211931217664
0.0211543904863
0.0210329270735
0.0207367663111
0.0201248942975
0.01899541623
0.0170456001244
0.0136919671895
0.00637235039062
0.0052870361001
0.0110386243228
0.0136940534936
0.0152011956722
0.0160390975418
0.0164674046867
0.016657348078
0.0167238017327
0.0167379638462
0.0167374597888
0.0167375002502
0.0167381015822
0.0167240682169
0.0166576894979
0.0164676274352
0.0160389675363
0.0152005198106
0.0136926945725
0.0110365223802
0.00528670629757
0.00365449077452
0.00528699581541
0.00637264319485
0.00699656584821
0.00733453022654
0.00750130852094
0.00757220849978
0.00759581328997
0.00760060060875
0.00760049504336
0.00760061511423
0.00760095187776
0.00759636467034
0.0075728809336
0.00750195558086
0.00733499376066
0.00699672097761
0.00637245158584
0.00528661764016
0.00365468592526
0.00368731891025
0.00545650277443
0.00665120759416
0.00735219212551
0.00774209208143
0.00794144982185
0.00803095366761
0.00806395245505
0.0080727939227
0.00807407206005
0.00807420649951
0.00807319927737
0.0080646476871
0.00803184745539
0.00794232662589
0.00774276658374
0.00735255823847
0.00665125939096
0.00545640033257
0.00368758317662
0.00545644164995
0.0115820123409
0.0144509778284
0.0161119617381
0.0170575312473
0.0175564875301
0.0177891319921
0.0178785078105
0.0179030678931
0.0179062079957
0.017906239776
0.0179032090134
0.017878924471
0.0177897778946
0.0175570569408
0.017057740366
0.016111661966
0.0144500738864
0.0115804061357
0.00545637384565
0.00665132537027
0.0144517739578
0.0180569616062
0.0201844858594
0.0214401586602
0.0221369988528
0.0224856479489
0.0226348194328
0.0226848085533
0.0226960466504
0.0226960342302
0.022684868808
0.0226348664859
0.0224856738486
0.0221374496047
0.0214404764699
0.0201839495074
0.018055408211
0.0144491754142
0.00665100029273
0.00735255136821
0.0161133387799
0.0201850925115
0.0226178620866
0.0240834883101
0.0249165559292
0.0253424140795
0.0255286107152
0.0255905013944
0.0256037950902
0.0256035950921
0.0255899015056
0.0255270035218
0.0253395571534
0.024913835682
0.0240821917064
0.0226172045494
0.0201830973784
0.0161099493315
0.00735201995072
0.007742591696
0.0170591813125
0.0214410136662
0.0240840186172
0.0256931991434
0.0266115325319
0.0270723449322
0.0272618847026
0.0273160481304
0.0273221121082
0.0273215617257
0.0273139897374
0.027256746953
0.0270630576116
0.0266007327883
0.0256858120169
0.024081390002
0.0214390018363
0.017055348722
0.00774200316948
0.00794188347041
0.0175579291263
0.0221377725979
0.0249192503987
0.0266158135376
0.0275680125521
0.0280272046178
0.0281942291765
0.0282225306042
0.0282123804487
0.028211669152
0.028219303967
0.0281852061892
0.0280093088625
0.0275445347941
0.0265964083989
0.0249106619927
0.0221355451759
0.0175542466094
0.00794146411925
0.0080310766246
0.0177898239581
0.022486650722
0.0253492732231
0.0270842744848
0.0280362061003
0.0284657302302
0.0285896342188
0.0285776933718
0.028544244264
0.0285438634833
0.0285747888762
0.0285788633338
0.0284413035504
0.0280004738236
0.0270511111165
0.0253319631487
0.0224828675511
0.0177868317959
0.00803105146756
0.00806360586037
0.0178781489427
0.0226362142518
0.0255390422982
0.0272801229375
0.0282107228981
0.0285971248461
0.028668201409
0.0286094714013
0.0285496259665
0.0285498989832
0.0286082185692
0.0286585123248
0.0285705347378
0.0281684480544
0.0272381227361
0.0255152576712
0.0226308093948
0.0178760085327
0.00806405710947
0.00807195833372
0.0179017006565
0.0226857742383
0.0256018075523
0.0273364885764
0.0282418438747
0.0285877854822
0.0286115441401
0.0285113235398
0.0284281128446
0.0284288414098
0.0285115353033
0.0286037982219
0.0285620386496
0.0281984859772
0.0272922467722
0.025576323008
0.0226802027479
0.0179002342026
0.0080727962524
0.00807283274749
0.0179040949124
0.022696307628
0.0256147049535
0.0273427446339
0.0282320654364
0.0285541313138
0.0285505586222
0.0284265409812
0.0283298883053
0.0283309026035