/*--------------------------------*- C++ -*----------------------------------*\
| =========                 |                                                 |
| \\      /  F ield         | OpenFOAM: The Open Source CFD Toolbox           |
|  \\    /   O peration     | Version:  3.0.1                                 |
|   \\  /    A nd           | Web:      www.OpenFOAM.org                      |
|    \\/     M anipulation  |                                                 |
\*---------------------------------------------------------------------------*/
FoamFile
{
    version     2.0;
    format      ascii;
    class       volScalarField;
    location    "4.5";
    object      k_0;
}
// * * * * * * * * * * * * * * * * * * * * * * * * * * * * * * * * * * * * * //

dimensions      [0 2 -2 0 0 0 0];

internalField   nonuniform List<scalar> 
7968
(
0.000701945309249
0.000805722493779
0.000884609112715
0.000930018062533
0.000950419054843
0.000954520267958
0.000949696560809
0.000940066147352
0.000929997653552
0.000922292248205
0.000922284598119
0.000929983937051
0.000940055669626
0.000949696862703
0.000954537839611
0.000950455798475
0.000930067460711
0.000884662745918
0.000805774374996
0.000701973715612
0.000805699415548
0.00118633989992
0.00143192625917
0.00156674301751
0.00162626907042
0.0016379784732
0.00162419893203
0.00159949884245
0.00157695994234
0.0015638283663
0.00156379157482
0.00157686552062
0.00159936781456
0.00162406316705
0.0016378788538
0.00162623297514
0.00156677113776
0.00143199568475
0.00118642288648
0.000805745128081
0.000884557206866
0.00143187535617
0.00177722445215
0.00196795811669
0.00205534441907
0.00207615584249
0.00206020446363
0.00202946888024
0.00200165488097
0.00198590377564
0.00198584279746
0.00200149252985
0.00202922840032
0.00205993236065
0.00207591930912
0.00205519466922
0.00196790436853
0.00177724286897
0.00143193441396
0.000884603741426
0.000929929628602
0.00156664626344
0.00196792558702
0.0021887306639
0.00228795480281
0.00230811201093
0.00228539942898
0.00224688038326
0.00221443066826
0.00219682377992
0.00219674339107
0.00221421057875
0.00224653532188
0.00228498755339
0.00230772939961
0.00228767014998
0.00218856355096
0.00196785732332
0.00156664946847
0.000929967819182
0.000950300774184
0.00162617714162
0.00205536042895
0.00228803443164
0.00238505043927
0.00239588108221
0.00239175117789
0.00237603746731
0.0023557147288
0.00234221000943
0.00234214685559
0.00235554477124
0.00237577940343
0.0023914291263
0.00239540056894
0.00238463765309
0.00228774464709
0.00205518799378
0.00162610174092
0.000950316926149
0.000954400844993
0.00163798239113
0.00207635054913
0.0023084540203
0.00239618805775
0.00244466222806
0.00246009122213
0.00244974956988
0.00243006693932
0.00241575051091
0.00241569106156
0.00242990813621
0.00244951184553
0.00245980230927
0.00244431617829
0.00239570947276
0.00230806843127
0.00207608970887
0.00163783604869
0.000954388554008
0.000949589697822
0.00162434522316
0.00206066664141
0.00228613975685
0.00239222165955
0.00246035693686
0.00248028763767
0.00246764751553
0.00244373075028
0.00242617603884
0.00242612107454
0.002443585561
0.00246743308392
0.00248003337634
0.00246007927952
0.00239191034507
0.0022857394531
0.00206037314941
0.00162415542195
0.000949547294147
0.000939973054452
0.00159976832849
0.00203014923002
0.00224794113294
0.00237676730516
0.00245029051275
0.0024679209213
0.00244904385677
0.0024182474518
0.00239570835316
0.00239566193219
0.00241812939498
0.00244887914746
0.00246773867466
0.00245010203996
0.00237656191007
0.00224765529308
0.00202991902438
0.00159959461307
0.00093991324427
0.000929892632873
0.00157725062686
0.00200237628408
0.00221554284416
0.00235655823342
0.0024307668099
0.00244416989193
0.0024184023076
0.00237903121591
0.00234992563733
0.0023498967129
0.00237896757814
0.00241833123125
0.00244411337906
0.00243072622707
0.00235652091219
0.00221548374843
0.00200230561065
0.00157716099857
0.000929836169071
0.000922158774529
0.00156403694524
0.00198649495902
0.00219776408729
0.00234298199613
0.00241643773104
0.00242663689549
0.00239589928191
0.00234996807379
0.0023150948787
0.00231510220077
0.00234999766044
0.00239596617377
0.00242675087784
0.00241659111581
0.00234316208736
0.00219799583365
0.00198664856071
0.0015640855435
0.000922131793969
0.00092218071579
0.00156390175825
0.00198624132071
0.00219742262527
0.00234274159535
0.00241625151067
0.00242651735247
0.00239586083759
0.00235001253236
0.00231521568434
0.00231527213433
0.00235015963999
0.00239608931211
0.00242682255211
0.00241661377919
0.00234314669689
0.00219793750963
0.00198662221883
0.00156410160204
0.000922204181693
0.000929915604029
0.00157691479321
0.00200173235791
0.00221465478406
0.00235595799335
0.00243032360894
0.0024439128869
0.0024183606632
0.00237920735877
0.00235028881704
0.00235036362998
0.00237940518249
0.00241867040149
0.00244432475977
0.00243080660451
0.00235649589395
0.00221534081644
0.00200224283264
0.0015772006371
0.000929964006813
0.000940009233381
0.0015993651457
0.00202932482368
0.00224674881111
0.00237599238185
0.00244975176377
0.00246765623531
0.00244908588718
0.00241859273757
0.00239629682255
0.00239637151276
0.0024187944177
0.00244940829283
0.00246808931075
0.00245025940663
0.00237655764629
0.00224747369693
0.00202984820341
0.00159965719665
0.000940056482318
0.0009496604236
0.0016240141445
0.00205989803482
0.00228496715349
0.00239142984146
0.00245984567321
0.00248009609467
0.00246781231217
0.00244423370254
0.002426934601
0.00242700270298
0.00244442005484
0.00246811016342
0.00248048790574
0.00246029792618
0.00239192369659
0.00228556275897
0.00206031644409
0.00162423834361
0.000949684815823
0.000954511988659
0.00163781731533
0.00207581325959
0.00230755418525
0.00239516409976
0.00244417161949
0.00245998160365
0.00245000708665
0.00243066206655
0.002416593999
0.00241665497937
0.00243082743337
0.00245026335119
0.00246030584183
0.00244454071339
0.00239560732269
0.00230791250023
0.00207605409557
0.0016379324949
0.000954506389378
0.000950441229494
0.0016262036819
0.00205510858697
0.00228749207654
0.00238434515454
0.00239533043566
0.00239169561106
0.00237634879934
0.00235634723214
0.00234307643388
0.00234313426415
0.00235649934338
0.00237656942564
0.00239195143346
0.00239560155941
0.0023845495302
0.0022876261602
0.0020551817014
0.00162621639574
0.000950411610734
0.000930061216079
0.00156681253702
0.00196791509344
0.00218851066359
0.00228760001213
0.00230781918447
0.00228538985973
0.0022472568436
0.00221515974268
0.00219780861819
0.00219787166405
0.0022153181237
0.00224746662619
0.00228559376342
0.0023079680122
0.00228767104921
0.0021885259709
0.00196789461917
0.00156676747061
0.000930022598781
0.00088465915469
0.00143210053276
0.00177735871765
0.00196795596462
0.00205524349146
0.00207607569141
0.00206028820375
0.002029802584
0.00200224008922
0.00198668918101
0.00198675363462
0.00200239552886
0.0020299910644
0.00206045456538
0.00207618248791
0.00205528005589
0.00196794066979
0.00177731408593
0.00143204596247
0.00088462471579
0.000805767329649
0.00118653870778
0.0014320975512
0.00156684294318
0.0016263063439
0.00163801665706
0.00162431546746
0.00159975907787
0.00157737751298
0.00156437891984
0.00156443486498
0.00157750760437
0.00159991450045
0.00162445014709
0.00163810355068
0.00162634099586
0.00156683207843
0.00143206327368
0.00118650052391
0.000805743007804
0.000701969364128
0.000805801167545
0.000884704490006
0.000930111161041
0.000950502296115
0.000954598857136
0.000949784565894
0.000940185431159
0.000930156565297
0.000922494549277
0.000922527071527
0.000930222894313
0.000940257077985
0.000949841302661
0.000954630881077
0.000950512041533
0.000930101008911
0.00088468800298
0.000805787026728
0.000701956183899
0.00079045687353
0.00108320878468
0.00130109564685
0.00143807183656
0.00151410968798
0.00154802438839
0.00155541655302
0.00154839190331
0.00153756057557
0.0015299809743
0.00152995941302
0.00153750869174
0.00154832596588
0.0015553550962
0.00154798864696
0.00151411269575
0.00143810904959
0.00130115382677
0.00108327181063
0.000790491437016
0.00108316385336
0.00209215612737
0.00264750889253
0.00297158304689
0.00314274805896
0.00321423577165
0.00322604953117
0.00320772846759
0.00318283810345
0.00316644706189
0.00316639507624
0.00318270212921
0.00320753588234
0.00322584386808
0.00321407659466
0.00314267939326
0.00297160922317
0.00264759856087
0.00209226189358
0.00108321193681
0.00130101218284
0.00264740582405
0.00338586628572
0.00382743941147
0.00407163920406
0.00418316665724
0.00421222333536
0.00419840759753
0.00417296242554
0.00415506391589
0.00415498942669
0.00417276019137
0.00419810514269
0.00421187205788
0.00418285233227
0.00407142382642
0.00382734160197
0.00338586566764
0.00264746136644
0.0013010456526
0.00143794917392
0.00297140396606
0.0038273720591
0.00434804158844
0.00464341897339
0.00478493716584
0.00482812683834
0.00482074050013
0.00480317611153
0.00478885525563
0.00478877873981
0.00480296175109
0.00482039719007
0.00482764680272
0.00478448236338
0.00464304429937
0.00434778630594
0.00382723372058
0.00297135817632
0.00143794901004
0.00151398086252
0.0031425901436
0.00407162308372
0.00464348842549
0.00497311267232
0.00513970167319
0.00519624087256
0.00518799213474
0.00516133797595
0.0051416443128
0.00514153578832
0.00516103429172
0.0051875251324
0.00519569098825
0.00513925021163
0.00497262631751
0.0046430844888
0.00407133765039
0.0031424219602
0.00151393281416
0.00154794396421
0.00321423242144
0.00418335952952
0.00478525837749
0.005139925579
0.00531185332865
0.00536039477212
0.00534393916262
0.00530874989004
0.00528392395779
0.00528380989283
0.00530843108645
0.00534345065238
0.00535981163994
0.00531128128573
0.00513946381013
0.00478476482744
0.00418296583593
0.00321396531134
0.00154784663502
0.00155542539162
0.00322627348741
0.00421272107435
0.00482883666889
0.00519703181038
0.00536093568146
0.00539852529028
0.00536992044657
0.0053240132372
0.00529279715836
0.00529269261093
0.00532372351701
0.00536947904068
0.00539799539264
0.00536038445706
0.00519650644612
0.00482834172751
0.00421231019643
0.0032259716831
0.00155529426454
0.00154848964323
0.00320813312653
0.00419912212133
0.00482155883462
0.00518921988216
0.00534501704067
0.00537046838766
0.0053283537251
0.0052733748414
0.00523632055667
0.00523623691058
0.00527315052688
0.00532802814662
0.00537010098066
0.00534464735113
0.00518886813284
0.00482126695148
0.00419883380129
0.0032079012204
0.00154836295766
0.00153768675172
0.00318327535126
0.00417370464716
0.00480399668688
0.00516273658648
0.00531011178674
0.00532486597254
0.00527364979907
0.00520728647243
0.00516275470908
0.00516270729341
0.00520717497194
0.00527351929814
0.00532476837509
0.00531005732323
0.00516270447096
0.00480396082678
0.00417365890861
0.00318321588353
0.00153761304035
0.00153006318142
0.00316677198437
0.00415566477006
0.00478955406606
0.00514293594057
0.00528525612948
0.00529368912187
0.00523666972468
0.00516284564634
0.0051132357528
0.00511325026908
0.00516290482492
0.00523680560596
0.00529393918339
0.00528559916301
0.00514330413073
0.00478982557908
0.00415593685851
0.00316695439659
0.00153008567349
0.00152998022553
0.00316654596103
0.00415535225375
0.00478925917752
0.00514254228832
0.0052849160655
0.00529348721854
0.00523663772412
0.00516296773882
0.00511348131858
0.00511357108036
0.00516322486956
0.00523706507826
0.00529410384672
0.0052856618217
0.00514330492334
0.00478984164085
0.00415594133831
0.00316697646328
0.00153011175263
0.00153748883396
0.00318270921195
0.00417289753233
0.00480321676256
0.00516170714731
0.00530925174513
0.00532440451845
0.00527365421291
0.00520771888744
0.00516351828538
0.00516364852826
0.00520808913018
0.00527426134179
0.00532525958886
0.00531026055289
0.00516272689117
0.00480401251017
0.00417368464801
0.00318328966809
0.00153767964067
0.0015482662536
0.0032074293527
0.00419805562267
0.00482044606853
0.00518784556542
0.00534392331031
0.00536996674665
0.0053285192669
0.00527416436832
0.00523757798693
0.0052377204569
0.00527457099459
0.00532918710561
0.0053709002277
0.0053450152481
0.00518894950639
0.00482134682789
0.00419889916884
0.0032080424542
0.00154845931129
0.0015552635888
0.00322565959776
0.00421168251147
0.004827514291
0.00519568784664
0.00535990316242
0.00539814540699
0.00537032761171
0.00532514631909
0.00529445569049
0.00529459658602
0.00532555052627
0.00537098516323
0.00539901969056
0.00536089724379
0.00519667469129
0.00482841263097
0.00421243075496
0.00322619039307
0.00155541173519
0.00154789806114
0.00321389151367
0.00418261895155
0.00478424408142
0.00513909971282
0.00531112055296
0.00536021110721
0.00534450319398
0.00531002573018
0.00528571695848
0.00528584821465
0.00531039755628
0.00534508681026
0.00536094435707
0.00531189335625
0.0051397772338
0.00478489446614
0.00418315341726
0.00321426078161
0.00154797846099
0.00151405106845
0.00314259586666
0.00407128946237
0.0046428700183
0.00497243867143
0.00513936144542
0.00519625658449
0.00518861617996
0.00516256313525
0.0051433246116
0.00514344988187
0.00516290747921
0.00518912465014
0.00519684399545
0.00513991735504
0.0049729283864
0.00464327826778
0.00407160519762
0.00314279812994
0.00151407073844
0.00143809486934
0.00297171811926
0.00382742947371
0.00434784205122
0.00464309935751
0.00478474577267
0.00482827639541
0.00482133279763
0.00480417037973
0.00479017358811
0.00479029658124
0.00480449906507
0.00482179927841
0.00482879294664
0.00478520355312
0.00464345500474
0.00434810277784
0.00382760541322
0.00297181061675
0.0014380821345
0.00130118035422
0.00264790733702
0.0033862062392
0.00382757567577
0.00407165104667
0.00418322564006
0.00421251601851
0.00419904520383
0.00417395902177
0.00415636942733
0.00415649853814
0.00417429485255
0.00419949918124
0.00421298831639
0.0041836343241
0.00407195718273
0.00382778237367
0.00338632743979
0.00264795724024
0.00130116056708
0.00108329984423
0.00209266395382
0.00264795876109
0.00297190393157
0.00314296874875
0.00321446455119
0.00322641598845
0.0032083240941
0.00318368657975
0.00316752181596
0.00316763394022
0.00318397370012
0.00320870916882
0.00322681741636
0.00321481848727
0.00314324354156
0.00297209102413
0.00264806678818
0.00209270594749
0.00108328109312
0.000790481928986
0.00108340766933
0.00130132013442
0.00143825844019
0.00151425000661
0.00154814879254
0.00155557757287
0.00154864085547
0.00153791395341
0.0015304295234
0.00153047987015
0.0015380321452
0.00154878672984
0.00155571653736
0.00154825944132
0.00151432476772
0.00143829983083
0.00130133893461
0.00108340993557
0.000790462897001
0.000865896346516
0.00127134972788
0.00157708370684
0.0017744123889
0.00188904540896
0.00194578385112
0.00196592266086
0.00196716921418
0.00196306686946
0.00196021837531
0.00196018518724
0.00196298358103
0.00196705665849
0.00196580769167
0.00194570218784
0.00188902269336
0.00177444677229
0.00157715747037
0.00127143444679
0.000865936435662
0.00127130061888
0.0025415592115
0.00325641176326
0.00368516620893
0.00392221319072
0.00403190839212
0.00406344933722
0.00405488435627
0.00403464231562
0.00402035469987
0.00402029303286
0.00403448108933
0.00405465555655
0.00406319984262
0.00403171270915
0.00392213519948
0.00368521272539
0.00325654440588
0.0025417176089
0.00127137181996
0.00157699050703
0.00325626919803
0.00419349899415
0.00477044339134
0.00510646226187
0.00527690719597
0.00534098305326
0.00534700857341
0.00532968532745
0.00531434357102
0.00531426275252
0.00532946797355
0.00534669190167
0.00534061664841
0.0052765734161
0.0051062400404
0.00477035360606
0.00419351981441
0.00325635487343
0.00157703645658
0.00177427665039
0.0036849264499
0.00477034521273
0.00545310697137
0.00586585877028
0.00608971696604
0.00618709805258
0.00621869415687
0.00621054946347
0.00619768058517
0.00619758931588
0.0062103013579
0.00621833113385
0.00618666832706
0.00608926450324
0.00586548914023
0.00545285297866
0.00477020490011
0.00368487997046
0.00177426579936
0.00188892090099
0.00392199961342
0.00510639362808
0.00586588458055
0.00633950060818
0.00661475723076
0.00673878970495
0.00677410742765
0.00676680967933
0.00675305812906
0.00675295099272
0.00676651375729
0.00677367260191
0.006738281543
0.00661424963436
0.00633902045166
0.00586547887431
0.00510608514263
0.0039217987622
0.00188883785834
0.00194574677088
0.00403188382313
0.0052770310117
0.00608992623127
0.00661494354153
0.0069114561872
0.00704771093454
0.00708461472229
0.00707329376522
0.00705571330278
0.00705559494891
0.00707296553776
0.00708413131655
0.00704715050043
0.00691089895583
0.00661442598658
0.00608942589843
0.00527659943533
0.00403155703301
0.00194559322496
0.00196603548776
0.00406370997863
0.00534139348011
0.00618755713425
0.00673931374106
0.00704811362068
0.00718917342837
0.0072221315775
0.00720190606169
0.00717762964192
0.00717751639489
0.00720159620724
0.00722167913319
0.00718864020824
0.00704758186018
0.00673882614362
0.0061870956212
0.00534095350068
0.00406334915859
0.00196584111427
0.00196742584374
0.00405536639258
0.0053476354813
0.00621937653648
0.00677497060103
0.00708550056465
0.00722270153496
0.00724485415458
0.007210793217
0.0071769590575
0.00717687429071
0.00721056977571
0.00724453479682
0.00722231360436
0.00708511679106
0.00677464460184
0.0062190833149
0.00534734331192
0.00405511143741
0.00196725171144
0.00196336443486
0.00403515713546
0.00533036259594
0.00621134179258
0.00676788306402
0.00707450962406
0.0072028894703
0.00721125547589
0.0071623463953
0.00711875898552
0.0071187283034
0.00716227369961
0.00721115124851
0.00720277517799
0.00707442874475
0.00676785690271
0.00621133456063
0.00533035691761
0.00403513950295
0.00196328203248
0.00196042917921
0.00402069866729
0.00531485613204
0.00619836731579
0.00675409481093
0.00705698631262
0.00717874098259
0.00717759312202
0.00711897991363
0.0070693533834
0.00706938302674
0.00711907803767
0.00717776405262
0.00717899658039
0.00705731728925
0.0067544706607
0.00619873706586
0.00531522775006
0.00402100325078
0.00196049337495
0.00196026080652
0.0040203658838
0.00531446175789
0.00619797256153
0.00675369516431
0.00705663974021
0.00717852307911
0.00717755340837
0.00711912432992
0.00706962920387
0.00706972702305
0.00711940612626
0.00717801220579
0.00717915127654
0.0070573773757
0.00675446479454
0.00619871521511
0.00531520253954
0.00402098736177
0.00196047631323
0.00196294511658
0.00403430561024
0.00532934131415
0.00621031937656
0.0067668432482
0.00707361997823
0.00720236057596
0.00721120587766
0.00716277571644
0.00711953727755
0.00711968087654
0.00716318236001
0.00721185194879
0.0072032114689
0.0070745977503
0.00676784883177
0.00621128626847
0.00533030040389
0.00403511274298
0.00196324373523
0.00196690567285
0.00405426851337
0.00534629020961
0.0062180263775
0.00677359811699
0.00708434434974
0.0072220654851
0.0072449215316
0.00721152936065
0.00717818517718
0.00717834421502
0.00721198466465
0.00724563995704
0.00722298557273
0.00708538003629
0.00677464998208
0.00621903199592
0.00534728838115
0.00405510693162
0.00196720804281
0.00196556857641
0.00406266356326
0.00534003389508
0.00618614919806
0.00673791046836
0.00704697103997
0.0071886099652
0.00722236527375
0.00720291214946
0.0071792027869
0.00717935943612
0.00720336277002
0.00722306569355
0.00718948050932
0.00704791824
0.00673885574926
0.00618705221594
0.00534091782678
0.00406339279182
0.00196580698601
0.00194544272118
0.00403114636771
0.00527594511179
0.00608866418493
0.00661375088222
0.006910513472
0.00704730478068
0.00708496160813
0.00707439527983
0.00705738722049
0.00705753790377
0.0070748211505
0.0070856000454
0.00704806207906
0.00691128955577
0.00661448118752
0.00608936572288
0.00527659325576
0.00403166108753
0.00194557867707
0.0018887997628
0.00392168861142
0.00510574392242
0.00586500384451
0.00633858500382
0.00661408225329
0.00673855657783
0.00677447816791
0.00676781459937
0.00675456551107
0.00675471594769
0.00676822472222
0.00677506155075
0.00673920579429
0.00661469330642
0.00633911121303
0.00586546557209
0.00510614218075
0.00392197685557
0.00188884092752
0.0017742981241
0.00368502126265
0.00477014422169
0.00545265439934
0.00586530311339
0.00608928857985
0.00618704507696
0.00621911487163
0.00621147694358
0.0061990319079
0.00619918984869
0.00621189550359
0.00621968776404
0.00618765614229
0.00608982784117
0.00586572189989
0.00545297783745
0.00477038309944
0.00368516117155
0.00177428711014
0.00157708890135
0.00325665136965
0.00419366270541
0.00477037257791
0.00510625635768
0.00527675426969
0.00534109708541
0.00534751446789
0.00533062067575
0.00531565566879
0.00531582353497
0.0053310589691
0.00534810202857
0.00534170430599
0.005277278882
0.00510665228753
0.00477065098773
0.0041938374818
0.00325672970332
0.00157706428406
0.00127139959435
0.00254203935356
0.0032567873706
0.00368536610071
0.00392227984242
0.0040319784266
0.00406369498784
0.00405541763452
0.00403549115534
0.00402148664833
0.00402163706925
0.00403587852967
0.00405593684927
0.00406423566223
0.00403245537861
0.00392264869396
0.00368562496408
0.00325694437255
0.00254210303073
0.00127137244428
0.000865864270048
0.0012715354801
0.00157728646186
0.00177454714737
0.00188910119486
0.00194580195731
0.00196598106108
0.00196733965941
0.00196336480367
0.00196062523313
0.00196068653604
0.00196351034621
0.00196752055099
0.00196615343471
0.00194593804351
0.00188918853244
0.00177459325456
0.00157730311275
0.00127152829994
0.000865831624551
0.000940467453936
0.00145045553684
0.00183342846236
0.00208171347989
0.00222918675496
0.00230705062082
0.00234377614363
0.00236305602134
0.00237802711004
0.00238843378574
0.00238838437911
0.0023778969008
0.00236286992111
0.0023435725881
0.00230688745906
0.00222910996437
0.00208172504305
0.00183350342376
0.00145055118962
0.000940508938628
0.00145042494439
0.00295202537834
0.00380185280743
0.00431235027615
0.00459485665149
0.00472591942634
0.00476667307629
0.00476463015242
0.00475192511079
0.00474363490966
0.00474354963265
0.00475169672418
0.00476429782839
0.00476629984151
0.00472560968686
0.00459470833324
0.00431237518628
0.00380200176508
0.00295221785972
0.00145051933648
0.00183335826849
0.00380169422869
0.00490646264581
0.0055870328845
0.00598603465752
0.00619196664844
0.00627531489268
0.00629048084219
0.00627837695139
0.00626584736832
0.00626574806271
0.00627810512653
0.00629008259572
0.00627486043392
0.00619153934856
0.00598575070775
0.00558691923477
0.00490649083889
0.00380180435118
0.00183342005126
0.00208160381078
0.00431209510825
0.00558692875755
0.00638972335401
0.00688211738793
0.00715919716275
0.00729751653276
0.0073433698302
0.00734192064266
0.00733065414625
0.00733055411254
0.00734164512368
0.00734297567081
0.00729708850017
0.00715869934183
0.0068817141138
0.00638944650747
0.00558677765319
0.00431204744811
0.00208158864927
0.00222910864009
0.00459465544043
0.00598596357939
0.00688211706623
0.0074560598838
0.00780932829587
0.00799109989078
0.00805814660943
0.00806161242386
0.00804930304405
0.0080491927152
0.00806129644016
0.00805768723854
0.00799058384312
0.00780880693211
0.00745558497781
0.00688169352513
0.00598561883819
0.00459441559646
0.00222899628285
0.00230710038488
0.00472597094864
0.0061920982259
0.00715930695155
0.0078094168579
0.00821192517149
0.00842616499543
0.00850373910115
0.00850402920366
0.00848719663549
0.00848706290107
0.00850364908707
0.00850318292981
0.00842553577053
0.00821131944533
0.00780888999803
0.00715879193583
0.00619160528664
0.00472556302029
0.00230689010455
0.00234403423748
0.00476710281041
0.00627573984426
0.0072977212594
0.00799136965687
0.00842646263126
0.00865577506349
0.00873029966401
0.00871929737406
0.00869407140606
0.00869393862648
0.00871892542362
0.00872976689864
0.00865513308037
0.00842583140108
0.00799085091723
0.00729729982962
0.00627524421688
0.00476664548186
0.00234376467429
0.00236349556421
0.00476534445036
0.00629115342546
0.00734383562094
0.00805870102237
0.00850450884725
0.00873096524981
0.00879219783779
0.00876386610592
0.00872644261987
0.00872635187336
0.00876362202419
0.0087918523586
0.00873045839691
0.00850396055037
0.00805827104879
0.00734351384678
0.00629082219884
0.00476502189491
0.00236324863154
0.00237847749538
0.00475263773327
0.00627907021857
0.00734249833092
0.00806239312427
0.0085051620998
0.00872046551661
0.00876450833014
0.00871696997776
0.00866729360578
0.0086672841529
0.00871693846314
0.00876439928191
0.00872025176675
0.00850491682024
0.00806223031285
0.00734245237435
0.006279075644
0.00475262108711
0.00237834651901
0.00238871756115
0.00474405942924
0.00626629807153
0.00733112708959
0.00805011115587
0.00848846620375
0.00869540880384
0.00872726393796
0.00866756914134
0.00861102754391
0.00861106778527
0.00866768385822
0.00872742232914
0.00869560918685
0.00848867420938
0.00805035641772
0.00733147869686
0.00626674335483
0.00474445263129
0.00238876672026
0.00238845535099
0.00474355568527
0.00626575588059
0.00733063786664
0.00804965570612
0.00848805008083
0.00869511783578
0.00872717146988
0.00866769631078
0.00861128085439
0.00861137733987
0.00866796118787
0.00872759956007
0.00869571460427
0.00848869357449
0.00805029508607
0.0073313822481
0.00626662734067
0.00474434022492
0.00238867929803
0.00237778668809
0.00475130527996
0.00627763031929
0.0073412047387
0.0080611732904
0.0085040695727
0.00871971481743
0.00876425647518
0.00871724503036
0.00866790210234
0.00866804845257
0.00871764255587
0.00876487346747
0.00872051110516
0.0085049290576
0.00806202860846
0.00734217731406
0.00627875034825
0.00475231997415
0.00237811300318
0.00236257171796
0.00476353838589
0.00628918698023
0.00734209875274
0.00805705116173
0.00850300420685
0.00872992846104
0.00879192440474
0.00876428233079
0.00872733519838
0.0087274988313
0.00876474505067
0.00879263433569
0.00873078012154
0.00850389088205
0.00805792305378
0.00734308433152
0.00629034072147
0.0047645895159
0.00236291014574
0.00234311008127
0.00476524633877
0.00627367150412
0.00729595459671
0.00798964151743
0.00842489174647
0.00865469852973
0.00873008983715
0.00871994060304
0.00869532460595
0.00869548733915
0.00872041198893
0.00873079849131
0.00865550479336
0.00842567362917
0.0079903907218
0.00729677350893
0.00627466446191
0.00476614974388
0.00234337241666
0.0023063614738
0.00472443380917
0.00619023449447
0.00715743831243
0.00780774930628
0.00821049526042
0.00842520381293
0.00850358686357
0.00850472306755
0.00848854975482
0.00848871192477
0.00850518251772
0.00850424318582
0.00842590762418
0.00821113267892
0.00780834459233
0.00715809888267
0.00619094671192
0.0047250484898
0.00230648761705
0.00222860590025
0.0045936178482
0.00598454950167
0.00688054712803
0.0074545603437
0.00780807267348
0.00799024812053
0.00805789771122
0.00806205448459
0.00805032018154
0.00805048540456
0.00806250997245
0.00805851045711
0.0079908602552
0.00780859326258
0.00745498776132
0.00688096319468
0.0059849554621
0.00459392400927
0.00222860060563
0.00208129878248
0.00431155435744
0.00558601349389
0.0063885538071
0.00688086528991
0.00715807190085
0.00729679365479
0.00734311938563
0.0073422187871
0.0073314373859
0.00733161639209
0.00734269214785
0.0073437388888
0.00729739566369
0.0071585684038
0.00688122028199
0.00638882949942
0.00558622129964
0.00431165817608
0.00208122188633
0.00183317990313
0.00380154593878
0.00490599869861
0.00558628124161
0.0059851124973
0.00619107553585
0.00627470645459
0.0062902978252
0.00627867431355
0.00626657856918
0.00626677235027
0.0062791769042
0.00629095013199
0.00627534268277
0.00619158825768
0.00598546408829
0.00558650726765
0.0049061172118
0.00380156079929
0.00183308865022
0.00145030561261
0.00295211425734
0.00380173981189
0.00431198680466
0.00459428919008
0.0047253051542
0.00476623191448
0.00476450121633
0.00475213665582
0.0047441561688
0.00474432636757
0.00475256923715
0.00476506288486
0.0047667875975
0.00472576312743
0.00459460622778
0.00431218168444
0.00380182903355
0.00295210811771
0.00145022212487
0.000940282437263
0.00145043935335
0.00183339035949
0.00208156570043
0.00222890149388
0.0023066568416
0.00234336101821
0.00236270565378
0.0023777547053
0.00238823082085
0.00238828192018
0.00237786855944
0.00236283166146
0.00234345798332
0.0023067048155
0.00222889322923
0.00208152133463
0.00183332757627
0.00145036827409
0.000940212855547
0.00103772798943
0.00168659349973
0.00216658184748
0.00248160169011
0.00267938489168
0.00279847090075
0.00287651253166
0.00294295896715
0.00300379834628
0.00304327535212
0.00304321869507
0.00300364195233
0.00294272242892
0.002876236023
0.00279823439995
0.00267925535238
0.00248158531125
0.00216664497616
0.00168668339928
0.00103776982569
0.00168660437352
0.00347467603699
0.00447813641713
0.00507992672119
0.00541150460017
0.00556446917815
0.00561816292003
0.0056339788335
0.0056445822382
0.00565374908872
0.00565362540674
0.00564424036453
0.00563347322764
0.00561758923785
0.00556398581446
0.00541125281433
0.00507991777348
0.00447829804327
0.00347490212101
0.00168672190059
0.00216656784872
0.00447798452675
0.00575899220838
0.00653719564197
0.0069832726817
0.00720617755
0.00729533766352
0.00731441054263
0.00730653810823
0.0072975136647
0.00729737463108
0.00730614762595
0.00731382218077
0.00729465283733
0.00720555582178
0.00698287823038
0.00653705545048
0.00575905534649
0.00447815644786
0.00216665883867
0.00248155516706
0.00507969971288
0.00653710401106
0.00743551857221
0.00797910010006
0.00828510401584
0.0084405314111
0.00849020058959
0.00848433946034
0.00846862734201
0.00846850129337
0.00848397697041
0.00848965021077
0.00843987391033
0.00828440026015
0.00797857962694
0.00743520399324
0.00653698212015
0.00507971871224
0.00248157186033
0.00267936488395
0.00541136698622
0.00698323997828
0.00797910700786
0.00862468841328
0.00902758937766
0.00924093981795
0.00931300480336
0.00930412160539
0.00928071333449
0.00928058558928
0.00930373334934
0.00931240390473
0.00924022716091
0.00902688901046
0.00862419222165
0.00797861475335
0.00698288504928
0.0054111626838
0.00267928072953
0.00279856637215
0.00556464170096
0.00720639620831
0.00828523547836
0.00902766543142
0.00950315091977
0.00975267901125
0.00982529603226
0.00980271766302
0.00976932891508
0.00976916924243
0.00980223416078
0.00982454379602
0.00975177515003
0.00950227347774
0.00902693418017
0.00828456705823
0.00720582627049
0.00556420719834
0.00279836750442