/*--------------------------------*- C++ -*----------------------------------*\
| =========                 |                                                 |
| \\      /  F ield         | OpenFOAM: The Open Source CFD Toolbox           |
|  \\    /   O peration     | Version:  3.0.1                                 |
|   \\  /    A nd           | Web:      www.OpenFOAM.org                      |
|    \\/     M anipulation  |                                                 |
\*---------------------------------------------------------------------------*/
FoamFile
{
    version     2.0;
    format      ascii;
    class       volScalarField;
    location    "4.5";
    object      p;
}
// * * * * * * * * * * * * * * * * * * * * * * * * * * * * * * * * * * * * * //

dimensions      [1 -1 -2 0 0 0 0];

internalField   nonuniform List<scalar> 
7968
(
5116.73063406
5116.72631511
5116.65318924
5116.55174587
5116.44785043
5116.36184318
5116.30565698
5116.27922041
5116.27067106
5116.26917437
5116.26899937
5116.27014286
5116.27833903
5116.30443863
5116.36032788
5116.4460835
5116.5498267
5116.65117271
5116.72424906
5116.72853939
5116.7261802
5116.77440544
5116.72962115
5116.64242081
5116.54233824
5116.4548024
5116.39553817
5116.3672923
5116.35825498
5116.35655823
5116.35638001
5116.35771675
5116.36639018
5116.3942841
5116.45324078
5116.54054023
5116.64047232
5116.72759263
5116.77234049
5116.72408609
5116.65280064
5116.72938516
5116.69826334
5116.61232228
5116.50244731
5116.40084964
5116.32750428
5116.28737698
5116.26998247
5116.26393069
5116.26374484
5116.26942225
5116.28643425
5116.32619154
5116.39921391
5116.50056845
5116.61028863
5116.69615605
5116.72725286
5116.65064287
5116.55106558
5116.64190398
5116.61204019
5116.51639472
5116.39103497
5116.27556782
5116.19384441
5116.15039191
5116.13286474
5116.12700088
5116.12682718
5116.13234338
5116.14948632
5116.19254476
5116.27390829
5116.38909235
5116.51426947
5116.60983057
5116.63967426
5116.54881823
5116.44679861
5116.54148491
5116.50181554
5116.39066285
5116.25406721
5116.13790014
5116.06589208
5116.03751748
5116.03424419
5116.03658205
5116.03643145
5116.03378084
5116.03669843
5116.06466959
5116.13627496
5116.25209885
5116.38846676
5116.49950396
5116.53914831
5116.44443189
5116.36044889
5116.45355044
5116.39978404
5116.27470251
5116.137352
5116.03630389
5115.9906852
5115.99374018
5116.01725895
5116.03425619
5116.03411895
5116.01683567
5115.99297875
5115.9895165
5116.03471636
5116.1353806
5116.27245185
5116.39737525
5116.45110204
5116.3579837
5116.30386648
5116.39385846
5116.32595836
5116.19238769
5116.06463249
5115.98991092
5115.98153704
5116.02727949
5116.08633911
5116.12234014
5116.12220138
5116.08591003
5116.02650427
5115.98034226
5115.98828711
5116.06262133
5116.19007733
5116.32345267
5116.39129487
5116.30126614
5116.2770957
5116.3652313
5116.28538439
5116.1483502
5116.03552954
5115.99213224
5116.02640278
5116.1225277
5116.23143443
5116.29482263
5116.29466375
5116.23094496
5116.12164692
5116.02505859
5115.99034912
5116.03336933
5116.14589932
5116.2827441
5116.36252857
5116.27434396
5116.26839599
5116.3559916
5116.26772585
5116.13044413
5116.03178433
5116.0151056
5116.08489989
5116.23088795
5116.38147386
5116.46460022
5116.46439973
5116.38085098
5116.22977161
5116.08326403
5116.01302032
5116.02935743
5116.12778358
5116.26491494
5116.35311821
5116.26547538
5116.2670358
5116.35440478
5116.26174958
5116.12467063
5116.03415709
5116.03211341
5116.12088597
5116.2942356
5116.46454226
5116.55678443
5116.55651797
5116.46372181
5116.29281356
5116.11890023
5116.0296692
5116.03141361
5116.1217778
5116.25875078
5116.35134414
5116.26393444
5116.26733281
5116.3546951
5116.26201499
5116.12498665
5116.0345453
5116.0325012
5116.12119483
5116.29437554
5116.46450239
5116.55660084
5116.55625954
5116.46346871
5116.29264722
5116.11887725
5116.02973072
5116.03151929
5116.12187858
5116.25884117
5116.35145582
5116.2640614
5116.26928378
5116.35684076
5116.26849824
5116.13135623
5116.03284283
5116.01615798
5116.08572249
5116.2312409
5116.38130049
5116.4640247
5116.46363664
5116.3801339
5116.22931702
5116.08319488
5116.01319133
5116.02965373
5116.12809289
5116.26519852
5116.35346803
5116.2658772
5116.27856916
5116.36661484
5116.28662133
5116.14968641
5116.03703308
5115.99360723
5116.0275429
5116.12300803
5116.23115559
5116.29398006
5116.29357928
5116.22996056
5116.12105631
5116.02498068
5115.99061168
5116.03381808
5116.14639277
5116.28325664
5116.3631604
5116.27507092
5116.3059642
5116.39580664
5116.32768452
5116.19409095
5116.06640086
5115.99157719
5115.98279727
5116.02786032
5116.08615509
5116.12159695
5116.12121535
5116.08502279
5116.02600937
5115.98033043
5115.9886712
5116.06324245
5116.19080344
5116.32427793
5116.39229754
5116.30240007
5116.3632426
5116.45614568
5116.40208707
5116.27682572
5116.1393519
5116.03809669
5115.99202148
5115.99440313
5116.01719186
5116.0336541
5116.03329143
5116.0161188
5115.99265386
5115.98968212
5116.0353077
5116.13625946
5116.27352834
5116.39862944
5116.45257498
5116.35961968
5116.45034289
5116.54476818
5116.50476809
5116.39329635
5116.25637643
5116.13984633
5116.06732983
5116.03831803
5116.03439006
5116.03625452
5116.03590998
5116.03337419
5116.03666481
5116.06510757
5116.13715195
5116.25331411
5116.38996603
5116.50124209
5116.54112694
5116.44666821
5116.55527553
5116.64588178
5116.61567087
5116.51961577
5116.39378869
5116.27779741
5116.19547668
5116.15139998
5116.13328728
5116.12703971
5116.12670697
5116.13230832
5116.14981368
5116.1933345
5116.27516241
5116.39074164
5116.51626089
5116.61209596
5116.64218905
5116.55155537
5116.6575862
5116.73396376
5116.70250689
5116.61611891
5116.50568718
5116.40346248
5116.3294524
5116.28867711
5116.27071927
5116.26429148
5116.26396242
5116.26976013
5116.2871203
5116.32734352
5116.40085391
5116.50265234
5116.61275744
5116.69891308
5116.7302444
5116.65384328
5116.73132274
5116.77938035
5116.73429225
5116.64664298
5116.54596855
5116.45775308
5116.39776791
5116.36881784
5116.35917595
5116.35707537
5116.35674881
5116.35822048
5116.36727206
5116.39568049
5116.45517845
5116.54296499
5116.64331068
5116.73072273
5116.77567551
5116.72759109
5116.73588619
5116.73141889
5116.65801278
5116.55612314
5116.45160533
5116.36489548
5116.30794333
5116.28077456
5116.27161632
5116.26971396
5116.26938602
5116.27066853
5116.27924344
5116.30587391
5116.3623461
5116.44865804
5116.55284379
5116.65449653
5116.7277554
5116.73217575
4627.06350822
4627.03109393
4626.93519461
4626.81801662
4626.71161694
4626.63024666
4626.58147334
4626.56387728
4626.5632162
4626.56599421
4626.56581257
4626.56267015
4626.56296476
4626.58020872
4626.62867245
4626.7098005
4626.81602878
4626.93309914
4627.02893441
4627.06131243
4627.03094592
4627.03768527
4626.95980252
4626.85491005
4626.763054
4626.69601206
4626.65881994
4626.64991375
4626.6543297
4626.6591882
4626.65902121
4626.65382457
4626.64905864
4626.65761155
4626.69447785
4626.76126209
4626.85293057
4626.95771682
4627.03554089
4627.02876217
4626.93480058
4626.95959054
4626.88004567
4626.77044368
4626.67499544
4626.60629669
4626.56774444
4626.5564521
4626.55838117
4626.56152368
4626.56136484
4626.55789817
4626.55562916
4626.56656744
4626.60479252
4626.67321397
4626.76845862
4626.87793795
4626.95741358
4626.93257621
4626.81733682
4626.8544277
4626.77015116
4626.65334047
4626.5550572
4626.48996551
4626.45946417
4626.45633085
4626.46562128
4626.47235816
4626.47223044
4626.46521314
4626.45561139
4626.45836778
4626.48853552
4626.55330326
4626.65134378
4626.76799911
4626.85219077
4626.81504135
4626.71059055
4626.76220298
4626.67427027
4626.55456884
4626.46503765
4626.42287604
4626.42517825
4626.45559054
4626.48969721
4626.50931906
4626.50921961
4626.48938619
4626.45501494
4626.42425097
4626.42155711
4626.46332402
4626.55255939
4626.67206467
4626.7598957
4626.70819918
4626.62880304
4626.6946617
4626.6049758
4626.48875008
4626.42202546
4626.42261745
4626.47525562
4626.55634118
4626.62931916
4626.66885908
4626.66877014
4626.62904291
4626.5558234
4626.47439226
4626.42133968
4626.42034559
4626.48673497
4626.60270353
4626.69226236
4626.62629367
4626.57960466
4626.6569366
4626.56575998
4626.45741649
4626.42325167
4626.47406688
4626.58718773
4626.72822387
4626.84558351
4626.90751392
4626.90741591
4626.84528294
4626.72766761
4626.5862668
4626.47271989
4626.42151061
4626.45538119
4626.56340218
4626.65443169
4626.57696993
4626.5616357
4626.64754973
4626.5538583
4626.4534197
4626.45259449
4626.55395272
4626.7270231
4626.92091288
4627.06423332
4627.13871921
4627.13859248
4627.06383724
4626.92017582
4626.72586155
4626.55232739
4626.45057697
4626.45110383
4626.55130017
4626.64488394
4626.55885483
4626.56078679
4626.65171867
4626.55547639
4626.4622913
4626.48610786
4626.62625374
4626.84376878
4627.06375843
4627.23226263
4627.32068919
4627.32052093
4627.2317205
4627.06274508
4626.84218891
4626.62414869
4626.48362985
4626.45959243
4626.55264374
4626.64883572
4626.55783421
4626.56369035
4626.65670357
4626.55873359
4626.46910223
4626.50584519
4626.6658804
4626.90576856
4627.13832763
4627.32077771
4627.41677984
4627.41653855
4627.32002081
4627.13696444
4626.90370386
4626.66322979
4626.50284276
4626.46598347
4626.55559948
4626.6535771
4626.56054888
4626.56400536
4626.65707389
4626.55914975
4626.46964259
4626.50648111
4626.66647888
4626.90620909
4627.13855225
4627.32082197
4627.41668587
4627.41635875
4627.31982434
4627.13683074
4626.90368202
4626.66333964
4626.50302849
4626.46616357
4626.55574361
4626.65371901
4626.56068172
4626.5617154
4626.65278707
4626.55665276
4626.46374455
4626.48786026
4626.62787619
4626.8449452
4627.06434329
4627.23231709
4627.3203415
4627.31995834
4627.23115886
4627.06237475
4626.84209898
4626.6244307
4626.48415732
4626.46009492
4626.55307665
4626.64927272
4626.55825154
4626.56317322
4626.6492444
4626.55566941
4626.45555335
4626.45505375
4626.55621164
4626.72862835
4626.92167697
4627.06418712
4627.13806843
4627.13766115
4627.06296372
4626.91961345
4626.72568692
4626.55270076
4626.45131001
4626.45185355
4626.55202609
4626.64564914
4626.55962118
4626.58179139
4626.65922197
4626.56809443
4626.45991562
4626.42601136
4626.47655007
4626.58890747
4626.72886936
4626.84520549
4626.90641239
4626.90600449
4626.84397619
4626.72680959
4626.58608024
4626.47319008
4626.4224009
4626.45631725
4626.56446721
4626.65560282
4626.57819071
4626.6317261
4626.69757516
4626.60785733
4626.49167045
4626.42491924
4626.42511061
4626.47694266
4626.55694338
4626.62887409
4626.66768287
4626.66729452
4626.62771308
4626.5550187
4626.47433075
4626.4219968
4626.42151361
4626.48814681
4626.60425807
4626.69394903
4626.62808597
4626.71426708
4626.76577919
4626.67772499
4626.5578667
4626.46802586
4626.42535338
4626.42684156
4626.45626903
4626.48942958
4626.50837675
4626.50800845
4626.48833432
4626.45448409
4626.42443994
4626.42246617
4626.46479542
4626.55443214
4626.67415498
4626.76213981
4626.71058655
4626.82175843
4626.85868394
4626.77421015
4626.65709496
4626.55832017
4626.49254461
4626.46114159
4626.45713409
4626.46562487
4626.47177745
4626.47141772
4626.46457695
4626.45544691
4626.4588896
4626.48981098
4626.55521267
4626.65372053
4626.77065023
4626.85502018
4626.81804411
4626.93983239
4626.96445182
4626.88465878
4626.77465267
4626.67860439
4626.60913908
4626.56971225
4626.55756384
4626.55874675
4626.56137617
4626.56102202
4626.55771021
4626.55590423
4626.56750083
4626.60645323
4626.67553135
4626.77128552
4626.88108451
4626.96075969
4626.93609446
4627.03635233
4627.04294417
4626.96478751
4626.85943248
4626.76691958
4626.69906548
4626.66099355
4626.65121595
4626.65488473
4626.65924146
4626.65888892
4626.65385555
4626.64956189
4626.65878511
4626.69638192
4626.76384736
4626.85606697
4626.96121113
4627.03925013
4627.03262012
4627.06899681
4627.03645829
4626.940281
4626.82261635
4626.71552691
4626.63332974
4626.58367619
4626.56522868
4626.56384923
4626.56615359
4626.56580833
4626.56283829
4626.56359971
4626.58150232
4626.63068733
4626.71249475
4626.81928971
4626.93674076
4627.03278712
4627.0652835
4137.400553
4137.34575186
4137.231697
4137.1032315
4136.99732438
4136.92291392
4136.88400921
4136.87561058
4136.88142316
4136.88707241
4136.88687861
4136.88083866
4136.87462929
4136.88264424
4136.92120902
4136.99535581
4137.10108044
4137.22943118
4137.3434068
4137.39816531
4137.34563222
4137.35214675
4137.26886355
4137.16370397
4137.08495617
4137.03712482
4137.01903794
4137.02391727
4137.03655344
4137.0449771
4137.04480618
4137.03603634
4137.02304269
4137.01779667
4137.03553372
4137.08307177
4137.1616087
4137.26664291
4137.3498578
4137.34328401
4137.23136915
4137.26870663
4137.17573758
4137.05035719
4136.95556879
4136.89892162
4136.87542176
4136.87533857
4136.88336699
4136.88898686
4136.88883201
4136.88289094
4136.87452411
4136.87424704
4136.89739502
4136.95374052
4137.04830822
4137.17354538
4137.2664185
4137.22901126
4137.10265549
4137.16330269
4137.05009194
4136.89936633
4136.79003666
4136.73204421
4136.71619891
4136.72705339
4136.74275932
4136.752949
4136.75282626
4136.74236547
4136.72635801
4136.71514943
4136.73061908
4136.78826107
4136.89734615
4137.04789278
4137.16098667
4137.10024299
4136.99639091
4137.08414693
4136.95483208
4136.78949334
4136.68015895
4136.63899128
4136.45689314
4136.15197265
4136.04090283
4136.06485715
4136.06477665
4136.04065345
4136.15172737
4136.45632675
4136.63763987
4136.67837024
4136.78746595
4136.95259731
4137.0817809
4136.9938947
4136.9215083
4137.03571577
4136.8974738
4136.73062622
4136.63802361
4136.08576148
4134.51509281
4132.97052776
4132.50028151
4132.54477539
4132.54479238
4132.50032147
4132.97139464
4134.51643483
4136.08551388
4136.63628393
4136.7286223
4136.89518963
4137.03327862
4136.91890955
4136.88207658
4137.01693781
4136.87314103
4136.71376179
4136.45477117
4134.51291257
4130.59830176
4127.55150479
4126.72334263
4126.79275986
4126.79288721
4126.72370388
4127.55356477
4130.60213604
4134.51505107
4136.45339812
4136.71201326
4136.87080342
4137.01440459
4136.87937434
4136.87318303
4137.02119066
4136.8723009
4136.72370319
4136.1482354
4132.96521652
4127.54782272
4123.72459738
4122.7294687
4122.8244053
4122.82457452
4122.72994636
4123.72720848
4127.55289755
4132.96898684
4136.14724823
4136.72137447
4136.86972551
4137.01848631
4136.8703581
4136.87870286
4137.03349598
4136.8799201
4136.73887671
4136.03611082
4132.49328602
4126.71770679
4122.72748803
4121.7129402
4121.82640152
4121.82653089
4121.71328621
4122.72994684
4126.72270874
4132.49706229
4136.03496113
4136.73615044
4136.87704483
4137.03055224
4136.87571985
4136.8844452
4137.04202927
4136.88562931
4136.74909329
4136.06008782
4132.5379105
4126.78743547
4122.82288136
4121.82691462
4121.9493431
4121.94939063
4121.82700877
4122.82492942
4126.79188554
4132.54109116
4136.0584253
4136.74596829
4136.88243002
4137.03881857
4136.88127511
4136.88479105
4137.04245145
4136.88609944
4136.74963311
4136.06075109
4132.53876838
4126.78847512
4122.8239214
4121.827806
4121.95007791
4121.950031
4121.82763593
4122.82556197
4126.79240598
4132.54140044
4136.05861455
4136.74613924
4136.88259893
4137.03899128
4136.88143314
4136.87971801
4137.03471378
4136.88125115
4136.74033709
4136.03793722
4132.49568872
4126.72069051
4122.73052139
4121.71557742
4121.82860423
4121.82849482
4121.71522993
4122.73189257
4126.72429683
4132.49799547
4136.03554421
4136.73666852
4136.87756654
4137.03108395
4136.87622366
4136.87484587
4137.02312334
4136.87435617
4136.72592969
4136.15062535
4132.96805449
4127.55121319
4123.72791435
4122.732148
4122.8264458
4122.82629265
4122.73166897
4123.72898985
4127.55433235
4132.96977781
4136.14785014
4136.72216417
4136.8706012
4137.01941946
4136.87127971
4136.8844237
4137.01951462
4136.87578785
4136.71655625
4136.45743418
4134.51521453
4130.60029543
4127.55298453
4126.72397106
4126.79263987
4126.79241866
4126.72328985
4127.5533846
4130.60203757
4134.51517239
4136.45406664
4136.71282387
4136.87205855
4137.01582077
4136.88083787
4136.92464901
4137.03896772
4136.90070447
4136.73384434
4136.64093428
4136.08799359
4134.51611324
4132.97028564
4132.4989972
4132.54273224
4132.54241865
4132.49805498
4132.9696068
4134.51553108
4136.08576915
4136.63735
4136.73016371
4136.89704276
4137.03531888
4136.92105424
4137.00041783
4137.08813842
4136.95869607
4136.79311153
4136.68313253
4136.64144545
4136.45845597
4136.15230925
4136.04023151
4136.06353894
4136.06315998
4136.03916731
4136.15077036
4136.45624438
4136.63833096
4136.6795976
4136.78952061
4136.95509405
4137.0845206
4136.9968026
4137.1075789
4137.16807142
4137.05466339
4136.90357229
4136.79357463
4136.7347505
4136.71771007
4136.72766928
4136.74239288
4136.75200508
4136.75162718
4136.74129596
4136.7258762
4136.71529771
4136.73182328
4136.7902768
4136.90010083
4137.05109581
4137.16445015
4137.10392583
4137.23705342
4137.27418479
4137.18095635
4137.05508907
4136.95955575
4136.90196221
4136.87737713
4136.87625133
4136.88336949
4136.88838711
4136.88800766
4136.88225792
4136.87447335
4136.87501953
4136.89912713
4136.95635313
4137.05165028
4137.17737029
4137.27052653
4137.23335666
4137.35177511
4137.35809351
4137.27450794
4137.16877729
4137.08920871
4137.04036709
4137.02117313
4137.02497822
4137.03671098
4137.04453615
4137.04415576
4137.03559683
4137.02319448
4137.0188112
4137.03753042
4137.08600694
4137.16532217
4137.27089481
4137.35441107
4137.34806174
4137.40675929
4137.35186618
4137.23748367
4137.10840733
4137.00163821
4136.92620128
4136.886218
4136.87678243
4136.88172897
4136.88681561
4136.88644339
4136.8806379
4136.87503712
4136.88390684
4136.92342669
4136.99849816
4137.10500727
4137.23390228
4137.34818326
4137.40303852
3647.67291424
3647.59106775
3647.46338796
3647.33042175
3647.22917266
3647.16532023
3647.13925154
3647.14040043
3647.15025866
3647.15631807
3647.15611704
3647.14965045
3647.13937196
3647.13780349
3647.16347863
3647.22701295
3647.32804094
3647.46086531
3647.58843766
3647.67023938
3647.59097425
3647.61029732
3647.52744935
3647.43665621
3647.37893141
3647.35418185
3647.35551696
3647.37031294
3647.38342508
3647.38881729
3647.3886437
3647.38289034
3647.36940087
3647.35421356
3647.35247751
3647.37687541
3647.43435329
3647.52500346
3647.60776807
3647.58836329
3647.46312145
3647.52738624
3647.41661965
3647.27939129
3647.17406573
3647.10847177
3647.0765616
3647.06561961
3647.0627264
3647.06130677
3647.06115344
3647.06224671
3647.06478795
3647.07534336
3647.10684148
3647.1720855
3647.27717129
3647.4142446
3647.52488884
3647.46053999
3647.3299413
3647.43639347
3647.27916176
3647.09034105
3646.94426309
3646.5117375
3645.38517942
3644.28644326
3643.94462757
3643.94981456
3643.94976874
3643.94444262
3644.28661781
3645.38559666
3646.51083987
3646.94228945
3647.08813271
3647.27679638
3647.43389232
3647.32733841
3647.22831718
3647.37823017
3647.17332743
3646.9436634
3645.97676978
3642.73478163
3637.55607491
3633.54718474
3632.34467941
3632.36626415
3632.36647515
3632.34529503
3633.54955983
3637.56059496
3642.73809776
3645.97599062
3646.94140663
3647.17093423
3647.37571652
3647.22566605
3647.16389493
3647.35273444
3647.10688197
3646.51013472
3642.73260554
3633.4585245
3621.85479261
3613.92178164
3611.67525884
3611.72278967
3611.72349436
3611.67734963
3613.92692248
3621.86361863
3633.46788733
3642.73698191
3646.50850916
3647.10444433
3647.35020597
3647.16119582
3647.1371431
3647.35311526
3647.07393255
3645.38155232
3637.54971963
3621.85121319
3604.18038858
3592.78794838
3589.69184402
3589.7711538
3589.7723203
3589.6952468
3592.79530159
3604.19218578
3621.8644678
3637.55979922
3645.38173265
3647.07138812
3647.35053859
3647.13439377
3647.1376076
3647.36702624
3647.06203704
3644.27986074
3633.53705746
3613.91460477
3592.78414917
3579.597386
3576.08461763
3576.1971266
3576.19846243
3576.08848683
3579.60565155
3592.79743622
3613.92955949
3633.54988138
3644.28235297
3647.05939745
3647.36432874
3647.1347993
3647.14702526
3647.37964598
3647.05858783
3643.93649817
3632.3326714
3611.66645767
3589.68670923
3576.08338375
3572.50218007
3572.64310483
3572.64435871
3572.50587691
3576.09141257
3589.69977337
3611.68135898
3632.34583266
3643.93946732
3647.05571504
3647.37672503
3647.14411909
3647.15313247
3647.38512269
3647.05715943
3643.94158779
3632.35433011
3611.71472178
3589.76752284
3576.19792762
3572.64533922
3572.80069496
3572.80185394
3572.64873858
3576.2054379
3589.77973876
3611.72883491
3632.36706448
3643.94446816
3647.05401916
3647.38191152
3647.15006436
3647.15352271
3647.38561009
3647.05763447
3643.94218087
3632.35565691
3611.71729833
3589.7712586
3576.20214932
3572.64945585
3572.80461228
3572.80567379
3572.65257205
3576.20914605
3589.78270227
3611.73065203
3632.36787966
3643.94469721
3647.05418749
3647.38210957
3647.15027307
3647.14817104
3647.38104679
3647.05995749
3643.93826254
3632.3364796
3611.67397307
3589.6977593
3576.0959871
3572.51470346
3572.65516487
3572.6561592
3572.51763143
3576.10271716
3589.70888968
3611.68698178
3632.34842697
3643.94050236
3647.05630646
3647.37734786
3647.1447778
3647.13948958
3647.36923493
3647.06419238
3644.28221115
3633.54164728
3613.92472458
3592.79998075
3579.61581279
3576.10298477
3576.21483052
3576.21574481
3576.10564288
3579.62213571
3592.81069172
3613.93731558
3633.55291316
3644.28364557
3647.06046333
3647.36546311
3647.13600838
3647.13979534
3647.35603235
3647.07676369
3645.38402533
3637.55300931
3621.85949699
3604.1951606
3592.80580538
3589.70959474
3589.78797562
3589.78866479
3589.71157265
3592.81099187
3604.20442183
3621.87053725
3637.56121957
3645.38299748
3647.07302807
3647.35231395
3647.13631225
3647.16746287
3647.35638016
3647.11039303
3646.51311518
3642.73433188
3633.46223943
3621.86292924
3613.93258786
3611.6859043
3611.73249394
3611.73281121
3611.68676718
3613.93589331
3621.86965234
3633.46970785
3642.73722049
3646.51002475
3647.10675505
3647.352794
3647.16401178
3647.23295902
3647.38275589
3647.17762358
3646.94733513
3645.97805099
3642.73571149
3637.55710587
3633.54891446
3632.34610029
3632.36688165
3632.36682092
3632.34584276
3633.55002033
3637.55987085
3642.73713766
3645.97534392
3646.94355174
3647.17407015
3647.37926815
3647.2295152
3647.33574902
3647.4419523
3647.28443727
3647.09501161
3646.94791761
3646.51443054
3645.38673828
3644.28610177
3643.94311896
3643.94753458
3643.94721864
3643.94215672
3644.28512587
3645.38570317
3646.51199706
3646.94437643
3647.09147668
3647.28094729
3647.438476
3647.33226232
3647.46998278
3647.53393564
3647.42282635
3647.28491583
3647.17862822
3647.11192201
3647.07880965
3647.06656268
3647.06261616
3647.06049832
3647.06010992
3647.06146773
3647.06473248
3647.07638115
3647.10900533
3647.17535682
3647.28147937
3647.41931392
3647.5304024
3647.46642069
3647.5985163
3647.61753083
3647.53428583
3647.44272042
3647.38393952
3647.35792489
3647.35786347
3647.37128431
3647.38328643
3647.38797501
3647.3875653
3647.38209213
3647.36939097
3647.3553809
3647.35498196
3647.38067057
3647.43924856
3647.53070959
3647.6139346
3647.5949047
3647.68061085
3647.59861871
3647.47046476
3647.33667981
3647.23433898
3647.16922852
3647.14183961
3647.14173831
3647.15058343
3647.15600273
3647.15562102
3647.14946539
3647.1399533
3647.13948537
3647.16641581
3647.23119304
3647.33330203
3647.46693606
3647.595006
3647.67694933
3157.90327677
3157.79751101
3157.6750671
3157.54430859
3157.44316917
3157.37743926
3157.34694972
3157.33700657
3157.32964307
3157.32224585
3157.32202617
3157.3289716
3157.33584119
3157.34529104
3157.37529524
3157.44064225
3157.54152895
3157.67213232
3157.79446453
3157.90016848
3157.79742029
3157.79884945
3157.72083035
3157.62783234
3157.56272598
3157.52270204
3157.49658696
3157.46905411
3157.43527987
3157.40927637
3157.40909134
3157.43470469
3157.46805596
3157.49514513
3157.52078914
3157.56038142
3157.62518538
3157.7180042
3157.79589447
3157.79440155
3157.67488699
3157.72086244
3157.59324012
3157.42198367
3157.27733367
3156.82432419
3155.6593414
3154.51340976
3154.12571502
3154.10227171
3154.1021628
3154.12536477
3154.51333886
3155.65942371
3156.82307014
3157.27502125
3157.41939631
3157.59049122
3157.71796246
3157.67190411
3157.54399364
3157.62772539
3157.42183218
3157.13959803
3155.47905379
3150.65141343
3143.59277264
3138.27796021
3136.69921566
3136.69018525
3136.69046938
3136.7000742
3138.28059839
3143.59722233
3150.65513364
3155.47963007
3157.13706272
3157.41909702
3157.62485373
3157.54101845
3157.44252396
3157.56216996
3157.27668197
3155.47842785
3147.53161393
3131.6472513
3113.72934469
3102.12615704
3098.89154074
3098.90738058
3098.90845415
3098.89499645
3102.1330981
3113.73942709
3131.65827333
3147.54011959
3155.47887432
3157.27396595
3157.55935578
3157.43956602
3157.37620387
3157.52128643
3156.82276571
3150.64725449
3131.64475413
3102.03134652
3073.11105102
3055.772159
3051.14016008
3051.19672431
3051.1991505
3051.14747926
3055.78532667
3073.12844606
3102.04927252
3131.659703
3150.65451715
3156.82077822
3157.51858091
3157.37329642
3157.34486863
3157.49395859
3155.65584986
3143.58473366
3113.72590314
3073.10991562
3036.273398
3014.96113697
3009.39611395
3009.49210863
3009.49556864
3009.40618285
3014.97819732
3036.29637508
3073.13356753
3113.74544356
3143.59815734
3155.6560956
3157.49134068
3157.34205419
3157.33398586
3157.46531495
3154.50706612
3138.26705041
3102.12058617
3055.77000031
3014.95680673
2991.6595868
2985.66517136
2985.82866549
2985.83237833
2985.67555248
2991.67638567
3014.98256537
3055.79802315
3102.14360511
3138.2834693
3154.50954668
3157.46271397
3157.33130337
3157.32592114
3157.4308844
3154.11784715
3136.6866346
3098.884539
3051.13799528
3009.39235427
2985.6627087
2979.67967903
2979.89928788
2979.90240722
2979.68853848
2985.67935723
3009.41732752
3051.16578186
3098.90828653
3136.70362218
3154.12089555
3157.42819747
3157.32335204
3157.31849577
3157.40487855
3154.0942005
3136.67746386
3098.90158754
3051.19509207
3009.4909259
2985.8319587
2979.9042529
2980.14767983
2980.15074591
2979.91329703
2985.84809096
3009.51350952
3051.22118762
3098.9249786
3136.69410746
3154.09702661
3157.4020037
3157.3158604
3157.31890154
3157.40536671
3154.0947671
3136.67893782
3098.90511902
3051.20186427
3009.50013797
2985.84176655
2979.91348937
2980.15654944
2980.15952556
2979.92232882
2985.85720855
3009.52058071
3051.22600352
3098.92786088
3136.69514488
3154.09729966
3157.40224147
3157.31613575
3157.32710588
3157.43228803
3154.1194795
3136.69095853
3098.89485359
3051.15700953
3009.41871952
2985.69242465
2979.70857607
2979.92780863
2979.93068655
2979.71708152
2985.70769112
3009.43960482
3051.18082815
3098.91703173
3136.70692929
3154.12186045
3157.42896433
3157.32421706
3157.3359193
3157.46758586
3154.50930427
3138.2726186
3102.13514929
3055.7988634
3014.99884991
2991.7053067
2985.7116649
2985.87477763
2985.87765302
2985.71982983
2991.7198334
3015.01978573
3055.82266455
3102.15711084
3138.2879885
3154.51095011
3157.46416573
3157.33286529
3157.34763648
3157.49703762
3155.65822388
3143.58916195
3113.73886227
3073.13953142
3036.32000736
3015.01336844
3009.44767446
3009.54212475
3009.54476651
3009.45486477
3015.02622101
3036.33874208
3073.16134606
3113.75857457
3143.60175311
3155.6576809
3157.49367018
3157.34455291
3157.38003706
3157.52521512
3156.82610782
3150.65047072
3131.65306715
3102.05347703
3073.14840399
3055.81581748
3051.18374828
3051.23836943
3051.24022742
3051.18897116
3055.8257924
3073.16291073
3102.06905553
3131.66682151
3150.65661006
3156.82339104
3157.52197597
3157.3769737
3157.44774616
3157.56724884
3157.28132632
3155.48188384
3147.53620234
3131.65705575
3113.74981172
3102.15287487
3098.9187644
3098.93405455
3098.93497632
3098.92130792
3102.15875076
3113.75917576
3131.66663319
3147.54184989
3155.4810381
3157.27799193
3157.56409649
3157.44465618
3157.55081796
3157.63425508
3157.42787874
3157.14482913
3155.48281541
3150.65407351
3143.59717491
3138.28459625
3136.70592074
3136.69593025
3136.69601702
3136.70605856
3138.286254
3143.60057196
3150.65660643
3155.4820279
3157.1413819
3157.42459355
3157.63106966
3157.5476298
3157.6832398
3157.72886727
3157.60067772
3157.42852594
3157.28271089
3156.82833013
3155.6618854
3154.51459988
3154.12583973
3154.10164971
3154.10135048
3154.12492362
3154.5137284
3155.66107135
3156.8261553
3157.2795124
3157.42520863
3157.59734972
3157.72556386
3157.67991314
3157.80686635
3157.80798734
3157.72929931
3157.63528253
3157.56891695
3157.52746366
3157.49981604
3157.47085014
3157.43599433
3157.40936071
3157.40899359
3157.4349143
3157.46912236
3157.49751274
3157.52466882
3157.56578015
3157.63195014
3157.72588133
3157.80457036
3157.80344208
3157.91317815
3157.80706391
3157.68390336
3157.55205141
3157.44958195
3157.38240058
3157.35043913
3157.33914766
3157.33074487
3157.3227017
3157.32234917
3157.329704
3157.3374724
3157.34820869
3157.37970037
3157.44654481
3157.54879808
3157.68051806
3157.80361534
3157.90965682
2668.19381277
2668.08588027
2667.96429388
2667.80155396
2667.65560154
2667.53161186
2667.43160188
2667.34107677
2667.25685857
2667.20312248
2667.20282745
2667.25592196
2667.33942125
2667.42935458
2667.52883919
2667.65241007
2667.79811866
2667.96072597
2668.08220676
2668.19006832
2668.0858358
2668.02404487
2667.91761119
2667.75877084
2667.60287845
2667.44726325
2667.09471022
2666.5834998
2666.27972552
2666.18708794
2666.18680474
2666.27884143
2666.58227458
2667.09301024
2667.44472048
2667.59989812
2667.75550836
2667.91418189
2668.0204644
2668.08218672
2667.96431188
2667.91775105
2667.7422034
2667.48096426
2666.4394001
2663.06533554
2657.70475198
2653.49496774
2652.13539289
2652.07030191
2652.0703856
2652.13557625
2653.4960964
2657.70650452
2663.06636088
2666.43785987
2667.47764367
2667.73878354
2667.91419612
2667.96069982
2667.80160656
2667.75893511
2667.48099701
2665.62553447
2657.6019236
2641.60058558
2623.55004236
2611.82566553
2608.50186525
2608.47180378
2608.47279299
2608.50487122
2611.83171243
2623.55873561
2641.60912098
2657.60679344
2665.62500568
2667.47754273
2667.75540725
2667.79803158
2667.65553146
2667.60280694
2666.4391827
2657.60007637
2633.36809726
2598.19588686
2565.16738845
2545.56977564
2540.30802032
2540.34602312
2540.34789763
2540.3139564
2545.58053815
2565.18312917
2598.212582
2633.38220608
2657.6072781
2666.43736313
2667.59937701