/*--------------------------------*- C++ -*----------------------------------*\
| =========                 |                                                 |
| \\      /  F ield         | OpenFOAM: The Open Source CFD Toolbox           |
|  \\    /   O peration     | Version:  3.0.1                                 |
|   \\  /    A nd           | Web:      www.OpenFOAM.org                      |
|    \\/     M anipulation  |                                                 |
\*---------------------------------------------------------------------------*/
FoamFile
{
    version     2.0;
    format      ascii;
    class       surfaceVectorField;
    location    "4.5";
    object      Uf_0;
}
// * * * * * * * * * * * * * * * * * * * * * * * * * * * * * * * * * * * * * //

dimensions      [0 1 -1 0 0 0 0];

internalField   nonuniform List<vector> 
22672
(
(0.00307373062285 0.00111691447959 -0.00261800533085)
(0.00111436861111 0.00307700504084 -0.00261771332877)
(0.0020554427468 0.00205862428336 -0.00615074083465)
(0.00702406009479 0.000483162158768 -0.00242779528549)
(0.00453638894225 0.00235409890992 -0.00397519629831)
(0.00597085343338 0.00199767371374 -0.00630443899572)
(0.0107191277247 0.00017828894582 -0.00190114911989)
(0.009166173003 0.00206467362227 -0.00416530247856)
(0.0102286955161 0.00203439168123 -0.00575976254737)
(0.0132709561207 0.000202385382513 -0.00121248568808)
(0.0127027165792 0.0022059210967 -0.00368514955535)
(0.0133770616376 0.00227409895122 -0.00475778700355)
(0.0141455786764 0.000505652628028 -0.000589981274767)
(0.0147342482578 0.00278558118507 -0.00300567609898)
(0.015073787859 0.00272336637617 -0.00366026194214)
(0.0133496430302 0.00091796927625 -0.000166281685141)
(0.0146941057068 0.00359342364755 -0.0024191177527)
(0.0148266452594 0.0032567910411 -0.00279756953886)
(0.0112402738873 0.00136409634517 8.97033143988e-05)
(0.0132088016615 0.00434945296948 -0.00203066408999)
(0.0132408290312 0.00374553938354 -0.00224018928168)
(0.00804310439945 0.0017936138539 0.000222023254741)
(0.0103239222963 0.00508826073543 -0.00176740165592)
(0.0103156612326 0.00424265511168 -0.00189121896898)
(0.00417179022667 0.00208720166497 0.000255309601875)
(0.00650191736814 0.00564153898487 -0.00165993434792)
(0.00648616701348 0.00462893691425 -0.0017703709717)
(3.48579819333e-06 0.00218994462761 0.000256494479447)
(0.00221753292033 0.00593018068719 -0.00163899735877)
(0.00221007327509 0.00483540197718 -0.00176203526692)
(-0.00416544975428 0.00208804795349 0.00025530751282)
(-0.0022081910383 0.00593060337596 -0.00163881806852)
(-0.00220233166886 0.00483561779396 -0.00176183284554)
(-0.00803849954726 0.00179517219621 0.000221914989747)
(-0.00649389428835 0.00564276125119 -0.00165945503892)
(-0.00647968338895 0.00462953668791 -0.00176987507366)
(-0.011238133944 0.00136610582417 8.9382217606e-05)
(-0.0103182567715 0.00509016856278 -0.00176677568552)
(-0.0103113484912 0.00424352506642 -0.00189068901726)
(-0.0133502548351 0.000920027462779 -0.000166969701189)
(-0.0132061837026 0.00435178440598 -0.00203007698252)
(-0.0132392617465 0.00374647879252 -0.00223980295759)
(-0.0141483311336 0.000507663253349 -0.000591003373578)
(-0.0146944310799 0.00359574826495 -0.00241898583072)
(-0.0148277117383 0.00325749615556 -0.00279779081309)
(-0.0132750953581 0.000204199272041 -0.00121394153147)
(-0.0147369806159 0.00278796070387 -0.00300607389294)
(-0.0150767258991 0.00272404294251 -0.00366129160094)
(-0.0107231118789 0.00017982336245 -0.00190319706678)
(-0.0127062247202 0.00220788101322 -0.00368651979115)
(-0.0133803385991 0.00227448358627 -0.00475993558885)
(-0.00702699437956 0.000484775453537 -0.00243049191985)
(-0.00916923493712 0.00206673172251 -0.0041674490947)
(-0.0102312373857 0.0020349751913 -0.00576290010102)
(-0.00307493951426 0.00111879746966 -0.00262125991284)
(-0.00453818142649 0.0023567416395 -0.00397816913303)
(-0.00597214320522 0.00199881522628 -0.00630883580625)
(-0.00111461374332 0.00308056122628 -0.00262093616501)
(-0.00205544723304 0.00206035156034 -0.00615552465438)
(0.0023524469719 0.0045388581669 -0.00397490429624)
(0.000481302224914 0.00702755885567 -0.00242682253683)
(0.00199612632127 0.00597405949682 -0.00630300751072)
(0.00689712436594 0.00420039025857 -0.00571270349138)
(0.00420027259495 0.00689652196681 -0.00571234239181)
(0.00616951381856 0.00616880179524 -0.00908711372675)
(0.0113454131505 0.00438254560304 -0.00594930291402)
(0.00964380264776 0.00717238641847 -0.00662002529424)
(0.0107939257653 0.00659052548069 -0.00955602694706)
(0.0143692978235 0.00511990443942 -0.00547833996625)
(0.0137794091821 0.00805416878843 -0.0062752946562)
(0.0141721177571 0.00746403545724 -0.00887217507281)
(0.015453352209 0.00625594741571 -0.00483481257692)
(0.0160960563319 0.0095142569936 -0.00551516641879)
(0.0159115245747 0.00872384251584 -0.00781279414792)
(0.0146392965441 0.00745752032796 -0.00428350015755)
(0.0161811293326 0.011216848444 -0.00476101761197)
(0.0157251033896 0.0101098799702 -0.00680945627255)
(0.012270123485 0.00855285800906 -0.00388776906032)
(0.0144948039424 0.0127667646296 -0.0041995192709)
(0.0139745749028 0.0113612321236 -0.00604824875829)
(0.00874477956401 0.00945617275497 -0.00364935925859)
(0.0113023978534 0.0141485905635 -0.00381901729506)
(0.010861952802 0.0124676248137 -0.00553511676096)
(0.00452549455114 0.0100307460269 -0.00355424130857)
(0.00710403782689 0.0151486842782 -0.00364303519695)
(0.00682774256131 0.0132711679315 -0.00528800748253)
(5.87317245353e-06 0.0102259546425 -0.00353430990674)
(0.00242010919238 0.0156625359438 -0.00359528016085)
(0.00232806586907 0.0136877523763 -0.00521289150327)
(-0.0045143851816 0.0100315825991 -0.00355358062027)
(-0.00240579389177 0.0156629651516 -0.00359482639944)
(-0.00231356621059 0.0136878347508 -0.00521226457796)
(-0.00873549726963 0.00945781593651 -0.00364814571419)
(-0.0070911232346 0.0151499329612 -0.00364174719773)
(-0.00681452950463 0.0132714081623 -0.00528621714591)
(-0.0122636986996 0.00855518158233 -0.00388623488565)
(-0.0112921467108 0.014150585045 -0.00381699833858)
(-0.0108511519781 0.0124680397841 -0.00553236211313)
(-0.0146363008826 0.00746021116356 -0.00428209311205)
(-0.0144883193218 0.012769257427 -0.00419707192624)
(-0.0139671649315 0.0113617758195 -0.00604500149978)
(-0.0154535588053 0.00625875687164 -0.00483405635008)
(-0.0161784924654 0.0112195127032 -0.00475884197664)
(-0.0157212212672 0.01011036794 -0.00680661637093)
(-0.0143715527429 0.00512257743917 -0.00547865215262)
(-0.0160967940502 0.00951708851598 -0.00551401702826)
(-0.0159106365049 0.00872434400123 -0.00781122072342)
(-0.0113481962454 0.00438518737572 -0.00595077181907)
(-0.0137816754414 0.00805681559848 -0.00627561518673)
(-0.014172797001 0.00746446456161 -0.00887235572088)
(-0.00689922092649 0.00420365524577 -0.00571512630789)
(-0.00964612668787 0.00717560278869 -0.00662155992532)
(-0.010794966144 0.00659152628592 -0.00955789338715)
(-0.00235319424316 0.00454335282457 -0.0039778453852)
(-0.00420164886038 0.00690108768851 -0.00571478579529)
(-0.00617008488186 0.00617107685498 -0.00909041016874)
(-0.00048149510744 0.00703437703065 -0.00242958070458)
(-0.00199597932668 0.00597821675244 -0.0063070326999)
(0.00206437447113 0.00916639528971 -0.0041642606324)
(0.00017698959601 0.010720221753 -0.0018992879356)
(0.00203420947894 0.0102296723327 -0.00575704346524)
(0.00717600736324 0.00963938323151 -0.00661966419467)
(0.00438413653892 0.0113399650664 -0.00594838247642)
(0.00659387749561 0.0107888161954 -0.00955508815275)
(0.0122714056234 0.0106029360993 -0.00694601703642)
(0.0106106431991 0.0122614300041 -0.00694609671954)
(0.0117196042253 0.0117106292889 -0.0101844648308)
(0.0157265234155 0.0121802364655 -0.00631212110874)
(0.0153469863402 0.0138825143474 -0.00637753582518)
(0.0154109609508 0.0132228545383 -0.0092835013295)
(0.0169991250828 0.0141629531903 -0.00544137145384)
(0.0179753719816 0.0161176692615 -0.00529666961761)
(0.0172688139859 0.0152012228224 -0.00787606979201)
(0.0161349884823 0.0161579103096 -0.00467703672532)
(0.0181254837894 0.0185714846667 -0.0042248431334)
(0.0170881443894 0.0173200204306 -0.00649057455069)
(0.0135109099785 0.017928453194 -0.00413076750565)
(0.0161989519067 0.0207817850967 -0.0034026267053)
(0.0151453310061 0.0192460627408 -0.00539103536942)
(0.00962163948306 0.0193433444013 -0.00381269323343)
(0.0126071820541 0.0226762909632 -0.00285650672543)
(0.0117584087231 0.0208876174771 -0.00463853941646)
(0.00497790208056 0.0202390061331 -0.00368407404924)
(0.0079090859332 0.0240316904568 -0.00260029269653)
(0.00739081719988 0.0220636221799 -0.00423939038286)
(8.4671112557e-06 0.0205428896627 -0.00365579665355)
(0.00269070731493 0.0247235173795 -0.00252372480895)
(0.00252116721034 0.0226702777911 -0.00409167498967)
(-0.00496170754039 0.0202397106123 -0.0036829929769)
(-0.00267182578026 0.0247237408695 -0.00252303859134)
(-0.00250122044955 0.0226702844753 -0.00409073076914)
(-0.0096075851104 0.019344699914 -0.00381059982211)
(-0.00789170827675 0.0240323342125 -0.00259830949665)
(-0.00737232158584 0.0220636146324 -0.00423664891089)
(-0.0135003097871 0.0179303239563 -0.00412783537917)
(-0.012592832814 0.02267732404 -0.00285325354204)
(-0.0117427096788 0.020887574163 -0.00463412991902)
(-0.016128667739 0.0161600908507 -0.00467382079083)
(-0.0161891499608 0.0207829751584 -0.00339841410687)
(-0.0151337129306 0.0192459667184 -0.00538546141309)
(-0.016997023342 0.0141653651275 -0.00543880265482)
(-0.0181204818676 0.0185728468005 -0.00422075498751)
(-0.0170809771208 0.0173198020199 -0.00648506311649)
(-0.0157273675991 0.0121827894233 -0.00631098006237)
(-0.017974681539 0.0161194373247 -0.00529383442719)
(-0.0172655872027 0.015201042835 -0.00787207102429)
(-0.0122734455283 0.0106059375206 -0.00694640329299)
(-0.0153485574451 0.0138845551734 -0.00637651032575)
(-0.0154101333774 0.0132228310341 -0.00928171141753)
(-0.00717779855127 0.00964368751004 -0.00662121941272)
(-0.0106127393809 0.012264637921 -0.00694656995675)
(-0.0117197837956 0.0117115951698 -0.0101847195872)
(-0.00206511402416 0.00917304799156 -0.00416652111466)
(-0.00438558938459 0.0113453369731 -0.00594993434677)
(-0.00659402183222 0.0107917339729 -0.00955696544895)
(-0.000177453858077 0.0107292414927 -0.00190152492515)
(-0.00203402628318 0.0102360169299 -0.00575999754096)
(0.00220645404758 0.0126983568124 -0.00368340977961)
(0.000201713661078 0.0132675730414 -0.00120941410553)
(0.00227483920923 0.0133731477224 -0.00475381009974)
(0.00805984816681 0.0137686385713 -0.00627481500128)
(0.00512240392995 0.0143576748602 -0.00547737175146)
(0.00746914443714 0.0141612495583 -0.00887111335441)
(0.0138958392579 0.0153317152581 -0.00637761550829)
(0.01218994627 0.0157094413503 -0.0063129630773)
(0.0132345345603 0.0153957339862 -0.00928402002939)
(0.0178509856025 0.0175688428717 -0.00536208433405)
(0.0175870933936 0.0178293605971 -0.0053630780826)
(0.0173528676713 0.0173343656414 -0.00790202111167)
(0.0193030988859 0.0202161239154 -0.00408014129716)
(0.0205678842666 0.0205761860487 -0.00380974994396)
(0.0193871006901 0.0197924407521 -0.00591067131459)
(0.018298376256 0.0228203861168 -0.00295043311338)
(0.0207260966264 0.0235240471241 -0.00224789698419)
(0.0191468214845 0.0223945394282 -0.00394789441741)
(0.0152855005829 0.0250916170032 -0.00212836592508)
(0.0184803965119 0.0261525482299 -0.00101372884458)
(0.0169146015237 0.0247482100808 -0.00235795470547)
(0.0108521505596 0.0268750302244 -0.00164410618853)
(0.0143458639907 0.0283592307156 -0.000157420339073)
(0.0130908810124 0.0267127848093 -0.00124966758598)
(0.00560140595957 0.0279946189276 -0.00143994345624)
(0.00897477584487 0.0299269036848 0.000285603515032)
(0.00820416687736 0.0281034393296 -0.000644553859758)
(1.04430620421e-05 0.0283721145329 -0.00139096674675)
(0.00304698175565 0.0307249004342 0.000442027159443)
(0.00279384241139 0.0288132134329 -0.000410508708322)
(-0.00558132030382 0.0279948429644 -0.0014383551111)
(-0.00302502553701 0.03072462079 0.000443011388534)
(-0.00277016415454 0.0288129221903 -0.000409204300062)
(-0.010834330284 0.0268754463966 -0.00164096321658)
(-0.00895438238681 0.0299261579157 0.000288504306963)
(-0.00818198296197 0.0281026145201 -0.000640896949902)
(-0.0152716209644 0.0250920347508 -0.00212383226974)
(-0.0143288580019 0.0283580512452 -0.00015263131344)
(-0.0130716990269 0.0267114650687 -0.00124351207102)
(-0.0182896192597 0.0228207604544 -0.00294534830355)
(-0.0184686123736 0.0261508748593 -0.00100764446536)
(-0.0169000937332 0.02474632946 -0.00234996674704)
(-0.0192994779375 0.0202167740471 -0.00407578675988)
(-0.0207198412875 0.0235224773198 -0.0022420183259)
(-0.0191376025737 0.0223923235321 -0.00393982534993)
(-0.0178511017674 0.01756995794 -0.00535936469057)
(-0.0205664974961 0.0205752775034 -0.00380513906482)
(-0.0193826231118 0.0197904126415 -0.00590425792306)
(-0.0138977134397 0.0153337836404 -0.00637667698951)
(-0.0175885750521 0.0178292468331 -0.00536056478962)
(-0.0173514038002 0.0173328171953 -0.00789811145956)
(-0.00806182743744 0.013772732245 -0.0062752848908)
(-0.0121922787563 0.0157111871886 -0.00631215493115)
(-0.0132345017593 0.0153956385307 -0.00928246040405)
(-0.00220754152288 0.0127059413793 -0.00368493815726)
(-0.00512431235151 0.0143624604861 -0.00547775559253)
(-0.00746933873996 0.0141638103627 -0.0088714324641)
(-0.000202798979357 0.0132774606792 -0.00121084156071)
(-0.00227487975754 0.0133805785989 -0.00475577417663)
(0.00278673877504 0.0147237365427 -0.00300337607737)
(0.000504880773836 0.0141367087927 -0.000586612086386)
(0.0027251765951 0.0150631629884 -0.00365587761226)
(0.00952087512792 0.0160785031336 -0.00551551982747)
(0.00625811462144 0.0154365859312 -0.00483482346356)
(0.00872990013947 0.0158948693475 -0.00781305335642)
(0.0161327208639 0.0179523663279 -0.00529842565161)
(0.0141728146382 0.0169765384765 -0.0054443555338)
(0.0152143863985 0.0172478705037 -0.00787895381786)
(0.0206007705447 0.020540460561 -0.00381074369251)
(0.0202349145582 0.0192749900008 -0.00408430734003)
(0.0198128577076 0.0193623543579 -0.00591369662216)
(0.0222147289545 0.0235532463761 -0.00197750563099)
(0.023582611728 0.0221819426329 -0.00198040285342)
(0.0220437241909 0.0220160696253 -0.00321974019384)
(0.0210075198614 0.0265061236086 -0.000311192715386)
(0.0236998316499 0.0252576093538 0.000178828574479)
(0.0217042427725 0.0248332625073 -0.000526386473125)
(0.0175093480918 0.0290599726836 0.000957216741432)
(0.0210801199293 0.0279612824871 0.00192589307814)
(0.0191132130466 0.0273764328093 0.00168939642692)
(0.0124044312369 0.0310416379418 0.00177228936449)
(0.0163228185429 0.0302008389705 0.00317638453018)
(0.0147511612102 0.0294679245378 0.00326326117307)
(0.00639315838075 0.0322818588506 0.00216757413072)
(0.0101830663264 0.0317755306566 0.00386430899818)
(0.00922240837772 0.0309378554197 0.00416259467646)
(1.15189260964e-05 0.0327002941582 0.00227600529473)
(0.00344958760934 0.0325735884979 0.00412494734223)
(0.00313487194807 0.03168739233 0.00453289940749)
(-0.00637095699926 0.0322807317916 0.0021698708066)
(-0.00342670745569 0.0325726520192 0.00412595221049)
(-0.00310949840853 0.0316865340632 0.00453439471492)
(-0.0123847676035 0.0310394965684 0.0017768362101)
(-0.0101616069273 0.0317727506255 0.00386741288475)
(-0.00919854044168 0.030935373231 0.00416717207627)
(-0.0174940654018 0.0290569472539 0.000963556490941)
(-0.0163047949563 0.0301963581559 0.00318177984067)
(-0.0147305781249 0.0294640218804 0.00327095086313)
(-0.0209978910276 0.0265027310342 -0.000304314487704)
(-0.0210675048571 0.0279553193073 0.00193285910561)
(-0.0190977402861 0.0273712823986 0.00169934818221)
(-0.0222105613187 0.0235502383675 -0.00197137063083)
(-0.0236928927695 0.0252513144149 0.000185909176887)
(-0.021694410698 0.0248276453527 -0.000516192260105)
(-0.0206008025887 0.020538353207 -0.00380633916387)
(-0.0235809045983 0.022176583437 -0.0019743719476)
(-0.0220389080906 0.0220107492977 -0.00321108322338)
(-0.0161348949552 0.0179519164912 -0.00529604273125)
(-0.0202363613735 0.0192710457418 -0.00408047201088)
(-0.0198114670283 0.0193579333613 -0.00590772032148)
(-0.00952341347412 0.0160808857982 -0.00551462563288)
(-0.0141752828126 0.0169752364618 -0.00544235259424)
(-0.0152146651855 0.0172454360167 -0.0078755429045)
(-0.00278853309851 0.0147306365112 -0.00300365899599)
(-0.00626022881449 0.0154391773952 -0.00483404988767)
(-0.00873047247006 0.0158957903578 -0.00781160995348)
(-0.000506325933669 0.0141452809068 -0.000587304530095)
(-0.00272584782222 0.0150700253944 -0.00365635980303)
(0.00359354211819 0.0146795690107 -0.00241805947258)
(0.000917055040662 0.013337948278 -0.000163006244909)
(0.00325813262492 0.0148118280548 -0.00279478252212)
(0.0112223240214 0.0161595893478 -0.00476365916988)
(0.00745893794692 0.0146203776959 -0.00428508673316)
(0.010115609365 0.0157052422711 -0.00681257555267)
(0.0185856183781 0.018098138034 -0.00423023722222)
(0.016166887009 0.0161110320765 -0.00468310918164)
(0.0173328997566 0.0170644436162 -0.00649779205286)
(0.0235482961931 0.0206930905211 -0.00225396650094)
(0.0228379523763 0.0182691556455 -0.00295941347259)
(0.022414606464 0.0191191273345 -0.0039568506679)
(0.0252912279465 0.0236633572684 0.000175931352052)
(0.026535342089 0.0209728516555 -0.000320948922782)
(0.0248612813997 0.0216725731142 -0.000533852103208)
(0.0238383877715 0.0265079126037 0.002415914368)
(0.0265454900119 0.0238022326573 0.00241188322669)
(0.0244015912555 0.0243686197581 0.00290820047263)
(0.019813741126 0.0289150604481 0.00414506086688)
(0.0235420585376 0.0262400225391 0.00461741850013)
(0.0214303641465 0.0267631352659 0.00574588472405)
(0.014002466551 0.0307601350563 0.00526840416387)
(0.0181692980698 0.0282584465112 0.00621031077479)
(0.0164934446529 0.0287114359614 0.00775364058558)
(0.00720082158853 0.0319024355698 0.0058216822097)
(0.0112875174859 0.0296788466939 0.00711325797014)
(0.0102831726013 0.0300666982132 0.00889829996516)
(1.1352422793e-05 0.0322852722738 0.00597489425799)
(0.00381099619753 0.0303931641192 0.00746212267562)
(0.00348782719528 0.0307542761171 0.00936986468549)
(-0.0071787941351 0.0318999118058 0.00582349428864)
(-0.00378941130085 0.0303916825543 0.00746286515626)
(-0.00346320696235 0.0307528614946 0.0093710894652)
(-0.0139826454321 0.0307551740014 0.00527235651531)
(-0.0112671386416 0.0296743392201 0.00711577544101)
(-0.0102598148396 0.0300624733339 0.00890223998836)
(-0.0197980334999 0.0289078866086 0.00415108245534)
(-0.0181522043545 0.0282509290135 0.00621516924173)
(-0.0164731600381 0.0287045820933 0.00776079946908)
(-0.0238281298338 0.0264993582814 0.0024230827702)
(-0.0235301237082 0.0262296692781 0.00462395040454)
(-0.0214150078382 0.0267539211588 0.00575573435809)
(-0.0252864901978 0.0236549945594 0.000182907860123)
(-0.0265387119171 0.0237905333197 0.00241895257553)
(-0.0243916486364 0.0243582266233 0.00291913525878)
(-0.0235479800108 0.0206860219969 -0.0022485047946)
(-0.026533600946 0.0209618919594 -0.000314439463871)
(-0.0248565563479 0.0216625028246 -0.000523820294175)
(-0.0185875502869 0.0180933322873 -0.00422678187386)
(-0.0228392148775 0.0182600401396 -0.00295492820152)
(-0.0224133373823 0.0191102822031 -0.00394942358863)
(-0.0112246767621 0.0161584478792 -0.00476177684903)
(-0.0161691536984 0.0161053779302 -0.00468038438679)
(-0.0173333137963 0.017058186074 -0.00649301517417)
(-0.00359520664379 0.0146839468344 -0.00241769542177)
(-0.00746084596645 0.0146194997399 -0.00428342765816)
(-0.0101161444551 0.015703053333 -0.00680979414995)
(-0.000918678612566 0.0133442873122 -0.000163053865712)
(-0.00325874459037 0.0148165443601 -0.00279421199806)
(0.00434975089341 0.0131926919401 -0.00203003350549)
(0.00136354673122 0.0112265085154 9.35233430071e-05)
(0.00374758837431 0.013224036523 -0.00223830933282)
(0.0127716283096 0.0144735686719 -0.00420453674492)
(0.0085540619001 0.0122528913469 -0.0038906729498)
(0.0113670026349 0.0139551972133 -0.00605438864771)
(0.0207949249 0.0161730525106 -0.00341228543201)
(0.0179367620569 0.0134909266566 -0.00413944603629)
(0.0192584894022 0.0151235915982 -0.00540318896158)
(0.026175962323 0.018449207946 -0.00102639589443)
(0.0251074728693 0.0152622294595 -0.00214164055463)
(0.0247672591502 0.0168899117774 -0.00237411015439)
(0.0279950954978 0.0210453097007 0.00191500295185)
(0.0290883555419 0.0174814731887 0.000939921182381)
(0.0274039727204 0.0190845609617 0.00167224360439)
(0.0262768182421 0.0235060743064 0.00461338735881)
(0.0289536901545 0.0197848212562 0.00413340280015)
(0.0267965653377 0.0214004315801 0.00573568217593)
(0.0217555412459 0.0255804864087 0.00668266840804)
(0.025618042301 0.0217266225032 0.00668006959957)
(0.0234701761785 0.0234399692997 0.00903466450367)
(0.0153127687143 0.0271633109435 0.00805516458106)
(0.0197076526776 0.0233367364779 0.00850696889116)
(0.0180077964459 0.0251155405257 0.0113644644175)
(0.00784565241628 0.0281248489719 0.00875369843607)
(0.0122079367084 0.0244328883497 0.00929396796258)
(0.0111861920369 0.0262768447067 0.0127130530789)
(1.02354268859e-05 0.0284426065524 0.00895009357389)
(0.00410823373736 0.0249590006227 0.00959187404061)
(0.00378300109128 0.026860556523 0.0132695583423)
(-0.00782584356811 0.0281214318074 0.00875514630863)
(-0.00409002374018 0.0249572284788 0.00959247313643)
(-0.00376097559807 0.0268587989908 0.0132705128685)
(-0.0152951476977 0.0271563823002 0.00805858816743)
(-0.0121909410102 0.0244273140874 0.00929611482452)
(-0.0111654002389 0.0262715038992 0.012716312956)
(-0.0217419115122 0.0255700209632 0.00668803719094)
(-0.0196940984188 0.0233269659418 0.00851109905708)
(-0.0179901298996 0.0251065152744 0.0113707161013)
(-0.0262680885065 0.0234928703062 0.00461982020987)
(-0.0256092637393 0.0217126753064 0.00668533221426)
(-0.0234571847834 0.0234272287366 0.00904316687281)
(-0.0279910995463 0.0210313617434 0.00192160525154)
(-0.0289489991207 0.0197682926478 0.00413888032921)
(-0.0267882684225 0.0213852893298 0.00574525448479)
(-0.0261756823729 0.0184365209192 -0.00102086287079)
(-0.0290873299757 0.0174649299108 0.000945331888058)
(-0.0274000593362 0.0190691250175 0.00168155296388)
(-0.020796673743 0.0161632902044 -0.00340853071444)
(-0.0251087212069 0.015247831591 -0.00213776355415)
(-0.0247663947097 0.0168759177578 -0.00236678966799)
(-0.012773777952 0.0144683025238 -0.00420203519592)
(-0.0179386864473 0.0134806116615 -0.00413680086583)
(-0.0192590760854 0.0151128249836 -0.00539811982962)
(-0.00435152773814 0.0131937515955 -0.0020287861021)
(-0.00855554759629 0.0122480486177 -0.00388853027609)
(-0.0113675315918 0.0139491964174 -0.0060507904247)
(-0.00136535666944 0.011229245565 9.42324053435e-05)
(-0.00374857174524 0.0132254706021 -0.00223647787318)
(0.00508852060721 0.0103087408399 -0.0017671161013)
(0.00179298502204 0.00802809688309 0.000226562908237)
(0.00424489610701 0.0102995921414 -0.00189010418432)
(0.0141530482337 0.011285956277 -0.00382558224117)
(0.00945750603202 0.00873169833168 -0.00365262611714)
(0.0124735606166 0.0108469279078 -0.00554332813361)
(0.0226882890326 0.0125890150407 -0.0028688011589)
(0.0193512612466 0.00960943725292 -0.00382209458731)
(0.0208997212407 0.0117434744479 -0.00465374406117)
(0.0283811502159 0.0143245562996 -0.000175323477814)
(0.0268891038442 0.0108399059395 -0.0016589900065)
(0.0267304642715 0.0130751665753 -0.00127053092046)
(0.0302348120129 0.016299117909 0.00315832103067)
(0.0310684742713 0.0123897347149 0.00175020712808)
(0.0294944864964 0.0147329055437 0.00323808007827)
(0.0282968988917 0.0181456009187 0.0062000850409)
(0.0307993960045 0.0139872735851 0.00525195179591)
(0.0287458529599 0.0164748021621 0.00773545761819)
(0.0233671936971 0.0196838107555 0.00850437008269)
(0.0272030057277 0.0152976519864 0.00804980141608)
(0.0251474330446 0.017989959856 0.0113586638899)
(0.0163851869539 0.0208922819419 0.00974577227268)
(0.0209178266578 0.0163685033417 0.00974786105174)
(0.0192652033068 0.0192468807491 0.013950219811)
(0.00839608410279 0.0216462871495 0.0101321435671)
(0.0129232622363 0.0171328339525 0.0103521794167)
(0.0119521313658 0.0201368946655 0.0152891314903)
(7.98673091881e-06 0.0218881862898 0.0102342536032)
(0.00433344418417 0.0175051621826 0.010563116497)
(0.00403249859572 0.0205721102849 0.0158419079514)
(-0.00838080694754 0.0216423562571 0.0101334416523)
(-0.00431998302429 0.0175031464254 0.0105638261375)
(-0.00401468419567 0.0205701972928 0.015842849176)
(-0.0163722552126 0.020883924401 0.00974862571418)
(-0.0129114951803 0.0171264519333 0.0103543592554)
(-0.0119356941004 0.0201308876734 0.0152922881996)
(-0.023358189633 0.0196706725083 0.00850839408041)
(-0.0209097076451 0.0163571995702 0.00975124434968)
(-0.019252281069 0.0192362040091 0.0139556856135)
(-0.0282919232783 0.0181284729973 0.0062043923336)
(-0.0271990543135 0.0152816315277 0.00805299726289)
(-0.0251389668813 0.0179745633506 0.0113647714441)
(-0.0302330414687 0.0162801925334 0.00316260696573)
(-0.0307982002744 0.0139678504012 0.00525455945962)
(-0.0287408887658 0.0164559003701 0.00774156420192)
(-0.0283815665866 0.0143065668393 -0.000171568795303)
(-0.0310688839931 0.0123693517038 0.00175263460332)
(-0.029492317801 0.0147128610747 0.00324411506353)
(-0.0226898277904 0.012574326115 -0.00286603370553)
(-0.0268902926619 0.010821698865 -0.00165705719817)
(-0.0267301884808 0.0130565677801 -0.00126559)
(-0.0141546411798 0.0112762852341 -0.003823295946)
(-0.0193526090524 0.00959541672192 -0.00382046749746)
(-0.0209002483892 0.0117284095428 -0.004649974764)
(-0.00508993422448 0.0103057768279 -0.00176551176865)
(-0.00945831554232 0.00872335503156 -0.00365072597398)
(-0.0124738151664 0.0108369701049 -0.00553999621759)
(-0.00179447564827 0.00802705094126 0.000227703490091)
(-0.00424582890864 0.0102970062082 -0.00188772588786)
(0.00564192378458 0.00648863584859 -0.0016589471076)
(0.00208664565873 0.00415469601539 0.000260721772345)
(0.00463117953441 0.00647224545824 -0.00176851558089)
(0.0151531250606 0.00709471453254 -0.00364913846328)
(0.0100322807706 0.00451640939941 -0.00355649038943)
(0.0132772733276 0.00681898429758 -0.0052959028625)
(0.0240428156576 0.00790204911262 -0.00261228343491)
(0.0202465525211 0.00497403584891 -0.00369205633531)
(0.0220753314469 0.00738515270975 -0.00425427850293)
(0.0299471935927 0.00896800487636 0.000266540599392)
(0.0280072291171 0.00560062629534 -0.00145308468282)
(0.0281199586068 0.00820031153264 -0.000665088520529)
(0.0318087035525 0.0101755979839 0.00384383789332)
(0.0323063489582 0.00639278933818 0.00214597424483)
(0.0309631283181 0.00921835464985 0.00413544045139)
(0.0297181125741 0.0112797926186 0.00710166817109)
(0.0319397384231 0.00719964531152 0.00580550593127)
(0.0301010080793 0.0102789416933 0.00887821531226)
(0.024465420616 0.0121992961763 0.00929329238512)
(0.028163769313 0.00784283199986 0.00874926243145)
(0.0263099192967 0.0111818543604 0.0127074965349)
(0.0171516632718 0.0129129684576 0.0103542681957)
(0.0216722342216 0.00838980957958 0.0101374180226)
(0.0201566629629 0.0119467149403 0.015292424616)
(0.00877431402148 0.0133383375929 0.0107831523465)
(0.0133494920075 0.00876500999205 0.0107847045907)
(0.012462097053 0.0124554182717 0.0167451387688)
(5.44824761526e-06 0.0134757374478 0.0108926890313)
(0.00446139999572 0.00894775746986 0.0110025547601)
(0.00418935459997 0.0127005051858 0.0173262323327)
(-0.00876443954182 0.0133339045001 0.0107847437405)
(-0.00445317844545 0.00894558952006 0.0110032720125)
(-0.00417626709055 0.0126984093465 0.0173274071838)
(-0.0171445509521 0.0129035329232 0.0103569778909)
(-0.0133433167976 0.00875813620225 0.0107866735073)
(-0.0124510403047 0.0124487986285 0.0167483944354)
(-0.0244620665627 0.0121847940593 0.00929584753216)
(-0.0216696487529 0.00837796850558 0.0101399338959)
(-0.0201493337672 0.0119350522511 0.0152967228006)
(-0.0297177694727 0.011261052191 0.0071031643889)
(-0.028164782772 0.00782653203492 0.00875013719005)
(-0.0263066052821 0.0111655184209 0.0127107904579)
(-0.0318098387835 0.0101543155316 0.0038445870972)
(-0.0319423418859 0.00717990878159 0.0058048216859)
(-0.0301001365446 0.0102586702359 0.00888001183409)
(-0.0299484346821 0.00894712358381 0.000267146200449)
(-0.0323083757771 0.00637157620631 0.00214419695651)
(-0.0309631026296 0.00919613358411 0.00413638316493)
(-0.0240439328109 0.00788440497019 -0.00261149099009)
(-0.0280080782696 0.00558130558162 -0.00145404576017)
(-0.0281201490787 0.00817936919375 -0.000664090114525)
(-0.0151539350553 0.00708203029994 -0.00364789752543)
(-0.0202470881733 0.00495855205007 -0.00369219016716)
(-0.0220756358573 0.0073676176494 -0.00425311192274)
(-0.00564272222917 0.00648227734544 -0.00165751071523)
(-0.0100323547049 0.0045061252375 -0.00355555557705)
(-0.0132771957168 0.00680637763212 -0.00529396036011)
(-0.0020874694347 0.00415066735324 0.000261933713047)
(-0.00463183160116 0.00646623158528 -0.00176632160939)
(0.00593074260728 0.00220451918746 -0.00163682150949)
(0.00218986435026 -1.73173369517e-05 0.000261998633778)
(0.00483766311171 0.00219697851998 -0.00175872086457)
(0.0156668035401 0.00241643393061 -0.00359940826146)
(0.0102272246693 -1.00745381127e-06 -0.00353512607882)
(0.013693602956 0.00232440455225 -0.00521863362817)
(0.0247335565974 0.00269323811873 -0.00253285758322)
(0.0205495703056 1.09299543285e-05 -0.00366154153159)
(0.022681287981 0.00252371715059 -0.00410363546754)
(0.0307432470736 0.00305288318511 0.000426348962617)
(0.0283828901828 1.89303078457e-05 -0.00140070649444)
(0.0288283739284 0.00280043416779 -0.000427984069882)
(0.0326034431961 0.00345579401476 0.00410764228278)
(0.0327210260184 2.27600242574e-05 0.00225832276607)
(0.031710197778 0.00314303491586 0.00450983789641)
(0.0304288511352 0.00381506870948 0.00745310019163)
(0.0323174524861 2.08312702469e-05 0.00596166435806)
(0.0307853335305 0.00349491900697 0.00935340044855)
(0.0249890702017 0.00410842335677 0.00959338806889)
(0.0284765902284 1.57011574437e-05 0.00894741962578)
(0.0268906438789 0.00378749415612 0.0132668930529)
(0.0175231696125 0.0043295955062 0.0105678544175)
(0.0219107876079 7.78287176967e-06 0.0102404978203)