/*--------------------------------*- C++ -*----------------------------------*\
| =========                 |                                                 |
| \\      /  F ield         | OpenFOAM: The Open Source CFD Toolbox           |
|  \\    /   O peration     | Version:  3.0.1                                 |
|   \\  /    A nd           | Web:      www.OpenFOAM.org                      |
|    \\/     M anipulation  |                                                 |
\*---------------------------------------------------------------------------*/
FoamFile
{
    version     2.0;
    format      ascii;
    class       volScalarField;
    location    "9";
    object      ddt0(k);
}
// * * * * * * * * * * * * * * * * * * * * * * * * * * * * * * * * * * * * * //

dimensions      [0 2 -3 0 0 0 0];

internalField   nonuniform List<scalar> 
7968
(
-1.71313326104e-05
-2.29264627052e-05
-2.98274008318e-05
-3.53611242852e-05
-3.95223853975e-05
-4.2530940909e-05
-4.47851854805e-05
-4.59087287965e-05
-4.54624950197e-05
-4.40996676747e-05
-4.411954633e-05
-4.55067119983e-05
-4.59675129979e-05
-4.48480328634e-05
-4.25906411398e-05
-3.95767622594e-05
-3.54067775755e-05
-2.98651299229e-05
-2.29570349351e-05
-1.71521287592e-05
-2.29280930162e-05
-4.55852571657e-05
-6.46058489132e-05
-7.82294549088e-05
-8.72225934555e-05
-9.22804111811e-05
-9.49161153256e-05
-9.59700335243e-05
-9.62103053787e-05
-9.60604445437e-05
-9.60807854653e-05
-9.62513896183e-05
-9.60222106521e-05
-9.49710781001e-05
-9.23351818932e-05
-8.72743878338e-05
-7.82772333318e-05
-6.46463600204e-05
-4.56180592059e-05
-2.2946141442e-05
-2.98305982951e-05
-6.46084999302e-05
-9.11137943536e-05
-0.000109381637862
-0.000121070528739
-0.000127239481592
-0.000130293302786
-0.000131826066359
-0.00013340200897
-0.000130732043473
-0.000130734545489
-0.0001334414522
-0.000131868228033
-0.000130325429068
-0.000127272244354
-0.000121105009007
-0.00010941366171
-9.11408147697e-05
-6.46308490939e-05
-2.98422010277e-05
-3.53640643631e-05
-7.82385481252e-05
-0.000109390735959
-0.000129639046685
-0.000141637879248
-0.00014706338781
-0.000146490431367
-0.000146403266249
-0.000147291400068
-0.000148457697803
-0.00014846919807
-0.000147308632758
-0.000146406444354
-0.000146452393595
-0.000147063316929
-0.000141649706015
-0.000129650780601
-0.000109399427006
-7.82457450459e-05
-3.53707900953e-05
-3.95261554718e-05
-8.72395197266e-05
-0.000121093142354
-0.000141654692478
-0.000152106829489
-0.000154563392047
-0.000156704190123
-0.000157179776425
-0.000157820762338
-0.000159055124994
-0.000159065349311
-0.000157828547294
-0.000157177675996
-0.000156687215125
-0.000154558877533
-0.00015209641144
-0.000141645632789
-0.000121084623106
-8.72329731975e-05
-3.95285455414e-05
-4.25355076521e-05
-9.23057948089e-05
-0.000127279070382
-0.000147103327794
-0.000154580805487
-0.000159599249079
-0.000161821434159
-0.000161917841912
-0.000161848241243
-0.000162486929788
-0.000162494601969
-0.000161850313558
-0.00016191025582
-0.000161806925921
-0.000159585709192
-0.000154566426259
-0.000147074748616
-0.000127260293197
-9.22944292711e-05
-4.25369428375e-05
-4.47837670943e-05
-9.49447538591e-05
-0.000130348762344
-0.000146556308709
-0.000156746431235
-0.000161844416373
-0.000162981505534
-0.000161783118724
-0.000160360718068
-0.000160112095218
-0.000160118202575
-0.00016036047129
-0.000161772426084
-0.000162964085681
-0.000161824494588
-0.000156718036931
-0.000146498111914
-0.000130325143193
-9.49312958709e-05
-4.47843509699e-05
-4.58914913388e-05
-9.59961114531e-05
-0.000131889517931
-0.00014646533802
-0.000157237011227
-0.00016196592941
-0.000161812153208
-0.000158911872187
-0.000155892900105
-0.0001544944594
-0.000154500198232
-0.000155893819235
-0.000158904355432
-0.000161798547844
-0.000161950935793
-0.000157221733771
-0.000146444439081
-0.000131875185725
-9.59838264007e-05
-4.58907766271e-05
-4.54225774109e-05
-9.62235527239e-05
-0.000133457596403
-0.000147351948558
-0.00015788759532
-0.000161914787173
-0.000160413400658
-0.000155920566694
-0.000151239303017
-0.000148547504417
-0.000148554508215
-0.000151245498721
-0.000155922733408
-0.000160413167507
-0.000161914734734
-0.000157889309201
-0.000147353950172
-0.000133457789172
-9.62153576006e-05
-4.54158488771e-05
-4.40477446641e-05
-9.60565675822e-05
-0.00013081579011
-0.000148512737804
-0.000159113704075
-0.000162551264826
-0.000160168235111
-0.000154531498378
-0.000148562602452
-0.000144854834735
-0.000144864826531
-0.000148577318602
-0.000154547870375
-0.00016018711909
-0.000162573208715
-0.000159137091398
-0.000148533059643
-0.00013082227235
-9.60509092061e-05
-4.40246199915e-05
-4.40776112036e-05
-9.60645975934e-05
-0.000130784869558
-0.000148496651052
-0.000159097651542
-0.000162535822538
-0.000160159583948
-0.000154534422695
-0.000148579272909
-0.000144882442088
-0.000144895471314
-0.000148603429195
-0.000154565934113
-0.000160197641969
-0.000162578779484
-0.000159141309015
-0.000148537670447
-0.000130827362296
-9.60594261125e-05
-4.40360230169e-05
-4.54784443615e-05
-9.62337548546e-05
-0.000133437799475
-0.000147310599873
-0.000157836627989
-0.000161864926614
-0.000160379583555
-0.000155913982174
-0.000151264966598
-0.000148596632681
-0.00014861138506
-0.000151295929109
-0.000155956589224
-0.000160430742871
-0.000161921621612
-0.00015789445741
-0.000147362962143
-0.000133475383717
-9.62386164705e-05
-4.54401997161e-05
-4.59529187166e-05
-9.60093723518e-05
-0.000131859489988
-0.00014639653961
-0.000157167103658
-0.000161900860953
-0.000161765878548
-0.00015890001615
-0.000155921010775
-0.000154549738976
-0.000154565277309
-0.000155954319381
-0.000158945309623
-0.000161818774339
-0.0001619583548
-0.000157226587564
-0.000146452500712
-0.000131906642237
-9.60242659987e-05
-4.59299599103e-05
-4.48472035409e-05
-9.49680101695e-05
-0.000130319756706
-0.000146440772025
-0.000156668060137
-0.000161783803524
-0.000162939707264
-0.000161774352555
-0.000160391289473
-0.000160169989439
-0.000160185953149
-0.000160424634731
-0.00016181727692
-0.000162986683067
-0.000161833153861
-0.000156719147866
-0.000146488758408
-0.000130363465521
-9.49862088141e-05
-4.48371257049e-05
-4.26026209581e-05
-9.23459497197e-05
-0.000127276666619
-0.000147053964226
-0.000154539392058
-0.000159560575465
-0.000161795105516
-0.00016191977102
-0.000161884882245
-0.000162548418871
-0.000162564893357
-0.000161918003717
-0.000161960168556
-0.000161835838002
-0.000159601639182
-0.000154581084855
-0.000147094218766
-0.000127310481314
-9.23621496351e-05
-4.25998767439e-05
-3.95976752045e-05
-8.7301512356e-05
-0.000121125964538
-0.000141655443253
-0.000152082204615
-0.000154546666681
-0.00015669138904
-0.000157195489242
-0.000157864696127
-0.000159117868339
-0.000159135497472
-0.000157899656466
-0.000157235622738
-0.00015672588816
-0.000154584458577
-0.000152117038759
-0.000141687390494
-0.000121151166449
-8.73149761026e-05
-3.9599477773e-05
-3.54361305956e-05
-7.8319981921e-05
-0.000109454211499
-0.000129677454318
-0.000141653025081
-0.000147063671316
-0.000146475581263
-0.000146428922964
-0.000147342571558
-0.000148531334684
-0.000148550594844
-0.000147381801646
-0.000146471187847
-0.000146498825246
-0.000147100503291
-0.000141689845331
-0.000129707802473
-0.00010947625462
-7.83323561251e-05
-3.54420975647e-05
-2.99002222354e-05
-6.46973659638e-05
-9.11948550179e-05
-0.000109443100865
-0.000121112076519
-0.000127271613766
-0.00013032852408
-0.000131877725491
-0.000133463080345
-0.000130856514433
-0.000130877304643
-0.000133513142838
-0.00013194095309
-0.000130385431793
-0.000127321029657
-0.000121154851067
-0.000109476527823
-9.12182394649e-05
-6.4712623793e-05
-2.99116386295e-05
-2.29913661725e-05
-4.56680862727e-05
-6.46887646725e-05
-7.8299173646e-05
-8.72760353579e-05
-9.23255036695e-05
-9.49589726463e-05
-9.60150491834e-05
-9.62556073369e-05
-9.61009430999e-05
-9.61201097749e-05
-9.63000570258e-05
-9.60740009559e-05
-9.50193306745e-05
-9.23803121796e-05
-8.73227218423e-05
-7.83358431419e-05
-6.47154347775e-05
-4.56887889558e-05
-2.30080044587e-05
-1.71883315499e-05
-2.29907581416e-05
-2.9892589937e-05
-3.5420037248e-05
-3.95737726876e-05
-4.25765774084e-05
-4.48246132593e-05
-4.59382251061e-05
-4.54745901822e-05
-4.4091914588e-05
-4.41041939693e-05
-4.55058462757e-05
-4.59837401739e-05
-4.48750129035e-05
-4.26250818452e-05
-3.96165595192e-05
-3.5455415149e-05
-2.99220943367e-05
-2.3015513878e-05
-1.72085565035e-05
1.4127397511e-06
-1.27045590737e-05
-2.60695118446e-05
-3.69275654612e-05
-4.3974818655e-05
-4.71760924241e-05
-4.62157230334e-05
-4.06842638075e-05
-3.06807400486e-05
-2.20403087785e-05
-2.20631720881e-05
-3.07563599474e-05
-4.0805171637e-05
-4.63514917291e-05
-4.72995132606e-05
-4.4078190955e-05
-3.70036371314e-05
-2.61267807474e-05
-1.27461991364e-05
1.37775369338e-06
-1.26904027698e-05
-6.1892033093e-05
-9.9226439808e-05
-0.000128946066497
-0.000149963921923
-0.000163665352267
-0.000170589452399
-0.000171437968965
-0.000168371390709
-0.000164730743843
-0.000164761793821
-0.00016845133752
-0.000171558534639
-0.000170733954754
-0.000163809217235
-0.000150093291535
-0.000129050639637
-9.9305753862e-05
-6.19466252242e-05
-1.27285008062e-05
-2.60639905322e-05
-9.92367354383e-05
-0.000152279566055
-0.000194728972666
-0.000226260816653
-0.000247721751407
-0.00026025081703
-0.000265462806697
-0.000261382234446
-0.000263319715664
-0.000263349838346
-0.000261416437834
-0.000265563115989
-0.000260349021863
-0.000247824364055
-0.000226362500772
-0.0001948118142
-0.000152336702255
-9.92670431019e-05
-2.60822376939e-05
-3.69243212154e-05
-0.000128964445368
-0.000194747572612
-0.000245169759608
-0.000280915371146
-0.000303530858307
-0.000316625432297
-0.000323255727912
-0.000325147005838
-0.000326575336783
-0.000326590561977
-0.000325162291924
-0.000323289687118
-0.00031669279715
-0.000303430125888
-0.00028096936404
-0.000245215322092
-0.000194770642833
-0.000128966777909
-3.692071983e-05
-4.39803075929e-05
-0.000149992724174
-0.000226297737383
-0.000280938238732
-0.000314660586847
-0.000337372986029
-0.000347450129052
-0.000352083643664
-0.000353829625174
-0.000355304613759
-0.000355313864814
-0.000353831975252
-0.000352082337723
-0.000347457215759
-0.000337361505207
-0.000314670062193
-0.000280949363976
-0.000226295074807
-0.000149971460865
-4.39509665295e-05
-4.71764844858e-05
-0.000163693805878
-0.000247769247855
-0.000303561704377
-0.000337400541242
-0.00035381352367
-0.000359685114076
-0.000360852481722
-0.000360566901191
-0.000360713408089
-0.000360719561143
-0.000360559349453
-0.000360834822881
-0.000359656675124
-0.000353780554136
-0.000337373727737
-0.000303442898238
-0.00024775248495
-0.000163665144843
-4.71353801365e-05
-4.61992111667e-05
-0.000170599264667
-0.000260296496585
-0.000316675821434
-0.000347509299693
-0.000359727862384
-0.000361397491039
-0.000358630552434
-0.000354889544015
-0.000353657421304
-0.000353663372817
-0.000354886275116
-0.000358611017435
-0.000361361256913
-0.000359689595215
-0.00034748969587
-0.000316680208579
-0.000260283891977
-0.000170572352186
-4.6142159757e-05
-4.06238923812e-05
-0.000171429615187
-0.000265496187808
-0.000323336955099
-0.000352186922105
-0.000360949690811
-0.000358689703471
-0.000351262108401
-0.000344751046238
-0.000341687674987
-0.000341693920684
-0.000344752346754
-0.000351253447329
-0.000358667769938
-0.0003609224777
-0.000352165467747
-0.000323328416774
-0.000265497866561
-0.000171395369061
-4.05432920371e-05
-3.05694801107e-05
-0.000168326661668
-0.000261408720627
-0.000325241240198
-0.000353959738148
-0.000360710417532
-0.000354992432576
-0.000344802564574
-0.000335455461736
-0.000330247361117
-0.000330256047489
-0.00033546667113
-0.000344812786932
-0.000354999596985
-0.000360711541987
-0.000353962911154
-0.00032524352101
-0.000261401974725
-0.000168283213566
-3.04459475381e-05
-2.19093125999e-05
-0.000164654334953
-0.000263288727806
-0.000326639689778
-0.000355416820127
-0.000360849872351
-0.000353769089373
-0.000341757980259
-0.000330277902653
-0.000323543858543
-0.000323557269102
-0.000330304828075
-0.00034179503468
-0.000353813871497
-0.000360899019648
-0.000355463354314
-0.000326677896627
-0.000263303173101
-0.000164598045718
-2.17352990314e-05
-2.1945522342e-05
-0.000164677534885
-0.000263299360927
-0.000326614779608
-0.000355378631002
-0.000360811886326
-0.000353747918166
-0.000341759015362
-0.00033030229864
-0.000323585607138
-0.000323604804272
-0.000330346569539
-0.000341823691322
-0.00035382873378
-0.000360903126073
-0.000355465817975
-0.000326683673862
-0.000263315717865
-0.000164616288875
-2.17435052488e-05
-3.06674930233e-05
-0.000168381261057
-0.000261383369095
-0.000325159507586
-0.000353849062257
-0.000360596022741
-0.000354926728753
-0.000344792327651
-0.000335504012586
-0.000330337028697
-0.000330360445371
-0.000335560911757
-0.000344876731118
-0.000355030670722
-0.000360711757451
-0.000353963189437
-0.000325256185221
-0.000261432339683
-0.000168334047333
-3.04772401828e-05
-4.07462641871e-05
-0.000171502702553
-0.000265516110597
-0.000323261653092
-0.00035205895905
-0.000360818056028
-0.000358601514441
-0.00035124732593
-0.000344811422256
-0.000341798310233
-0.000341823452419
-0.000344872921619
-0.000351337840717
-0.000358710363881
-0.000360932982302
-0.000352172256253
-0.00032336276406
-0.000265570541264
-0.00017147970728
-4.06028142176e-05
-4.63186920418e-05
-0.000170693228285
-0.00026031373658
-0.000316657651847
-0.000347417975804
-0.000359611469614
-0.000361312748314
-0.000358618006148
-0.000354955395173
-0.000353777324161
-0.000353802619534
-0.000355015900297
-0.000358704537778
-0.000361407140303
-0.000359708528602
-0.000347518002047
-0.000316749895469
-0.000260377155271
-0.000170684660276
-4.62216162052e-05
-4.72879156401e-05
-0.000163791650447
-0.000247808163467
-0.000303398288508
-0.000337331199859
-0.000353736212506
-0.000359633180474
-0.000360855444853
-0.000360644612827
-0.000360840484482
-0.000360865420847
-0.000360698675731
-0.000360932494268
-0.000359714088709
-0.000353814487646
-0.000337409461514
-0.00030342587997
-0.000247864894073
-0.000163793592757
-4.72212902797e-05
-4.40780851067e-05
-0.000150098549086
-0.000226373961632
-0.000280976503381
-0.000314669439298
-0.000337352432859
-0.000347455512551
-0.000352118250578
-0.000353905799875
-0.000355414367422
-0.000355440858948
-0.00035396504643
-0.000352192132154
-0.000347538927737
-0.000337421769191
-0.00031474390423
-0.000281051164696
-0.00022642306883
-0.000150101866127
-4.40345788238e-05
-3.70123211281e-05
-0.000129076066549
-0.000194849847645
-0.000245253594569
-0.000280977127622
-0.000303457441742
-0.000316691881144
-0.000323327285908
-0.000325238600224
-0.000326678421705
-0.000326705537979
-0.000325300896559
-0.000323415477841
-0.000316797728958
-0.000303466406084
-0.000281066520198
-0.000245326112972
-0.00019489127614
-0.000129080267224
-3.69841369401e-05
-2.61354537337e-05
-9.93403020106e-05
-0.000152391695185
-0.000194834775896
-0.000226355470946
-0.000247805673798
-0.000260336825521
-0.000265556697699
-0.000261466903554
-0.000263368287377
-0.00026339599154
-0.000261531696579
-0.00026567070464
-0.000260458128627
-0.000247921953692
-0.000226458046403
-0.000194908342931
-0.000152430988218
-9.93498633527e-05
-2.61233970953e-05
-1.2739747521e-05
-6.1979001855e-05
-9.93289080622e-05
-0.000129048710902
-0.000150058260238
-0.000163753413664
-0.000170670864249
-0.000171509068469
-0.000168425720601
-0.000164768153446
-0.000164798313978
-0.000168505949735
-0.000171626208667
-0.000170806920264
-0.000163881525755
-0.000150161792833
-0.000129119815755
-9.93700395072e-05
-6.1994747835e-05
-1.27400449719e-05
1.38256431573e-06
-1.27566086481e-05
-2.61346926645e-05
-3.69880741868e-05
-4.40243616481e-05
-4.72129972125e-05
-4.62334641165e-05
-4.0663063441e-05
-3.0603379872e-05
-2.19186446603e-05
-2.1936064409e-05
-3.06592822909e-05
-4.07526858511e-05
-4.63342029952e-05
-4.73064129542e-05
-4.40967975536e-05
-3.70387451524e-05
-2.61695598694e-05
-1.2777588539e-05
1.37071070607e-06
5.73636726176e-06
-1.08939511486e-05
-2.32610480273e-05
-3.03463075928e-05
-3.04389844729e-05
-2.05915610595e-05
-3.80573490807e-06
1.44342057868e-05
2.81353792438e-05
3.44823214557e-05
3.44897754299e-05
2.81305327947e-05
1.44059610315e-05
-3.86512284056e-06
-2.0667551863e-05
-3.05076277191e-05
-3.03877568913e-05
-2.32802584274e-05
-1.08922884042e-05
5.71624201968e-06
-1.08375721976e-05
-6.77742910807e-05
-0.000106944955677
-0.000137314114501
-0.000157941535837
-0.000167972335572
-0.000167134486852
-0.000156781305374
-0.000143152939228
-0.000133881266404
-0.000133904506715
-0.000143235579578
-0.000156921006387
-0.000167313022002
-0.000168142537596
-0.000158067838097
-0.000137383881861
-0.000106975170255
-6.77834162022e-05
-1.08740504159e-05
-2.32308210474e-05
-0.000106949967443
-0.000165476987156
-0.00021531478216
-0.000256289971992
-0.00028636280244
-0.000304646819958
-0.00030609537893
-0.000308641136457
-0.000307038580178
-0.00030706886789
-0.000308718025702
-0.000306203346616
-0.000304834336055
-0.000286543091949
-0.000256422765889
-0.000215384277634
-0.000165481287557
-0.000106913268128
-2.32133866662e-05
-3.03224774081e-05
-0.000137322697519
-0.000215335510521
-0.000281281848592
-0.000333861384185
-0.000368706168645
-0.000394182398577
-0.000406463868651
-0.000413053518792
-0.000415690545373
-0.000415715825874
-0.000413105321627
-0.000406534580997
-0.000394299528439
-0.000368936262137
-0.00033395708766
-0.000281320716516
-0.000215308661074
-0.000137243238623
-3.0237509124e-05
-3.04230257832e-05
-0.000157965661964
-0.00025633517528
-0.000333891290322
-0.00038878920086
-0.000424622253641
-0.000446956520344
-0.000459148913723
-0.000465944034336
-0.000469564147186
-0.000469583113163
-0.000465974516643
-0.000459186292484
-0.000447001818923
-0.000424672477701
-0.00038882821809
-0.000333905981429
-0.000256286640254
-0.000157842198517
-3.02488685814e-05
-2.05751818886e-05
-0.000168005322061
-0.000286419785604
-0.000368756696568
-0.000424652777057
-0.00045666971582
-0.000472906195228
-0.000480326793506
-0.000484635759494
-0.000487196554921
-0.000487212929493
-0.00048466270433
-0.000480366179211
-0.000472956126493
-0.00045668927351
-0.000424657434832
-0.000368841881444
-0.000286369433293
-0.000167846071799
-2.03144138547e-05
-3.81518550276e-06
-0.000167163543333
-0.000304689694877
-0.000394242814829
-0.000447020925348
-0.000472947104659
-0.000482372668269
-0.000483989434213
-0.000483948614909
-0.00048424223374
-0.000484255510714
-0.000483971295864
-0.000484044980226
-0.000482468248345
-0.000473006141209
-0.000447008824338
-0.000394235643599
-0.000304645751741
-0.000166968952054
-3.43481473125e-06
1.43903020549e-05
-0.000156790837696
-0.000306121434884
-0.000406533848503
-0.000459245639965
-0.0004804074046
-0.000484033785181
-0.000480186322209
-0.000475239814978
-0.000472623868276
-0.000472635460682
-0.000475263316953
-0.000480261659258
-0.000484171253353
-0.000480519076557
-0.000459251688997
-0.000406513640768
-0.00030605491935
-0.000156548627049
1.48968484806e-05
2.80824112401e-05
-0.000143128176817
-0.000308641929066
-0.000413119770993
-0.000466052413403
-0.000484733590457
-0.000484023776856
-0.000475280011985
-0.000465986937472
-0.000460569628907
-0.000460583112197
-0.000466020546239
-0.000475381238838
-0.000484202216827
-0.000484891623619
-0.000466091096692
-0.000413116838359
-0.000308576254541
-0.000142847893592
2.86769256253e-05
3.44605399969e-05
-0.00013381457667
-0.000306999985777
-0.000415732026123
-0.000469656019496
-0.000487291190499
-0.000484319850342
-0.000472677927689
-0.000460597489045
-0.000453388304392
-0.000453406269657
-0.000460646656289
-0.000472808678149
-0.000484538075141
-0.000487490476878
-0.000469731610307
-0.000415755708689
-0.000306943600167
-0.000133526225397
3.50797748747e-05
3.450833507e-05
-0.000133802124308
-0.000306996608716
-0.00041571423248
-0.000469626868207
-0.000487259546913
-0.000484296216507
-0.00047267503841
-0.000460618918773
-0.000453426360772
-0.000453449051887
-0.000460682048007
-0.000472829402275
-0.000484546786074
-0.000487494085672
-0.000469734353253
-0.000415763952836
-0.000306958074218
-0.000133535615944
3.50996927193e-05
2.8189515463e-05
-0.000143115148397
-0.000308632974664
-0.000413068962815
-0.000465966223966
-0.000484640528367
-0.000483948885313
-0.000475258615714
-0.000466030024132
-0.000460654380789
-0.000460678847058
-0.000466099088128
-0.000475425527
-0.000484219351929
-0.000484897577585
-0.000466093881289
-0.000413137071975
-0.000308616737963
-0.000142883862192
2.87126832423e-05
1.44871139874e-05
-0.000156798546147
-0.000306115050385
-0.000406477790617
-0.000459144258613
-0.000480294315605
-0.000483957958123
-0.000480190083478
-0.000475327635052
-0.000472759944527
-0.000472780815185
-0.000475387443551
-0.000480342859657
-0.000484214441582
-0.000480540392567
-0.000459269741609
-0.000406554735371
-0.000306121031712
-0.000156613676313
1.49290410297e-05
-3.77944996274e-06
-0.000167198487935
-0.000304739914505
-0.000394239409983
-0.000446953237532
-0.000472876796766
-0.000482354594567
-0.000484053139134
-0.000484090272517
-0.000484427779849
-0.000484444659752
-0.000484137058577
-0.000484173075803
-0.000482557164953
-0.000473057714146
-0.00044704988197
-0.000394318412285
-0.00030475824784
-0.000167051719452
-3.4158005499e-06
-2.05915017018e-05
-0.00016804336651
-0.000286465741404
-0.00036890051216
-0.000424641049461
-0.000456643253655
-0.000472922031633
-0.000480408567656
-0.000484773981625
-0.000487371146659
-0.000487390805049
-0.000484823459227
-0.000480504508412
-0.00047305670098
-0.000456753481096
-0.000424726341584
-0.000369005660063
-0.00028647803615
-0.000167914993473
-2.03000414872e-05
-3.04397079541e-05
-0.00015798510688
-0.000256362218968
-0.000333925672044
-0.000388817890948
-0.000424649423319
-0.000446979486772
-0.000459193641403
-0.000466027385213
-0.000469671391512
-0.000469698222038
-0.000466092311486
-0.000459294228914
-0.000447089362622
-0.000424751951998
-0.000388906471285
-0.000333989874349
-0.000256354471751
-0.000157867275141
-3.02304673065e-05
-3.0329281057e-05
-0.000137309836534
-0.000215336921249
-0.000281308300775
-0.000333918002609
-0.000368874905521
-0.000394266040257
-0.000406538419104
-0.000413143471711
-0.000415795749589
-0.000415829299714
-0.000413226289012
-0.000406654264125
-0.000394410800813
-0.000369066686434
-0.000334026071803
-0.000281357190318
-0.000215311211505
-0.000137207536242
-3.01820976606e-05
-2.32173408595e-05
-0.000106907991069
-0.000165444536688
-0.000215315676973
-0.000256327263045
-0.000286436644323
-0.000304739881645
-0.000306166268006
-0.000308719568061
-0.000307120476694
-0.000307159446703
-0.000308819758696
-0.000306301638336
-0.000304927480279
-0.000286603436029
-0.000256438455165
-0.000215354795013
-0.000165410603575
-0.000106828808564
-2.31242499115e-05
-1.08228184837e-05
-6.77316321141e-05
-0.000106891134649
-0.000137268405706
-0.000157905917596
-0.000167940511691
-0.000167094969063
-0.000156710518257
-0.000143050395794
-0.000133766793227
-0.000133805469268
-0.000143156286976
-0.000156862021772
-0.000167260038297
-0.0001680802898
-0.000157992939299
-0.000137292658663
-0.000106867668159
-6.7677560668e-05
-1.07694679513e-05
5.75630583864e-06
-1.08570822098e-05
-2.32035635928e-05
-3.02579547884e-05
-3.02952398169e-05
-2.03735640206e-05
-3.48771035218e-06
1.4863401297e-05
2.86595167742e-05
3.50625139378e-05
3.50578915847e-05
2.86407125716e-05
1.48278220191e-05
-3.53589496047e-06
-2.04219461876e-05
-3.03243991208e-05
-3.02642890282e-05
-2.31931492629e-05
-1.08351447357e-05
5.78251548862e-06
1.04887232348e-06
-1.79834774447e-05
-2.88232464229e-05
-2.81263747769e-05
-1.93596022311e-05
-1.95584743014e-06
1.21608718553e-05
1.93824312609e-05
1.99680945666e-05
1.86537006281e-05
1.86979555995e-05
2.0064002094e-05
1.95131702435e-05
1.23129500832e-05
-1.84619992117e-06
-1.91827482874e-05
-2.80104792641e-05
-2.87197934018e-05
-1.78865098193e-05
1.06975962726e-06
-1.78627905133e-05
-7.91837773207e-05
-0.000115272546378
-0.000137676248554
-0.000148094779818
-0.000144823382949
-0.000130861991697
-0.000114982165742
-0.000105861747963
-0.000102240442784
-0.000102234803583
-0.000105851242584
-0.000114974725421
-0.000130868010464
-0.000144815206784
-0.000148013294465
-0.000137526423785
-0.000115093008202
-7.90452077353e-05
-1.78439578582e-05
-2.87466910669e-05
-0.000115226595457
-0.000176007864722
-0.000225970178596
-0.00026698252548
-0.000297388722518
-0.000314743937973
-0.000317227845121
-0.000316579916082
-0.000315685387727
-0.000315711257809
-0.00031665780848
-0.00031735630801
-0.000314905310398
-0.000297498023412
-0.000266967242081
-0.000225822976493
-0.000175777286212
-0.000114999523515
-2.85985907514e-05
-2.806740261e-05
-0.000137630088514
-0.000225973618432
-0.000301437010119
-0.000364543512778
-0.000410748663036
-0.00044323057988
-0.000460865438365
-0.000469849260679
-0.000473909176159
-0.000473942312939
-0.000469932562431
-0.000461000749436
-0.00044338682434
-0.000410840558896
-0.000364545861274
-0.000301306359556
-0.000225712553606
-0.000137297579529
-2.77477571102e-05
-1.92902705112e-05
-0.000148077474231
-0.000267025158387
-0.000364581368369
-0.000436674377229
-0.000486697080827
-0.00051874491084
-0.000537376615442
-0.000547944489532
-0.000553344603917
-0.000553370078487
-0.000548008324797
-0.000537517732516
-0.000518956223059
-0.000486847483919
-0.000436681496177
-0.000364466063178
-0.000266758655513
-0.000147648254644
-1.87766151424e-05
-2.0739434026e-06
-0.000144875117764
-0.000297480295056
-0.000410823618366
-0.00048673382288
-0.000532023927703
-0.000557010965887
-0.000570166252745
-0.000577352737306
-0.000581274046033
-0.000581291986311
-0.000577405373162
-0.000570342928303
-0.000557345515304
-0.000532342403108
-0.000486857042256
-0.000410722754058
-0.000297220235566
-0.000144317627431
-1.23486061083e-06
1.19601438285e-05
-0.000130998823777
-0.000314866615304
-0.000443324936738
-0.000518797039576
-0.000557025537431
-0.000574078396235
-0.000580137099187
-0.000581929979878
-0.000582829633321
-0.000582842869008
-0.000581974735931
-0.000580356882308
-0.00057454694965
-0.000557524514926
-0.000519083848383
-0.000443302409812
-0.0003146152762
-0.000130320962304
1.30308782159e-05
1.91026370109e-05
-0.000115213958208
-0.000317351022959
-0.000460953294792
-0.000537423412174
-0.000570171764765
-0.000580128970029
-0.000579224674108
-0.000575154555381
-0.000572562428932
-0.000572573130897
-0.000575200710891
-0.000579483467617
-0.000580690314732
-0.000570799099635
-0.000537820665086
-0.000461006985703
-0.000317088922449
-0.00011443337681
2.03650241016e-05
1.96869099147e-05
-0.000106101990994
-0.000316702935201
-0.00046992503765
-0.000547970858396
-0.000577330771952
-0.00058190425416
-0.000575147014755
-0.00056605954596
-0.000560437703232
-0.000560450839988
-0.000566118864488
-0.000575447289076
-0.000582533688154
-0.000578033936019
-0.000548428811578
-0.000470019883986
-0.000316439974349
-0.000105297069714
2.10591973837e-05
1.84272698879e-05
-0.00010241529484
-0.000315762569128
-0.000473949177853
-0.000553331456631
-0.000581210745132
-0.000582774959787
-0.000572546494318
-0.000560443911751
-0.000552996738467
-0.000553015142239
-0.000560520342527
-0.000572884381953
-0.000583459584215
-0.000581973514205
-0.00055383741312
-0.000474079655037
-0.000315530241369
-0.000101648452884
1.98198583969e-05
1.85358479964e-05
-0.00010232055381
-0.000315719850729
-0.00047391922804
-0.00055328278578
-0.000581149335925
-0.000582722154357
-0.000572519233269
-0.000560443049335
-0.000553010997599
-0.000553031362396
-0.000560525100069
-0.000572871791886
-0.000583436619864
-0.000581954307824
-0.000553830273209
-0.000474083320742
-0.000315530431463
-0.000101623986428
1.98694845111e-05
1.99778466051e-05
-0.000105854730207
-0.000316606408099
-0.000469849274479
-0.000547834694423
-0.000577156445225
-0.000581750441977
-0.000575067444261
-0.000566056322818
-0.000560474574816
-0.00056048927354
-0.000566125291797
-0.00057541166396
-0.000582477032544
-0.000577987990938
-0.000548411582266
-0.000470030013424
-0.000316445180538
-0.000105237231184
2.11757524322e-05
1.94958476385e-05
-0.000114913204109
-0.000317261421233
-0.000460881238672
-0.000537289421117
-0.000570013114908
-0.000580030364199
-0.000579247022113
-0.00057528233387
-0.000572732380295
-0.000572729064784
-0.000575304692707
-0.000579529429245
-0.000580703227271
-0.000570804773286
-0.00053783958075
-0.000461039187857
-0.000317107182632
-0.000114350921941
2.05311277195e-05
1.23549893158e-05
-0.000130752683574
-0.000314776645811
-0.000443271891312
-0.000518741438531
-0.000557015978427
-0.000574179179454
-0.000580376621341
-0.000582266659377
-0.000583187764063
-0.000583165807677
-0.000582235738996
-0.000580562659282
-0.000574715145835
-0.000557645890953
-0.000519161835325
-0.000443350173142
-0.000314642817513
-0.000130226768039
1.32283745739e-05
-1.76123217558e-06
-0.000144685366869
-0.000297371646698
-0.000410751994591
-0.000486709718601
-0.000532107534822
-0.000557220474127
-0.000570499012762
-0.000577745624462
-0.000581668081605
-0.000581649547052
-0.000577714819675
-0.000570620687702
-0.000557585604222
-0.000532509636672
-0.000486929300764
-0.000410731023592
-0.000297191345045
-0.000144184433987
-1.04146103275e-06
-1.91104113117e-05
-0.000147890501925
-0.000266847785053
-0.000364461119897
-0.000436618015342
-0.000486754130905
-0.000518922816261
-0.000537642729572
-0.000548249075517
-0.000553647641975
-0.000553652639007
-0.0005482690399
-0.000537759462769
-0.000519158273499
-0.000486957336214
-0.000436684519822
-0.000364399752959
-0.000266609145302
-0.000147420371466
-1.8535226646e-05
-2.79193519932e-05
-0.000137384155864
-0.000225700267066
-0.000301225486326
-0.000364429985867
-0.000410714023287
-0.0004432882581
-0.000460995747461
-0.000470014119187
-0.000474087041696
-0.000474120146961
-0.000470102065833
-0.000461146474402
-0.000443481834059
-0.000410845439388
-0.000364466069853
-0.000301120512178
-0.000225434048027
-0.000136989779189
-2.75241178515e-05
-2.86218809124e-05
-0.000114938164787
-0.000175660651439
-0.000225647435243
-0.000266744821712