/*--------------------------------*- C++ -*----------------------------------*\
| =========                 |                                                 |
| \\      /  F ield         | OpenFOAM: The Open Source CFD Toolbox           |
|  \\    /   O peration     | Version:  3.0.1                                 |
|   \\  /    A nd           | Web:      www.OpenFOAM.org                      |
|    \\/     M anipulation  |                                                 |
\*---------------------------------------------------------------------------*/
FoamFile
{
    version     2.0;
    format      ascii;
    class       volScalarField;
    location    "9";
    object      rAU;
}
// * * * * * * * * * * * * * * * * * * * * * * * * * * * * * * * * * * * * * //

dimensions      [-1 3 1 0 0 0 0];

internalField   nonuniform List<scalar> 
7968
(
1.05286722301e-05
1.05242502365e-05
1.05280057168e-05
1.05335097838e-05
1.05036263196e-05
1.04879510006e-05
1.05097574941e-05
1.05187410307e-05
1.05226610554e-05
1.05240821496e-05
1.05240848979e-05
1.05226717128e-05
1.05187669576e-05
1.05098039504e-05
1.04880002059e-05
1.05036387619e-05
1.0533502112e-05
1.05280077323e-05
1.05242523379e-05
1.05286712496e-05
1.0524257312e-05
1.05133657211e-05
1.05130183266e-05
1.05171487031e-05
1.04966767335e-05
1.04826311727e-05
1.04967474263e-05
1.05061616885e-05
1.05111523315e-05
1.0513051885e-05
1.05130563064e-05
1.05111681827e-05
1.05061931269e-05
1.04967902046e-05
1.04826187424e-05
1.04966320241e-05
1.05171411446e-05
1.05130212713e-05
1.05133664839e-05
1.05242528993e-05
1.05280113714e-05
1.05130169163e-05
1.05106193048e-05
1.05137900858e-05
1.05005930966e-05
1.04878443755e-05
1.04959150944e-05
1.05061914307e-05
1.05129541964e-05
1.05164045022e-05
1.05164130699e-05
1.05129756289e-05
1.05062294733e-05
1.04959560016e-05
1.04877951614e-05
1.05005208817e-05
1.05137885123e-05
1.05106214576e-05
1.0513014308e-05
1.0528002791e-05
1.05335078684e-05
1.05171410617e-05
1.05137863761e-05
1.05151014736e-05
1.05046732833e-05
1.04920694297e-05
1.04967101136e-05
1.05065641873e-05
1.05143398307e-05
1.05180409791e-05
1.05180480336e-05
1.05143616855e-05
1.05065993793e-05
1.04967498471e-05
1.04920099845e-05
1.05046061903e-05
1.05150974097e-05
1.05137869827e-05
1.05171331408e-05
1.05334980712e-05
1.05036343116e-05
1.04966493986e-05
1.05005655199e-05
1.0504655316e-05
1.04933494021e-05
1.04741818692e-05
1.047447907e-05
1.04825595891e-05
1.04917603327e-05
1.0495106254e-05
1.04951163006e-05
1.04917903309e-05
1.04826086731e-05
1.04745133531e-05
1.04741124642e-05
1.04932501559e-05
1.05046567795e-05
1.05005713732e-05
1.04966621157e-05
1.05036297364e-05
1.0487980451e-05
1.04826250107e-05
1.04878367426e-05
1.04920684598e-05
1.04741938778e-05
1.04542603673e-05
1.04560298416e-05
1.04631156726e-05
1.04711580061e-05
1.04760743995e-05
1.04760919403e-05
1.04712234038e-05
1.04631620734e-05
1.04560780582e-05
1.04542197998e-05
1.047411101e-05
1.04920655953e-05
1.04878467386e-05
1.04826444796e-05
1.04879760648e-05
1.05097873266e-05
1.04967740052e-05
1.04959490936e-05
1.04967464211e-05
1.04745102071e-05
1.04560412589e-05
1.04584759991e-05
1.04651864237e-05
1.04790165401e-05
1.04834666106e-05
1.04834810289e-05
1.04790709701e-05
1.04652261962e-05
1.045851833e-05
1.04560201208e-05
1.04744532003e-05
1.04967441336e-05
1.04959563331e-05
1.04967759677e-05
1.05097800137e-05
1.0518755955e-05
1.05061782022e-05
1.05062194065e-05
1.05065994344e-05
1.04825973715e-05
1.04631114976e-05
1.04651827431e-05
1.04809656716e-05
1.04903425566e-05
1.04938830634e-05
1.04938933833e-05
1.04903773256e-05
1.04810455802e-05
1.04652179545e-05
1.04630991099e-05
1.04825678066e-05
1.05065933314e-05
1.05062289496e-05
1.05061809154e-05
1.05187525844e-05
1.05226644878e-05
1.05111563617e-05
1.05129705565e-05
1.05143570002e-05
1.04917521777e-05
1.04710853e-05
1.04789603136e-05
1.04903190124e-05
1.04979100412e-05
1.05009768757e-05
1.05009836744e-05
1.04979331906e-05
1.0490360866e-05
1.04790141849e-05
1.04711034476e-05
1.04917285077e-05
1.05143542362e-05
1.05129816316e-05
1.05111621144e-05
1.05226649206e-05
1.05240817364e-05
1.05130516601e-05
1.05164095712e-05
1.05180484142e-05
1.04950863436e-05
1.04760078661e-05
1.04834153878e-05
1.04938530478e-05
1.05009653641e-05
1.05039383876e-05
1.05039429309e-05
1.05009806453e-05
1.04938802066e-05
1.04834431321e-05
1.04759990094e-05
1.04950556478e-05
1.05180425297e-05
1.0516420171e-05
1.05130563796e-05
1.05240829913e-05
1.0524080711e-05
1.05130524692e-05
1.0516415414e-05
1.05180523425e-05
1.04950996113e-05
1.0476040473e-05
1.04834437654e-05
1.04938724176e-05
1.05009755154e-05
1.05039433263e-05
1.05039468099e-05
1.05009869005e-05
1.04938920725e-05
1.04834600216e-05
1.04760169302e-05
1.0495061246e-05
1.05180420474e-05
1.0516419895e-05
1.05130532969e-05
1.05240796993e-05
1.05226582599e-05
1.0511156683e-05
1.05129770857e-05
1.05143636426e-05
1.04917829565e-05
1.04711953172e-05
1.047905719e-05
1.04903778811e-05
1.04979424079e-05
1.05009949683e-05
1.05009986012e-05
1.04979548287e-05
1.04903992983e-05
1.04790768883e-05
1.04711746526e-05
1.04917493869e-05
1.05143572044e-05
1.05129837336e-05
1.05111567836e-05
1.05226579383e-05
1.05187447286e-05
1.05061775042e-05
1.05062294231e-05
1.05066020986e-05
1.04826199254e-05
1.04631646392e-05
1.04652437447e-05
1.04810784765e-05
1.04903940263e-05
1.04939125581e-05
1.04939177737e-05
1.04904125859e-05
1.04811219416e-05
1.04652693811e-05
1.04631464746e-05
1.04826249531e-05
1.05066049808e-05
1.05062409506e-05
1.05061824509e-05
1.05187489288e-05
1.05097780304e-05
1.04967805719e-05
1.04959619529e-05
1.04967583594e-05
1.04745159098e-05
1.04560884678e-05
1.04585434603e-05
1.04652433857e-05
1.04790640342e-05
1.04834878895e-05
1.04834954027e-05
1.04790971209e-05
1.04652724637e-05
1.04585755682e-05
1.04560791197e-05
1.04744856149e-05
1.04967669073e-05
1.04959808441e-05
1.04967932228e-05
1.05097904474e-05
1.04879807443e-05
1.04826354086e-05
1.04878211075e-05
1.04920324664e-05
1.04741229569e-05
1.04542276489e-05
1.04560390823e-05
1.04631248874e-05
1.04711345682e-05
1.0476034493e-05
1.04760444145e-05
1.04711817851e-05
1.04631559655e-05
1.04560862647e-05
1.045423034e-05
1.04741022814e-05
1.04920588911e-05
1.04878553873e-05
1.04826516898e-05
1.04880060948e-05
1.0503638748e-05
1.04966461331e-05
1.05005363866e-05
1.0504618045e-05
1.04932575297e-05
1.04741110059e-05
1.04744490131e-05
1.04824972572e-05
1.04917034061e-05
1.0495033826e-05
1.04950412275e-05
1.04917314441e-05
1.04825885296e-05
1.04744895574e-05
1.04740979334e-05
1.04932227925e-05
1.05046400369e-05
1.05005581913e-05
1.04966532961e-05
1.0503656541e-05
1.05335073924e-05
1.05171361386e-05
1.05137820364e-05
1.05150954915e-05
1.05046619007e-05
1.04920657352e-05
1.04967283209e-05
1.05065629985e-05
1.05143145582e-05
1.05179976187e-05
1.05180021187e-05
1.05143324994e-05
1.05065953062e-05
1.04967600509e-05
1.04920321085e-05
1.05046148896e-05
1.05150904316e-05
1.05137793271e-05
1.0517133741e-05
1.05335071322e-05
1.05280105076e-05
1.05130193408e-05
1.05106182763e-05
1.0513784476e-05
1.05005864768e-05
1.04878590843e-05
1.0495945686e-05
1.05062135501e-05
1.0512963017e-05
1.05163956563e-05
1.05163985023e-05
1.05129750015e-05
1.05062399268e-05
1.04959773279e-05
1.04878265806e-05
1.05005330697e-05
1.05137778575e-05
1.05106184493e-05
1.05130192011e-05
1.05280104966e-05
1.05242631026e-05
1.0513366368e-05
1.05130128904e-05
1.05171335621e-05
1.0496688045e-05
1.04826687871e-05
1.04967736221e-05
1.05061756858e-05
1.05111561708e-05
1.05130474574e-05
1.0513048839e-05
1.05111655829e-05
1.05062011885e-05
1.0496811192e-05
1.04826500896e-05
1.04966452816e-05
1.05171315225e-05
1.05130178199e-05
1.05133705972e-05
1.05242666284e-05
1.0528686149e-05
1.05242545739e-05
1.05279975962e-05
1.05334945346e-05
1.05036457313e-05
1.04879897225e-05
1.05097775139e-05
1.05187513488e-05
1.05226660347e-05
1.05240824636e-05
1.05240844863e-05
1.05226768315e-05
1.05187803099e-05
1.05098306698e-05
1.04880538644e-05
1.05036749939e-05
1.05334944051e-05
1.05280028904e-05
1.05242593146e-05
1.05286891398e-05
1.05168209695e-05
1.05114668519e-05
1.05146538446e-05
1.0517119119e-05
1.05138763822e-05
1.05108549049e-05
1.05114735986e-05
1.05143785232e-05
1.05167317343e-05
1.05174259277e-05
1.05174269476e-05
1.05167369682e-05
1.05143871548e-05
1.05114790535e-05
1.05108518718e-05
1.05138616848e-05
1.05171021903e-05
1.05146500844e-05
1.05114622444e-05
1.05168241783e-05
1.05114627716e-05
1.04797876562e-05
1.04616851853e-05
1.04583262823e-05
1.04571300156e-05
1.04579551566e-05
1.04624082013e-05
1.04684817801e-05
1.0473424427e-05
1.04759176842e-05
1.04759221922e-05
1.04734374017e-05
1.04685053525e-05
1.0462430675e-05
1.04579676669e-05
1.04571297384e-05
1.04583249039e-05
1.04616850683e-05
1.04797825997e-05
1.05114632231e-05
1.05146631725e-05
1.04616898044e-05
1.04262923435e-05
1.04139919979e-05
1.0410845431e-05
1.04139124862e-05
1.04208644503e-05
1.04299737923e-05
1.0437254126e-05
1.0441793057e-05
1.04418035167e-05
1.04372743205e-05
1.04300029642e-05
1.04209043822e-05
1.04139506039e-05
1.04108717483e-05
1.04140001065e-05
1.04262927904e-05
1.04616836766e-05
1.05146499128e-05
1.05171114224e-05
1.04583353624e-05
1.04140002146e-05
1.03856088266e-05
1.0389005488e-05
1.03871965193e-05
1.03909129227e-05
1.04009593981e-05
1.04104241117e-05
1.04161591654e-05
1.04161734004e-05
1.04104582515e-05
1.0401001451e-05
1.03909535833e-05
1.0387217273e-05
1.0389037551e-05
1.03856315681e-05
1.0413993445e-05
1.04583256586e-05
1.05171048828e-05
1.0513868396e-05
1.04571443546e-05
1.04108627276e-05
1.03890140173e-05
1.03729259617e-05
1.03620357797e-05
1.03614200618e-05
1.0369391175e-05
1.03827235424e-05
1.03895267376e-05
1.03895463984e-05
1.03827753363e-05
1.03694636106e-05
1.03614617574e-05
1.03620561026e-05
1.03729219546e-05
1.0389036073e-05
1.04108621834e-05
1.04571391582e-05
1.05138674387e-05
1.05108565531e-05
1.04579747396e-05
1.04139398088e-05
1.0387223117e-05
1.03620457899e-05
1.03495607762e-05
1.03480903794e-05
1.03531877015e-05
1.0364409459e-05
1.03731927756e-05
1.03732214335e-05
1.03644983948e-05
1.0353245137e-05
1.03481428751e-05
1.0349592179e-05
1.03620497207e-05
1.03872256322e-05
1.04139476968e-05
1.04579766419e-05
1.05108570921e-05
1.05114822546e-05
1.04624277395e-05
1.04208976959e-05
1.03909465415e-05
1.03614281461e-05
1.03480854386e-05
1.03462337614e-05
1.03504115172e-05
1.03662757673e-05
1.03740645998e-05
1.03740911898e-05
1.03663591639e-05
1.03504659699e-05
1.03462880616e-05
1.03481221082e-05
1.03614361305e-05
1.03909491619e-05
1.04209038824e-05
1.04624337551e-05
1.0511482402e-05
1.05143893421e-05
1.0468496704e-05
1.04300041456e-05
1.04009855302e-05
1.03694087915e-05
1.03531719827e-05
1.03503987324e-05
1.03651044721e-05
1.03776451282e-05
1.03837415727e-05
1.03837619149e-05
1.03777040336e-05
1.03652067664e-05
1.03504460708e-05
1.03532060834e-05
1.03694386832e-05
1.04009854657e-05
1.04300091508e-05
1.04685076786e-05
1.05143914311e-05
1.05167330695e-05
1.04734331009e-05
1.04372806142e-05
1.04104337362e-05
1.03826974674e-05
1.03643102246e-05
1.03661870608e-05
1.03776072244e-05
1.03876129873e-05
1.03930697043e-05
1.03930847524e-05
1.03876538165e-05
1.03776687589e-05
1.03662589375e-05
1.03643653558e-05
1.03827137098e-05
1.04104336954e-05
1.04372820562e-05
1.04734444634e-05
1.05167370502e-05
1.05174192285e-05
1.0475922325e-05
1.04418086473e-05
1.04161562082e-05
1.03894869633e-05
1.03730931257e-05
1.03739725735e-05
1.03836897057e-05
1.03930493356e-05
1.03983897957e-05
1.03984000155e-05
1.03930759187e-05
1.03837246042e-05
1.03740013532e-05
1.0373103262e-05
1.03894834148e-05
1.04161486361e-05
1.04418072306e-05
1.04759278665e-05
1.05174188747e-05
1.05174254788e-05
1.04759301866e-05
1.04418152603e-05
1.04161666611e-05
1.03895143699e-05
1.03731463033e-05
1.03740203297e-05
1.0383719535e-05
1.03930638672e-05
1.03983935015e-05
1.0398400117e-05
1.03930797459e-05
1.03837365468e-05
1.03740224008e-05
1.03731264458e-05
1.03894924615e-05
1.04161475958e-05
1.04418042801e-05
1.04759265244e-05
1.05174198224e-05
1.05167439437e-05
1.04734467861e-05
1.04372843257e-05
1.04104523201e-05
1.0382761581e-05
1.03644610375e-05
1.03663260571e-05
1.03776883199e-05
1.0387649113e-05
1.03930770987e-05
1.03930821752e-05
1.03876609605e-05
1.03777013683e-05
1.03663277246e-05
1.03644437757e-05
1.03827403497e-05
1.04104310882e-05
1.0437272777e-05
1.04734412461e-05
1.05167403606e-05
1.05143935166e-05
1.04685091868e-05
1.04300059904e-05
1.04009982829e-05
1.03694751582e-05
1.03532472934e-05
1.0350472302e-05
1.03652275962e-05
1.03776883423e-05
1.03837392287e-05
1.03837449669e-05
1.03777052489e-05
1.0365260058e-05
1.03504744111e-05
1.03532409673e-05
1.03694994792e-05
1.04009830856e-05
1.04299970524e-05
1.04685054823e-05
1.05143936504e-05
1.05114789382e-05
1.04624314693e-05
1.04209025074e-05
1.03909548847e-05
1.03614628591e-05
1.03481522201e-05
1.03463024484e-05
1.03504602179e-05
1.03662905182e-05
1.03740198642e-05
1.03740288883e-05
1.03663253264e-05
1.03504694332e-05
1.03463101225e-05
1.03481507349e-05
1.03614504152e-05
1.03909503032e-05
1.04209009151e-05
1.04624310385e-05
1.05114778644e-05
1.0510846334e-05
1.04579701962e-05
1.04139485136e-05
1.03872194614e-05
1.03620565372e-05
1.03495978791e-05
1.03481311725e-05
1.03532086936e-05
1.03643558656e-05
1.03730895347e-05
1.03731010399e-05
1.03644054731e-05
1.03532235758e-05
1.03481415725e-05
1.03495993594e-05
1.03620475457e-05
1.03872178931e-05
1.04139521473e-05
1.04579733592e-05
1.0510844595e-05
1.05138599158e-05
1.04571366837e-05
1.04108705153e-05
1.03890347515e-05
1.03729141114e-05
1.03620372317e-05
1.03614208946e-05
1.03693473537e-05
1.03826568919e-05
1.03894236513e-05
1.03894293064e-05
1.03826797367e-05
1.03694255112e-05
1.03614254189e-05
1.03620326404e-05
1.03728970103e-05
1.03890387647e-05
1.0410870858e-05
1.04571403127e-05
1.05138612693e-05
1.05171143518e-05
1.04583386054e-05
1.04140087048e-05
1.03856386152e-05
1.03890320898e-05
1.03871980197e-05
1.03909039786e-05
1.04009258527e-05
1.04103580057e-05
1.04160607982e-05
1.04160609697e-05
1.04103589617e-05
1.04009273018e-05
1.03909055973e-05
1.03871885799e-05
1.0389031846e-05
1.03856402611e-05
1.04140037086e-05
1.04583406792e-05
1.05171170828e-05
1.05146829965e-05
1.04617084691e-05
1.04263126477e-05
1.04140043146e-05
1.04108647614e-05
1.0413931531e-05
1.0420867828e-05
1.04299517371e-05
1.04372078778e-05
1.04417201595e-05
1.04417185821e-05
1.04372032383e-05
1.04299463745e-05
1.04208683537e-05
1.04139318908e-05
1.04108637984e-05
1.04139997293e-05
1.0426310981e-05
1.04617131414e-05
1.05146893638e-05
1.05115118623e-05
1.04798127141e-05
1.04617040028e-05
1.04583302203e-05
1.04571341761e-05
1.0457967698e-05
1.04624188688e-05
1.04684819888e-05
1.04734091224e-05
1.04758883998e-05
1.04758876075e-05
1.04734086658e-05
1.04684855858e-05
1.04624211116e-05
1.04579641812e-05
1.0457129042e-05
1.04583290426e-05
1.04617053401e-05
1.04798210849e-05
1.05115198083e-05
1.05168983565e-05
1.05115243912e-05
1.05146697163e-05
1.05171079472e-05
1.0513869393e-05
1.05108617457e-05
1.051148537e-05
1.0514389e-05
1.05167378586e-05
1.05174257322e-05
1.05174263247e-05
1.05167419444e-05
1.05143965766e-05
1.05114898975e-05
1.05108589195e-05
1.05138613754e-05
1.05171014562e-05
1.05146703207e-05
1.05115256949e-05
1.05169009542e-05
1.04861777676e-05
1.04748929821e-05
1.04808857553e-05
1.04858740297e-05
1.04902489029e-05
1.04909302617e-05
1.04842690876e-05
1.04764351008e-05
1.04745044689e-05
1.04734690866e-05
1.04734632813e-05
1.04744976148e-05
1.04764387538e-05
1.04843408726e-05
1.0490990096e-05
1.04903027957e-05
1.04859308933e-05
1.04808923457e-05
1.04749189422e-05
1.04861981107e-05
1.04749097774e-05
1.0419565953e-05
1.04045209601e-05
1.0405888969e-05
1.04135508201e-05
1.04195858262e-05
1.04202187459e-05
1.04194540497e-05
1.04231279193e-05
1.04248061116e-05
1.04248082148e-05
1.04231399046e-05
1.04194879113e-05
1.04203257639e-05
1.04196688484e-05
1.04136243849e-05
1.04059680512e-05
1.04045409858e-05
1.04195897386e-05
1.04749182443e-05
1.04808818364e-05
1.04045135172e-05
1.0376296134e-05
1.03625741603e-05
1.03564654565e-05
1.03691092442e-05
1.03864011537e-05
1.03999090661e-05
1.04089814609e-05
1.04138875297e-05
1.04138980196e-05
1.04090081506e-05
1.03999561216e-05
1.03864994153e-05
1.03692098768e-05
1.03565322499e-05
1.03625834668e-05
1.03763183073e-05
1.04045413396e-05
1.0480891159e-05
1.04859478419e-05
1.04059826075e-05
1.03625801059e-05
1.03266917039e-05
1.03368572831e-05
1.03344916156e-05
1.03401124954e-05
1.03500129823e-05
1.03597083349e-05
1.03658643583e-05
1.03658776253e-05
1.0359739951e-05
1.03500515423e-05
1.03401523993e-05
1.03345278408e-05
1.03369068691e-05
1.032790128e-05
1.03625827902e-05
1.04059253397e-05
1.04858902425e-05
1.04902556958e-05
1.04135794971e-05
1.03564543447e-05
1.03368697658e-05
1.03085348827e-05
1.02949212222e-05
1.02948792292e-05
1.03023567865e-05
1.03120210262e-05
1.03186368188e-05
1.03186557622e-05
1.03120665375e-05
1.03024126547e-05
1.02949315561e-05
1.02949638793e-05
1.03085606199e-05
1.03369125474e-05
1.03564283447e-05
1.04135888778e-05
1.04902658975e-05
1.04908753404e-05
1.04195486324e-05
1.03691469385e-05
1.03345219666e-05
1.02949325343e-05
1.02748627203e-05
1.02709442563e-05
1.02763205014e-05
1.02847073759e-05
1.02910907281e-05
1.02911143086e-05
1.02847657751e-05
1.02763879133e-05
1.02710039171e-05
1.02749096128e-05
1.02949611104e-05
1.03345392971e-05
1.03691911591e-05
1.04196185356e-05
1.04909296867e-05
1.04840726682e-05
1.04200315651e-05
1.03864138107e-05
1.03401442796e-05
1.02948884812e-05
1.02709384366e-05
1.02650679943e-05
1.02693510508e-05
1.02775704054e-05
1.02837471602e-05
1.0283772348e-05
1.02776344878e-05
1.02694199339e-05
1.02651262404e-05
1.0270982831e-05
1.02949168554e-05
1.03401599142e-05
1.03864733809e-05
1.04201746107e-05
1.0484183117e-05
1.04763781566e-05
1.04193988958e-05
1.03999067499e-05
1.03500292319e-05
1.03023534732e-05
1.02762963176e-05
1.02693309818e-05
1.02741649453e-05
1.02826138373e-05
1.02886365622e-05
1.02886596433e-05
1.02826747142e-05
1.02742369065e-05
1.02693828633e-05
1.02763351347e-05
1.03023804577e-05
1.03500463733e-05
1.03999533905e-05
1.04194568487e-05
1.04763969011e-05
1.04744473303e-05
1.04230694917e-05
1.04089685096e-05
1.03597074773e-05
1.0311997303e-05
1.02846571381e-05
1.02775163564e-05
1.02825821457e-05
1.02910214207e-05
1.02970382028e-05
1.02970572301e-05
1.02910720426e-05
1.02826421979e-05
1.02775615825e-05
1.02846870104e-05
1.03120197528e-05
1.03597252719e-05
1.04090073187e-05
1.04231084413e-05
1.04744531343e-05
1.04734139219e-05
1.04247566381e-05
1.04138598989e-05
1.03658529124e-05
1.03185995777e-05
1.02910256272e-05
1.02836781872e-05
1.0288586034e-05
1.02970142213e-05
1.03030693232e-05
1.03030825355e-05
1.02970492543e-05
1.02886246054e-05
1.02836999555e-05
1.02910359917e-05
1.03186103017e-05
1.03658648578e-05
1.04138897789e-05
1.04247725285e-05
1.04734114197e-05
1.04734262365e-05
1.04247814299e-05
1.04138774622e-05
1.03658599173e-05
1.03186174849e-05
1.0291058654e-05
1.02837143111e-05
1.02886140961e-05
1.02970281492e-05
1.03030706456e-05
1.03030787093e-05
1.02970490104e-05
1.02886310822e-05
1.02837114436e-05
1.02910457587e-05
1.03186131992e-05
1.03658628414e-05
1.04138900388e-05
1.04247739935e-05
1.04734101228e-05
1.04744825339e-05
1.04231364128e-05
1.040900455e-05
1.03597208125e-05
1.03120363512e-05
1.02847325242e-05
1.0277603512e-05
1.02826497619e-05
1.02910533681e-05
1.02970380167e-05
1.02970435648e-05
1.02910662947e-05
1.02826556105e-05
1.02775875568e-05
1.02847091616e-05
1.03120256023e-05
1.03597187353e-05
1.04090063977e-05
1.04231145647e-05
1.04744543159e-05
1.04764353946e-05
1.04194983949e-05
1.03999539978e-05
1.03500354144e-05
1.03023926951e-05
1.02763753144e-05
1.02694149681e-05
1.02742344586e-05
1.02826374291e-05
1.02886152707e-05
1.02886191682e-05
1.02826479907e-05
1.02742374664e-05
1.02693964191e-05
1.02763526144e-05
1.03023857206e-05
1.03500370242e-05
1.03999568245e-05
1.04194725745e-05
1.04764041756e-05
1.04843092309e-05
1.0420305279e-05
1.03864953011e-05
1.03401412034e-05
1.02949168383e-05
1.0270999366e-05
1.02651299854e-05
1.02693838214e-05
1.0277555401e-05
1.02836823663e-05
1.02836864462e-05
1.02775662355e-05
1.02693845175e-05
1.02651176673e-05
1.02709863516e-05
1.02949152114e-05
1.03401517771e-05
1.03865079002e-05
1.04202192665e-05
1.04842130909e-05
1.04909869764e-05
1.04196800341e-05
1.03692155174e-05
1.03345201215e-05
1.02949482519e-05
1.02748958901e-05
1.02709711248e-05
1.0276315924e-05
1.02846508585e-05
1.02909851455e-05
1.02909880626e-05
1.02846582727e-05
1.02763172656e-05
1.02709658998e-05
1.02748920664e-05
1.02949495324e-05
1.0334533018e-05
1.03692398851e-05
1.04196648366e-05
1.04909578694e-05
1.04902987008e-05
1.04136374533e-05
1.03565227897e-05
1.03369044216e-05
1.03085409823e-05
1.02949280936e-05
1.02948709777e-05
1.0302315397e-05
1.03119341942e-05
1.03185084202e-05
1.03185079401e-05
1.03119322767e-05
1.03023116284e-05
1.02948633433e-05
1.02949218977e-05
1.03085357048e-05
1.0336917416e-05
1.03564949669e-05
1.04136571164e-05
1.04903052608e-05
1.04859465417e-05
1.04060000957e-05
1.03626081593e-05
1.032782214e-05
1.03368997668e-05
1.03344947919e-05
1.03400890345e-05
1.03499525771e-05
1.03596083372e-05
1.03657308846e-05
1.03657269218e-05
1.03595968926e-05
1.03499371327e-05
1.03400737405e-05
1.0334481722e-05
1.03369039401e-05
1.03284060619e-05
1.03626008503e-05
1.04060387118e-05
1.04859786386e-05
1.04809060235e-05
1.04045636551e-05
1.03763403804e-05
1.03625939513e-05
1.03565097741e-05
1.03691707555e-05
1.03864365188e-05
1.03998878905e-05
1.04089201003e-05
1.04137987874e-05
1.04137947449e-05
1.04089099561e-05
1.03998807783e-05
1.03864585466e-05
1.03691997725e-05
1.03565566762e-05
1.03626046653e-05
1.03763449621e-05
1.04045746033e-05
1.04809182702e-05
1.04749205748e-05
1.04195970897e-05
1.04045626435e-05
1.04058990574e-05
1.0413582794e-05
1.04196291822e-05
1.0420244269e-05
1.04194699747e-05
1.04231198012e-05
1.04247833726e-05
1.0424782952e-05
1.04231217604e-05
1.04194826913e-05
1.04203506209e-05
1.04197231059e-05
1.04136714013e-05
1.04060070472e-05
1.04045799944e-05
1.04196182902e-05
1.04749405063e-05
1.04861867721e-05
1.04749017478e-05
1.04808961772e-05
1.04858552563e-05
1.04902611493e-05
1.04909549672e-05
1.04842787207e-05
1.04764447425e-05
1.04745067377e-05
1.04734661769e-05
1.04734659846e-05
1.04745098548e-05
1.04764545111e-05
1.04843727737e-05
1.04910388154e-05
1.04903383522e-05
1.04859592632e-05
1.04809190719e-05
1.04749218801e-05
1.04862095335e-05
1.04759281684e-05
1.04675267203e-05
1.04715231573e-05
1.04696709043e-05
1.04657933709e-05
1.04613163565e-05
1.04578590739e-05
1.04544017377e-05
1.04513442796e-05
1.04509135724e-05
1.04509048748e-05
1.0451338066e-05
1.04544133895e-05
1.04578790121e-05
1.04613196074e-05
1.04657935868e-05
1.04696880594e-05
1.04715396365e-05
1.04675657876e-05
1.04759668263e-05
1.04675577088e-05
1.0395468357e-05
1.03777088536e-05
1.03719209311e-05
1.03742976918e-05
1.03813752897e-05
1.03894802404e-05
1.03955492235e-05
1.03990305072e-05
1.04006912769e-05
1.04006875545e-05
1.03990280569e-05
1.03955702845e-05
1.03895296202e-05
1.03814286656e-05
1.03743395652e-05
1.03719516977e-05
1.03777354873e-05
1.03955066558e-05
1.04675754928e-05
1.04715214997e-05
1.03777031889e-05
1.03477684632e-05
1.033531102e-05
1.03362233635e-05
1.03484486001e-05
1.03667154542e-05
1.03791557603e-05
1.03854959379e-05
1.0388897501e-05
1.0388904213e-05
1.03855146866e-05
1.03791940779e-05
1.03668259046e-05
1.03485530899e-05
1.03363185601e-05
1.03353042202e-05
1.03477970515e-05
1.03777489894e-05
1.04715511322e-05
1.04696611708e-05
1.03719227802e-05
1.03353438486e-05
1.02985241858e-05
1.0295508845e-05
1.02975078457e-05
1.03080428262e-05
1.03208768895e-05
1.03314095119e-05
1.033737319e-05
1.03373929671e-05
1.03314635211e-05
1.03209568705e-05
1.03081318346e-05
1.02975959003e-05
1.02955998579e-05
1.02994059523e-05
1.03353304046e-05
1.03719681717e-05
1.04696948092e-05
1.0465752268e-05
1.03743040033e-05
1.03362166116e-05
1.02955230894e-05
1.02634591776e-05
1.02505785531e-05
1.02521522865e-05
1.02607649581e-05
1.02701664418e-05
1.0276368493e-05
1.02763896423e-05
1.02702220916e-05
1.02608308432e-05
1.02522117708e-05
1.02506386358e-05
1.02635280255e-05
1.02956032826e-05
1.03362660822e-05
1.03743480603e-05
1.04657975241e-05
1.04612814263e-05
1.03813738149e-05
1.03484530276e-05
1.02975158649e-05
1.02505813599e-05
1.02254888438e-05
1.02194728176e-05
1.02237989609e-05
1.02311916758e-05
1.02366488816e-05
1.02366726422e-05
1.02312549511e-05
1.02238640281e-05
1.02195097213e-05
1.02255154057e-05
1.02506241493e-05
1.02975862174e-05
1.0348547595e-05
1.03814227778e-05
1.04613218981e-05
1.04578346626e-05
1.0389452189e-05
1.03667076419e-05
1.03080289366e-05
1.02521430253e-05
1.02194640141e-05
1.02083150778e-05
1.02098463415e-05
1.02158859033e-05
1.02209346759e-05
1.02209598087e-05
1.02159544601e-05
1.02099116887e-05
1.02083379155e-05
1.02194708328e-05
1.02521728614e-05
1.0308107881e-05
1.03668103018e-05
1.03895104461e-05
1.04578609542e-05
1.04543592959e-05
1.03954874342e-05
1.03791161399e-05
1.03208284206e-05
1.02607327571e-05
1.0223771655e-05
1.0209829022e-05
1.02099508569e-05
1.02157995872e-05
1.02209188616e-05
1.02209434536e-05
1.02158685292e-05
1.02100129177e-05
1.02098456981e-05
1.02237719489e-05
1.02607613879e-05
1.03209165593e-05
1.03791993329e-05
1.03955454389e-05
1.04543780355e-05
1.04512992269e-05
1.0398959896e-05
1.03854286014e-05
1.03313345405e-05
1.02701108137e-05
1.02311425993e-05
1.02158459472e-05
1.0215775077e-05
1.02222010796e-05
1.02277248027e-05
1.022774697e-05
1.02222634079e-05
1.02158289359e-05
1.02158538459e-05
1.02311374075e-05
1.02701381674e-05
1.03314193411e-05
1.03855104332e-05
1.03989989012e-05
1.04513094946e-05
1.04508778735e-05
1.04006360361e-05
1.03888596841e-05
1.03372899656e-05
1.02762996567e-05
1.02365842008e-05
1.02208774612e-05
1.02208730089e-05
1.02276985021e-05
1.02333757275e-05
1.02333942166e-05
1.02277484621e-05
1.02209100806e-05
1.02208689425e-05
1.02365663367e-05
1.02763157017e-05
1.03373593821e-05
1.03889260861e-05
1.04006488976e-05
1.045087726e-05
1.04508903507e-05
1.04006591074e-05
1.038887408e-05
1.03373146242e-05
1.02763217235e-05
1.02366116526e-05
1.02209059187e-05
1.02208962279e-05
1.02277112488e-05
1.02333782414e-05
1.02333912952e-05
1.02277463354e-05
1.02209130664e-05
1.02208751547e-05
1.02365719942e-05
1.02763183108e-05
1.03373626352e-05
1.03889272506e-05
1.04006484527e-05
1.04508702572e-05
1.04513338954e-05
1.03990278098e-05
1.03854879665e-05
1.0331399898e-05
1.02701660528e-05
1.02312098206e-05
1.02159165226e-05
1.02158306725e-05
1.02222302525e-05
1.02277257083e-05
1.02277337059e-05
1.02222550906e-05
1.02158326433e-05
1.02158681451e-05
1.02311508547e-05
1.02701455162e-05
1.03314306716e-05
1.03855142537e-05
1.03990018124e-05
1.04513011917e-05
1.04544123801e-05
1.03955878649e-05
1.03791838287e-05
1.03209124054e-05
1.02607926277e-05
1.0223841554e-05
1.02098984333e-05
1.0209994791e-05
1.02158030397e-05
1.02208831686e-05
1.02208887058e-05
1.0215821544e-05
1.02099876306e-05
1.02098403041e-05
1.02237733895e-05
1.02607647508e-05
1.03209379638e-05
1.03792124765e-05
1.03955613615e-05
1.04543795604e-05
1.04578895438e-05
1.03895558128e-05
1.03668228067e-05
1.03081037426e-05
1.02521874816e-05
1.02195013922e-05
1.02083386894e-05
1.02098367914e-05
1.02158268814e-05
1.02208327866e-05
1.02208376321e-05
1.02158427255e-05
1.02098285648e-05
1.02082842331e-05
1.02194406845e-05
1.02521664136e-05
1.03081354946e-05
1.03668663699e-05
1.03895434133e-05
1.04578697994e-05
1.04613362912e-05
1.03814621222e-05
1.0348559589e-05
1.02975801676e-05
1.02506178701e-05
1.02255013467e-05
1.02194571249e-05
1.02237435411e-05
1.02310870288e-05
1.02364994536e-05
1.0236502045e-05
1.02310959519e-05
1.02237360268e-05
1.02194190899e-05
1.02254639133e-05
1.02506142844e-05
1.02976174769e-05
1.03486103334e-05
1.03814607498e-05
1.04613246507e-05
1.04658060916e-05
1.03743788524e-05
1.0336325969e-05
1.02956026057e-05
1.02635094236e-05
1.02505939132e-05
1.02521293249e-05
1.0260696416e-05
1.02700459419e-05
1.0276202867e-05
1.02762024777e-05
1.02700466797e-05
1.02606890618e-05
1.02521131301e-05
1.02505861509e-05
1.02635241634e-05
1.02956428702e-05
1.03363398857e-05
1.03743822907e-05
1.0465794684e-05
1.0469698285e-05
1.03719932924e-05
1.03353683147e-05
1.02993771009e-05
1.0295593983e-05
1.02975573912e-05
1.03080584179e-05
1.03208454059e-05
1.03313249972e-05
1.03372468663e-05
1.03372453781e-05
1.03313237086e-05
1.03208487165e-05
1.0308065942e-05
1.02975702772e-05
1.02956177861e-05
1.02997017818e-05
1.03353255165e-05
1.03719959388e-05
1.0469695832e-05
1.04715456903e-05
1.03777702166e-05
1.03478374398e-05
1.03353482626e-05
1.03363264078e-05
1.03485390792e-05
1.03667846091e-05
1.03791505234e-05
1.03854502397e-05
1.03888458104e-05
1.03888424507e-05
1.03854397361e-05
1.03791427218e-05
1.03668086261e-05
1.03485697711e-05
1.0336365818e-05
1.0335302239e-05
1.03478281398e-05
1.03777742218e-05
1.04715491225e-05
1.04675686519e-05
1.03955197094e-05
1.03777704464e-05
1.03719844341e-05
1.03743601073e-05
1.03814346419e-05
1.03895252471e-05
1.03955660319e-05
1.03990230019e-05
1.04006730044e-05
1.0400672656e-05
1.0399022621e-05
1.0395576748e-05
1.03895496126e-05
1.03814615133e-05
1.03743820441e-05
1.0372002974e-05
1.03777913786e-05
1.039554149e-05
1.0467583493e-05
1.0475929207e-05
1.04675489056e-05
1.04715449873e-05
1.04696959002e-05
1.0465810865e-05
1.04613322862e-05
1.04578800904e-05
1.04544134583e-05
1.04513471663e-05
1.04509193007e-05
1.0450918611e-05
1.04513513845e-05
1.04544267204e-05
1.04579016956e-05
1.04613583734e-05
1.04658371056e-05
1.04697235384e-05
1.04715746973e-05
1.0467579883e-05
1.04759618613e-05
1.04463703639e-05
1.04522058137e-05
1.04590593425e-05
1.04548735635e-05
1.04487891486e-05
1.04432534781e-05
1.04374084904e-05
1.04323744634e-05
1.04296477534e-05
1.04292776095e-05
1.04292741218e-05
1.04296474076e-05
1.04323854593e-05
1.04374297656e-05
1.0443278992e-05
1.04488014846e-05
1.04548769237e-05
1.04590910021e-05
1.04522836309e-05
1.04464400668e-05
1.04523150524e-05
1.03585073666e-05
1.03475632242e-05
1.03431838625e-05
1.03469544545e-05
1.03540000806e-05
1.03611482932e-05
1.03664028028e-05