/*--------------------------------*- C++ -*----------------------------------*\
| =========                 |                                                 |
| \\      /  F ield         | OpenFOAM: The Open Source CFD Toolbox           |
|  \\    /   O peration     | Version:  3.0.1                                 |
|   \\  /    A nd           | Web:      www.OpenFOAM.org                      |
|    \\/     M anipulation  |                                                 |
\*---------------------------------------------------------------------------*/
FoamFile
{
    version     2.0;
    format      ascii;
    class       volVectorField;
    location    "5.3";
    object      ddt0(U);
}
// * * * * * * * * * * * * * * * * * * * * * * * * * * * * * * * * * * * * * //

dimensions      [0 1 -2 0 0 0 0];

internalField   nonuniform List<vector> 
7968
(
(0.000192253081871 0.000194000910278 -0.000147693003618)
(0.00054535352881 0.000141202807082 -0.000133624334076)
(0.000845899547566 7.80153935453e-05 -8.02816506508e-05)
(0.000984690927043 -4.82943653743e-06 2.70695700635e-05)
(0.000935939907477 -4.68958698306e-05 0.000239644269106)
(0.000717586597435 -0.000138692498685 0.000221682152305)
(0.000511424526353 -0.000125669282711 0.000274476356995)
(0.000321809312707 -0.000104411539535 0.000254916190961)
(0.00014768299754 -5.1269045767e-05 0.000207094961961)
(3.89081110736e-05 -1.02009621299e-05 0.000166278640274)
(-3.74158719618e-05 -1.01393774009e-05 0.00016634332975)
(-0.000146337883234 -5.1135829069e-05 0.000207216635144)
(-0.000320682790619 -0.000104318483059 0.000255058708154)
(-0.000510554845562 -0.000125792999998 0.00027478807889)
(-0.000717004151158 -0.000139183142924 0.000221352545178)
(-0.00093446606748 -4.66679191717e-05 0.000240574128054)
(-0.000984393721443 -4.67802970455e-06 2.68905884083e-05)
(-0.000845356485405 7.83355088732e-05 -8.06581500641e-05)
(-0.000544975356949 0.000141532574049 -0.000133946229128)
(-0.000192203487019 0.000194206883462 -0.000147905327319)
(0.00013951247057 0.00055030328459 -0.000133299077344)
(0.000605213975948 0.00061032732559 -0.000464958452948)
(0.000941321102319 0.000587783714091 -0.000499801390604)
(0.00108806641247 0.000497697618608 -0.000391528673758)
(0.00107364736914 0.00038436643132 -0.000163659556069)
(0.000824931303883 0.000232922471512 -6.38795751984e-06)
(0.00062379217832 0.000107282854771 0.000120748108435)
(0.000407103340358 1.25761010217e-05 0.000226099990889)
(0.000201826719873 -2.21513765129e-05 0.000287780739948)
(5.76446446501e-05 -2.83705089262e-05 0.000306041779185)
(-5.54801977243e-05 -2.85600760594e-05 0.000306190536987)
(-0.000199744149442 -2.26935830602e-05 0.00028824658262)
(-0.000405251569953 1.17561005156e-05 0.000226830270238)
(-0.000622252682813 0.00010630852286 0.000121517588467)
(-0.000823554748021 0.000231808366849 -5.90069630613e-06)
(-0.00107223845381 0.000384091699421 -0.000162700122124)
(-0.00108716336186 0.000497910250719 -0.000391161345549)
(-0.000940681871483 0.000588349178282 -0.000499597635386)
(-0.000605014097053 0.000610952692495 -0.000464993335999)
(-0.000139629601126 0.000550723526833 -0.000133504384132)
(7.62492336095e-05 0.00085329044552 -7.9877306614e-05)
(0.000582337917297 0.000949386628262 -0.000499449715182)
(0.000894359553609 0.00090317261502 -0.000491735422076)
(0.00100604477682 0.000735565901617 -0.000339862279106)
(0.000964966333142 0.000513186527831 -0.000107572326536)
(0.000727944474449 0.000225722020624 7.84492644767e-05)
(0.000555817713356 -7.18753041496e-05 0.000205729544707)
(0.000378629837463 -0.00029751514595 0.000315429260588)
(0.000200846368148 -0.000427664914724 0.000389090871434)
(6.05738089173e-05 -0.000493232790367 0.000422670514333)
(-5.80412223313e-05 -0.000493393027361 0.000422766989636)
(-0.000198546600286 -0.000428099152013 0.000389429212876)
(-0.000376765088116 -0.000298382369053 0.000316022428972)
(-0.000554295160862 -7.28754580419e-05 0.000206331512406)
(-0.000726356003186 0.000224764173703 7.89325849798e-05)
(-0.000963371917265 0.000513109967809 -0.000106786238407)
(-0.00100474941823 0.000735936688588 -0.00033924711041)
(-0.000893426076405 0.000903923907033 -0.000491266469935)
(-0.000581973790377 0.000950230962581 -0.000499287654525)
(-7.63263291634e-05 0.000853965309545 -8.0110184082e-05)
(-6.66929871606e-06 0.000995406132411 2.75515632654e-05)
(0.000492109687421 0.00109945999674 -0.000390913484276)
(0.000726312177872 0.00101848810236 -0.000339371392979)
(0.000759569867555 0.000772839671922 -0.000190747116028)
(0.000663038345884 0.000432573019284 8.8953734055e-08)
(0.000427927024586 9.97622217331e-07 0.000134100494898)
(0.000291573630845 -0.000450625643195 0.000195184990376)
(0.000188680694531 -0.000797671091519 0.000239395442046)
(8.81279238017e-05 -0.00101724253411 0.00027094125145)
(2.04122710154e-05 -0.00112176260514 0.000292607638641)
(-1.7324413604e-05 -0.00112186372169 0.000292600175761)
(-8.55439520683e-05 -0.00101751654775 0.000270843675876)
(-0.000186696791718 -0.000798193771436 0.000239794092287)
(-0.000289783101963 -0.000451177760689 0.000195600977921)
(-0.000425916870162 6.30160649863e-07 0.000134383556325)
(-0.000660921897452 0.000433159018379 6.70118426492e-07)
(-0.000757657955992 0.000773856546349 -0.000190231650976)
(-0.000724839903217 0.00101991006911 -0.000338889281327)
(-0.000491370737621 0.00110095358033 -0.000390558533797)
(6.73113967235e-06 0.000996992136051 2.7323587042e-05)
(-4.84027772454e-05 0.000947909822121 0.000241058726923)
(0.00037898422852 0.00108742074969 -0.000162377954025)
(0.000504113005291 0.000980303934759 -0.000106567294959)
(0.000419217076322 0.000679872100351 7.62499489021e-07)
(0.000244356452326 0.000262077791794 0.000119297310231)
(7.34602958884e-06 -0.000244774910684 0.000138856616789)
(-8.53207852519e-05 -0.000783366968166 0.000119676749388)
(-0.00010384612705 -0.00121496662578 0.00012605504798)
(-8.54008112116e-05 -0.00150409794823 0.000150120909321)
(-3.20279313996e-05 -0.00163530452542 0.000161375942048)
(3.57139581748e-05 -0.001635363352 0.000161554612129)
(8.86316487549e-05 -0.00150431211649 0.000150630464927)
(0.000106438688369 -0.00121500886388 0.000126746933954)
(8.75620035877e-05 -0.000783126350255 0.000120206023276)
(-4.88066904558e-06 -0.000244077777785 0.000139289074394)
(-0.000241784377434 0.000263624479258 0.000119995526293)
(-0.000416836023051 0.000681803620851 1.47662802986e-06)
(-0.000502229682637 0.000982536106872 -0.000105765640578)
(-0.000377857011358 0.0010895083408 -0.000161663769294)
(4.85497237834e-05 0.000949750090105 0.000241418770868)
(-0.000140178898871 0.000732405122962 0.000221913113568)
(0.000228200081791 0.00084063173261 -5.24686029002e-06)
(0.000217460961044 0.000745269419855 7.99602482941e-05)
(-1.15034572161e-05 0.000447280628774 0.000135786374218)
(-0.000262206795767 2.82697799872e-05 0.000140568073432)
(-0.000512198172663 -0.000490895357597 7.65582810554e-05)
(-0.00054790381993 -0.00102257870614 -3.82326114251e-05)
(-0.000464046409034 -0.0014590180221 -9.31979285487e-05)
(-0.000306654324274 -0.00174682778403 -0.00010510888384)
(-0.000105321757546 -0.00188553540501 -0.00010814330915)
(0.000109811149324 -0.00188551555976 -0.000107876412587)
(0.000310678725325 -0.00174669874392 -0.00010431076423)
(0.000467422084741 -0.00145857669292 -9.22792843815e-05)
(0.000550872811018 -0.0010215480763 -3.75408650186e-05)
(0.000515275498445 -0.00048913478966 7.70417796439e-05)
(0.000265393625345 3.0976250583e-05 0.000141244072581)
(1.45364287197e-05 0.000450209834568 0.000136542569119)
(-0.000215022123902 0.000748449892542 8.07686253997e-05)
(-0.000226551823212 0.000843721626094 -4.61529926575e-06)
(0.000140594592944 0.00073560155061 0.000221864492663)
(-0.000126497065323 0.000526433319708 0.000275306112103)
(0.000103887490252 0.000639460794376 0.000122466821277)
(-7.86150769307e-05 0.000572897543365 0.000208161355595)
(-0.000461565985094 0.000310671389752 0.00019864543599)
(-0.000799820469946 -6.45184598256e-05 0.00012390934689)
(-0.00104365678333 -0.000526687219088 -3.58122607266e-05)
(-0.00101367615513 -0.000992587182367 -0.000209877524433)
(-0.000814969321228 -0.00139252513208 -0.000296619602397)
(-0.000522910361015 -0.00167619493099 -0.000295267048127)
(-0.000177063210079 -0.00179654144421 -0.000362813891195)
(0.000182273350313 -0.00179642186889 -0.000362994309473)
(0.000527825816983 -0.00167609231887 -0.000294426228499)
(0.000819337358247 -0.00139193815313 -0.000295632657775)
(0.00101756109709 -0.000991001051971 -0.000208990729851)
(0.00104735797697 -0.000523945830396 -3.50703182081e-05)
(0.000803346434635 -6.06523555868e-05 0.000124874914226)
(0.000464725270222 0.000314626259281 0.000199492984057)
(8.11565290814e-05 0.000577000503254 0.000209271150601)
(-0.000102226008414 0.00064335748707 0.000123383237861)
(0.000126932383805 0.000530551294113 0.000275617286501)
(-0.000104645502007 0.000335913594583 0.000255969854932)
(1.03168156281e-05 0.000421181488608 0.000228054499989)
(-0.000302867656621 0.000393447402402 0.000318361081304)
(-0.000806988904868 0.000204443177768 0.000244033034692)
(-0.00123014770223 -8.63070908873e-05 0.000132056662898)
(-0.00148000875395 -0.000446428801338 -8.93888548768e-05)
(-0.00141393818528 -0.000797849621117 -0.000296311984177)
(-0.0011388330912 -0.00112197069599 -0.000406207046611)
(-0.000727159926285 -0.00135030869352 -0.000526232949976)
(-0.000249632388712 -0.00145166060537 -0.000596410523687)
(0.000255491694964 -0.00145154815467 -0.0005965815952)
(0.000732696118672 -0.00134988593775 -0.000526618324537)
(0.00114389145574 -0.00112069507195 -0.000407219822965)
(0.00141894260254 -0.000795862730472 -0.000295272700985)
(0.0014844093883 -0.000443106354391 -8.8083981459e-05)
(0.00123386323234 -8.17659529963e-05 0.000133661519265)
(0.000810017250138 0.000209187763591 0.000245065058883)
(0.000305315286293 0.00039820411502 0.000319590811648)
(-8.77046867002e-06 0.000425796424641 0.000229157139035)
(0.000104930648352 0.000340754450898 0.000256471946464)
(-5.14115254553e-05 0.000159712973712 0.000208581978687)
(-2.38917681808e-05 0.000213230674171 0.000289819942946)
(-0.000432576211286 0.000212256298309 0.00039226641215)
(-0.00102569053699 9.99284883747e-05 0.00027708885436)
(-0.00151793435031 -7.25774110413e-05 0.000157211653111)
(-0.0017676046379 -0.000293810349703 -0.000101402196535)
(-0.0016978649051 -0.000509500060421 -0.000296683177592)
(-0.00136718723665 -0.000713730501554 -0.000528254142552)
(-0.00086629206662 -0.000853580772526 -0.000686198936655)
(-0.000294774021738 -0.000912285790331 -0.00076290780253)
(0.000300912512206 -0.000911980419046 -0.000763164151628)
(0.000872490224901 -0.000852534445277 -0.000686803770257)
(0.00137316690613 -0.000711859995032 -0.000528950066656)
(0.00170354094361 -0.000507052364501 -0.000295982713917)
(0.00177250335578 -0.000290245038787 -0.000100118873071)
(0.00152175619096 -6.77742920132e-05 0.000159056161424)
(0.00102834417321 0.00010504849231 0.000278142757101)
(0.000434470336273 0.000217372179059 0.000393528522621)
(2.49848502958e-05 0.000218299505237 0.000290952699322)
(5.15684571986e-05 0.000164977728533 0.00020913810905)
(-1.03670071021e-05 4.78371916552e-05 0.000168117462782)
(-3.01345054614e-05 6.54232625135e-05 0.000308422553446)
(-0.00049796326257 6.78582674574e-05 0.000425636566459)
(-0.00112977454623 2.80625737673e-05 0.000297494524724)
(-0.00164916738188 -2.40908124216e-05 0.000167871068727)
(-0.00190551256176 -9.63505146946e-05 -0.000105550834436)
(-0.00181961976843 -0.000166609243518 -0.000357281221482)
(-0.00146951328953 -0.000237404864307 -0.000597984782588)
(-0.00092497265429 -0.000282575243525 -0.000764090998356)
(-0.00031274991949 -0.000300695616264 -0.000841904775979)
(0.000319682604117 -0.00030002441511 -0.000841996585966)
(0.0009318204629 -0.000280791453041 -0.000764424316972)
(0.00147606016644 -0.000234853767911 -0.000598403537738)
(0.0018258081332 -0.000163507359019 -0.000356392866148)
(0.00191076087096 -9.23829165412e-05 -0.000104601774711)
(0.00165294794284 -1.91772157969e-05 0.000170043529678)
(0.00113186383587 3.32127491478e-05 0.000299137125126)
(0.000499115001611 7.31345724756e-05 0.000426872898633)
(3.06142511714e-05 7.07271130289e-05 0.000309241417475)
(1.04835687166e-05 5.33284632658e-05 0.000168728619369)
(-1.03681478718e-05 -3.23340282753e-05 0.000168402030455)
(-3.08712522104e-05 -5.19457233464e-05 0.000308758458808)
(-0.000498636244978 -5.5267631595e-05 0.000425623803565)
(-0.00113021535681 -1.49385433646e-05 0.000296813360745)
(-0.00164905680362 3.88646015757e-05 0.000167619299506)
(-0.00190488019747 0.000115317804081 -0.000105134855385)
(-0.00181858804991 0.000190255583341 -0.000358265606459)
(-0.00146894311129 0.000265393037299 -0.000598120974012)
(-0.000924564388158 0.00031250801572 -0.00076438768753)
(-0.000312068665593 0.00033178304023 -0.000842323395779)
(0.000320333270018 0.000332502721985 -0.000842270746949)
(0.000932383747817 0.000314484999022 -0.000764203053146)
(0.00147629762773 0.000268381308638 -0.000597985207417)
(0.0018255481286 0.000194289945059 -0.000356358610976)
(0.00191043924908 0.000120075190847 -0.000104378433775)
(0.00165273982809 4.39825282131e-05 0.000169873427439)
(0.00113184241391 -9.82744246889e-06 0.000298747954314)
(0.000499189212415 -4.98348470857e-05 0.000426731061768)
(3.08135541595e-05 -4.64084154287e-05 0.000309265274122)
(1.0432702687e-05 -2.66374225518e-05 0.000168936352436)
(-5.13629772288e-05 -0.000144766352661 0.00020895305267)
(-2.56189011415e-05 -0.000199926062134 0.000290729313513)
(-0.000434071691138 -0.000199842905266 0.000392089503046)
(-0.00102650445308 -8.74476595877e-05 0.000274590095792)
(-0.00151752383409 8.72082329301e-05 0.000156031171408)
(-0.00176526937568 0.000312347251059 -0.0001004582864)
(-0.00169560737027 0.000532970465754 -0.000294723790767)
(-0.00136538823724 0.000741264674574 -0.00052771689818)
(-0.000864548666587 0.000883682574518 -0.000685834509045)
(-0.000292816054883 0.000944136804674 -0.000762554498097)
(0.000302261404319 0.000944907784926 -0.000762481093881)
(0.000873576548911 0.000885810384781 -0.000685615951433)
(0.00137354197299 0.000744593610768 -0.000527684509304)
(0.0017028522404 0.000537705874885 -0.000293929217763)
(0.0017711785783 0.000317923399492 -9.9142613811e-05)
(0.00152091477635 9.27206326927e-05 0.000158671272016)
(0.00102799981253 -8.16916629113e-05 0.000277168119051)
(0.000434436446853 -0.000194125057423 0.000393195551638)
(2.53079637782e-05 -0.000194110093387 0.000291087307789)
(5.13305369149e-05 -0.000138777819073 0.000209313811866)
(-0.00010471400209 -0.000321407157843 0.000256366246016)
(8.35006112753e-06 -0.000408106725314 0.000229105322475)
(-0.000304792294817 -0.0003812220421 0.000318343370638)
(-0.000807486542489 -0.000192155249343 0.000242571437261)
(-0.00122791073639 0.000100925663333 0.000131005301789)
(-0.0014754045993 0.000464299682139 -8.82148877927e-05)
(-0.00140959213005 0.000819866595209 -0.000292976455571)
(-0.00113516865659 0.00114697132716 -0.00040572742697)
(-0.000723866239037 0.00137782975466 -0.0005252471337)
(-0.000246586656959 0.00148200396443 -0.000593745200402)
(0.000257013748814 0.0014827955191 -0.000593694602025)
(0.000733915150004 0.00137999754204 -0.00052516788382)
(0.00114436896455 0.00115028041484 -0.000405866052677)
(0.00141781212343 0.000824670162648 -0.000291327543087)
(0.00148188076971 0.00046983999603 -8.58986866539e-05)
(0.00123159949069 0.000106394394936 0.000134047085522)
(0.00080883320155 -0.000186219436674 0.000244661336574)
(0.000304924935771 -0.000375442090713 0.000319463770564)
(-8.63338482112e-06 -0.000402141210308 0.000229467572729)
(0.000104625159537 -0.000315202267416 0.000256716936328)
(-0.000126490221489 -0.00051223576236 0.000275991393494)
(0.00010256954189 -0.000626555743849 0.000123280789387)
(-7.95568559383e-05 -0.000560639468248 0.000208172673299)
(-0.000460719695276 -0.000297601761173 0.000197415230433)
(-0.0007957320687 7.92501373838e-05 0.000122740144207)
(-0.001036913205 0.00054380299096 -3.48521134494e-05)
(-0.00100705160506 0.00101263361042 -0.000206377363643)
(-0.000810189345251 0.00141540079082 -0.000292215048358)
(-0.000519010360787 0.00170080055765 -0.000292036443281)
(-0.000173927325872 0.00182431019473 -0.000351589506615)
(0.000185133488818 0.00182491530431 -0.000351622544422)
(0.000530103658481 0.00170272118863 -0.000291482471235)
(0.000820776497579 0.00141835775127 -0.000290979277372)
(0.00101622784626 0.00101646015843 -0.000204098752893)
(0.00104395136276 0.000548138751749 -3.15573702228e-05)
(0.000799695986381 8.34937373933e-05 0.000126366575458)
(0.000462273557873 -0.000292933351833 0.000199795956604)
(7.99294702392e-05 -0.00055554894446 0.000209504449948)
(-0.00010256265148 -0.000620952343669 0.000123942339898)
(0.000126460339444 -0.000506243169012 0.000276467786005)
(-0.00013987911983 -0.000718488947253 0.000223207835042)
(0.000228045327793 -0.000828082907154 -4.46907225408e-06)
(0.000218041024741 -0.000733021230709 8.00676316961e-05)
(-9.0223150391e-06 -0.000433952923632 0.000135160023351)
(-0.000256499931817 -1.33566329522e-05 0.000140039888083)
(-0.000503777233054 0.000507534054372 7.75186701077e-05)
(-0.000539303352758 0.00104104623404 -3.47716015004e-05)
(-0.000457122795868 0.00147942652708 -8.8643275792e-05)
(-0.000301446604448 0.00176865604763 -0.000100700365744)
(-0.000101149758185 0.00190795122883 -0.000104719627811)
(0.000113292798577 0.00190843697739 -0.000104649162161)
(0.000313491593462 0.00177003251447 -0.000100183347393)
(0.000468478536492 0.00148143368011 -8.72717655582e-05)
(0.000548987703121 0.00104338456491 -3.22057615961e-05)
(0.000511019127139 0.000509929441807 8.08962042924e-05)
(0.000260676381466 -1.11015596814e-05 0.000143314175321)
(1.1011695914e-05 -0.000430937766158 0.000137208533903)
(-0.000217117235329 -0.000729104800387 8.12762268141e-05)
(-0.000227540048956 -0.000823277570154 -3.71483133397e-06)
(0.000140050594541 -0.000713044771096 0.000223891271071)
(-4.79282493982e-05 -0.000936215257655 0.000241096448797)
(0.000380100938488 -0.0010758087934 -0.000161790595389)
(0.000506579776318 -0.000968719587466 -0.000106172089873)
(0.000423937236018 -0.000667187324439 9.23016761817e-07)
(0.000251914436039 -0.000248046393249 0.000119818387347)
(1.74032005029e-05 0.000260108965542 0.000140633784111)
(-7.47838748872e-05 0.000799702248093 0.000123523058905)
(-9.47057502927e-05 0.00123232528717 0.00013138889948)
(-7.80383964129e-05 0.00152200100555 0.000156190729172)
(-2.65402596145e-05 0.0016538491828 0.000167607400563)
(3.93270531483e-05 0.00165409976197 0.000167783935476)
(9.05933199086e-05 0.00152264431387 0.000156768568506)
(0.000106322261453 0.00123312301928 0.000132695018734)
(8.45553990016e-05 0.000800475544292 0.000125605463275)
(-1.00808244752e-05 0.000260842018617 0.00014306869685)
(-0.000247210319618 -0.000247169743831 0.000121998726408)
(-0.000421051015689 -0.000665262025617 2.2988760441e-06)
(-0.000504771514606 -0.000965692115566 -0.000105220632973)
(-0.000378874428573 -0.00107179813259 -0.000161053675117)
(4.84268714701e-05 -0.000931684416882 0.000241711934281)
(-6.0014629177e-06 -0.000984019035197 2.82259729914e-05)
(0.000494079850671 -0.00108922390508 -0.00039041133602)
(0.000730191016822 -0.00100826761201 -0.000338887701194)
(0.000765850902064 -0.000761719540452 -0.000190077273274)
(0.000671758612503 -0.000420418154219 1.26259240658e-06)
(0.000438725280406 1.22194189114e-05 0.000136009891297)
(0.000302786723449 0.000464184373863 0.000198623621007)
(0.000198444467328 0.000811443224469 0.000243929169838)
(9.61370952757e-05 0.00103104109669 0.000276338244457)
(2.66546151535e-05 0.00113524593061 0.000297918293489)
(-1.34371496087e-05 0.00113525430731 0.0002980678925)
(-8.33053502822e-05 0.00103107972577 0.000276785647769)
(-0.000186742079045 0.000811440653794 0.000244764465442)
(-0.000292968698776 0.000464222803393 0.000199786569104)
(-0.000431110215366 1.24231566601e-05 0.0001373391002)
(-0.000666296756819 -0.000419900540712 2.41278442062e-06)
(-0.000762066066835 -0.000760251929871 -0.000189180735137)
(-0.000727538571564 -0.00100583150988 -0.000338143945225)
(-0.00049222306799 -0.00108592480063 -0.0003895770959)
(6.69505515043e-06 -0.000980295477854 2.91314626453e-05)
(7.70355422176e-05 -0.000844295783921 -7.90742114221e-05)
(0.000585065873469 -0.000941140771294 -0.000499080381919)
(0.000899456054551 -0.000895036522094 -0.000491007673276)
(0.00101367060389 -0.000726782092375 -0.000338680239133)
(0.000974726274731 -0.000503609379524 -0.000105696169238)
(0.000739327238162 -0.000215329827188 8.09802550925e-05)
(0.000567383830758 8.24176891124e-05 0.000209274993874)
(0.000389022377175 0.000307979058583 0.000319500067794)
(0.000209522540555 0.000437895227115 0.000393228137404)
(6.72444027647e-05 0.000503021087016 0.000426688676437)
(-5.36304441176e-05 0.000502892104322 0.000426795622064)
(-0.000196413617877 0.000437624818353 0.000393542607307)
(-0.000377111959011 0.000307722916827 0.000319998067731)
(-0.000557302299295 8.23995835895e-05 0.000209979820023)
(-0.000731260945401 -0.000214969907352 8.18056101638e-05)
(-0.000968633622643 -0.000502974005449 -0.000104770405813)
(-0.00100924093842 -0.000725413379535 -0.000337831609751)
(-0.0008962652684 -0.000893015788007 -0.000490215969251)
(-0.00058291087881 -0.000938585928247 -0.000498061529951)
(-7.62810341387e-05 -0.000841506981781 -7.81482998883e-05)
(0.000140260716482 -0.000543757028804 -0.000132313008817)
(0.000608007869464 -0.000604322732584 -0.000464224923802)
(0.000946824648456 -0.000581969619027 -0.000499183870544)
(0.0010963596017 -0.00049154056693 -0.000390244415446)
(0.00108384178533 -0.000377657402896 -0.000161450912792)
(0.000836629974419 -0.00022562875017 -3.7138196537e-06)
(0.000635683306203 -9.98798551268e-05 0.00012434942393)
(0.000418037227432 -5.3762519114e-06 0.000230205271359)
(0.00021114930909 2.90153433585e-05 0.000291916056138)
(6.48291512172e-05 3.48446689046e-05 0.00031002997609)
(-5.07956970122e-05 3.47710789338e-05 0.000309958502719)
(-0.00019754564504 2.88733503441e-05 0.000292036004493)
(-0.000405615905582 -5.42357986191e-06 0.00023073384963)
(-0.000625116591192 -9.96886691232e-05 0.000125238525455)
(-0.000828105536306 -0.000225010529151 -2.65625372271e-06)
(-0.00107731527637 -0.000376901985623 -0.000160250368654)
(-0.00109164760439 -0.000490376394482 -0.000389261990256)
(-0.000943481547093 -0.000580549196399 -0.00049835099549)
(-0.000605693759108 -0.000602747888918 -0.000463426691511)
(-0.000139382878526 -0.00054225452189 -0.000131187567439)
(0.000193020505454 -0.000191296599447 -0.000146233326184)
(0.000548031868608 -0.00013874450407 -0.000132294789172)
(0.000851277628541 -7.56192935615e-05 -7.90052520253e-05)
(0.000993037751627 7.28661079978e-06 2.8848123907e-05)
(0.000946010021217 4.94394465954e-05 0.00024233683378)
(0.000729257178788 0.000141367173012 0.000224783228782)
(0.000523618134118 0.000128316506981 0.000278230817741)
(0.000333312819234 0.000106822159868 0.000259098859602)
(0.000157655025765 5.36864699345e-05 0.000211710360413)
(4.67086185232e-05 1.27573005207e-05 0.000171233104708)
(-3.22105075621e-05 1.27718307041e-05 0.000171403883744)
(-0.000143724762128 5.36783056794e-05 0.000212149265732)
(-0.000320658722061 0.000106818135225 0.000259904807155)
(-0.000512943558148 0.000128397927701 0.000279442811797)
(-0.000720816475139 0.000141907957233 0.00022576351206)
(-0.000939264956512 4.97161244036e-05 0.000243961037545)
(-0.000988530363374 7.85963699041e-06 3.00789284241e-05)
(-0.000848185512391 -7.50002494722e-05 -7.80617008232e-05)
(-0.000546002677707 -0.000138130290199 -0.000131516229726)
(-0.000192277780215 -0.000190892420506 -0.000145415501344)
(0.000333997638615 0.000335810773071 -0.00114841297693)
(0.000985653047216 0.00051369541194 -0.00119621320904)
(0.00118941985871 0.000627299231672 -0.000913095476127)
(0.0011355446552 0.000670202459926 -0.000535301503928)
(0.000906617595111 0.000655299174914 -0.000146982867751)
(0.000607205294687 0.000576591503673 9.90931790896e-05)
(0.00032475058691 0.000506758360669 0.000191258592282)
(0.000115759721928 0.000449325456833 0.00017834444845)
(-7.55840930791e-06 0.000433661722542 9.44071216205e-05)
(-1.93305600112e-05 0.000438195338276 7.76902499514e-06)
(2.15941273564e-05 0.000438105550764 8.03922358793e-06)
(9.83899377149e-06 0.000433335426649 9.51634047402e-05)
(-0.000113781814565 0.000448779293866 0.00017961176254)
(-0.000323216143034 0.000506064898121 0.000192988315686)
(-0.00060601477403 0.00057592135753 0.000100614246638)
(-0.000905397942629 0.000654885388768 -0.000145867931236)
(-0.00113452323995 0.000670049622404 -0.000534906234623)
(-0.00118866919343 0.000627298887457 -0.000913690955151)
(-0.000985279424207 0.000513662933306 -0.0011971155454)
(-0.000333943075209 0.000335668839154 -0.00114920988016)
(0.000512170747654 0.00099039207641 -0.00119504685318)
(0.00115770210481 0.00116270504844 -0.00117874520671)
(0.00124215159693 0.00127905388019 -0.000808344276226)
(0.00108661696793 0.00131701565992 -0.00042831855161)
(0.000809071987011 0.001269604403 -7.98659014139e-05)
(0.000516511725729 0.00114569381963 0.000172713690718)
(0.000272359184001 0.00101100880028 0.000335702446734)
(9.78028143745e-05 0.000901476303355 0.00043881886936)
(5.48510259993e-06 0.00084508564905 0.000481420799064)
(-8.06509515195e-06 0.00082485101894 0.000483190744193)
(9.76466966307e-06 0.000824615170947 0.000483456525233)
(-3.87301402089e-06 0.000844260903482 0.000482302158187)
(-9.64699147346e-05 0.000900209149184 0.000440209487548)
(-0.000271308363794 0.00100945301593 0.000337208096287)
(-0.000515570857604 0.00114420412797 0.000174045862912)
(-0.000808017868963 0.00126859053364 -7.86579513039e-05)
(-0.00108556791342 0.00131659010752 -0.000427534176727)
(-0.00124128550321 0.00127902065394 -0.000807985218725)
(-0.00115723697036 0.00116273289427 -0.00117890347129)
(-0.000512162392778 0.000990279768751 -0.00119592943018)
(0.000625568322354 0.00119726092304 -0.000911378210852)
(0.00127349660108 0.0012507840645 -0.000807582419258)
(0.00131889209663 0.00132835130324 -0.000348418443301)
(0.00109722104891 0.00132393884512 6.86205220012e-05)
(0.000774458365212 0.0012128645827 0.000409140725017)
(0.000469628002124 0.00100832382073 0.000651908737122)
(0.00023977869862 0.000773009918219 0.00081216057511)
(9.36035274688e-05 0.000561455935059 0.000934295723576)
(2.43579868062e-05 0.000420979869912 0.00101513180414)
(4.46116303574e-06 0.000361662607055 0.00105182476243)
(-2.81358936809e-06 0.000361392326887 0.00105206701777)
(-2.29113223362e-05 0.000420071314494 0.00101593994535)
(-9.24931843236e-05 0.000560242898971 0.000935431321319)
(-0.000238929433984 0.000771676680088 0.000813315220859)
(-0.000468761598489 0.00100716526041 0.000652983473971)
(-0.000773399170921 0.00121225861808 0.000410214108426)
(-0.00109603335479 0.00132392647184 6.95655337933e-05)
(-0.00131784174193 0.00132877813525 -0.000347751618431)
(-0.0012728030636 0.00125130575025 -0.000807489519505)
(-0.000625443868696 0.00119776256222 -0.000912159604145)
(0.000668243744389 0.00114669607955 -0.000532540270733)
(0.00131115423935 0.00109889896435 -0.000426660996206)
(0.00131390222261 0.00111058868405 6.97628037472e-05)
(0.00101004454133 0.00102426372934 0.000460454727563)
(0.000618065005339 0.000800045952437 0.000724821177486)
(0.000286677468725 0.000477995787916 0.000856866706896)
(6.14731112349e-05 0.000126192302952 0.000910174600281)
(-4.96946237351e-05 -0.000186335987797 0.000964331050978)
(-5.21065519293e-05 -0.000406128094472 0.00100406815575)
(-1.45757294948e-05 -0.000514339208737 0.00103494732328)
(1.62262190422e-05 -0.000514544249549 0.00103525981041)
(5.36072195299e-05 -0.00040677334406 0.00100478212229)
(5.09875854348e-05 -0.000187294548198 0.000965240259525)
(-6.04972166934e-05 0.000125201612799 0.000910956910677)
(-0.00028564335293 0.000477382310957 0.000857602232798)
(-0.000616734223517 0.000800002602921 0.000725632786404)
(-0.00100851105116 0.00102493104103 0.000461354036064)
(-0.00131250085962 0.00111173685794 7.05851088216e-05)
(-0.00131007241759 0.00110027233584 -0.000426048433103)
(-0.000667913674829 0.00114823553769 -0.000532740046433)
(0.000653316994614 0.000920550923907 -0.000143627993737)
(0.00126393511734 0.000824238916582 -7.68800631593e-05)
(0.00120285486708 0.000790963898497 0.000411906746979)
(0.000785523459612 0.000635806050776 0.000726739045062)
(0.000308356524893 0.000326920192779 0.000830017130938)
(-5.83031498776e-05 -8.26020097436e-05 0.000785013223301)
(-0.000244764014997 -0.000519420998343 0.000656676449857)
(-0.000276288832179 -0.000892219732509 0.000562631356032)
(-0.000198042784275 -0.00115476165473 0.000517125958928)
(-6.83344121874e-05 -0.00129503638118 0.000501625256733)
(7.05835237316e-05 -0.00129510846784 0.000502096596676)
(0.000199882177937 -0.00115495285816 0.000518209292541)
(0.000277657743597 -0.000892645558267 0.000563669704407)
(0.000245950702427 -0.000519765448919 0.00065735717123)
(5.97469105851e-05 -8.24728773065e-05 0.000785581776432)
(-0.000306558144576 0.000327735640898 0.000830893492655)
(-0.000783496771877 0.000637361885364 0.000727796410039)
(-0.00120102376893 0.000793053315324 0.000413059594373)
(-0.00126239210475 0.000826640827142 -7.58977312938e-05)
(-0.00065270824529 0.000923237127934 -0.000143200891828)
(0.000575108881249 0.00062262257332 0.000102684418479)
(0.00114094184563 0.000533154691377 0.000176898285922)
(0.000999178043504 0.000487760493654 0.000656782803789)
(0.000464092341942 0.000306360981339 0.000861679628373)
(-0.000101052709995 -3.73037551714e-05 0.00078884222561)
(-0.00048887403483 -0.000467442589051 0.000514763831081)
(-0.000631379712338 -0.000919286897852 0.000183502870809)
(-0.00057130204181 -0.00130751590258 -6.14400762295e-05)
(-0.000382199592878 -0.00158040715647 -0.00019801928407)
(-0.000131295725183 -0.00171841128696 -0.000258002338208)
(0.000134307912259 -0.00171845694814 -0.000257544403963)
(0.000384670841397 -0.00158049413369 -0.000196753261231)
(0.000573170885997 -0.0013075134866 -6.0172272346e-05)
(0.000633014158943 -0.00091881840332 0.000184341694573)
(0.000490700303423 -0.000466241491862 0.000515291063082)