/*--------------------------------*- C++ -*----------------------------------*\
| =========                 |                                                 |
| \\      /  F ield         | OpenFOAM: The Open Source CFD Toolbox           |
|  \\    /   O peration     | Version:  3.0.1                                 |
|   \\  /    A nd           | Web:      www.OpenFOAM.org                      |
|    \\/     M anipulation  |                                                 |
\*---------------------------------------------------------------------------*/
FoamFile
{
    version     2.0;
    format      ascii;
    class       volScalarField;
    location    "5.3";
    object      k_0;
}
// * * * * * * * * * * * * * * * * * * * * * * * * * * * * * * * * * * * * * //

dimensions      [0 2 -2 0 0 0 0];

internalField   nonuniform List<scalar> 
7968
(
0.000531849746365
0.000620795021725
0.000688307705695
0.000726883497554
0.000743080999621
0.000744763200361
0.000738488153845
0.000727908461936
0.000717158828602
0.000709009199303
0.00070899377908
0.000717131608382
0.00072788127617
0.000738470057473
0.000744763677884
0.000743100398688
0.000726920654624
0.000688353617158
0.000620841514761
0.000531876778397
0.00062077311325
0.000929887793426
0.001127760066
0.00123433377122
0.0012773264395
0.00128004776369
0.00126152577839
0.00123400606499
0.0012093451151
0.00119484547524
0.00119480130353
0.00120923407896
0.00123385314648
0.00126136662686
0.00127992234392
0.00127725723166
0.0012343288573
0.0011278012304
0.000929950310415
0.000620812973631
0.00068826113448
0.001127716343
0.00140169940731
0.00154966555572
0.00161179888157
0.0016186035239
0.00159528861671
0.00156025299642
0.00152927307923
0.00151149159991
0.0015114252138
0.00152909956106
0.00156000115773
0.00159500766431
0.00161835600917
0.00161162709173
0.00154958301354
0.00140168899412
0.00112775235361
0.000688299863066
0.000726808149293
0.00123425462641
0.00154963830106
0.00171960254118
0.00179000797492
0.00179554394653
0.0017661584805
0.00172484315672
0.00168991294722
0.00167100850984
0.00167093480043
0.00168968688667
0.00172450616398
0.0017657596251
0.00179517196159
0.0017897219783
0.00171942257784
0.00154955116234
0.00123423945487
0.000726837549266
0.000742984383378
0.00127725369627
0.00161180861518
0.00179006465314
0.00185908357413
0.00185877385732
0.00185068504891
0.00183085470871
0.00180785250698
0.00179263029046
0.00179256097922
0.00180767129522
0.00183058967226
0.00185035866579
0.00185831103049
0.00185868574042
0.00178977942368
0.00161163068844
0.00127716820783
0.000742992049298
0.00074467708714
0.00128005978762
0.00161875131355
0.00179578713968
0.00185898538805
0.00189556277326
0.00190407969382
0.00189067977673
0.00186943097753
0.00185400731074
0.00185393896245
0.00186925642504
0.00189042836134
0.00190378178595
0.0018952144289
0.00185852596873
0.00179541979596
0.00161849803573
0.00127991435057
0.000744659799
0.000738421641439
0.00126165606833
0.00159563883305
0.00176668319327
0.00185103040894
0.00190427986789
0.00191839444005
0.00190468515978
0.00188065828627
0.0018626880072
0.00186262188733
0.00188049207982
0.00190445047368
0.00191812580757
0.0019039944257
0.00185071884687
0.00176629902761
0.00159535494877
0.00126147126253
0.000738376299917
0.000727863394738
0.00123424454046
0.00156077787655
0.00172559495732
0.00183139557983
0.00189110279503
0.00190492088429
0.00188703446
0.00185769645992
0.00183550646443
0.00183544783249
0.0018575549927
0.00188684488998
0.0019047152336
0.00189089588252
0.001831178352
0.00172530599308
0.00156054529055
0.00123407315613
0.000727802240889
0.000717109042387
0.00120961197737
0.00152984795824
0.00169074784887
0.00180850224592
0.00187000205418
0.00188106683653
0.00185787530458
0.00182122774195
0.00179299565721
0.00179295378889
0.00182113775216
0.00185777342142
0.00188097811665
0.00186993035822
0.00180843486845
0.0016906497318
0.00152975583881
0.00120951895952
0.000717053603528
0.000708933810367
0.00119504792279
0.00151197024238
0.00167161181025
0.001793225836
0.001854577855
0.00186313320279
0.00183575041246
0.00179307872721
0.00175917795178
0.00175916854672
0.00179307497441
0.00183577970138
0.00186320881009
0.00185469222621
0.00179336370272
0.00167176075747
0.00151208545989
0.00119508869531
0.00070891191511
0.000708946343339
0.00119491347973
0.0015117360637
0.00167134004414
0.00179298746278
0.00185437597167
0.00186298684003
0.00183568168593
0.00179309830824
0.00175927948359
0.00175931658383
0.00179320576468
0.00183586640343
0.00186324703238
0.00185469103548
0.00179333870423
0.00167172343454
0.00151206771334
0.00119510547651
0.000708981409158
0.000717110685236
0.00120928437679
0.00152926812747
0.00168996116274
0.0018079196602
0.00186952871563
0.00188074261648
0.00185775019342
0.00182132303389
0.00179328429186
0.00179334179528
0.00182148131171
0.00185800983344
0.00188109512726
0.001869943751
0.00180838127684
0.00169053288724
0.00152971254769
0.00120955572336
0.000717172087944
0.000727873307214
0.00123385339356
0.00156004725634
0.00172458516018
0.00183065763968
0.00189052184946
0.00190455322462
0.00188694286465
0.00185790392249
0.00183596270037
0.00183602362091
0.00185807101353
0.00188721370225
0.001904915474
0.00189094295468
0.00183112077508
0.00172515239686
0.00156049101651
0.00123412486949
0.000727932058641
0.00073846277035
0.00126132635706
0.00159495468185
0.00176567779226
0.00185026578551
0.00190370997199
0.00191807274181
0.001904674839
0.00188097472562
0.00186326539773
0.00186332334528
0.00188113220972
0.00190492239313
0.0019183900373
0.00190406840048
0.00185065042706
0.00176612461739
0.00159529881192
0.00126153116887
0.000738496611048
0.00074475457711
0.00127987085965
0.00161825606093
0.00179499993492
0.00185805878622
0.00189501352938
0.00190382787908
0.00189074176961
0.00186981085414
0.00185464064512
0.00185469494274
0.0018699538573
0.00189095324295
0.00190408053609
0.00189528206304
0.00185834789368
0.00179525395241
0.00161845028102
0.00127997751638
0.000744756678221
0.000743090175001
0.00127722960404
0.00161154873734
0.00178956714479
0.00185843355008
0.0018582009319
0.00185049782853
0.00183097527001
0.00180827348645
0.00179328625523
0.00179333975774
0.00180840807669
0.00183115626519
0.00185068661897
0.00185835641067
0.00185854453551
0.00178965378385
0.00161160945516
0.00127724819427
0.00074306771215
0.000726907040419
0.00123435383872
0.00154958150516
0.00171936982868
0.00178965639187
0.00179522225144
0.00176604301542
0.00172503937545
0.00169043961886
0.00167170783789
0.00167176390338
0.00169057759535
0.00172520290378
0.00176618061642
0.00179530515385
0.00178968666588
0.00171937372531
0.00154956816243
0.00123432228812
0.000726873700638
0.000688336224536
0.00112787408987
0.00140177028978
0.0015496150508
0.0016116600875
0.00161847621537
0.00159529120672
0.00156047391083
0.00152973809559
0.00151216249139
0.00151221982501
0.00152987134236
0.00156062547084
0.00159541204377
0.00161854202712
0.00161167480242
0.00154959712329
0.00140173541747
0.00112783155572
0.000688305446829
0.000620822050307
0.000930034225004
0.00112787631812
0.00123438173586
0.0012773148008
0.00128003479403
0.0012615785387
0.00123419129421
0.00120968823583
0.00119532937412
0.00119537873374
0.0012097980158
0.00123431409493
0.00126167565207
0.0012800883203
0.00127732734983
0.00123436452518
0.00112784634759
0.000930002350608
0.000620799657129
0.000531866104772
0.000620857890736
0.000688385247486
0.000726958393817
0.000743146197143
0.000744826966956
0.000738562570517
0.000728016489818
0.000717311347189
0.000709209083474
0.000709234623406
0.000717363855981
0.000728069930435
0.000738599547848
0.000744842697613
0.000743144930132
0.000726944578705
0.000688370123881
0.000620845712645
0.000531853437653
0.000612039955068
0.000841611632636
0.00101502456555
0.0011244212368
0.00118365161266
0.00120788425333
0.00121026525275
0.00120110694902
0.00118970013527
0.00118213900591
0.00118210921104
0.00118962886039
0.00120101496762
0.00121017538927
0.00120782118641
0.00118362957932
0.00112443985538
0.00101507222312
0.000841669557279
0.000612073731998
0.000841576663157
0.0016078514712
0.00203895980952
0.00228687407611
0.00241139993717
0.00245604636023
0.0024536831211
0.00242859731399
0.00240041610775
0.00238246149601
0.0023824020112
0.00240026304974
0.00242838260464
0.00245345166334
0.00245585470411
0.00241128870705
0.00228685449541
0.00203901067562
0.00160793343006
0.000841622081951
0.00101495949454
0.00203887770454
0.00261385020898
0.00295288403666
0.00313247097026
0.00320538044199
0.00321300495085
0.00318823721502
0.00315664614656
0.00313556839668
0.00313548714368
0.00315643289741
0.00318792770641
0.0032126483776
0.00320505299918
0.00313222959972
0.00295275212139
0.00261381697164
0.00203891028652
0.00101498900634
0.0011243265486
0.00228673530036
0.00295283130956
0.00335450714295
0.00357583146034
0.00367453324996
0.0036953018734
0.00368167510573
0.00365890089274
0.00364084823106
0.00364075821192
0.00365868540906
0.00368135104243
0.00369485307038
0.00367409537689
0.00357546096649
0.00335424380536
0.00295267939715
0.0022866779618
0.00112432196193
0.00118355761045
0.00241128208386
0.00313245601951
0.00357587777973
0.0038290549537
0.00395684202713
0.00399088825897
0.0039742835822
0.00394352232686
0.00392152016246
0.00392140535456
0.00394321562251
0.00397383186571
0.00399036879544
0.00395641560335
0.00382859848872
0.00357549414423
0.00313218060608
0.00241111926702
0.00118350671796
0.00120784148913
0.00245605312616
0.00320551917166
0.0036747489212
0.00395699145359
0.00408989301141
0.00412274714365
0.00410114898843
0.00406369487494
0.00403741344856
0.00403728829478
0.00406335799347
0.00410065468823
0.0041221803486
0.00408935567302
0.0039565660902
0.00367429714572
0.00320515480216
0.00245580572245
0.00120774401982
0.00121030994668
0.00245386974086
0.0032133638082
0.00369576461271
0.00399141936951
0.00412313172584
0.00415073294487
0.00412072194242
0.00407436634629
0.00404242163041
0.00404230133126
0.00407404316787
0.00412025220382
0.00415019402075
0.00412259507344
0.0039909303076
0.00369532439837
0.00321298739201
0.002453591941
0.001210179627
0.00120124231666
0.00242893443185
0.00318876334206
0.00368220550502
0.00397513238586
0.00410196343603
0.00412119664764
0.00408051578084
0.0040271101404
0.00399016921414
0.0039900694749
0.0040268524423
0.00408015576685
0.00412079268024
0.00410157150204
0.00397478269388
0.00368194724343
0.00318849180077
0.00242871610327
0.00120111539736
0.00118987203303
0.00240079357894
0.00315722037076
0.00365949290094
0.00394454475349
0.0040647862399
0.00407517956661
0.00402744669027
0.00396396121432
0.00391987143358
0.00391980858404
0.0039638144679
0.00402727236693
0.00407502633139
0.00406467443996
0.00394446735071
0.0036594519166
0.0031571594367
0.00240072923629
0.00118979875441
0.00118227135528
0.00238274991964
0.0031360442705
0.00364146837092
0.00392249268876
0.00403850682395
0.00404329424282
0.00399064081937
0.00392003978442
0.00387062064296
0.00387061669965
0.00392005631359
0.00399072357936
0.00404347433647
0.00403876631682
0.00392277808368
0.00364172359611
0.00313627158999
0.0023829089273
0.00118229932703
0.00118217116968
0.00238252742574
0.00313574796645
0.0036411500147
0.00392210799215
0.00403814753085
0.0040430456214
0.00399055045713
0.0039201127492
0.00387082724907
0.00387089430463
0.00392031632254
0.00399091097905
0.00404357097203
0.00403878051731
0.00392275485703
0.00364171382833
0.00313626956759
0.00238292066204
0.00118231621788
0.00118963509759
0.0024002425014
0.00315647606538
0.00365877420741
0.00394357669313
0.00406388966011
0.00407458208907
0.00402727740115
0.00396422650681
0.00392048512005
0.00392059149038
0.00396453599197
0.00402779871963
0.00407531470543
0.00406473674353
0.00394442233806
0.0036594592874
0.0031571635039
0.00240076828175
0.00118983857764
0.00120096800492
0.00242824453096
0.00318779317516
0.00368123636449
0.00397387057399
0.00410082374273
0.00412048744305
0.00408040035592
0.00402760906268
0.00399115065391
0.00399127038341
0.00402795387203
0.00408096813973
0.00412126247858
0.00410170620234
0.00397474643108
0.00368196263532
0.00318850944686
0.00242879024297
0.00120116894733
0.00121008663958
0.00245323586074
0.00321239331505
0.00369459879989
0.00399016561655
0.00412203349966
0.00415010044221
0.00412075823343
0.00407509909827
0.00404366387327
0.00404378395624
0.00407544057707
0.00412130216295
0.00415079821937
0.00412280382851
0.00399092394525
0.00369529913247
0.00321301697601
0.00245370160301
0.00121023880615
0.00120771932679
0.00245562782674
0.00320476357134
0.00367377889578
0.00395613880223
0.00408905556319
0.00412229277872
0.0041013052841
0.00406450354387
0.00403873170254
0.00403884628052
0.00406481989377
0.00410178081842
0.0041228613601
0.00408963902122
0.00395666852581
0.00367428919579
0.00320520922851
0.00245595122328
0.00120780271297
0.00118353744098
0.00241113206049
0.00313201527219
0.00357520743731
0.00382832843746
0.00395635212558
0.00399063941608
0.00397452085871
0.00394429999636
0.00392274958009
0.00392286188806
0.00394459772823
0.00397493749839
0.00399109510502
0.00395678494065
0.00382869744733
0.00357553163393
0.00313228407171
0.00241131302714
0.00118356048393
0.00112437501597
0.00228683881022
0.00295270440994
0.0033541680811
0.00357539325541
0.00367418717053
0.00369521971638
0.00368196095111
0.00365956761953
0.00364191866961
0.00364203097798
0.00365985470943
0.0036823503199
0.00369562645437
0.00367453768697
0.00357566624828
0.00335437877163
0.00295285684824
0.00228692288476
0.00112436389388
0.00101503440013
0.00203914696835
0.00261396432388
0.00295282286503
0.00313230708361
0.00320525616538
0.0032130776597
0.00318861711598
0.00315737025125
0.00313660293177
0.00313671674906
0.00315765893566
0.00318899445254
0.00321345533843
0.00320557211826
0.00313254139855
0.00295298423017
0.00261406195901
0.00203918539957
0.00101501228856
0.00084163783507
0.0016081564339
0.00203919741515
0.00228699475712
0.00241143325737
0.00245608586338
0.00245384217512
0.00242896592638
0.00240103050608
0.00238330188329
0.00238339909939
0.00240127334332
0.00242928064633
0.00245415662675
0.00245635136912
0.00241163208264
0.00228712756057
0.00203927133899
0.0016081778681
0.00084161368407
0.000612029411012
0.000841731827205
0.00101516132609
0.00112452182704
0.00118370830793
0.00120792416525
0.00121033618774
0.00120126171748
0.00118996264841
0.00118250303347
0.00118254706457
0.00119006204472
0.0012013775371
0.00121043840841
0.00120799817628
0.00118375241657
0.00112454239389
0.00101516706306
0.000841725416808
0.000612007259198
0.000692242061034
0.00101536749281
0.00125957856417
0.0014161114394
0.00150424456724
0.00154467312416
0.00155652629339
0.00155606402727
0.0015546213683
0.00155502035888
0.00155497505504
0.00155450429436
0.00155590145574
0.0015563551265
0.0015445385506
0.00150417629598
0.00141611228052
0.00125963056408
0.0010154383412
0.00069227933571
0.00101533997359
0.00198933026497
0.00254406340302
0.00286770132058
0.00303489873013
0.0030996218648
0.0031041870131
0.0030810051442
0.00305390875474
0.00303713389434
0.0030370573102
0.00305370820693
0.00308072086801
0.00310387760698
0.00309936253079
0.00303475256956
0.00286768269856
0.00254414398597
0.0019894547791
0.00101540718702
0.00125952084077
0.00254395358062
0.00327383212001
0.00371288315761
0.00395553270114
0.00406482578354
0.00409140948451
0.00407463116486
0.00404451798505
0.00402327683595
0.00402318203463
0.00404426674651
0.00407427362046
0.00409101477059
0.00406445734895
0.00395526845192
0.00371275058924
0.00327381887111
0.0025440186611
0.00125956470393
0.00141602296001
0.00286751941444
0.00371280639964
0.00423770780697
0.00454558716975
0.00470308648125
0.00476552687066
0.00477158440717
0.00475010678804
0.00473100000366
0.00473089762542
0.00474983657851
0.00477120842982
0.00476514866031
0.00470264801768
0.00454521902925
0.00423744638986
0.00371265928939
0.00286747105969
0.00141601172909
0.0015041723343
0.00303474442893
0.00395547832362
0.00454560171201
0.00491138025687
0.00512258493175
0.00521053371859
0.00522532025199
0.00520681838212
0.00518773728989
0.00518761945357
0.00520650415851
0.00522487850503
0.00521005330478
0.00512211881864
0.00491095111436
0.00454522693764
0.00395519051331
0.00303455967743
0.00150408910249
0.00154469206296
0.00309962758737
0.00406491973174
0.00470322198941
0.00512270806507
0.00535842330064
0.00546180860978
0.00548144793274
0.00546112584882
0.00543923852392
0.00543910618602
0.005460771925
0.00548094715497
0.00546126123019
0.00535791155169
0.00512225524632
0.00470278367596
0.0040645278106
0.00309932639163
0.00154453598523
0.00155669983674
0.00310443643024
0.00409172448267
0.00476577638936
0.00521088748058
0.00546210791626
0.00557360359511
0.0055919920197
0.00556445620847
0.00553653847193
0.00553640634378
0.00556410695564
0.00559149755914
0.00557305342893
0.00546159798759
0.00521046158628
0.00476543003182
0.00409132690914
0.00310409514416
0.00155649631457
0.00155639465275
0.00308146733093
0.00407516285954
0.00477211258883
0.00522597257411
0.00548216162105
0.00559249891079
0.00560196443858
0.0055617402791
0.00552492172233
0.00552481792323
0.00556147145073
0.00560158604468
0.00559206565459
0.00548176456997
0.00522566163599
0.00477184480557
0.00407487373365
0.003081206845
0.00155620495175
0.00155500357026
0.00305442314865
0.00404511705012
0.00475075601363
0.0052076811238
0.0054621725765
0.00556540899482
0.00556225243943
0.005507775293
0.00546139493039
0.00546134421989
0.00550765343884
0.0055620937163
0.0055652407991
0.00546204825219
0.00520762665993
0.00475072802663
0.00404507688069
0.00305437341039
0.00155490938694
0.00155530924825
0.00303750638717
0.00402374634595
0.00473158037418
0.00518859909662
0.00544037158872
0.00553768548517
0.00552568458669
0.00546169494901
0.00540899109332
0.0054090068561
0.00546175912773
0.00552581897971
0.00553789409669
0.00544063916858
0.00518891187869
0.00473189651762
0.00402405261515
0.00303775671601
0.00155537552627
0.00155510535285
0.00303717191484
0.00402336520378
0.00473119728396
0.00518820186143
0.00543999833609
0.00553740973431
0.00552557687731
0.00546177347023
0.00540921617958
0.00540930246252
0.00546203062496
0.00552600861559
0.00553799418406
0.00544065842829
0.00518888461649
0.00473186132248
0.0040240193075
0.00303772502546
0.00155533763638
0.0015544956036
0.00305356992523
0.00404413697013
0.00474977854162
0.00520666814691
0.00546123011698
0.00556473452819
0.00556201708556
0.00550802876203
0.00546203337532
0.00546216247551
0.00550840222723
0.00556261815382
0.00556551489458
0.00546209946745
0.00520755147017
0.00475063441371
0.00404498993598
0.00305429563746
0.00155481416372
0.00155575934993
0.0030803547683
0.0040738683475
0.00477084158105
0.0052246557916
0.00548094650113
0.00559165437552
0.00560174040531
0.00556219965754
0.00552592094577
0.00552606286004
0.00556260975331
0.00560238568341
0.00559246385448
0.00548183155199
0.00522554773306
0.00477170811392
0.00407474611787
0.0030811041753
0.00155607516903
0.00155610763258
0.00310333884588
0.00409041372697
0.00476457951343
0.00520957313456
0.00546090969436
0.00557280737383
0.005591873297
0.00556509452034
0.00553779120636
0.005537928841
0.00556548938275
0.00559247711295
0.00557353519545
0.00546167713581
0.00521032774497
0.0047652883219
0.00409116613931
0.00310397966856
0.00155634923606
0.00154424749153
0.00309875334499
0.00406377777098
0.00470199103684
0.00512153784831
0.00535740874726
0.00546117665166
0.00548143394494
0.00546181094162
0.00544049564402
0.00544062800733
0.0054621771518
0.00548196659752
0.00546178539444
0.00535801506802
0.00512211494757
0.00470256095699
0.00406433072513
0.003099202182
0.00154437948939
0.00150389086503
0.00303419245668
0.00395464672859
0.00454461908385
0.00491041718032
0.00512180189944
0.00521008752094
0.00522537233449
0.00520745214718
0.00518887131438
0.00518900335652
0.00520780455594
0.00522585711578
0.00521060578874
0.00512228128817
0.00491083790845
0.0045450064808
0.00395499410165
0.00303444544616
0.00150392459549
0.00141586728759
0.00286728183113
0.00371230751604
0.00423702534781
0.00454485848802
0.0047024889008
0.00476526883688
0.00477173679915
0.00475073944631
0.00473206186219
0.00473220049104
0.00475110001751
0.00477221650242
0.00476576067811
0.00470291457846
0.00454519602475
0.00423729656214
0.00371251482824
0.00286740095387
0.00141584355751
0.00125943775794
0.00254395301538
0.00327362201033
0.00371248818377
0.003955053088
0.00406442341364
0.00409126995009
0.00407487858824
0.0040451964092
0.00402433649813
0.00402448187375
0.00404556839635
0.00407536442661
0.00409175462856
0.00406482896058
0.00395535547001
0.00371270172387
0.00327375523306
0.00254400223479
0.001259392632
0.00101527793372
0.00198945106238
0.00254406482512
0.00286755223961
0.00303464852475
0.0030993914183
0.00310413071758
0.00308123690887
0.00305446222928
0.00303797418445
0.00303810102439
0.00305478148787
0.00308164996267
0.00310454070065
0.00309973303103
0.00303489866677
0.00286771971684
0.00254415557726
0.00198946652845
0.00101522604051
0.000692119725515
0.0010153875758
0.00125960162756
0.00141607010519
0.00150412666379
0.00154451187559
0.00155639305214
0.0015560324352
0.00155471475001
0.0015552240068
0.0015552754399
0.00155482967205
0.0015561611057
0.00155649747791
0.00154457491368
0.00150414743701
0.00141606246668
0.00125957576534
0.00101534801378
0.00069207085323
0.000788254161105
0.0012160945733
0.00153410035709
0.00173831046387
0.0018582062758
0.00192170242757
0.00195649560087
0.00198564997997
0.00201693309283
0.00203981326071
0.0020397533721
0.00201676413148
0.00198539629314
0.00195620868046
0.00192146138909
0.00185806612398
0.00173827733206
0.00153414441185
0.00121616677262
0.000788290362416
0.00121609898761
0.00240433450474
0.00307542608143
0.00346056857324
0.00365428446098
0.00372392613215
0.00372595222831
0.00370402846441
0.00368500953364
0.00367644610213
0.00367633197677
0.00368469894704
0.00370357598417
0.00372544856987
0.0037234963908
0.00365403095668
0.00346051077506
0.00307552036642
0.00240449885499
0.00121619025
0.00153408300256
0.00307530490316
0.00394374012438
0.00445629014736
0.00473373451961
0.00485393114095
0.00488035329058
0.00485958238346
0.00482761986975
0.00480656967148
0.00480643993676
0.00482726810811
0.00485907432596
0.00487978558392
0.00485341526672
0.00473337334555
0.00445612039775
0.00394374371868
0.00307541963501
0.00153415297954
0.00173826644235
0.00346038004125
0.00445621265481
0.00506468163933
0.0054209184734
0.00560537686829
0.00568780818579
0.00569658895209
0.00567400826999
0.00565316643779
0.00565304408779
0.00567367852711
0.00569612021824
0.00568728720043
0.00560486037797
0.00542050072527
0.00506438919404
0.00445606906052
0.00346036563454
0.00173827117208
0.0018581944955
0.00365415622812
0.00473369514214
0.00542092762875
0.00585977262824
0.00611983520442
0.00624449779275
0.00627702714581
0.00626160652497
0.00624072954766
0.00624060149959
0.00626125881685
0.00627653646437
0.00624396255679
0.00611935117653
0.00585942403409
0.00542053972984
0.00473338209304
0.00365396222908
0.00185810586556
0.00192182159643
0.00372403514127
0.00485408179847
0.00560549645152
0.00611991399078
0.00643394432749
0.00659385260095
0.00664066776485
0.00662508686447
0.00660103855397
0.00660089045251
0.00662467991496
0.00664008616951
0.00659322467104
0.00643338489505
0.00611946412252
0.00560504194464
0.00485362665813
0.0037236643077
0.00192163031332
0.00195683349231
0.00372643014837
0.00488080053026
0.00568808875639
0.00624474777979
0.00659410605259
0.00677336652814
0.0068211738043
0.00679679565284
0.0067655473754
0.00676539676986
0.00679638408914
0.00682058273399
0.00677268924713
0.00659348555395
0.00624426352639
0.00568766347065
0.00488030818488
0.00372597398737
0.00195657185332
0.00198617812056
0.00370482423833
0.00486030241358
0.00569707504018
0.00627751764503
0.00664135083773
0.0068217950436
0.00685922365556
0.00681935641813
0.00677709761944
0.00677699338843
0.00681907491032
0.00685880608256
0.00682122733494
0.00664079264379
0.00627710401563
0.00569674887569
0.00485992899391
0.00370445386876
0.00198594004419
0.00201744858763
0.00368585027021
0.00482841584021
0.00567463038318
0.00626235065171
0.00662617996684
0.00679800308806
0.00682009516794
0.00676222485091
0.00670847997187
0.00670845310898
0.00676214575358
0.0068199478102
0.00679774149342
0.0066258987885
0.00626216539192
0.00567455127056
0.00482834266957
0.00368575462417
0.00201735372971
0.0020401121437
0.00367702818937
0.00480717430174
0.00565373243205
0.0062415631846
0.00660231195734
0.00676704439593
0.00677817610246
0.006708898517
0.00664810783158
0.00664814969743
0.00670901529167
0.00677835134751
0.0067672255872
0.00660246403129
0.00624174889918
0.00565402532744
0.00480752384855
0.00367732741317
0.00204023344685
0.00203978882741
0.00367650408413
0.00480663090544
0.00565324816183
0.00624110960587
0.00660188125513
0.00676671329563
0.0067780328304
0.00670896246956
0.00664832087303
0.00664842675943
0.00670926157576
0.00677851163574
0.00676731545523
0.00660246773948
0.00624168400589
0.00565392292126
0.00480740051193
0.00367719152572
0.00204010766876
0.00201659200575
0.00368446327849
0.00482697818148
0.00567336182422
0.00626117465473
0.00662506609723
0.00679714744835
0.00681971220763
0.00676237668423
0.00670902534452
0.00670917410201
0.00676279256004
0.0068203571323
0.00679793832575
0.00662586223588
0.00626194975544
0.00567424776156
0.00482799269487
0.00368538283065
0.00201701740708
0.0019850321989
0.00370293436156
0.00485832977085
0.00569535120123
0.00627593435801
0.00663984222243
0.00682061333675
0.00685873521925
0.0068196198549
0.00677792730277
0.00677808543558
0.00682007179663
0.00685942195684
0.00682141010587
0.00664063051146
0.00627670762745
0.00569624830151
0.00485937602905
0.00370389461207
0.00198545415552
0.00195567849228
0.0037244508698
0.00487867651683
0.00568622009502
0.00624305041752
0.00659252601322
0.00677213622959
0.00682070319983
0.00679719854177
0.00676662650663
0.00676677414373
0.00679762563887
0.00682133634612
0.00677283495955
0.00659318071841
0.00624369619877
0.00568698586499
0.00487957728116
0.00372527454797
0.00195599995335
0.00192085263871
0.00372229191068
0.00485209488558
0.00560361535623
0.00611828515713
0.00643249370095
0.00659274718137
0.00664023625164
0.0066254523302
0.00660206276518
0.00660220452012
0.00662584332542
0.00664078045555
0.00659331559633
0.00643300264512
0.00611879357085
0.00560420864254
0.00485274447264
0.00372285704674
0.00192101579704
0.00185745778216
0.00365279054989
0.00473200907149
0.00541921057947
0.00585835646216
0.00611853065699
0.00624350616634
0.00627654819736
0.00626178426802
0.00624149716385
0.00624163687887
0.00626215865066
0.00627704273141
0.00624399856841
0.00611896388923
0.00585876641604
0.00541961477095
0.00473240610323
0.0036530907492
0.00185747376688
0.0017377209817
0.00345939497921
0.00445487453887
0.00506318256249
0.00541946048029
0.00560411583031
0.00568690748816
0.00569616558161
0.00567415446709
0.00565382887497
0.00565398070917
0.00567454935065
0.00569667561456
0.00568740508747
0.00560453258942
0.00541978711697
0.00506345420308
0.0044550921765
0.00345951177108
0.00173764775235
0.00153366325989
0.00307464323146
0.00394275225846
0.00445507673754
0.00473244063236
0.00485275057793
0.00487950712034
0.00485923588837
0.00482781501095
0.00480723413211
0.00480739781135
0.00482823073788
0.00485976446462
0.00488001095755
0.00485314835925
0.00473272010865
0.00445526658061
0.00394286059299
0.00307465621206
0.0015335557203
0.00121575669871
0.00240393260735
0.00307478792506
0.00345970607141
0.00365326844594
0.00372290844972
0.00372513948623
0.00370357161881
0.00368493062184
0.00367669183419
0.00367682829766
0.00368526850951
0.00370399257224
0.00372553339179
0.00372320924639
0.00365346181662
0.00345981662321
0.0030748236952
0.00240389058146
0.00121564316646
0.000787945661921
0.00121585487232
0.00153381388079
0.00173790112464
0.00185764022007
0.00192099704341
0.0019557304062
0.00198490824282
0.00201623324735
0.0020391625505
0.00203920048092
0.00201630772733
0.00198496774118
0.00195574124232
0.00192095349284
0.00185755214458
0.00173779378709
0.00153369934831
0.00121574123573
0.000787845353672
0.000915076724209
0.00148948609933
0.00191068169133
0.00219080911288
0.00237487987727
0.00249834362425
0.00259715967851
0.00269681887041
0.00279173961774
0.00285221985577
0.00285216682546
0.00279158737009
0.00269656132488
0.00259683715175
0.00249805633219
0.00237471401733
0.00219077080817
0.00191073256809
0.00148956468065
0.000915116042346
0.00148953721419
0.00296916012601
0.00378981002975
0.00426035696141
0.00449764854805
0.00458639189735
0.00460363151896
0.00460844335867
0.00462460245909
0.00464132893357
0.00464116313358
0.00462413406147
0.00460773913909
0.0046028351335
0.00458570850433
0.00449724343473
0.0042602528809
0.00378993685716
0.00296939788333
0.00148966445049
0.00191071665205
0.00378969401365
0.00481607224665
0.00540266581171
0.00570280808422
0.00581851142194
0.00583375593941
0.00580725159479
0.00577637681069
0.00575873953154
0.00575854581985
0.00577583607771
0.00580645119469
0.00583285098542
0.00581771896337
0.00570227089481
0.00540245200749
0.00481614091338
0.00378993005886
0.00191084367707
0.00219081091465
0.00426018661018
0.00540259675922
0.00606825065475
0.00644107545328
0.00662945132432
0.00670452544611
0.00670315890702
0.0066691392412
0.00664122997425
0.0066410658059
0.00666868083246
0.00670248452948
0.00670375479078
0.00662880545343
0.00644046798473
0.00606789079893
0.00540250705931
0.00426030278942
0.00219089791709
0.0023748993959
0.00449758155094
0.00570281373565
0.00644109507535
0.00691305841319
0.00719287702711
0.00732524437255
0.00734848100491
0.00731406172724
0.00727950580132
0.00727935650749
0.0073136272613
0.00734782996944
0.0073244861632
0.00719216730183
0.00691245772266
0.00644059656045
0.00570249592968
0.00449747391394
0.00237490883769
0.0024984560405
0.00458664502559
0.00581878425671
0.0066295496281
0.00719294586274
0.00754788342896
0.00772212072113
0.00775365547264
0.00771106081858
0.00766889608289
0.00766873073303
0.00771056585555
0.00775288594649
0.00772121789418
0.007547034973
0.00719225418408
0.0066290489712
0.00581824939367
0.00458627373508
0.00249837293521