/*--------------------------------*- C++ -*----------------------------------*\
| =========                 |                                                 |
| \\      /  F ield         | OpenFOAM: The Open Source CFD Toolbox           |
|  \\    /   O peration     | Version:  3.0.1                                 |
|   \\  /    A nd           | Web:      www.OpenFOAM.org                      |
|    \\/     M anipulation  |                                                 |
\*---------------------------------------------------------------------------*/
FoamFile
{
    version     2.0;
    format      ascii;
    class       surfaceScalarField;
    location    "8.7";
    object      alphaPhi;
}
// * * * * * * * * * * * * * * * * * * * * * * * * * * * * * * * * * * * * * //

dimensions      [0 3 -1 0 0 0 0];

internalField   nonuniform List<scalar> 
22672
(
4.87682175551e-06
4.50415975481e-06
-9.38101982731e-06
1.19697839575e-05
3.54949536984e-06
-1.06425098066e-05
1.89073043817e-05
3.48931667527e-06
-1.04268894187e-05
2.39461739287e-05
4.19155671487e-06
-9.23047844123e-06
2.60916480578e-05
5.60391770169e-06
-7.74944234923e-06
2.5117391152e-05
7.36124283292e-06
-6.38703494228e-06
2.18386823714e-05
8.72387605646e-06
-5.44521531416e-06
1.64935570428e-05
1.00263217481e-05
-4.68124342532e-06
9.75372825032e-06
1.10164161717e-05
-4.27663310093e-06
2.35282066561e-06
1.15511232847e-05
-4.15025976247e-06
-5.11917288184e-06
1.15868779026e-05
-4.11492713009e-06
-1.20711961429e-05
1.11163112056e-05
-4.16432930096e-06
-1.77648206342e-05
1.01721514378e-05
-4.47856662435e-06
-2.14969701762e-05
8.89042298944e-06
-5.15831178994e-06
-2.29265336818e-05
7.50150330475e-06
-6.0719769616e-06
-2.1435944628e-05
5.83684065685e-06
-7.3274682503e-06
-1.70433002464e-05
4.40748792239e-06
-8.8001746132e-06
-1.0767671378e-05
3.71389726555e-06
-9.98957380645e-06
-4.31105347616e-06
3.76404550039e-06
-1.02207148457e-05
4.6781608251e-06
-8.98924075057e-06
3.93777307354e-06
1.11982583013e-05
-1.06319210401e-05
1.21424568863e-05
1.1343449204e-05
-1.59986803527e-05
2.01063994107e-05
1.24129692934e-05
-1.68876468954e-05
2.55054860616e-05
1.454415344e-05
-1.57517349036e-05
2.75755543609e-05
1.75147372091e-05
-1.39809264914e-05
2.64671042018e-05
2.0665700232e-05
-1.21960508161e-05
2.27207096174e-05
2.3243851415e-05
-1.07736278739e-05
1.70073027943e-05
2.54361209599e-05
-9.69643743086e-06
1.00178788182e-05
2.7053835932e-05
-9.04803808644e-06
2.42216067415e-06
2.79219272435e-05
-8.77512609584e-06
-5.24853194283e-06
2.79839145463e-05
-8.72638397968e-06
-1.24593405556e-05
2.7225748373e-05
-8.8986672216e-06
-1.85222659538e-05
2.56818740013e-05
-9.44683610731e-06
-2.27079607546e-05
2.35177983707e-05
-1.04417191028e-05
-2.43526051664e-05
2.09490436584e-05
-1.18029272255e-05
-2.28965310292e-05
1.78868037288e-05
-1.35060606655e-05
-1.81779414094e-05
1.4931737153e-05
-1.52428803051e-05
-1.09049844964e-05
1.28135783189e-05
-1.63726816988e-05
-3.35841237492e-06
1.17300953633e-05
-1.5512662101e-05
1.15286880732e-05
-1.02089792701e-05
3.88928752115e-06
1.77618490441e-05
-1.04529068683e-05
1.3227836865e-05
1.89130841483e-05
-1.69082302775e-05
2.20918093106e-05
2.08810965727e-05
-1.73321488595e-05
2.78509648454e-05
2.40138259787e-05
-1.52288764335e-05
2.98496305199e-05
2.79550267522e-05
-1.24389998879e-05
2.837667818e-05
3.19440655854e-05
-9.80545987923e-06
2.41132530751e-05
3.52901324017e-05
-7.78290375524e-06
1.78864473425e-05
3.8059198727e-05
-6.39631735486e-06
1.04607189671e-05
4.00875680397e-05
-5.60804623707e-06
2.47404436379e-06
4.11816849297e-05
-5.27312360635e-06
-5.59789103295e-06
4.12708806116e-05
-5.21507044871e-06
-1.32682140439e-05
4.03332510709e-05
-5.43721874108e-06
-1.98659826951e-05
3.84043212916e-05
-6.12471782572e-06
-2.4582695163e-05
3.56657713426e-05
-7.43130047544e-06
-2.65893346636e-05
3.23335705282e-05
-9.3779234416e-06
-2.52032929447e-05
2.84223675747e-05
-1.19216352833e-05
-2.01259106127e-05
2.45050414818e-05
-1.46507237905e-05
-1.19658164212e-05
2.13880578461e-05
-1.67346183026e-05
-3.30090597596e-06
1.94128172401e-05
-1.63476775505e-05
1.82008075161e-05
-9.97304436389e-06
4.59195852608e-06
2.24644365334e-05
-9.29458646737e-06
1.53632571666e-05
2.39586805979e-05
-1.58169345635e-05
2.5231951027e-05
2.62877991306e-05
-1.52754383326e-05
3.13826000347e-05
2.98120101576e-05
-1.19488750483e-05
3.32043602122e-05
3.41095940829e-05
-7.97636942008e-06
3.11699998612e-05
3.83885389835e-05
-4.41015676048e-06
2.61909511881e-05
4.20264289979e-05
-1.75729236949e-06
1.92321388187e-05
4.50501475258e-05
-3.21795375707e-08
1.11391675054e-05
4.72802942332e-05
9.00203832387e-07
2.53523637072e-06
4.85038055923e-05
1.28177064866e-06
-6.16840446628e-06
4.86197520704e-05
1.35473076898e-06
-1.45407860622e-05
4.75960647722e-05
1.10953017364e-06
-2.19059214574e-05
4.54824820874e-05
2.86936582443e-07
-2.73544461639e-05
4.24793057043e-05
-1.36504909072e-06
-2.99148795786e-05
3.88340066794e-05
-3.94004105794e-06
-2.8699388634e-05
3.46159305258e-05
-7.40908850694e-06
-2.32294754328e-05
3.03397472699e-05
-1.13046552452e-05
-1.40730561414e-05
2.68301981865e-05
-1.45985988901e-05
-3.98848594237e-06
2.45002607201e-05
-1.51720521232e-05
2.29499727061e-05
-8.73768657277e-06
6.01511883174e-06
2.43051054317e-05
-7.85582680718e-06
1.83349021826e-05
2.57370628919e-05
-1.40982004255e-05
2.91729273751e-05
2.79947656647e-05
-1.25450257545e-05
3.56787176296e-05
3.13413588192e-05
-8.03517358323e-06
3.72883752087e-05
3.54246598872e-05
-2.92475987963e-06
3.46723325689e-05
3.94419734522e-05
1.56256894792e-06
2.89187593296e-05
4.29052676873e-05
4.87469367999e-06
2.1097164632e-05
4.58205543567e-05
7.05114685561e-06
1.21204387175e-05
4.80140620168e-05
8.24291766617e-06
2.62016492257e-06
4.92548404744e-05
8.74919921562e-06
-7.00412631306e-06
4.93965712883e-05
8.84743350798e-06
-1.63191674487e-05
4.83961758947e-05
8.51489303585e-06
-2.46046717063e-05
4.63351188444e-05
7.43283107414e-06
-3.08571577461e-05
4.34262725464e-05
5.30548135578e-06
-3.39924051476e-05
3.9923465388e-05
2.04574961363e-06
-3.29756209902e-05
3.59323023327e-05
-2.3331949001e-06
-2.71464183691e-05
3.18518523106e-05
-7.3413474382e-06
-1.70267010442e-05
2.85110226455e-05
-1.18005825347e-05
-5.4036363869e-06
2.62480427005e-05
-1.33708881237e-05
2.47600743657e-05
-7.21377782434e-06
7.7411230281e-06
2.31342030302e-05
-6.5702500112e-06
2.14556811978e-05
2.44011309803e-05
-1.23786557105e-05
3.31342387916e-05
2.62871702982e-05
-9.9709901665e-06
3.9930891819e-05
2.90618684019e-05
-4.51719083221e-06
4.12820370099e-05
3.25501407695e-05
1.52334298947e-06
3.8059682233e-05
3.59502961086e-05
6.71399643537e-06
3.15396822806e-05
3.8925100815e-05
1.0500127634e-05
2.28832943704e-05
4.14932333336e-05
1.29836680434e-05
1.30612795267e-05
4.34826414654e-05
1.43533940886e-05
2.71241998291e-06
4.46562779241e-05
1.49473812703e-05
-7.79174466084e-06
4.48151886734e-05
1.50855078037e-05
-1.80282522298e-05
4.39061591177e-05
1.47264873601e-05
-2.72270289646e-05
4.20635925185e-05
1.34702678255e-05
-3.42797319942e-05
3.94984928846e-05
1.09804466154e-05
-3.80050146856e-05
3.64608644457e-05
7.18784510937e-06
-3.72217323263e-05
3.30512206937e-05
2.0977585175e-06
-3.10907162004e-05
2.95373784265e-05
-3.81658417376e-06
-2.0128810949e-05
2.67445701725e-05
-9.19549370232e-06
-7.1139806883e-06
2.48385817644e-05
-1.16054061809e-05
2.35285401061e-05
-5.88248587946e-06
9.11427719604e-06
1.96807651031e-05
-5.66083197146e-06
2.40304507959e-05
2.04858897453e-05
-1.10009397342e-05
3.64690918205e-05
2.18378157637e-05
-7.98930728092e-06
4.35550948514e-05
2.38723165706e-05
-1.8964727603e-06
4.47356306437e-05
2.65541150268e-05
4.81546356282e-06
4.10393023117e-05
2.91557672147e-05
1.04908237534e-05
3.38882345759e-05
3.14636863328e-05
1.4612443131e-05
2.45066598955e-05
3.35096153212e-05
1.73651501728e-05
1.39430313423e-05
3.51144365175e-05
1.89317894868e-05
2.82194751519e-06
3.61125552088e-05
1.96647628828e-05
-8.49202633177e-06
3.62735255971e-05
1.98555952085e-05
-1.95513591169e-05
3.55274467024e-05
1.94380071518e-05
-2.95667710216e-05
3.40724916024e-05
1.8006477984e-05
-3.73067837007e-05
3.20355900837e-05
1.52028810121e-05
-4.15097445494e-05
2.96623513499e-05
1.10014370046e-05
-4.08778835845e-05
2.70305046232e-05
5.38881477764e-06
-3.44369056119e-05
2.42995179613e-05
-1.20316111837e-06
-2.2706464911e-05
2.22224754868e-05
-7.20839074983e-06
-8.49253153801e-06
2.0836436883e-05
-1.02118314307e-05
1.99930267534e-05
-4.95705562234e-06
1.03995530415e-05
1.42252701402e-05
-4.94405417476e-06
2.61968311435e-05
1.46628385589e-05
-9.97422919318e-06
3.91995942065e-05
1.54850665009e-05
-6.65002583349e-06
4.65336640754e-05
1.67615264559e-05
-2.23296287761e-07
4.76075355391e-05
1.85414105289e-05
6.93881080456e-06
4.35781240413e-05
2.02615390343e-05
1.2923608939e-05
3.59436393896e-05
2.17957512358e-05
1.73023806723e-05
2.59442364741e-05
2.31686601454e-05
2.03403130167e-05
1.46248806281e-05
2.41741912981e-05
2.22595527745e-05
2.90605049288e-06
2.48941033096e-05
2.29372333874e-05
-8.9950052126e-06
2.50292887594e-05
2.31452464249e-05
-2.0861384575e-05
2.44875248777e-05
2.29062601282e-05
-3.1594695494e-05
2.36232820656e-05
2.11824843712e-05
-3.98880136114e-05
2.22699974158e-05
1.80588767486e-05
-4.4447886034e-05
2.06843734142e-05
1.35378144659e-05
-4.39169769053e-05
1.89329446033e-05
7.56661229492e-06
-3.7212937561e-05
1.70961606294e-05
4.99275625895e-07
-2.49008551497e-05
1.57727923767e-05
-5.86244409742e-06
-9.79514354321e-06
1.49151129219e-05
-9.18443380983e-06
1.44487766245e-05
-4.25092983514e-06
1.1354823368e-05
7.45489967888e-06
-4.58445314866e-06
2.77567943048e-05
7.64434208403e-06
-9.38347763848e-06
4.11468841494e-05
8.0202011659e-06
-5.92522408579e-06
4.86679639901e-05
8.61568527775e-06
6.24749536349e-07
4.96954757088e-05
9.48761843287e-06
8.02626314874e-06
4.54678093307e-05
1.03248490823e-05
1.41643289585e-05
3.74872116556e-05
1.10778613883e-05
1.8698449545e-05
2.69245648631e-05
1.16794660095e-05
2.20517939328e-05
1.51958362213e-05
1.22429379577e-05
2.36599292103e-05
2.94875589789e-06
1.2631845583e-05
2.45092835431e-05
-9.49814864819e-06
1.27009277334e-05
2.47752139455e-05
-2.17772056612e-05
1.24035008499e-05
2.43630358492e-05
-3.30987830887e-05
1.19173994689e-05
2.30274215751e-05
-4.1803676573e-05
1.13504456036e-05
1.96244100285e-05
-4.65916869005e-05
1.05643487099e-05
1.49079982423e-05
-4.61126238287e-05
9.70915734117e-06
8.74468597899e-06
-3.92169531278e-05
8.80376936816e-06
1.39668001645e-06
-2.65022784581e-05
8.18160186708e-06
-5.12352680121e-06
-1.07749721022e-05
7.78592363312e-06
-8.59816155396e-06
7.58277100705e-06
-3.90900320942e-06
1.18475487748e-05
1.03050907338e-07
-4.49569864813e-06
2.85524824776e-05
1.0351585134e-07
-9.16410830272e-06
4.21385807396e-05
9.19502851637e-08
-5.65785268238e-06
4.97638487712e-05
7.52060654093e-08
9.15203536618e-07
5.07868566059e-05
5.63217652853e-08
8.40827554348e-06
4.64818302615e-05
3.85641544387e-08
1.45912882526e-05
3.83343091072e-05
2.04804896306e-08
1.92048673535e-05
2.75067098288e-05
2.23047961265e-09
2.25047890187e-05
1.55485304928e-05
-1.23552616408e-08
2.42134186505e-05
2.97023998278e-06
-2.35293053995e-08
2.52336081204e-05
-9.8309552057e-06
-2.69079434628e-08
2.55289758752e-05
-2.24106548878e-05
-2.27556759616e-08
2.50059083273e-05
-3.39515431952e-05
-1.19289308766e-08
2.34701765331e-05
-4.28368039515e-05
4.5055307212e-09
2.02311645681e-05
-4.7713675258e-05
2.56085089698e-08
1.54155740204e-05
-4.72426121308e-05
4.98740384088e-08
9.18818102436e-06
-4.02404914309e-05
7.9281020176e-08
1.72232643389e-06
-2.73218737679e-05
1.05303306465e-07
-4.84236179895e-06
-1.12825093321e-05
1.24864934706e-07
-8.37834985628e-06
1.26848113319e-07
-3.82662353661e-06
1.18435022726e-05
-7.24636921297e-06
-4.49408215023e-06
2.85448216267e-05
-7.43436265168e-06
-9.16343822716e-06
4.21291421434e-05
-7.83073113383e-06
-5.66164249416e-06
4.97533259823e-05
-8.45646361306e-06
9.07502070267e-07
5.07748746227e-05
-9.36201671882e-06
8.39678089508e-06
4.64687196982e-05
-1.0230158714e-05
1.45748621059e-05
3.83207427916e-05
-1.10147188087e-05
1.91831477278e-05
2.7494491128e-05
-1.16488790601e-05
2.2477321826e-05
1.55401559623e-05
-1.22387208541e-05
2.41806527426e-05
2.96636278624e-06
-1.26485032048e-05
2.51987139429e-05
-9.8299069243e-06
-1.27236287124e-05
2.54929380925e-05
-2.24033960285e-05
-1.24181066961e-05
2.49687941687e-05
-3.39393582745e-05
-1.19104298984e-05
2.34344248097e-05
-4.28210031729e-05
-1.13149642755e-05
2.02010800713e-05
-4.76959464624e-05
-1.0491839302e-05
1.53923547651e-05
-4.72242856721e-05
-9.59411047196e-06
9.17228457219e-06
-4.02228536641e-05
-8.63669367189e-06
1.71450109625e-06
-2.73077933527e-05
-7.96765504636e-06
-4.84214509159e-06
-1.12755454043e-05
-7.53689524996e-06
-8.37053277648e-06
-7.32978101578e-06
-3.81895331201e-06
1.13433333293e-05
-1.40158639409e-05
-4.57383859536e-06
2.77351670479e-05
-1.44493848534e-05
-9.37681161083e-06
4.11201516481e-05
-1.52842424655e-05
-5.93147993562e-06
4.86382697251e-05
-1.65810524449e-05
6.06466851396e-07
4.9661866332e-05
-1.83824673063e-05
7.99685194931e-06
4.54313359851e-05
-2.01206531103e-05
1.41210147245e-05
3.74496928443e-05
-2.16735287711e-05
1.86404328297e-05
2.68900132965e-05
-2.30672177843e-05
2.19779871498e-05
1.5171191544e-05
-2.40911102848e-05
2.35711725828e-05
2.93777355048e-06
-2.48273886628e-05
2.44122598989e-05
-9.49426332806e-06
-2.49663464777e-05
2.46747104497e-05
-2.17547958999e-05
-2.4417869627e-05
2.42602561507e-05
-3.30628417789e-05
-2.35345438501e-05
2.29321264742e-05
-4.17595979182e-05
-2.2162508882e-05
1.95442695929e-05
-4.65425832382e-05
-2.05548294533e-05
1.48459407833e-05
-4.60621301779e-05
-1.87768471447e-05
8.70224475704e-06
-3.91686604495e-05
-1.69058983247e-05
1.375693344e-06
-2.64637478991e-05
-1.55501497944e-05
-5.12246152565e-06
-1.07557331759e-05
-1.46687879866e-05
-8.57616828172e-06
-1.42007254633e-05
-3.88482496532e-06
1.03835869372e-05
-1.94791982049e-05
-4.92025267825e-06
2.61672456495e-05
-2.02746569303e-05
-9.95838731734e-06
3.91629346596e-05
-2.16287350427e-05
-6.65120313263e-06
4.64930483652e-05
-2.36692210677e-05
-2.41946270817e-07
4.75617606253e-05
-2.63570007621e-05
6.9058183692e-06
4.35279463661e-05
-2.89609071387e-05
1.28740651809e-05
3.5890944073e-05
-3.12713289843e-05
1.72347902225e-05
2.58931954879e-05
-3.33221545025e-05
2.02526643472e-05
1.45866957536e-05
-3.49325605537e-05
2.21479219252e-05
2.89011705205e-06
-3.5934219053e-05
2.28033770215e-05
-8.98703358974e-06
-3.60946532245e-05
2.30054238009e-05
-2.08290585775e-05
-3.53454623429e-05
2.27695867098e-05
-3.15458528074e-05
-3.38823357119e-05
2.10645585268e-05
-3.98274509243e-05
-3.18402493891e-05
1.79593115254e-05
-4.43802759609e-05
-2.94629843897e-05
1.34609491996e-05
-4.38469775407e-05
-2.68239937783e-05
7.51381161897e-06
-3.71458735359e-05
-2.40806047291e-05
4.73560214171e-07
-2.48471170529e-05
-2.19909130572e-05
-5.85803825776e-06
-9.7682381584e-06
-2.05968503203e-05
-9.15086362668e-06
-1.97581205595e-05
-4.21087997939e-06
9.09841259909e-06
-2.29504097353e-05
-5.62720416879e-06
2.40001783888e-05
-2.42010946354e-05
-1.09753279908e-05
3.64322329433e-05
-2.60802328271e-05
-7.98055878866e-06
4.35157689138e-05
-2.88475949771e-05
-1.90517246807e-06
4.46918835616e-05
-3.23285263643e-05
4.7954315047e-06
4.09897430783e-05
-3.5718351971e-05
1.04595889399e-05
3.38346754036e-05
-3.86825381841e-05
1.4566272492e-05
2.44557388743e-05
-4.1242930846e-05
1.72997016186e-05
1.39056708401e-05
-4.3227126019e-05
1.88446162508e-05
2.80693072206e-06
-4.43969273539e-05
1.9561426901e-05
-8.48117357774e-06
-4.4552316666e-05
1.97457440147e-05
-1.95186483461e-05
-4.36404904779e-05
1.93324796247e-05
-2.95175988465e-05
-4.17963473456e-05
1.79129399215e-05
-3.72464821821e-05
-3.92360846012e-05
1.51246951205e-05
-4.14418274839e-05
-3.62075146249e-05
1.09398477695e-05
-4.08051277621e-05
-3.28060132362e-05
5.3452849482e-06
-3.43650811732e-05
-2.92979908071e-05
-1.22270256191e-06
-2.26483466427e-05
-2.65111088607e-05
-7.19658397956e-06
-8.46409476063e-06
-2.46112777815e-05
-1.01698703205e-05
-2.33154580826e-05
-4.90679739555e-06
7.72631993333e-06
-2.41407278956e-05
-6.53600187228e-06
2.14349398303e-05
-2.55637180963e-05
-1.23459969741e-05
3.31103495265e-05
-2.78055756027e-05
-9.95007245504e-06
3.99059495501e-05
-3.11338035325e-05
-4.50938870343e-06
4.12537610048e-05
-3.52005910844e-05
1.5242431904e-06
3.8024456493e-05
-3.9201835806e-05
6.71279275717e-06
3.14982165921e-05
-4.26475813844e-05
1.04912864177e-05
2.28419573661e-05
-4.55483553766e-05
1.29616801972e-05
1.30304604743e-05
-4.77299619561e-05
1.43143244725e-05
2.70089208272e-06
-4.89616673549e-05
1.48942955372e-05
-7.78085561218e-06
-4.90975280722e-05
1.50269425683e-05
-1.79993527426e-05
-4.80951842852e-05
1.46731731109e-05
-2.71872965053e-05
-4.60363016429e-05
1.34278795272e-05
-3.42330278879e-05
-4.3135973306e-05
1.09455994707e-05
-3.7952059476e-05
-3.96475378937e-05
7.1590293914e-06
-3.71631628294e-05
-3.56723488436e-05
2.07740567987e-06
-3.10319105803e-05
-3.16102116539e-05
-3.81907253544e-06
-2.00806736949e-05
-2.82907317815e-05
-9.17165821283e-06
-7.08669092344e-06
-2.60470802123e-05
-1.15582234922e-05
-2.45676179855e-05
-5.83457301194e-06
6.01957320274e-06
-2.23434168468e-05
-7.81688426307e-06
1.8338153449e-05
-2.38210213342e-05
-1.40612776429e-05
2.91737289896e-05
-2.61292343299e-05
-1.25119116818e-05
3.56767026299e-05
-2.96289062374e-05
-8.00788046879e-06
3.72809993975e-05
-3.39051042466e-05
-2.89980409604e-06
3.4657815672e-05
-3.81654738981e-05
1.58683830752e-06
2.88964741592e-05
-4.17858301119e-05
4.89959935845e-06
2.1072799206e-05
-4.47949652277e-05
7.070288325e-06
1.21022963382e-05
-4.70113370905e-05
8.25187547348e-06
2.61579121205e-06
-4.82236797629e-05
8.7485105741e-06
-6.99241895446e-06
-4.8332570268e-05
8.84324040575e-06
-1.62956720255e-05
-4.73067909587e-05
8.51484456378e-06
-2.45762553529e-05
-4.51956266673e-05
7.43989115222e-06
-3.08269749249e-05
-4.21990128976e-05
5.31373912434e-06
-3.39600694837e-05
-3.85671379536e-05
2.05266930079e-06
-3.29421642666e-05
-3.43682742981e-05
-2.32201303967e-06
-2.71163651748e-05
-3.01174914073e-05
-7.31856072655e-06
-1.7007654982e-05
-2.66386208238e-05
-1.17608671375e-05
-5.40082451477e-06
-2.43352675898e-05
-1.33186905186e-05
-2.28057127438e-05
-7.1627720807e-06
4.60196069984e-06
-1.76813890278e-05
-9.26398822185e-06
1.53832637039e-05
-1.88175444391e-05
-1.5784776e-05
2.52527225685e-05
-2.07637464964e-05
-1.52349403841e-05
3.13994082038e-05
-2.38703564334e-05
-1.19052597448e-05
3.32131279869e-05
-2.77879728101e-05
-7.93085178563e-06
3.11693136045e-05
-3.17569699102e-05
-4.36468998536e-06
2.61825708615e-05
-3.50860533361e-05
-1.71302563782e-06
1.92224047514e-05
-3.78414760449e-05
6.68435955108e-09
1.11344761533e-05
-3.98575026526e-05
9.34095565229e-07
2.54132572768e-06
-4.09413081526e-05
1.31077414449e-06
-6.15060916395e-06
-4.10235139074e-05
1.38286811257e-06
-1.45159837409e-05
-4.00832536672e-05
1.14182227898e-06
-2.1880884131e-05
-3.81559296758e-05
3.25184966461e-07
-2.73332544111e-05
-3.54230570668e-05
-1.32360761867e-06
-2.98986820379e-05
-3.2103960322e-05
-3.89777765338e-06
-2.86888074471e-05
-2.82146464977e-05
-7.36353730435e-06
-2.32255940381e-05
-2.43253453997e-05
-1.1255401425e-05
-1.40771468753e-05
-2.12409037108e-05
-1.4546210062e-05
-3.99547078136e-06
-1.92934363252e-05
-1.51235544146e-05
-1.80999880561e-05
-8.70123685509e-06
3.90585370408e-06
-1.1157487897e-05
-1.04297223212e-05
1.32614353665e-05
-1.12906879407e-05
-1.68824380926e-05
2.21302328989e-05
-1.23428699607e-05
-1.72896890003e-05
2.78856959266e-05
-1.44522363962e-05
-1.51735853504e-05
2.98741735208e-05
-1.7401933821e-05
-1.23745157893e-05
2.83898909253e-05
-2.05345363516e-05
-9.73815061456e-06
2.41187553228e-05
-2.30976061287e-05
-7.71729987002e-06
1.78904371792e-05
-2.52778690085e-05
-6.33528088824e-06
1.04684132382e-05
-2.6885062195e-05
-5.5504147381e-06
2.48888352159e-06
-2.7744957626e-05
-5.21682593229e-06
-5.5760706928e-06
-2.78013514218e-05
-5.15722023541e-06
-1.32433376574e-05
-2.70408787112e-05
-5.37512526185e-06
-1.98447717619e-05
-2.54986689005e-05
-6.05584832761e-06
-2.45699815973e-05
-2.33404749849e-05
-7.35739835354e-06
-2.65885158417e-05
-2.07840932933e-05
-9.30136429905e-06
-2.52146373834e-05
-1.77434032923e-05
-1.18451586197e-05
-2.01459044571e-05
-1.48124130589e-05
-1.45817097336e-05
-1.19898799941e-05
-1.27201323983e-05
-1.66768472645e-05
-3.31901457569e-06
-1.16569058873e-05
-1.63074524982e-05
-1.14670197863e-05
-9.95201515892e-06
3.95482714995e-06
-4.48997790956e-06
-1.06223173503e-05
1.21779328426e-05
-3.53150079883e-06
-1.59822995631e-05
2.01514812529e-05
-3.46249929857e-06
-1.68539272893e-05
2.55513474016e-05
-4.15366699175e-06
-1.56984328309e-05
2.76109451394e-05
-5.55537499032e-06
-1.3906155521e-05
2.64887205769e-05
-7.30219644691e-06
-1.21101162389e-05
2.27343104474e-05
-8.6562454668e-06
-1.06869393064e-05
1.70202666546e-05
-9.95135859221e-06
-9.61246031225e-06
1.00347424802e-05
-1.09357735563e-05
-8.96376476644e-06
2.4451965081e-06
-1.14665278597e-05
-8.68889136851e-06
-5.22068192802e-06
-1.14994502561e-05
-8.63603767948e-06
-1.24311341613e-05
-1.10271816136e-05
-8.80326471727e-06
-1.85013382279e-05
-1.00835366265e-05
-9.34495302368e-06
-2.27004366181e-05
-8.80539430057e-06
-1.03360122022e-05
-2.43632064051e-05
-7.42235585528e-06
-1.16990013557e-05
-2.29218000695e-05
-5.77219465287e-06
-1.34126489748e-05
-1.82088535771e-05
-4.35396763032e-06
-1.51714379311e-05
-1.09349423327e-05
-3.67220677884e-06
-1.63218908647e-05
-3.37831933952e-06
-3.72900378674e-06
-1.54845797128e-05
-4.64277472508e-06
-1.02026105202e-05
4.87609604173e-06
-9.3660556573e-06
1.19846041573e-05
-1.0640003732e-05
1.89322011462e-05
-1.04100815486e-05
2.39737012241e-05
-9.19516705117e-06
2.61125230374e-05
-7.6941965289e-06
2.51301065518e-05
-6.31978064036e-06
2.18487081177e-05
-5.37484201029e-06
1.65068386735e-05
-4.60948818619e-06
9.77294528465e-06
-4.20188421994e-06
2.37982373869e-06
-4.07341559587e-06
-5.08540969e-06
-4.03423110141e-06
-1.20348229561e-05
-4.07778640081e-06
-1.7732503796e-05
-4.3858758561e-06
-2.14754264463e-05
-5.06249400695e-06
-2.29174719504e-05
-5.98033620749e-06
-2.14416384653e-05
-7.24805902598e-06
-1.70513387415e-05
-8.74430426304e-06
-1.07707698948e-05
-9.95281897455e-06
-4.30686675122e-06
-1.01929529e-05
-8.94965027552e-06
8.26520209289e-06
7.89286893911e-06
-2.55391374189e-05
1.63577934463e-05
9.70486110144e-06
-2.84400138776e-05
2.26978017225e-05
1.14903977954e-05
-2.82573502742e-05
2.66270902526e-05
1.35688902024e-05
-2.6728710383e-05
2.77628243216e-05
1.58020276362e-05
-2.46872522699e-05
2.62106308575e-05
1.78193382101e-05
-2.26542223226e-05
2.23579512745e-05
1.93850037908e-05
-2.09775782305e-05
1.67016636547e-05
2.06473685518e-05
-1.9672328214e-05
9.84802175036e-06
2.15509443997e-05
-1.89739172029e-05
2.41908838576e-06
2.2034456945e-05
-1.875577994e-05
-5.08447567849e-06
2.20725363921e-05
-1.86839364581e-05
-1.21581940718e-05
2.16532912573e-05
-1.87439359182e-05
-1.81658200062e-05
2.0790152634e-05
-1.92611391917e-05
-2.24615381431e-05
1.95395847642e-05
-2.04022080002e-05
-2.4536969665e-05
1.79721931469e-05
-2.19687688515e-05
-2.40125502941e-05
1.60183460431e-05
-2.38702666453e-05
-2.07615514211e-05
1.38098718086e-05
-2.58610815844e-05
-1.51177737403e-05
1.17534087617e-05
-2.73867984667e-05
-7.7008980037e-06
9.96138161663e-06
-2.75990105764e-05
8.07472836317e-06
-2.47648868774e-05
1.01667206529e-05
1.55591041695e-05
-2.84649266354e-05
1.79310526511e-05
1.7023994363e-05
-3.10822018418e-05
2.32892928527e-05
1.92457458448e-05
-3.00012928354e-05
2.63253208988e-05
2.21463478279e-05
-2.73652763028e-05
2.69508478816e-05
2.53670299986e-05
-2.41715073067e-05
2.5219353144e-05
2.84177720071e-05
-2.10630332693e-05
2.13755822697e-05
3.09596734168e-05
-1.85045435006e-05
1.59496619446e-05
3.29932594205e-05
-1.66164358257e-05
9.47367470976e-06
3.44509854963e-05
-1.54721181179e-05
2.45370785346e-06
3.52464663485e-05
-1.49672070299e-05
-4.64637510422e-06
3.53261901758e-05
-1.48799905886e-05
-1.13529776963e-05
3.46692574131e-05
-1.52080574252e-05
-1.71291465464e-05
3.32987117647e-05
-1.61792632098e-05
-2.14102703917e-05
3.12933497012e-05
-1.79143908725e-05
-2.36679848086e-05
2.87626622926e-05
-2.03357116805e-05
-2.36058495234e-05
2.57563348983e-05
-2.3306216506e-05
-2.11990118808e-05
2.25710343947e-05
-2.64109162181e-05
-1.65087791668e-05
1.96977376771e-05
-2.90072822573e-05
-9.45475292344e-06
1.74750661434e-05
-3.00804128493e-05
1.59371555213e-05
-2.75261916622e-05
1.19852906216e-05
2.14805058828e-05
-2.83596487483e-05
2.01914927753e-05
2.19853355202e-05
-3.00758274289e-05
2.54057933004e-05
2.40766913247e-05
-2.73774499808e-05
2.80629314184e-05
2.70715315901e-05
-2.28112501026e-05
2.82305526858e-05
3.04275403826e-05
-1.76671810633e-05
2.60551673191e-05
3.36434366551e-05
-1.28557866176e-05
2.18649145571e-05
3.63948759403e-05
-9.02789533672e-06
1.62077063977e-05
3.8596992799e-05
-6.34287811774e-06
9.5983606404e-06
4.01975015662e-05
-4.74524827234e-06
2.48262709626e-06
4.10958825873e-05
-4.00683504657e-06
-4.72493504062e-06
4.12103124734e-05
-3.89166023304e-06
-1.15909459863e-05
4.05104161196e-05
-4.41239283726e-06
-1.76185819233e-05
3.90316853295e-05
-5.83008409614e-06
-2.22508352206e-05
3.68668755071e-05
-8.37260324625e-06
-2.49307479092e-05
3.41228073571e-05
-1.20581857905e-05
-2.53049874122e-05
3.09245310103e-05
-1.67156226573e-05
-2.32444297516e-05
2.75931295167e-05
-2.17334089413e-05
-1.86825846845e-05
2.46270504622e-05
-2.62258129938e-05
-1.11993177849e-05
2.255010809e-05
-2.89060273551e-05
2.19991947687e-05
-2.72344402768e-05
1.40747913027e-05
2.50380846899e-05
-2.69269996421e-05
2.31054192661e-05
2.46794827375e-05
-2.75417564659e-05
2.840575355e-05
2.64108214316e-05
-2.29099497936e-05
3.07219605469e-05
2.90778090528e-05
-1.62714053009e-05
3.03194091365e-05
3.2086486778e-05
-9.23280930647e-06
2.75245679722e-05
3.49992303936e-05
-2.97115365683e-06
2.28149370498e-05
3.75692156348e-05
1.77795523196e-06
1.67820972289e-05
3.96677297731e-05
4.92988352129e-06
9.89015440167e-06
4.12121083646e-05
6.77750395653e-06
2.52387511827e-06
4.21018564032e-05
7.64204302624e-06
-4.95218979549e-06
4.22491738692e-05
7.7919018151e-06
-1.21431293678e-05
4.16143196706e-05
7.19653541528e-06
-1.85859821768e-05
4.02217177048e-05
5.53972738048e-06
-2.37464249044e-05
3.81610105847e-05
2.50122969494e-06
-2.70319898604e-05
3.55672049182e-05
-2.09890228975e-06
-2.79492425409e-05
3.26408867007e-05
-8.20822087365e-06
-2.62033151507e-05
2.96318752757e-05
-1.50893598864e-05
-2.15426754095e-05
2.69902460315e-05
-2.16224698763e-05
-1.32452020836e-05
2.5278799757e-05
-2.61982589415e-05
2.56145148629e-05
-2.55982477748e-05
1.63111463562e-05
2.58776634754e-05
-2.50065879209e-05
2.63264307789e-05
2.50314677657e-05
-2.44655087773e-05
3.17587175707e-05
2.6312466771e-05
-1.78789976353e-05
3.37200002292e-05
2.8415183272e-05
-9.33387038776e-06
3.27423046185e-05
3.0851289298e-05
-7.11907422275e-07
2.94139840215e-05
3.33862472169e-05
6.50383152262e-06
2.42238466599e-05
3.56895593736e-05
1.19444455199e-05
1.77391517499e-05
3.76152653123e-05
1.55882663698e-05
1.04095194272e-05
3.9076855158e-05
1.77077657072e-05
2.59226760202e-06
3.99499275018e-05
1.87183439104e-05
-5.36084124014e-06
4.0127505774e-05
1.89221751001e-05
-1.30557978676e-05
3.95635451087e-05
1.82605916125e-05
-2.0021399008e-05
3.82858521258e-05
1.63342664359e-05
-2.57024860103e-05
3.63932290787e-05
1.27543213309e-05
-2.95006095106e-05
3.4034609283e-05
7.37644106428e-06
-3.09606126923e-05
3.14367725664e-05
3.30893114647e-07
-2.95362210456e-05
2.89681240935e-05
-8.10201997928e-06
-2.47315453493e-05
2.68736987917e-05
-1.64887472832e-05
-1.54539360686e-05
2.56067931831e-05
-2.29765304639e-05
2.64343789817e-05
-2.34876134542e-05
1.83115514856e-05
2.41061096181e-05
-2.311027664e-05
2.9365261036e-05
2.30752325163e-05
-2.14761641186e-05
3.49617472314e-05
2.39118488117e-05
-1.31668924129e-05
3.66129982337e-05
2.53845584306e-05
-3.13785195733e-06
3.5256984618e-05
2.72696594377e-05
6.46094936359e-06
3.14778806139e-05
2.93336481875e-05
1.45456596476e-05
2.58334928454e-05
3.12780450119e-05
2.05559877699e-05
1.88901594832e-05
3.29550912926e-05
2.45871313978e-05
1.10619793623e-05
3.42751671111e-05
2.69832207545e-05
2.69528871286e-06
3.50924620429e-05
2.81714983371e-05
-5.84014084483e-06
3.52890216497e-05
2.84593837201e-05
-1.41214306914e-05
3.48179755555e-05
2.77533132568e-05
-2.16514051395e-05
3.3706366858e-05
2.5579695969e-05
-2.78529368182e-05
3.20662551045e-05
2.15089224759e-05
-3.21056186897e-05
3.00493154719e-05
1.54257911817e-05
-3.38996100208e-05
2.78871210922e-05
7.44137187182e-06
-3.27479961024e-05
2.59170523081e-05
-1.91715885131e-06
-2.7758419359e-05
2.44216327084e-05
-1.17330405254e-05
-1.74361055709e-05
2.35807858592e-05
-1.99017506606e-05
2.4591952596e-05
-2.1476199995e-05
1.98797684178e-05
2.00929468867e-05
-2.15274593303e-05
3.18936853748e-05
1.90681065109e-05
-1.90077531014e-05
3.76844138395e-05
1.95417197508e-05
-9.40993281124e-06
3.91398123349e-05
2.04638987755e-05
1.56875788597e-06
3.75212939683e-05
2.18379571646e-05
1.18656495316e-05
3.34115493552e-05
2.34050802838e-05
2.05290954975e-05
2.73995299706e-05
2.49251013688e-05
2.69773606576e-05
2.00514373512e-05
2.62719952315e-05
3.13962928934e-05
1.17545908641e-05
2.73860919427e-05
3.41176669068e-05
2.83413358082e-06
2.81442932553e-05
3.55333468639e-05
-6.29201722409e-06
2.83398055964e-05
3.59309228523e-05
-1.51392905551e-05
2.79189242126e-05
3.51842975364e-05
-2.32004076131e-05
2.70063646992e-05
3.2767566555e-05
-2.98674501498e-05
2.5699284599e-05
2.8236863936e-05
-3.44869919677e-05
2.41108657596e-05
2.15593973691e-05
-3.6524094062e-05
2.24390853729e-05
1.28739208935e-05
-3.55167227898e-05
2.09690404249e-05
2.73744610042e-06
-3.03087842945e-05
1.99798768411e-05
-7.97461008373e-06
-1.90105762016e-05
1.94815298053e-05
-1.74108224209e-05
2.04807720662e-05
-1.9856484288e-05
2.11264562701e-05
1.43389909546e-05
-2.0316563466e-05
3.38847719868e-05
1.35411713965e-05
-1.72056187421e-05
3.98176005e-05
1.37646797309e-05
-6.80583046627e-06
4.11541768466e-05
1.42827899098e-05
4.62121109653e-06