/*--------------------------------*- C++ -*----------------------------------*\
| =========                 |                                                 |
| \\      /  F ield         | OpenFOAM: The Open Source CFD Toolbox           |
|  \\    /   O peration     | Version:  3.0.1                                 |
|   \\  /    A nd           | Web:      www.OpenFOAM.org                      |
|    \\/     M anipulation  |                                                 |
\*---------------------------------------------------------------------------*/
FoamFile
{
    version     2.0;
    format      ascii;
    class       volScalarField;
    location    "8.7";
    object      ddt0(epsilon);
}
// * * * * * * * * * * * * * * * * * * * * * * * * * * * * * * * * * * * * * //

dimensions      [0 2 -4 0 0 0 0];

internalField   nonuniform List<scalar> 
7968
(
-1.53562241773e-05
-1.93826581562e-05
-2.28162677663e-05
-2.51056010414e-05
-2.65044506407e-05
-2.7238528556e-05
-2.75194007288e-05
-2.75279545482e-05
-2.7440687873e-05
-2.73559695911e-05
-2.74509761992e-05
-2.76120087904e-05
-2.77224040331e-05
-2.77077805867e-05
-2.74018235601e-05
-2.6652487449e-05
-2.52100174544e-05
-2.28858975258e-05
-1.94274357462e-05
-1.53883363348e-05
-1.93758647598e-05
-3.73225251422e-05
-5.0980007954e-05
-5.93462118999e-05
-6.37245484062e-05
-6.53280235336e-05
-6.53428500312e-05
-6.46599624561e-05
-6.40075728895e-05
-6.36991027622e-05
-6.38232318536e-05
-6.42841662068e-05
-6.50173193031e-05
-6.57170645897e-05
-6.56760624912e-05
-6.40557273166e-05
-5.95844745736e-05
-5.11344715265e-05
-3.74166347935e-05
-1.94365903097e-05
-2.28180505643e-05
-5.10171515151e-05
-7.22917634915e-05
-8.5285868919e-05
-9.20095554531e-05
-9.43831609593e-05
-9.42353270038e-05
-9.31735687056e-05
-9.22103152014e-05
-9.17753807784e-05
-9.19145519392e-05
-9.25309541864e-05
-9.36025523692e-05
-9.47031190929e-05
-9.48313917534e-05
-9.24066967058e-05
-8.55671053969e-05
-7.24643513013e-05
-5.11162399004e-05
-2.28976096485e-05
-2.51217381011e-05
-5.9435983043e-05
-8.53565098788e-05
-0.000100909268737
-0.000108490124553
-0.000110570882397
-0.000109584096645
-0.000107943210095
-0.0001053858797
-0.000104730938691
-0.000104823079544
-0.00010555184054
-0.000107530936208
-0.000110065461164
-0.000111068425982
-0.000108913870505
-0.000101182012825
-8.55048686776e-05
-5.95203898396e-05
-2.52039912648e-05
-2.65401534548e-05
-6.38602157935e-05
-9.21464042995e-05
-0.00010856214503
-0.00011559547313
-0.000116309579794
-0.000116950245852
-0.000116432398392
-0.000115366220309
-0.000114796022796
-0.000114881141063
-0.00011555180591
-0.000116697039913
-0.000117302455357
-0.000116684264488
-0.000116040592851
-0.00010883757007
-9.22703162512e-05
-6.39271073124e-05
-2.66191408378e-05
-2.72809114522e-05
-6.54702571237e-05
-9.45470169829e-05
-0.000110673334589
-0.00011634981162
-0.000120239097225
-0.000121498862038
-0.000120992099105
-0.000119953118857
-0.000119278782095
-0.000119359111
-0.000120133081679
-0.000121255542923
-0.000121802347466
-0.000120545608901
-0.000116649848674
-0.000110968863802
-9.46686317214e-05
-6.55356483598e-05
-2.73555646507e-05
-2.75699194445e-05
-6.54884968458e-05
-9.43976975006e-05
-0.000109666904223
-0.000116997986096
-0.000121508928688
-0.000122634813452
-0.000121687890069
-0.000120205352309
-0.000119244589228
-0.000119320669769
-0.000120372344097
-0.000121930275674
-0.000122926567597
-0.000121803456421
-0.000117266450332
-0.000110001051266
-9.45481436745e-05
-6.55680960915e-05
-2.76448275862e-05
-2.75747992599e-05
-6.47800610884e-05
-9.32888969028e-05
-0.000107956763057
-0.000116438630219
-0.000120972539871
-0.000121662362688
-0.000120044330243
-0.000117903484603
-0.000116561381233
-0.000116644430296
-0.00011808995306
-0.000120291664378
-0.000121967709329
-0.000121291557651
-0.00011664590352
-0.000107158486312
-9.34883971603e-05
-6.48873495713e-05
-2.76521412853e-05
-2.74673879818e-05
-6.40590912903e-05
-9.22380446236e-05
-0.000105474003685
-0.000115360132773
-0.000119888440095
-0.000120132085449
-0.0001178544026
-0.000115058499861
-0.000113194816093
-0.000113300880215
-0.000115272721782
-0.000118140142961
-0.000120460406869
-0.000120222319214
-0.000115592098275
-0.000105501635923
-9.24955055593e-05
-6.42010132104e-05
-2.75489585605e-05
-2.7341444734e-05
-6.36458740679e-05
-9.16763876792e-05
-0.000104690278678
-0.000114698059256
-0.000119143145784
-0.000119110152453
-0.000116457684863
-0.000113122821959
-0.0001107961313
-0.000110937960981
-0.000113367417493
-0.000116746202785
-0.000119458081393
-0.000119502113003
-0.000114987285621
-0.000104863787407
-9.19672350074e-05
-6.38119290306e-05
-2.74278832878e-05
-2.73244145377e-05
-6.36171989647e-05
-9.16410332274e-05
-0.000104658846372
-0.000114664897141
-0.000119107772625
-0.000119071453527
-0.000116412851911
-0.000113066262332
-0.000110724648875
-0.000110862016621
-0.000113302552419
-0.000116692244285
-0.00011940984714
-0.000119457282113
-0.000114944158931
-0.000104821214809
-9.19203293735e-05
-6.37751566044e-05
-2.74072658151e-05
-2.7434929576e-05
-6.39830851815e-05
-9.21417913361e-05
-0.000105390065857
-0.000115270613222
-0.000119793775606
-0.000120030756657
-0.00011774036091
-0.000114924745344
-0.000113036421647
-0.000113134092281
-0.00011512168734
-0.000118006636141
-0.000120336654993
-0.00012010406517
-0.000115476290052
-0.000105386591584
-9.236789345e-05
-6.41037186537e-05
-2.75092593015e-05
-2.7536392325e-05
-6.46681585488e-05
-9.31398737562e-05
-0.0001077969796
-0.000116289827791
-0.000120822105648
-0.000121502984694
-0.000119868271057
-0.000117707554279
-0.000116343367356
-0.000116417048318
-0.000117874621447
-0.000120088396899
-0.00012177720606
-0.000121108305152
-0.000116467534399
-0.000106992130134
-9.32943754499e-05
-6.47450452196e-05
-2.76042724429e-05
-2.75308099305e-05
-6.5358679376e-05
-9.4213978252e-05
-0.000109452849965
-0.00011680509206
-0.000121313356713
-0.000122427333925
-0.000121462162164
-0.000119957178178
-0.00011897633427
-0.000119043225702
-0.000120101920582
-0.000121673174589
-0.000122682381306
-0.000121568375577
-0.000117029075812
-0.000109726340745
-9.43085213786e-05
-6.54003395223e-05
-2.75952529491e-05
-2.724683033e-05
-6.53391764562e-05
-9.43503270957e-05
-0.000110427624256
-0.000116122147216
-0.000120011421791
-0.00012125597725
-0.000120730695809
-0.000119668411532
-0.000118976408157
-0.000119048021365
-0.000119825692889
-0.000120959092036
-0.000121519556092
-0.000120274037795
-0.000116370121219
-0.00011065572283
-9.44113863537e-05
-6.53640510159e-05
-2.73109893882e-05
-2.65151788974e-05
-6.37422180814e-05
-9.196413816e-05
-0.000108325079449
-0.000115305277925
-0.000116056078169
-0.000116677282831
-0.000116140471012
-0.000115052384409
-0.000114472045627
-0.000114549573252
-0.000115216488205
-0.000116352698258
-0.000116984493196
-0.000116377879861
-0.000115678013143
-0.000108529093784
-9.20275871403e-05
-6.37700407372e-05
-2.65841364002e-05
-2.51074411978e-05
-5.93488973411e-05
-8.52152636137e-05
-0.000100715218063
-0.000108239681848
-0.000110263456537
-0.000109235977266
-0.000107570731032
-0.000105050445017
-0.000104402642801
-0.000104488770527
-0.000105194952177
-0.000107040211145
-0.000109658369607
-0.000110692379062
-0.000108589508321
-0.000100918243657
-8.53068046693e-05
-5.93969207968e-05
-2.51809333976e-05
-2.28130410954e-05
-5.09685621329e-05
-7.2208631222e-05
-8.51599233955e-05
-9.18344340282e-05
-9.4159951241e-05
-9.39720355684e-05
-9.28785219129e-05
-9.18867781711e-05
-9.14309712074e-05
-9.15600460777e-05
-9.21785176685e-05
-9.32596273143e-05
-9.43828091013e-05
-9.45443514212e-05
-9.21666370491e-05
-8.53820631694e-05
-7.2333260644e-05
-5.10366685e-05
-2.28859763106e-05
-1.93773501269e-05
-3.73110457637e-05
-5.0954823329e-05
-5.92978876915e-05
-6.36410452427e-05
-6.52104595428e-05
-6.51966290299e-05
-6.44885785605e-05
-6.38129890613e-05
-6.34873249951e-05
-6.36042338762e-05
-6.40697461078e-05
-6.48158167101e-05
-6.55342854614e-05
-6.55174811887e-05
-6.393075763e-05
-5.94984345467e-05
-5.10783695055e-05
-3.738645881e-05
-1.94350241626e-05
-1.53582079125e-05
-1.93856528542e-05
-2.2819920776e-05
-2.51061207556e-05
-2.64965804206e-05
-2.72192534636e-05
-2.74897063719e-05
-2.74877714077e-05
-2.73910656022e-05
-2.72984171226e-05
-2.73897296442e-05
-2.75555144781e-05
-2.76737303458e-05
-2.76691082992e-05
-2.7373443664e-05
-2.66358407359e-05
-2.52033706733e-05
-2.28846424004e-05
-1.94284042909e-05
-1.53905258058e-05
-1.83669066834e-05
-3.21256792964e-05
-4.37483283146e-05
-5.18056683382e-05
-5.68244772527e-05
-5.95266034397e-05
-6.06549586688e-05
-6.08613580662e-05
-6.07134466123e-05
-6.05757132672e-05
-6.06622649377e-05
-6.09171454384e-05
-6.11227591464e-05
-6.09192930384e-05
-5.97595353129e-05
-5.70142634074e-05
-5.19343993698e-05
-4.38245599807e-05
-3.21791219545e-05
-1.84325597728e-05
-3.20942236383e-05
-4.06562620441e-05
-5.08041539871e-05
-5.82977092721e-05
-6.31756345128e-05
-6.59841804449e-05
-6.73617058317e-05
-6.78706900217e-05
-6.79873496684e-05
-6.80048397683e-05
-6.80600038681e-05
-6.81117393153e-05
-6.802776947e-05
-6.75213953391e-05
-6.61325082047e-05
-6.33097415317e-05
-5.84128597738e-05
-5.09106044342e-05
-4.07757311936e-05
-3.22095351902e-05
-4.37119893804e-05
-5.07741680527e-05
-6.16716331081e-05
-6.99344927303e-05
-7.53112718217e-05
-7.83320808156e-05
-7.97132977527e-05
-8.01756347755e-05
-8.02387036469e-05
-8.02286539728e-05
-8.02781661057e-05
-8.03475677063e-05
-8.03085803346e-05
-7.98457781526e-05
-7.8456412699e-05
-7.54298901624e-05
-7.00470848994e-05
-6.17972406485e-05
-5.09320361121e-05
-4.3868231272e-05
-5.17870559247e-05
-5.82538886412e-05
-6.99174866145e-05
-7.88617711718e-05
-8.46342888536e-05
-8.78061966954e-05
-8.91392307408e-05
-8.96750468133e-05
-8.96992242421e-05
-8.96961726032e-05
-8.97341931687e-05
-8.97738651325e-05
-8.97054468348e-05
-8.92254544087e-05
-8.7906733733e-05
-8.47410521204e-05
-7.89701717665e-05
-7.00516515349e-05
-5.84339145171e-05
-5.19618091406e-05
-5.68259560326e-05
-6.31288756621e-05
-7.52927340051e-05
-8.46343310434e-05
-9.06699623871e-05
-9.41829896765e-05
-9.63404364392e-05
-9.73563054066e-05
-9.76609317993e-05
-9.77211543542e-05
-9.77590343809e-05
-9.77377957631e-05
-9.74355109631e-05
-9.64055039674e-05
-9.42428337462e-05
-9.07069175551e-05
-8.47328690355e-05
-7.54256812678e-05
-6.33178960742e-05
-5.70126933699e-05
-5.95330540606e-05
-6.59336655117e-05
-7.83163326984e-05
-8.78130971444e-05
-9.4189455007e-05
-9.87754536698e-05
-0.000101592607888
-0.000102955739189
-0.000103411766406
-0.000103505357969
-0.000103547045412
-0.000103493079118
-0.000103027105754
-0.000101628245168
-9.87998541883e-05
-9.4230073746e-05
-8.78908348612e-05
-7.84436389818e-05
-6.61285627123e-05
-5.97359240609e-05
-6.06556097729e-05
-6.73078893392e-05
-7.96979585382e-05
-8.91467558288e-05
-9.63561653592e-05
-0.000101606584539
-0.000104833423073
-0.000106365465753
-0.000106833162897
-0.000106898144773
-0.00010694326589
-0.000106909902495
-0.000106406646955
-0.000104825509611
-0.00010159352577
-9.63724585923e-05
-8.92030895163e-05
-7.98285346721e-05
-6.75087982552e-05
-6.08815320403e-05
-6.08330958786e-05
-6.78036889774e-05
-8.01488026681e-05
-8.9675398416e-05
-9.73730369787e-05
-0.000102983873857
-0.000106396996715
-0.000107926871629
-0.00010829238799
-0.000108309624874
-0.000108356390628
-0.000108370935943
-0.000107931012378
-0.000106344603736
-0.000102946710126
-9.73771174002e-05
-8.96544234867e-05
-8.02928213254e-05
-6.80159928061e-05
-6.10887889134e-05
-6.06225555281e-05
-6.78852310714e-05
-8.01837823051e-05
-8.9688832962e-05
-9.76651784915e-05
-0.000103438295469
-0.000106893852201
-0.000108338457651
-0.000108604001981
-0.000108444493516
-0.000108497140158
-0.000108662261994
-0.000108322815419
-0.000106812285981
-0.000103393438461
-9.76797786078e-05
-8.97471977059e-05
-8.03470333927e-05
-6.81146660035e-05
-6.09118430775e-05
-6.03946015383e-05
-6.78483717405e-05
-8.01260921411e-05
-8.96445344807e-05
-9.7686263778e-05
-0.000103501459428
-0.000106951152862
-0.00010838387604
-0.000108470655913
-0.000108151304129
-0.000108216707653
-0.000108518286376
-0.000108309338563
-0.000106857513956
-0.000103462171211
-9.77178696471e-05
-8.97291252488e-05
-8.03011178123e-05
-6.80929615282e-05
-6.0710355649e-05
-6.03682998834e-05
-6.78320177263e-05
-8.01104312596e-05
-8.96301386365e-05
-9.76709619544e-05
-0.000103484282498
-0.0001069312995
-0.000108360432664
-0.000108442924117
-0.000108118867036
-0.000108183065657
-0.000108488727793
-0.000108284457721
-0.000106835431271
-0.000103442950848
-9.77003584971e-05
-8.97119359563e-05
-8.02815505366e-05
-6.80727338486e-05
-6.06798739809e-05
-6.05557671188e-05
-6.78419883633e-05
-8.01411383768e-05
-8.9649367592e-05
-9.76235728698e-05
-0.000103392554531
-0.000106842741683
-0.000108280969206
-0.00010854436039
-0.000108379791787
-0.000108428968373
-0.000108597680584
-0.000108263345353
-0.000106756776103
-0.00010334319351
-9.76324905497e-05
-8.97000249198e-05
-8.029347744e-05
-6.80609757644e-05
-6.08334773493e-05
-6.07395003907e-05
-6.77419767353e-05
-8.00850926521e-05
-8.96131681091e-05
-9.73106670159e-05
-0.000102918053238
-0.000106326612582
-0.000107853317023
-0.000108220173462
-0.000108237296039
-0.000108279025266
-0.000108290938955
-0.0001078482427
-0.00010626704958
-0.00010287412391
-9.73063694326e-05
-8.95830922552e-05
-8.02127309408e-05
-6.79383103477e-05
-6.0977805623e-05
-6.05482764424e-05
-6.72366023927e-05
-7.96206236885e-05
-8.90666662819e-05
-9.62797656266e-05
-0.000101530182037
-0.000104754515516
-0.000106283544739
-0.000106748703521
-0.000106809328721
-0.000106849105866
-0.000106813318891
-0.000106310961492
-0.000104734415849
-0.000101505430057
-9.62826215228e-05
-8.91064204109e-05
-7.97305875723e-05
-6.74182281118e-05
-6.07541988062e-05
-5.94252696088e-05
-6.58601717031e-05
-7.8231849891e-05
-8.77172161478e-05
-9.40996332057e-05
-9.86899031013e-05
-0.000101506479723
-0.000102865972307
-0.000103315483563
-0.000103402450851
-0.000103440128752
-0.000103386859721
-0.000102923864014
-0.000101527917816
-9.86990904153e-05
-9.41231694466e-05
-8.77739308182e-05
-7.83365461023e-05
-6.603526041e-05
-5.9608453763e-05
-5.67296987346e-05
-6.30596115148e-05
-7.52091920844e-05
-8.45344611364e-05
-9.05605482475e-05
-9.40813292604e-05
-9.62392861167e-05
-9.72523367008e-05
-9.75502516328e-05
-9.76044806083e-05
-9.76390082961e-05
-9.76186010271e-05
-9.73170244632e-05
-9.62892111364e-05
-9.41241561588e-05
-9.05755488898e-05
-8.46089820572e-05
-7.53192804589e-05
-6.32296768398e-05
-5.68979786166e-05
-5.17131163024e-05
-5.81964603436e-05
-6.9843038888e-05
-7.8768019058e-05
-8.45230000299e-05
-8.76812655733e-05
-8.90134170534e-05
-8.95468129133e-05
-8.95698122928e-05
-8.95625843555e-05
-8.95975332158e-05
-8.96357912452e-05
-8.95592687704e-05
-8.90827349357e-05
-8.77613516595e-05
-8.46057101157e-05
-7.88522580465e-05
-6.99556047326e-05
-5.83594503203e-05
-5.18726453231e-05
-4.36649679246e-05
-5.07305202097e-05
-6.16109399523e-05
-6.98543545826e-05
-7.5211075035e-05
-7.82136152929e-05
-7.95803240215e-05
-8.00300942008e-05
-8.0080911563e-05
-8.0061498211e-05
-8.01070511721e-05
-8.01788273404e-05
-8.01461761101e-05
-7.96928895224e-05
-7.83156834182e-05
-7.5306827993e-05
-6.99453134531e-05
-6.17178244612e-05
-5.08749472293e-05
-4.38102734487e-05
-3.20724604123e-05
-4.06276681598e-05
-5.07587194509e-05
-5.82341374863e-05
-6.30910831378e-05
-6.58790127573e-05
-6.72385693787e-05
-6.77318296142e-05
-6.7834129311e-05
-6.78412832146e-05
-6.78925594499e-05
-6.79479083856e-05
-6.78734803815e-05
-6.73805669927e-05
-6.60086429409e-05
-6.32063577602e-05
-5.83321155522e-05
-5.08514465602e-05
-4.07378473777e-05
-3.21830274715e-05
-1.83637991321e-05
-3.2103212018e-05
-4.37113597176e-05
-5.17534604218e-05
-5.67527561959e-05
-5.94330445831e-05
-6.05411777577e-05
-6.07287730116e-05
-6.05642363088e-05
-6.04143776885e-05
-6.04966185399e-05
-6.07563813353e-05
-6.09736588654e-05
-6.0787261348e-05
-5.96475881644e-05
-5.69247067696e-05
-5.18672513544e-05
-4.37767832384e-05
-3.21515835748e-05
-1.8430625378e-05
-2.04789916654e-05
-4.076933368e-05
-5.8407452853e-05
-7.10775109378e-05
-7.92651769363e-05
-8.39433874141e-05
-8.61346823443e-05
-8.67782656658e-05
-8.67184018234e-05
-8.65484935117e-05
-8.65950845128e-05
-8.6861484539e-05
-8.7009772774e-05
-8.64154636005e-05
-8.42218172534e-05
-7.95072079951e-05
-7.12560543367e-05
-5.85134031653e-05
-4.08312876261e-05
-2.05829671306e-05
-4.06932645997e-05
-4.86430759208e-05
-6.00254773898e-05
-6.90561680664e-05
-7.54185735717e-05
-7.95087868534e-05
-8.18814529709e-05
-8.30744442843e-05
-8.35762953926e-05
-8.37445867882e-05
-8.37849567038e-05
-8.36805830403e-05
-8.32206486819e-05
-8.20352134758e-05
-7.96508910224e-05
-7.5550140246e-05
-6.91794812241e-05
-6.01530809958e-05
-4.8795403331e-05
-4.0914038982e-05
-5.83091515441e-05
-5.99624424423e-05
-6.96968722049e-05
-7.80224499198e-05
-8.40043306465e-05
-8.78561670878e-05
-9.01385428604e-05
-9.13068171457e-05
-9.17747637004e-05
-9.1948173806e-05
-9.19824004546e-05
-9.18578406273e-05
-9.14126813564e-05
-9.02512251653e-05
-8.79453408114e-05
-8.40985414464e-05
-7.81345545705e-05
-6.98517107062e-05
-6.01871580937e-05
-5.86218228655e-05
-7.09809486846e-05
-6.89541312572e-05
-7.79751745841e-05
-8.59978052795e-05
-9.17797509804e-05
-9.53647478251e-05
-9.78038260465e-05
-9.90614428997e-05
-9.96071653675e-05
-9.98097377794e-05
-9.98428012399e-05
-9.96878242469e-05
-9.91617655579e-05
-9.78918018309e-05
-9.54006448354e-05
-9.18582809535e-05
-8.61089903509e-05
-7.81546038837e-05
-6.92251640639e-05
-7.13634003147e-05
-7.91586273603e-05
-7.52917226505e-05
-8.39365025442e-05
-9.1761773353e-05
-9.74460005451e-05
-0.000101558697465
-0.000104145395079
-0.000105593433498
-0.000106281650603
-0.000106531460805
-0.000106567586351
-0.000106369365953
-0.000105745214128
-0.00010429128005
-0.000101625448488
-9.75663755576e-05
-9.18652621203e-05
-8.41245608715e-05
-7.55965775526e-05
-7.96084058325e-05
-8.38021081276e-05
-7.93641636701e-05
-8.77860744853e-05
-9.53512254054e-05
-0.000101553996473
-0.000105956649403
-0.000108818935738
-0.000110566394961
-0.000111420420714
-0.00011169695955
-0.000111732483563
-0.000111496862166
-0.000110808601852
-0.000109199409852
-0.000106174128139
-0.000101628217981
-9.54111838625e-05
-8.79711523329e-05
-7.969686717e-05
-8.43287244956e-05
-8.59392047473e-05
-8.17217636962e-05
-9.00641949298e-05
-9.77796099959e-05
-0.000104144645016
-0.000108727125213
-0.000111926059035
-0.000113996273453
-0.000114975352474
-0.000115242418663
-0.000115267051538
-0.000114995267096
-0.000114258598241
-0.00011257151787
-0.000109287859485
-0.000104290492304
-9.79084552238e-05
-9.02754729401e-05
-8.20847825933e-05
-8.65474729912e-05
-8.65036015828e-05
-8.28922816503e-05
-9.12200562844e-05
-9.90303307121e-05
-0.000105536320481
-0.000110284362873
-0.000113777906194
-0.0001160390304
-0.000117044243149
-0.00011725712244
-0.000117271547664
-0.000117002460369
-0.000116235234778
-0.000114491019099
-0.000111086242249
-0.000105792962312
-9.91788147455e-05
-9.14219752969e-05
-8.32835163207e-05
-8.71873514812e-05
-8.63428529606e-05
-8.33491635981e-05
-9.16775529148e-05
-9.95513032364e-05
-0.000106152407346
-0.000111032909042
-0.000114676751131
-0.000116973819641
-0.000117873145987
-0.000117980316223
-0.000117997182564
-0.000117807648105
-0.000117098217842
-0.000115341400183
-0.000111877880608
-0.00010646926958
-9.97215039988e-05
-9.18895532624e-05
-8.37680487153e-05
-8.70893413721e-05
-8.60727253036e-05
-8.34588818944e-05
-9.1804853526e-05
-9.97089696484e-05
-0.000106355316712
-0.000111289395206
-0.000114980446724
-0.000117252710824
-0.000118066992153
-0.000118101336663
-0.000118128138287
-0.000117995487395
-0.000117340503661
-0.000115603018796
-0.00011212676558
-0.000106687663775
-9.98933142702e-05
-9.1881292278e-05
-8.39028258046e-05
-8.68638298612e-05
-8.60344600539e-05
-8.34404533124e-05
-9.17907015733e-05
-9.96968844238e-05
-0.000106343723814
-0.000111277630839
-0.000114967255655
-0.000117235727719
-0.000118048468192
-0.000118082044414
-0.000118108922901
-0.000117977931105
-0.000117325019144
-0.000115589691821
-0.000112114060148
-0.000106674153425
-9.98785873866e-05
-9.18662312931e-05
-8.38803092574e-05
-8.68201434856e-05
-8.62397128338e-05
-8.32992175485e-05
-9.16380354895e-05
-9.95169464421e-05
-0.000106119045365
-0.000110999889647
-0.000114642746421
-0.000116938366651
-0.000117843462493
-0.000117953325555
-0.000117967306389
-0.000117773783925
-0.000117062548213
-0.000115307807534
-0.000111843502475
-0.00010643118901
-9.96791477018e-05
-9.18395894504e-05
-8.37079771087e-05
-8.69729763169e-05
-8.63524784145e-05
-8.28215323034e-05
-9.11610216746e-05
-9.89787961992e-05
-0.000105488575009
-0.000110242724525
-0.000113748026768
-0.000116022352335
-0.000117041641997
-0.000117258098755
-0.000117265526408
-0.000116984375789
-0.000116203845641
-0.000114453059743
-0.000111039848287
-0.000105735923777
-9.91146246224e-05
-9.13479660114e-05
-8.31968544356e-05
-8.70154697646e-05
-8.575910577e-05
-8.16398223995e-05
-8.99941410978e-05
-9.77162336247e-05
-0.00010408750328
-0.000108683640561
-0.000111905316325
-0.00011399394086
-0.000114983468529
-0.000115251273611
-0.00011526783359
-0.000114980563571
-0.000114229055678
-0.000112529488056
-0.00010922913436
-0.000104217196669
-9.78283713676e-05
-9.0186634129e-05
-8.19851017991e-05
-8.63439543949e-05
-8.36113477961e-05
-7.9277429724e-05
-8.77083111826e-05
-9.52755638287e-05
-0.000101482770918
-0.000105897300253
-0.000108778173286
-0.000110537897294
-0.000111390459649
-0.000111660637353
-0.00011169022025
-0.000111448902193
-0.000110755131896
-0.000109134830105
-0.000106093203484
-0.000101539473223
-9.53230535741e-05
-8.78760106954e-05
-7.95951849399e-05
-8.41181605491e-05
-7.89773657416e-05
-7.52068098906e-05
-8.3854875882e-05
-9.16736420354e-05
-9.7362046156e-05
-0.000101472935728
-0.000104062804475
-0.000105507510277
-0.000106185723366
-0.000106426704105
-0.000106458255175
-0.000106261438997
-0.000105639761557
-0.000104187166044
-0.000101522314242
-9.74665069919e-05
-9.17607501216e-05
-8.40275192712e-05
-7.55007422365e-05
-7.94123935223e-05
-7.08270244129e-05
-6.88763942552e-05
-7.78935811918e-05
-8.59042592802e-05
-9.16757813639e-05
-9.52575690951e-05
-9.76916952222e-05
-9.89383035776e-05
-9.9469866967e-05
-9.96629779959e-05
-9.96922398024e-05
-9.95399164699e-05
-9.90206563493e-05
-9.77614990773e-05
-9.5282714295e-05
-9.17389623759e-05
-8.60002516047e-05
-7.8061160537e-05
-6.91405948793e-05
-7.12005151174e-05
-5.81934592291e-05
-5.98941305083e-05
-6.96155516977e-05
-7.79271109882e-05
-8.38934514477e-05
-8.77310643154e-05
-8.99988506305e-05
-9.11479622092e-05
-9.15972623369e-05
-9.17599547421e-05
-9.17903709704e-05
-9.16694856407e-05
-9.12341427305e-05
-9.00936356316e-05
-8.78045629951e-05
-8.3973561111e-05
-7.8027790505e-05
-6.97637444871e-05
-6.01144354328e-05
-5.85021325058e-05
-4.06219739035e-05
-4.858180685e-05
-5.99468022655e-05
-6.89578861705e-05
-7.53004305579e-05
-7.93708997985e-05
-8.17244519547e-05
-8.28983100775e-05
-8.33816704468e-05
-8.35386936719e-05
-8.35749112855e-05
-8.34747482254e-05
-8.3028350595e-05
-8.18620674164e-05
-7.94993154358e-05
-7.5421567276e-05
-6.90735324043e-05
-6.00688977913e-05
-4.87312151075e-05
-4.08426781517e-05
-2.04614385313e-05
-4.07097130213e-05
-5.83165966514e-05
-7.09629898392e-05
-7.91227554341e-05
-8.37705728225e-05
-8.59325711512e-05
-8.65499623011e-05
-8.64675120596e-05
-8.62836374215e-05
-8.63248619338e-05
-8.65957640446e-05
-8.67602161441e-05
-8.61916468456e-05
-8.40294283329e-05
-7.93493307597e-05
-7.11304875254e-05
-5.84157238937e-05
-4.07687933089e-05
-2.0570371127e-05
-2.17684522077e-05
-4.76005802808e-05
-7.02928334437e-05
-8.67652871087e-05
-9.76487216383e-05
-0.000104074882492
-0.000107288289049
-0.000108447940315
-0.00010865428031
-0.000108634764483
-0.000108673124142
-0.000108751322724
-0.000108647334709
-0.000107586637313
-0.00010440578926
-9.79535032333e-05
-8.70612541665e-05
-7.05080288997e-05
-4.77138793954e-05
-2.19150832172e-05
-4.7462067942e-05
-5.55427638936e-05
-6.85041090561e-05
-7.90537065611e-05
-8.67306669658e-05
-9.18843545199e-05
-9.50398891783e-05
-9.67149659254e-05
-9.7447597659e-05
-9.77145682869e-05
-9.77305848045e-05
-9.74885690121e-05
-9.6780370591e-05
-9.51328320393e-05
-9.1976550312e-05
-8.68334006388e-05
-7.91784102804e-05
-6.86616492692e-05
-5.57376305436e-05
-4.78443754738e-05
-7.01305769099e-05
-6.84162682559e-05
-7.83396308521e-05
-8.72200197115e-05
-9.38813594868e-05
-9.84092847097e-05
-0.000101245083475
-0.000102723484535
-0.000102998239622
-0.000103208953036
-0.000103218905515
-0.00010301796195
-0.000102566217998
-0.000101358596158
-9.85028941127e-05
-9.39571082004e-05
-8.73187825094e-05
-7.85040149047e-05
-6.86883507029e-05
-7.06633497309e-05
-8.65721175201e-05
-7.89011440704e-05
-8.71548145891e-05
-9.50840437338e-05
-0.000101049943279
-0.000105042943117
-0.000107671605482
-0.000109263929657
-0.000110026709869
-0.00011031428409
-0.000110343546705
-0.000110109007322
-0.000109499595367
-0.000108072868328
-0.000105296542388
-0.000101149545157
-9.5196465156e-05
-8.73403052945e-05
-7.9220879167e-05
-8.72397071169e-05
-9.73745442657e-05
-8.65344092242e-05
-9.37879368084e-05
-0.000101026786655
-0.000106529372785
-0.000110367378441
-0.000113019900576
-0.000114865343244
-0.000115860547846
-0.000116173360242
-0.000116198433746
-0.000115921637511
-0.00011537041314
-0.000114054981348
-0.000111259913124
-0.000106931248754
-0.000101170413449
-9.39998191146e-05
-8.68933844941e-05
-9.81951361759e-05
-0.000103706215262
-9.16518485142e-05
-9.83108184097e-05
-0.000105001196726
-0.00011023344843
-0.000114083469876
-0.000116972216679
-0.000119180350697
-0.000120381115094
-0.000120674157079
-0.000120687982373
-0.000120390460046
-0.000119963972218
-0.000118884213714
-0.000116108736515
-0.00011145884484
-0.000105359685231
-9.85694151091e-05
-9.2062964723e-05
-0.000104673914949
-0.000106837460079
-9.47867956479e-05
-0.000101150496933
-0.000107561010127
-0.000112569075628
-0.000116484934404
-0.000119660132068
-0.000122254411485
-0.000123612846023
-0.000123872354612
-0.000123867532033
-0.000123526259467
-0.000123171822856
-0.000122326258284
-0.000119618100976
-0.000114752846875
-0.00010830337281
-0.000101430355365
-9.52536653677e-05
-0.000107951152424
-0.000107891844774
-9.6444439655e-05
-0.000102617521891
-0.000108929428659
-0.00011389773363
-0.000117928301369
-0.000121385934265
-0.000124214449026
-0.000125638152213
-0.00012586007454
-0.000125846908647
-0.000125475836532
-0.000125117074236
-0.000124361396372
-0.000121737487216
-0.000116726522207
-0.000110019366963
-0.000102546063995
-9.69402577007e-05
-0.0001091217976
-0.000107996649776
-9.71523356604e-05
-0.000102946170808
-0.000109539707882
-0.000114569025109
-0.000118709794759
-0.000122317155651
-0.000125160231484
-0.00012649444932
-0.000126646735076
-0.000126647914605
-0.000126350772244
-0.000126033940953
-0.000125300733039
-0.000122691423587
-0.000117640951973
-0.000110817312816
-0.000103153893981
-9.77018505349e-05
-0.000109325704848
-0.000107881692845
-9.73733959399e-05
-0.00010310120516
-0.000109763161749
-0.000114833444009
-0.00011901312418
-0.000122662000359
-0.000125476946539
-0.000126748459539
-0.000126857276109
-0.000126869256423
-0.000126594674054
-0.00012632067481
-0.00012560495975
-0.000122999575431
-0.000117947642148
-0.000111108372492
-0.000103562868423
-9.79843537068e-05
-0.000109291844595
-0.000107840222849
-9.73567324643e-05
-0.00010309150342
-0.00010975389451
-0.000114826506937
-0.000119008791208
-0.000122656517427
-0.000125465595746
-0.000126733365611
-0.000126841290619
-0.000126853547755
-0.000126578847646
-0.000126306997963
-0.000125594302355
-0.000122989529556
-0.000117935180637
-0.000111092900382
-0.000103543681239
-9.79619757757e-05
-0.000109239961257
-0.00010787573198
-9.71045579873e-05
-0.000102916367456
-0.000109510865062
-0.000114546294638
-0.000118697518669
-0.000122308389403
-0.000125148469512
-0.000126484814959
-0.000126635858185
-0.000126631261782
-0.000126321912835
-0.000126003754598
-0.000125275670926
-0.000122664833513
-0.000117605326256
-0.000110773264238
-0.00010311053387
-9.76437804025e-05
-0.000109184585066
-0.000107708525409
-9.63774650712e-05
-0.000102563868752
-0.000108890383401
-0.000113879665815
-0.000117942825253
-0.00012143207746
-0.000124272468048
-0.000125692265356
-0.00012590771216
-0.000125884302364
-0.000125498124756
-0.000125117121548
-0.000124353232215
-0.000121716477942
-0.000116683230967
-0.000109956576161
-0.000102481671647
-9.68593879969e-05
-0.000108910677778
-0.000106614707842
-9.47112087101e-05
-0.000101088920185
-0.000107524010276
-0.000112570091784
-0.000116545715591
-0.000119780713882
-0.000122401618017
-0.000123754073635
-0.000123996624665
-0.000123971407283
-0.000123599656702
-0.000123218638437
-0.000122347957975
-0.000119611951969
-0.000114711382739
-0.000108229318695
-0.000101346535291
-9.51683429735e-05
-0.000107704576529
-0.00010346546501
-9.15730694011e-05
-9.82458557144e-05
-0.000104950473568
-0.000110219196963
-0.000114139861861
-0.000117088719252
-0.000119315986313
-0.000120496687756
-0.000120765699903
-0.000120762330281
-0.00012044921857
-0.000120012000581
-0.000118908518437
-0.000116091481419
-0.000111398633734
-0.000105278665199
-9.84906535945e-05
-9.1986116477e-05
-0.000104422668256
-9.71375201023e-05
-8.64554410356e-05
-9.37163354058e-05
-0.000100945624281
-0.000106467301397
-0.000110353154399
-0.000113046857675
-0.000114894877618
-0.000115867592398
-0.000116158715581
-0.000116169447848
-0.000115891293276
-0.000115339900643
-0.000114017195438
-0.000111194330681
-0.000106842316375
-0.000101078651717
-9.39270389953e-05
-8.68292187404e-05
-9.79669014939e-05
-8.63668995665e-05
-7.88247429416e-05
-8.70791748165e-05
-9.49972671395e-05
-0.000100951755956
-0.000104958432714
-0.000107586400363
-0.000109164832247
-0.000109905516115
-0.000110176138919
-0.000110197018026
-0.000109964756142
-0.000109361447745
-0.000107945774628
-0.000105182777573
-0.000101041956568
-9.51087481459e-05
-8.72751868558e-05
-7.91669484923e-05
-8.70555206227e-05
-6.99671972316e-05
-6.8340039756e-05