/*--------------------------------*- C++ -*----------------------------------*\
| =========                 |                                                 |
| \\      /  F ield         | OpenFOAM: The Open Source CFD Toolbox           |
|  \\    /   O peration     | Version:  3.0.1                                 |
|   \\  /    A nd           | Web:      www.OpenFOAM.org                      |
|    \\/     M anipulation  |                                                 |
\*---------------------------------------------------------------------------*/
FoamFile
{
    version     2.0;
    format      ascii;
    class       volScalarField;
    location    "5.6";
    object      nut;
}
// * * * * * * * * * * * * * * * * * * * * * * * * * * * * * * * * * * * * * //

dimensions      [0 2 -1 0 0 0 0];

internalField   nonuniform List<scalar> 
7968
(
0.000119317674131
0.000127228475905
0.000133210807255
0.000136840871507
0.000138875448255
0.000139859649221
0.000140193083684
0.000140196225632
0.000140127144069
0.000140033517257
0.000140062669249
0.000140203460904
0.000140301038219
0.000140289514797
0.000139883978591
0.000138818234583
0.000136722525613
0.000133069817086
0.000127111379601
0.000119260891775
0.000127216644805
0.000155214569353
0.000171877210271
0.000181562325405
0.000187187611726
0.000190233168753
0.000191651849814
0.000192105283886
0.000192116628948
0.000192049682475
0.000192104551133
0.000192246312486
0.000192227116517
0.000191679687807
0.000190118602272
0.000186929543703
0.000181217462449
0.000171536861814
0.000154971130074
0.000127104956528
0.000133199641557
0.000171884521186
0.000193752073015
0.000206419757351
0.000213901952454
0.000218100985052
0.000220197520518
0.000221024436383
0.000221216912007
0.00022120311435
0.000221199224439
0.000221175105506
0.000220881835674
0.000219894480017
0.000217616267323
0.000213274959176
0.000205753614862
0.00019318190068
0.000171521102933
0.000133062443224
0.000136850911258
0.000181617928123
0.000206476553883
0.000220866477018
0.000229410345825
0.000234257594451
0.000236745968386
0.000237811925801
0.000238276619819
0.000238382286442
0.000238262266995
0.000237919472979
0.000237366954825
0.000236099525794
0.000233412864772
0.000228433005823
0.000219900001784
0.000205696449111
0.000181162001995
0.000136700281549
0.000138919608845
0.000187317661638
0.000214052801631
0.000229515123506
0.000238688774312
0.000243940027275
0.000247050932466
0.000248648391054
0.00024922396868
0.000249277521496
0.000249083818337
0.000248647112612
0.000247722489481
0.000245856149717
0.000242753359939
0.000237410114884
0.000228295609112
0.000213102867349
0.000186807467021
0.000138760349401
0.000139937327655
0.00019044303921
0.000218364399443
0.00023449871322
0.00024408632416
0.000250121879492
0.000253587598495
0.000255169769813
0.000255649864758
0.000255612101827
0.000255364710876
0.000254914109805
0.000253978185857
0.000252037033259
0.000248416056986
0.000242536901418
0.000233077788401
0.000217289236333
0.000189905671842
0.000139793957668
0.000140293267661
0.000191930128643
0.000220574588257
0.000237135956675
0.000247320352148
0.000253760878318
0.000257192984089
0.000258639986874
0.000258977837575
0.000258840783176
0.000258560306836
0.00025814016034
0.000257274428265
0.000255401475727
0.000251755487468
0.000245412559789
0.000235551361822
0.000219410971537
0.000191388322167
0.000140179754096
0.000140271012784
0.000192428571824
0.000221502388574
0.000238345041583
0.000249107303225
0.000255565130541
0.000258874049631
0.000260156735012
0.000260348154987
0.000260121661719
0.000259828578518
0.000259463883698
0.000258696999965
0.000256935507154
0.000253372444835
0.000247001893361
0.000236637258781
0.000220277254979
0.000191900268744
0.000140275106124
0.000140158956866
0.000192451741981
0.000221770493929
0.000238847889755
0.000249887170745
0.000256290712782
0.00025947532847
0.000260616843811
0.000260690146964
0.000260398370252
0.000260107970927
0.00025980276102
0.000259126925102
0.000257466730123
0.000253993083504
0.000247664467346
0.000237098627803
0.000220506310579
0.00019193975082
0.000140240259506
0.000140030828745
0.000192365416378
0.000221807526289
0.000239100892696
0.000250151567952
0.000256502670908
0.000259609429902
0.000260669584068
0.00026067909115
0.000260352886004
0.000260070282398
0.000259806220023
0.000259184475165
0.00025758112291
0.000254160429436
0.000247870521123
0.000237298215484
0.000220514334505
0.000191851980576
0.000140144091487
0.000140008503622
0.000192385025554
0.000221839103725
0.000239126274916
0.000250162691923
0.000256500231262
0.000259599190236
0.000260659876835
0.000260676794102
0.000260358883412
0.000260079891414
0.00025981451107
0.000259187624681
0.000257578527541
0.00025415484661
0.0002478668309
0.000237300920474
0.00022050932631
0.000191830913874
0.00014008457649
0.000140129957857
0.000192505018368
0.00022185153683
0.000238917807454
0.00024991291158
0.000256276568417
0.000259436694792
0.000260576122659
0.000260666502001
0.000260396200858
0.000260117226967
0.000259808801075
0.000259119730877
0.00025744459683
0.000253963895532
0.000247641918946
0.000237092993698
0.000220469608744
0.000191879655792
0.00014014089695
0.000140239849427
0.000192489541624
0.000221597314847
0.000238441713484
0.000249133659023
0.000255528308649
0.000258794819662
0.000260066249468
0.000260273959122
0.000260073353075
0.000259796509104
0.000259429280913
0.00025864657074
0.000256866697369
0.000253297037319
0.000246937872279
0.000236555559789
0.000220151882545
0.000191763295848
0.00014015069304
0.000140249887561
0.000191961652892
0.000220639464119
0.000237211829383
0.000247335334365
0.000253698057725
0.000257072593084
0.000258495742147
0.000258840985512
0.000258725513542
0.000258461945679
0.000258041451034
0.000257161543578
0.000255272400053
0.000251622412603
0.000245284254457
0.000235327176143
0.000219131849908
0.000191114247321
0.000139974226712
0.000139869837453
0.000190415543472
0.000218362285368
0.000234514954824
0.000244099201706
0.000250051615881
0.000253453852326
0.00025500435816
0.000255483325592
0.000255461047521
0.00025522834204
0.000254778028084
0.000253830113557
0.000251873429599
0.000248236782049
0.000242252955427
0.000232673422346
0.00021682105183
0.000189460053306
0.000139473042815
0.000138830712504
0.000187220812944
0.00021396928387
0.00022945585464
0.000238648843517
0.000243905147148
0.000246960807652
0.00024853451207
0.000249107948983
0.000249175199677
0.000248993620099
0.000248555943139
0.000247615212037
0.000245713497318
0.000242491378
0.000236973045214
0.000227716646116
0.000212453314571
0.000186194501077
0.000138368450834
0.000136753634801
0.000181467819819
0.000206326744878
0.000220745580572
0.000229326702637
0.000234211749971
0.000236737926348
0.00023784494764
0.000238306725149
0.000238432016578
0.000238323926666
0.000237986825815
0.000237388815705
0.000235962518412
0.000233076519788
0.000227893962796
0.000219203619439
0.000204924861025
0.000180431082925
0.000136298355316
0.000133107469332
0.000171711735771
0.000193569624803
0.000206270135189
0.000213805988495
0.000218068400768
0.000220233565967
0.000221134088454
0.000221398748618
0.000221438811148
0.000221445024505
0.000221368434975
0.000220953843777
0.000219778485215
0.000217277367534
0.000212715622486
0.000205025708221
0.000192378320851
0.000170771556104
0.000132687508889
0.000127144127072
0.00015505862514
0.000171700453654
0.000181418873279
0.000187107446091
0.000190233014856
0.00019174066593
0.000192290106255
0.000192391439275
0.000192385516828
0.000192441931286
0.000192519833697
0.00019237054127
0.000191631674616
0.000189847990366
0.000186439620746
0.00018055969161
0.000170814591382
0.000154334227538
0.000126809673544
0.000119280960891
0.000127141392005
0.000133100708379
0.000136728876356
0.0001387820261
0.000139800598636
0.000140180086734
0.000140265782996
0.000140248693954
0.000140188229799
0.000140189818127
0.000140279143574
0.000140306446195
0.000140162325336
0.000139640454998
0.000138470920553
0.000136322611784
0.000132674719975
0.000126795559767
0.00011912058396
0.000126776825046
0.000153007034057
0.000169319505132
0.000179164974443
0.000185153145073
0.000188652896909
0.000190518432379
0.000191334995632
0.000191555673432
0.000191582596422
0.00019161995892
0.000191640178149
0.000191398770588
0.000190499488523
0.000188555212996
0.000185002714337
0.000179017824124
0.000169236671612
0.000153000393883
0.000126702812759
0.000153000585474
0.000535878014984
0.000703354770696
0.000796146989872
0.000851656980602
0.000884634577851
0.0009031347492
0.000912463237693
0.000916302752154
0.000917118781678
0.00091612915617
0.000913364296667
0.000907677246727
0.000896858644399
0.000877472014512
0.000844557664818
0.00079031866952
0.000700058321555
0.000535859554658
0.000152967985685
0.000169314649735
0.00070305497449
0.000956622561002
0.00110017412748
0.00118698349417
0.00123880405483
0.0012676797439
0.00128179424232
0.00128679778755
0.00128689187805
0.0012843324741
0.00127920124125
0.00126944843834
0.00125178932254
0.00122092064047
0.00116930902553
0.0010852559137
0.00094697644326
0.000700361990652
0.000169191974827
0.000179181237035
0.000795917877522
0.00110038884697
0.00127446928899
0.00137994347396
0.00144247554563
0.00147642797503
0.00149232454642
0.00149649625934
0.00149482609561
0.001491019372
0.00148506633344
0.00147290107631
0.00145185633386
0.00141470438048
0.00135239534425
0.00125093485334
0.00108450645739
0.000790327057625
0.000178950011904
0.000185206456751
0.00085185384499
0.00118800526921
0.00138095519412
0.00149728845451
0.00156471205625
0.00159858964637
0.00161073879424
0.00161184298068
0.00160834001171
0.00160350150426
0.00159748144926
0.0015874014315
0.00156786787571
0.00152868363725
0.00146108742873
0.00134974276175
0.00116654466199
0.000843682774209
0.000184888994883
0.000188749323833
0.000885567181416
0.00124123389483
0.00144536267688
0.0015668436042
0.00163332378701
0.00166327110487
0.00167234494103
0.00167097118816
0.00166577595302
0.00166011007397
0.00165419335941
0.0016452594365
0.00162751891217
0.00159163584862
0.00152366111657
0.00140762884485
0.00121500087054
0.000875252134601
0.000188379835154
0.000190657481026
0.000905069134658
0.00127207664342
0.00148202398551
0.00160421497582
0.00166683386139
0.0016936197453
0.00169984818144
0.00169618922762
0.00168951040431
0.00168325694021
0.00167763929652
0.00166984948513
0.00165391136448
0.00162048108241
0.00155605690947
0.00143914339285
0.00124196781508
0.000893057248502
0.000190264561465
0.000191528597229
0.000915600652223
0.00128858138656
0.00150095876586
0.00162040164057
0.00168032035802
0.00170441968343
0.0017081817463
0.00170266292306
0.00169486997692
0.00168829213254
0.00168305249322
0.00167630221598
0.00166194598807
0.0016304606529
0.00156835018951
0.00145439211069
0.00125552989492
0.000902331801841
0.000191082759362
0.000191786584528
0.000920798498215
0.00129639839723
0.00150971370498
0.0016260079851
0.00168380596951
0.00170588254483
0.00170789813429
0.00170113752414
0.00169272346903
0.00168605878635
0.00168118085178
0.00167515873319
0.00166189374917
0.00163176589585
0.00157132236832
0.00145996405591
0.00126132687961
0.000906702950239
0.00019132776487
0.000191816861563
0.000923029884042
0.00129929294277
0.001511868658
0.00162693760424
0.00168355021314
0.00170451281187
0.00170563123464
0.0016983540257
0.00168977597725
0.00168316718692
0.00167849901281
0.00167284200223
0.00166006713066
0.00163058163661
0.00157094336752
0.00146066055251
0.00126312223103
0.000908481327399
0.000191350056097
0.000191851911029
0.000923453976152
0.00129945435379
0.00151160417519
0.00162631169875
0.00168264117451
0.00170344739263
0.00170455969678
0.00169739914277
0.00168898068867
0.00168250171804
0.00167787903849
0.00167218055105
0.00165931978273
0.00162975704577
0.00157012382801
0.00146002824525
0.0012629453256
0.000908792310472
0.000191338885759
0.000191886839504
0.000921977606189
0.00129680787717
0.00150885973361
0.00162412989808
0.00168109521401
0.0017026845872
0.00170462479242
0.00169814021538
0.00169013822445
0.00168380879294
0.00167904817967
0.00167292592663
0.00165942070847
0.00162909258988
0.00156870046643
0.00145796287569
0.00126069793512
0.000907533139893
0.000191307413396
0.000191666374773
0.000917304487145
0.00128907587574
0.00149951420745
0.00161730508085
0.00167589041062
0.00169913868777
0.00170263623379
0.00169735823997
0.00169004488559
0.00168387850028
0.00167879092444
0.00167190128175
0.00165721618071
0.00162549673738
0.00156361532483
0.00145109865615
0.00125431175125
0.000903489731729
0.000191033347852
0.000190796335229
0.000907007985015
0.00127251593805
0.00148017001976
0.00160007338709
0.0016609164754
0.00168647810221
0.00169213078557
0.00168848272027
0.00168213524086
0.00167623365333
0.00167074073696
0.00166278974558
0.00164653756322
0.00161297613785
0.00154912583853
0.00143434809111
0.0012400749744
0.000894343636132
0.000190163977368
0.000188862604793
0.000887462637653
0.00124152121243
0.00144322758046
0.00156210118479
0.00162644816845
0.0016548589256
0.00166301099613
0.00166131599154
0.00165618705216
0.00165070243252
0.00164483521883
0.00163576370922
0.00161782954681
0.00158211926162
0.00151554740439
0.00140192106448
0.00121262416545
0.000876561660936
0.000188228417933
0.000185282302143
0.000853534097243
0.00118821082274
0.00137897186825
0.00149283421137
0.00155789029856
0.00159003856931
0.00160100795958
0.00160153343497
0.00159784529634
0.00159299413379
0.00158691717327
0.00157674985489
0.00155725105398
0.00151885868711
0.00145291655269
0.00134406735178
0.00116417337334
0.000845037477624
0.00018467902085
0.000179225910474
0.000797360531743
0.00110073095845
0.00127318482283
0.00137675573038
0.00143731355016
0.00146951500386
0.00148402504271
0.00148756466026
0.00148559560316
0.00148166378074
0.0014755747971
0.00146355042699
0.00144296738168
0.00140677498675
0.00134594878689
0.00124656170604
0.0010828780604
0.000791889665945
0.00017871974051
0.00016934235965
0.000704371668946
0.00095739558486
0.00110009247385
0.00118585856936
0.00123651243475
0.00126425384161
0.00127743772779
0.00128188799333
0.00128171268019
0.00127910244312
0.0012740395993
0.0012645330645
0.0012473140156
0.00121707910494
0.00116634527891
0.00108351398813
0.00094693577911
0.000702397197738
0.000168991356212
0.000153014197004
0.000537188925389
0.000704721371466
0.000797440482921
0.000852813197943
0.000885577418634
0.000903833254749
0.000912971779097
0.000916750846971
0.000917624525081
0.000916790152569
0.000914200243496
0.000908689038221
0.000898035456477
0.000878789849801
0.000846022492753
0.000792012768108
0.00070217545138
0.000538560408507
0.000152822971718
0.000126724303193
0.000152984664996
0.0001693027765
0.000179166793843
0.000185188036318
0.00018873156145
0.000190648661791
0.000191506023137
0.000191789503936
0.000191861184667
0.000191896664295
0.000191871741712
0.000191551212967
0.000190568949096
0.000188509392437
0.000184853605063
0.000178806329638
0.000169023085295
0.00015283377497
0.000126494439773
0.000132609370586
0.000169102277238
0.00019118359296
0.000204628079207
0.000212954659056
0.000217923549881
0.000220633509006
0.000221887356661
0.000222301349018
0.000222317959605
0.000222175723475
0.000221865260051
0.000221146236961
0.000219611793941
0.000216715120068
0.000211723377152
0.000203582605823
0.00019051887185
0.000168887932697
0.000132501357675
0.000169110793731
0.000700050757081
0.000954026550281
0.0010976232943
0.00118421954704
0.001235772853
0.00126437989699
0.00127809004371
0.0012826441549
0.00128197780634
0.00127817991506
0.00127153914099
0.00126052814583
0.00124186149781
0.00121048030321
0.00115891796385
0.0010754822369
0.000938407943336
0.00069392360356
0.000168842787527
0.000191203594479
0.000953430317307
0.00136464201744
0.00160396660719
0.00174980328043
0.00183687799868
0.00188493452713
0.00190749376784
0.00191432938091
0.00191252766283
0.0019059060165
0.00189491609895
0.00187669325073
0.00184537585589
0.00179233404226
0.00170492018372
0.00156382262808
0.0013345359911
0.000938894370011
0.000190446950372
0.000204698996431
0.00109715111198
0.00160409162805
0.00190271089548
0.00208498934624
0.00219310927366
0.00225151370101
0.00227771881328
0.00228400669032
0.00228023468999
0.00227158621164
0.00225859167266
0.00223720145571
0.00219915111508
0.00213383436136
0.00202490055439
0.0018482701551
0.00156192834113
0.00107495638134
0.000203434446545
0.000213116055615
0.00118460584581
0.00175111594882
0.00208636649722
0.00229009564691
0.00240899122914
0.00246999944251
0.00249443753546
0.00249790814293
0.00249149236865
0.00248102428291
0.0024671904209
0.00244549490848
0.00240677323409
0.00233678639108
0.00221640941185
0.00201902801726
0.0016981477117
0.00115567715635
0.000211419204669
0.000218207222409
0.00123778664752
0.00184066909594
0.00219751531379
0.00241232386783
0.00253369627495
0.0025934396586
0.00261404502429
0.00261337728445
0.00260385974349
0.00259170501303
0.00257768130443
0.00255677491276
0.00251910628392
0.00244974457169
0.00232637796382
0.00211831409599
0.0017778620536
0.00120300287008
0.00021618082698
0.000221064760166
0.00126878668638
0.00189253334377
0.00226069403937
0.00247897106406
0.00259972508309
0.00265572050646
0.00267109370332
0.00266584685323
0.0026533208097
0.00263981896837
0.00262608563528
0.00260664482833
0.00257106069943
0.00250406840016
0.00238231514624
0.00217112477022
0.00182113163559
0.00122909882561
0.0002188063711
0.000222485141125
0.00128555462432
0.00192003799887
0.00229323923013
0.00251083876405
0.00262901292219
0.00268037074134
0.00269078865936
0.00268158793289
0.00266664013318
0.00265221193848
0.00263898079562
0.00262121894545
0.00258810156893
0.00252392851523
0.00240502137953
0.00219519930616
0.00184170555003
0.00124206646208
0.000220072072758
0.000223075858629
0.00129363659921
0.00193254832565
0.00230668398104
0.0025226641855
0.0026378981312
0.00268550131879
0.00269234198335
0.00268043487424
0.00266387289248
0.00264885831608
0.0026360483796
0.00261966349394
0.00258863785122
0.00252691763165
0.00241049718575
0.00220263235013
0.0018493832756
0.00124759844537
0.000220562217138
0.000223274109244
0.00129673956432
0.00193669280117
0.00231023514881
0.00252471842741
0.00263794695411
0.00268340391978
0.00268840406361
0.00267521227188
0.0026578996399
0.00264260175321
0.00262999887694
0.00261432310321
0.00258441190971
0.00252407278611
0.00240916871927
0.00220281407928
0.0018509845409
0.00124944251286
0.000220687749977
0.000223316605465
0.00129671569423
0.00193596771231
0.002308716892
0.0025224502556
0.00263507595947
0.00268014106544
0.00268500350472
0.00267186501177
0.00265465916551
0.00263941538496
0.00262679015558
0.00261102452474
0.00258102162996
0.00252072158596
0.0024061209673
0.00220041883098
0.00184968523042
0.00124938315309
0.000220673802512
0.000223186597766
0.00129354653037
0.00193045474362
0.00230232964013
0.00251616750399
0.00262963871242
0.00267603696984
0.00268238897281
0.00267056630746
0.00265428251574
0.0026394080427
0.00262650832142
0.00260983293845
0.00257852331557
0.00251692535015
0.00240141834799
0.00219549422478
0.00184544510067
0.00124735207025
0.000220521421819
0.000222623378193
0.00128535000513
0.00191682848908
0.00228659317732
0.00250088673841
0.00261613870549
0.00266530532653
0.00267464707633
0.00266535488407
0.00265072639646
0.00263646137177
0.00262305019913
0.00260482589561
0.00257133947681
0.00250752305226
0.00239024070994
0.00218366609341
0.00183527210396
0.00124155606597
0.000219987366653
0.000221181066624
0.0012684408266
0.0018886487168
0.00225273090376
0.00246681706501
0.00258362317563
0.0026363504664
0.00264979868945
0.0026439583933
0.00263149545485
0.00261800876825
0.00260397923459
0.00258403474181
0.00254826032034
0.00248213066207
0.00236282675574
0.00215626573406
0.00181273365179
0.00122837865852
0.000218651947595
0.000218270414113
0.00123735441293
0.00183666550481
0.00218925426825
0.00239941637031
0.00251646260094
0.00257226819615
0.00259007339731
0.00258802033044
0.00257794577672
0.00256540897436
0.00255092046466
0.00252962277939
0.00249218782429
0.00242430716239
0.00230425107401
0.00210141298648
0.0017684861687
0.00120236063986
0.000215953391681
0.000213128728661
0.00118425173095
0.00174760822536
0.00207893799282
0.00227816241762
0.00239250273519
0.00244958579164
0.00247084015569
0.002472194563
0.00246449284627
0.00245316610119
0.00243872050141
0.00241684680108
0.00237881317185
0.00231100287531
0.00219424087814
0.00200254855975
0.00168938044337
0.00115565079502
0.000211152799556
0.000204695311925
0.00109714412381
0.00160161935546
0.00189701136573
0.00207533500698
0.00217916678554
0.0022335039738
0.00225636474732
0.00226022458349
0.00225481706724
0.00224517787989
0.00223174533628
0.0022106739287
0.00217403788676
0.00211133765907
0.00200633683591
0.00183511575379
0.00155567642186
0.00107621421269
0.000203191924462
0.000191225138502
0.000954088217659
0.00136358140162
0.00160052864525
0.00174333058036
0.00182695249346
0.00187157079977
0.00189114902175
0.00189577860586
0.00189259854857
0.00188540738903
0.00187460775552
0.00185741849848
0.00182799930397
0.00177765087983
0.00169370714307
0.0015568717718
0.00133261477905
0.000942008246979
0.000190291806994
0.000169160514811
0.00070154381103
0.000954637870534
0.00109689843778
0.00118181469709
0.00123145584804
0.00125815895048
0.00127026083775
0.00127373086148
0.00127260943278
0.00126901128351
0.00126314432138
0.00125342562562
0.00123646164596
0.00120704944417
0.00115761123768
0.00107637199473
0.000941496052365
0.000698763839487
0.000168774777243
0.000132547618654
0.000169111621559
0.000191142159598
0.000204523095296
0.000212792135012
0.000217713071205
0.000220389552456
0.000221629853317
0.000222050113886
0.000222082164221
0.000221951748525
0.000221643754226
0.000220915350958
0.000219360392817
0.000216440892222
0.000211443762251
0.000203334488625
0.000190348762827
0.000168802342095
0.000132224194926
0.000136965962503
0.000181546965146
0.000208489154816
0.000225072763541
0.000235391509985
0.000241472353587
0.000244631667501
0.000245884623277
0.000246036778861
0.000245658498362
0.000245053296069
0.000244245182111
0.00024298558019
0.000240805228144
0.000237051977426
0.00023086477731
0.000221028845065
0.000205512383771
0.000180050636125
0.000136663543068
0.000181598736375
0.000824057732509
0.00114003213027
0.00131855289176
0.00142552018139
0.00148813238826
0.00152132914895
0.00153516076336
0.00153707535244
0.00153227966935
0.00152374390431
0.00151217908987
0.00149596898753
0.00147114757251
0.00143140519686
0.00136742034855
0.00126464544033
0.00109637550005
0.000798504749509
0.000179990548456
0.000208595903825
0.00113907765551
0.00165434555372
0.00195315482232
0.002134222562
0.0022410446226
0.00229817249238
0.00232246690244
0.00232677659899
0.00232039077807
0.00230850781537
0.00229210918112
0.00226787194982
0.00222844748091
0.00216257207328
0.00205397024313
0.00187775712944
0.0015902078203
0.00109674133996
0.000205365711581
0.000225320726225
0.00131773928335
0.00195295480901
0.00232552696318
0.00255169700396
0.00268457160188
0.00275453256071
0.00278227363485
0.00278538592828
0.00277648408226
0.00276235529401
0.00274410971414
0.00271693854435
0.00267079895716
0.00259115089094
0.00245656144694
0.00223536993127
0.00187400341066
0.00126213333041
0.000220618088331
0.000235869073147
0.00142607702154
0.00213548394847
0.00255332734969
0.00280642496677
0.00295297976686
0.00302612383539
0.00305139865194
0.00305007094796
0.00303724387334
0.00302067326099
0.00300148037942
0.00297381673602
0.00292605501588
0.00284124695654
0.00269396509617
0.00244726887096
0.0020414331363
0.00135835453591
0.000229945038251
0.000242262222895
0.0014914894268
0.002245983752
0.00269065491067
0.00295856377274
0.00310908762522
0.0031786816888
0.00319700650136
0.0031890521837
0.00317169795404
0.00315306258973
0.00313391222607
0.00310751920463
0.0030609225321
0.00297575120509
0.00282498495768
0.00256679485777
0.00213624636484
0.00141239188842
0.000235389546775
0.000245812941544
0.00152895232953
0.00230905923543
0.00276847299321
0.00304208419979
0.003190233762
0.00325228561732
0.00326191989257
0.00324720415352
0.00322607294503
0.00320631245392
0.00318800533276
0.00316384191886
0.0031199642482
0.00303697905482
0.00288673321303
0.00262605340637
0.00218437528349
0.00143966871967
0.000238242325299
0.000247528322307
0.00154831794932
0.00234117984425
0.00280682383244
0.00308058753168
0.00322354476817
0.00327764071129
0.00327977299536
0.00326009889078
0.00323674589918
0.00321663920995
0.00319924852
0.0031772355175
0.00313626832256
0.00305628075911
0.00290827063712
0.00264834928409
0.00220385691381
0.00145078232195
0.000239470697122
0.000248198943735
0.00155663291127
0.00235438096147
0.00282107520363
0.00309267773801
0.00323076501853
0.00327909355451
0.00327671238292
0.00325447527545
0.00323014012173
0.00320985910585
0.00319289693803
0.00317232183769
0.0031335912325
0.00305610122263
0.00291035436724
0.00265203278598
0.00220808431943
0.00145345009353
0.000239822050126
0.000248378402699
0.00155868589673
0.0023571808837
0.00282300865281
0.00309247646211
0.00322751672951
0.00327299718115
0.00326897500682
0.00324617633713
0.00322166498528
0.0032012062668
0.00318424028067
0.00316414988309
0.00312632284596
0.00304997591667
0.00290548873934
0.00264846305116
0.00220591732858
0.00145272436724
0.000239817276441
0.000248347539438
0.00155699130996
0.00235425737329
0.0028190573262
0.00308753996542
0.0032218187645
0.00326708949091
0.00326345456465
0.00324127018315
0.0032171885319
0.00319682541403
0.00317967948876
0.00315920500032
0.00312087756756
0.00304414651249
0.00289965872137
0.00264324703373
0.00220209678072
0.00145114389276
0.00023973089126
0.000248080115538
0.0015517715447
0.00234606097674
0.00280987182007
0.0030786118581
0.00321432940771
0.00326179354261
0.00326032607977
0.00323983168988
0.0032168981984
0.00319706869669
0.00317962061989
0.00315784058011
0.00311756192443
0.00303892921082
0.00289320361522
0.00263670437282
0.00219687094453
0.00144874931997
0.000239552673537
0.000247261913208
0.00154087856429
0.00232872897895
0.00278995641341
0.00305913015714
0.00319791603365
0.00324990113438
0.00325274019928
0.0032354994863
0.00321453290708
0.00319546614761
0.00317744712674
0.00315348256418
0.00311010690093
0.00302852415114
0.00288080751364
0.00262394901198
0.00218596893994
0.00144315243064
0.000238993768586
0.000245340488907
0.00151980746552
0.00229433738833
0.00274827646628
0.00301595856197
0.00315806418416
0.00321612123509
0.00322515596209
0.00321252449454
0.00319405287652
0.00317568561885
0.00315682739203
0.00313055539376
0.00308427375545
0.00300007058928
0.00285095136633
0.0025946596118
0.00216136355671
0.00142973559282
0.000237546646928
0.000241580950157
0.00148173240529
0.00223112807976
0.0026704015509
0.00293161646896
0.00307476766826
0.00313841298721
0.00315405234405
0.00314654722656
0.00313085873463
0.00311321734848
0.00309360960713
0.00306565005538
0.00301762360351
0.0029324777117
0.00278415607569
0.00253160430261
0.0021105655669
0.00140139558468
0.000234520385118
0.000235064425039
0.00141684178811
0.00212233919373
0.0025354831494
0.00278216394985
0.00292124718917
0.0029872867578
0.00300790380439
0.00300481038788
0.00299175254462
0.00297503758604
0.0029551999169
0.00292669921287
0.00287891465441
0.00279573233615
0.00265230127307
0.00241203396429
0.0020162984826
0.0013480799182
0.000229018627717
0.000224553596284
0.0013100298598
0.0019425298361
0.00231113935397
0.00253147285266
0.00265750532908
0.00272058364466
0.00274265542543
0.00274213948366
0.00273111087117
0.00271561925147
0.00269651445468
0.00266929654891
0.00262460748339
0.00254806175916
0.0024183787299
0.00220428256249
0.00185298104829
0.00125461495792
0.000219793978749
0.000208042087345
0.00113361851403
0.0016464012002
0.00194150164187
0.00211707476013
0.00221739792177
0.00226800169153
0.00228662434948
0.00228661347133
0.00227735938743
0.00226396913934
0.00224741004506
0.00222457286134
0.00218816148579
0.00212678280605
0.0020241120047
0.00185526991903
0.00157676512912
0.00109381406112
0.000204787377963
0.000181354468525
0.000821468415371
0.00113432126075
0.00130910080254
0.00141150239715
0.00146906886929
0.00149730996392
0.00150688472577
0.00150571366065
0.00149927304741
0.00149064053797
0.00148046337566
0.00146703915816
0.00144616056462
0.00141120356512
0.00135257774936
0.00125551379397
0.00109315812977
0.000800862988154
0.000179686046951
0.000136856700566
0.000181272789949
0.000207836220991
0.000224029705828
0.00023398117061
0.000239731126165
0.000242612126434
0.000243657890426
0.000243686680201
0.000243274598753
0.000242725136914
0.000242044785839
0.000240966411593
0.000239003826855
0.000235499473291
0.000229595574254
0.000220077998493
0.000204904765694
0.000179747510725
0.000136236183611
0.000141398805575
0.000196010909463
0.000228843698024
0.000249175643489
0.000261764539999
0.000268939817959
0.000272289598813
0.000273112425207
0.000272467668693
0.000271112996041
0.000269471198557
0.000267625416072
0.000265331758115
0.000262062018514
0.000257061981328
0.000249356381353
0.000237594956747
0.000219531039782
0.000190345994523
0.000140312429435
0.000196161860293
0.000959375369956
0.001326520242
0.00153153497269
0.00165317145146
0.0017225068031
0.00175653002068
0.0017670361167
0.00176307215723
0.0017512326843
0.00173564163217
0.00171758335144
0.00169555118146
0.00166504030483
0.00161869504874
0.00154569942926
0.00142903693297
0.00123730639479
0.000895655342586
0.000190252467257
0.000229151283034
0.00132518089374
0.00191497797976
0.00225296044574
0.00245613701613
0.00257362491462
0.00263275224482
0.00265198308349
0.00264713105529
0.00263049382844
0.00260931244904
0.00258538797086
0.00255497183793
0.00250992353501
0.00243781236694
0.00231922959053
0.00212458628515
0.00180168869938
0.00123719592082
0.000219158229658
0.000249797254359
0.00153052020726
0.00225296260445
0.00267211778442
0.00292606911787
0.00307232128577
0.00314215813535
0.0031603957602
0.00314937590688
0.00312605378541
0.0030997227936
0.00307258327112
0.00303931468349
0.00298860330138
0.00290379895921
0.00276047308962
0.00252056777347
0.0021187043735
0.00142287084825
0.000236436254808
0.00026286565873