/*--------------------------------*- C++ -*----------------------------------*\
| =========                 |                                                 |
| \\      /  F ield         | OpenFOAM: The Open Source CFD Toolbox           |
|  \\    /   O peration     | Version:  3.0.1                                 |
|   \\  /    A nd           | Web:      www.OpenFOAM.org                      |
|    \\/     M anipulation  |                                                 |
\*---------------------------------------------------------------------------*/
FoamFile
{
    version     2.0;
    format      ascii;
    class       surfaceVectorField;
    location    "5.6";
    object      Uf;
}
// * * * * * * * * * * * * * * * * * * * * * * * * * * * * * * * * * * * * * //

dimensions      [0 1 -1 0 0 0 0];

internalField   nonuniform List<vector> 
22672
(
(0.000284627568708 -2.71298696687e-05 -0.000177640504822)
(-1.1200535011e-05 0.000247038625475 -0.000173170365265)
(0.000199354326514 0.000187961125671 -0.000531662928053)
(0.000886559305384 -0.000167990046691 -0.000196740581769)
(0.000441294424031 7.80097370767e-05 -0.000530501980923)
(0.000738199469589 0.000151440641557 -0.000679937833064)
(0.00155109771199 -0.000233999838297 -0.000138983126086)
(0.00128299693707 1.50714348597e-05 -0.000629280958616)
(0.00147456611559 0.000153313970167 -0.00067960607428)
(0.00208310323713 -0.000237675713322 -4.03092426438e-05)
(0.00197276624977 2.46320779175e-05 -0.000571926457997)
(0.00206545598815 0.000183960818092 -0.000556633788596)
(0.0023678489789 -0.00018817077353 6.36829316839e-05)
(0.00244249690999 0.000104772373801 -0.000461730802688)
(0.00244915630501 0.000240714277067 -0.000389514289284)
(0.00235706456557 -0.000115875009897 0.000153206320425)
(0.00258892690714 0.000226875079063 -0.000334240958004)
(0.00254096795246 0.000309038900873 -0.000216086867852)
(0.0020796847523 -4.25754087766e-05 0.000221848944476)
(0.0024258963813 0.000344810772396 -0.000222033357436)
(0.00235255592615 0.000367341081198 -6.74272478792e-05)
(0.00157505498328 2.00511849944e-05 0.000268214707157)
(0.00198749557419 0.00044711080233 -0.00012528689202)
(0.00191224101643 0.000414882488548 5.75225220956e-05)
(0.000918119995101 5.97765026884e-05 0.000289802393982)
(0.0013421588116 0.000515886133091 -6.17310000067e-05)
(0.00128577881779 0.000444970300414 0.000141052192596)
(0.000196336062765 7.15843294499e-05 0.000292555025801)
(0.000582570277017 0.000546797280366 -3.36734874933e-05)
(0.000557531706943 0.000457464448993 0.00017498973263)
(-0.000507601737876 5.50813314854e-05 0.000279855474419)
(-0.000200313574955 0.000539464062697 -3.93384664224e-05)
(-0.00019077357573 0.000452851770609 0.000164476545061)
(-0.00111761638183 1.4059909063e-05 0.000251743731964)
(-0.000919278462832 0.000496012475292 -7.52484344848e-05)
(-0.000880552847751 0.000432107443239 0.000114004691441)
(-0.00156453455043 -4.4823373332e-05 0.000205007696434)
(-0.0014962219427 0.000421160618206 -0.000137790431478)
(-0.00144167983401 0.000396318831576 2.57597622629e-05)
(-0.00180306186915 -0.000109691179525 0.000142379259447)
(-0.00186717681425 0.00032262041478 -0.000222434508479)
(-0.00181542014609 0.00034752541229 -8.40912508151e-05)
(-0.00181038005543 -0.000168871828519 6.47215530289e-05)
(-0.00199854035968 0.00021694912334 -0.00031581059311)
(-0.00196878526262 0.000292467078281 -0.000209629537598)
(-0.00157652193325 -0.000203787324808 -2.36783054041e-05)
(-0.00186616114697 0.000116806323192 -0.000417582131477)
(-0.00188452594014 0.00023363420649 -0.000350663567002)
(-0.00115071333308 -0.000191239287314 -0.000107375745622)
(-0.00148274205615 5.73973838583e-05 -0.000503835124993)
(-0.00157507104156 0.000188517100309 -0.000483205655814)
(-0.000630883155746 -0.000127857667455 -0.000156270316621)
(-0.000934696096934 5.97395096628e-05 -0.000546398494663)
(-0.00111196935773 0.000165976526689 -0.000579569867627)
(-0.000176483909161 -4.31907193347e-06 -0.000138612539253)
(-0.000271882936223 0.000119385120497 -0.000456509177975)
(-0.000541189136029 0.000161693581596 -0.000573784941626)
(5.12895529725e-05 0.00026395673363 -0.000140892725915)
(-0.000139394409688 0.000183831353831 -0.000440441131803)
(0.000124521443785 0.000369986391613 -0.000526031841366)
(-0.000148321161021 0.000790668582221 -0.000187457923374)
(0.000176707992008 0.000673580675662 -0.000668147792223)
(0.000857654245358 0.000272847883139 -0.00096304235777)
(0.000356230072403 0.000742660071151 -0.000966495193751)
(0.000751912065108 0.000663054712747 -0.00139777920437)
(0.00169856800553 0.000282879806308 -0.00106222429053)
(0.00138103322013 0.000778061931925 -0.00121259095994)
(0.00158225149214 0.000711754205452 -0.0016039002211)
(0.00234662597875 0.000383196749665 -0.000993348018041)
(0.00218604907692 0.000902862947558 -0.00116885301999)
(0.00222327565234 0.000820197265093 -0.0015262847733)
(0.00268028238657 0.000546813818986 -0.000859654692375)
(0.00271117509783 0.00110369598002 -0.00102164932583)
(0.00262097709798 0.000972061922787 -0.00133257594517)
(0.00266771040971 0.000723527086331 -0.000709480635865)
(0.00286599554051 0.00133540653376 -0.000837782777193)
(0.00270924955218 0.00113608238304 -0.00109595545038)
(0.0023404484785 0.000877081405953 -0.000569169193932)
(0.00266856010916 0.00153976823231 -0.000664066785588)
(0.00249738479208 0.00127607530371 -0.000867691601702)
(0.00175857552538 0.000990084900442 -0.000455232599183)
(0.0021705288853 0.00170134726419 -0.000514074115417)
(0.00202393873774 0.00138280822465 -0.000672359750515)
(0.00100875923756 0.00105233655104 -0.000385206881482)
(0.00145052117325 0.00180211679961 -0.000409437063619)
(0.00135657320132 0.00144703200175 -0.000536410848866)
(0.000188309297945 0.00106449968567 -0.000365566979716)
(0.000610821311923 0.00184067171018 -0.000360727389812)
(0.00058277763406 0.00147134170764 -0.000473421227811)
(-0.000608722291197 0.00102887818603 -0.000394442375327)
(-0.00025052381613 0.00182115162677 -0.000368999671829)
(-0.000211002578259 0.00145920096032 -0.000484653003684)
(-0.00129653790524 0.000948570077117 -0.000464782597927)
(-0.00104001534554 0.00174683846043 -0.000428414972649)
(-0.000941742285069 0.0014121983124 -0.000563007717306)
(-0.00180180197579 0.000829215662852 -0.000565232636392)
(-0.00167440678242 0.00162214139961 -0.000529000650307)
(-0.0015361788086 0.00133139344739 -0.000695714421313)
(-0.00206979801072 0.000683494915599 -0.000680624361036)
(-0.00208547360907 0.00145566605639 -0.000658180071463)
(-0.00193462776692 0.00121886832959 -0.000865047753413)
(-0.00206713452501 0.000529136172796 -0.000798114277615)
(-0.00223227062256 0.00126417219501 -0.00079909006108)
(-0.00210124539337 0.00108471475184 -0.00104988522219)
(-0.00178449460442 0.000396708079782 -0.000897738951066)
(-0.00208316073124 0.00106499425114 -0.000939552574698)
(-0.00201585335687 0.000939910290621 -0.00123082708921)
(-0.00125913810752 0.000323203554487 -0.000942857874034)
(-0.00164684323812 0.000902510588698 -0.0010462658699)
(-0.00169040751287 0.000812712211407 -0.00137046951165)
(-0.000592895114995 0.000323473665988 -0.000846637356017)
(-0.0010026608184 0.000807337592563 -0.0010678019517)
(-0.00118534733819 0.000724037793891 -0.00141384136946)
(-3.32746825232e-05 0.000407081828704 -0.000458789364637)
(-0.000189052599098 0.000781109771782 -0.000845974683491)
(-0.000536746022188 0.000678610850722 -0.00122134569922)
(0.0001724341487 0.000811982283393 -0.000161237110857)
(-0.000114245439943 0.000671513801063 -0.000581300701806)
(6.51894294403e-05 0.00114404526668 -0.000627921275758)
(-0.000214653977706 0.00139812861355 -0.000132021364167)
(0.000185999777298 0.00134327874412 -0.000672645818024)
(0.000903678063406 0.00122404027933 -0.00121604379592)
(0.000371269378693 0.00151993685455 -0.00107814348355)
(0.000812810198714 0.00142711048461 -0.00161576148802)
(0.00185662574265 0.00137183694617 -0.00131921968941)
(0.00153728320019 0.0016655540957 -0.00132980821024)
(0.00171571515739 0.00154941955767 -0.00184043583527)
(0.00256724212587 0.00159542607343 -0.00119715432778)
(0.0024229825641 0.00189234705731 -0.00122071970134)
(0.00238341588052 0.00173593218435 -0.00170009647162)
(0.00291436690703 0.00186238410716 -0.000999777410649)
(0.00297358417552 0.00218040871548 -0.000995003441351)
(0.00277762231002 0.00196494338054 -0.00142383350677)
(0.00287945117297 0.00211944159002 -0.000792368926916)
(0.00311084098686 0.00248091989964 -0.000742554800314)
(0.0028453825691 0.00219938018717 -0.00111059366343)
(0.00250551436184 0.00232916277725 -0.000608971707072)
(0.00286624557223 0.00273504421496 -0.000517231491247)
(0.00260203429879 0.00239816415091 -0.000821335293934)
(0.00186631058342 0.00247606096108 -0.000468278579853)
(0.00230736921039 0.00292717388033 -0.000336770872871)
(0.00209542463244 0.00254793703605 -0.000586619112722)
(0.00105499411485 0.00255182368907 -0.00038495757195)
(0.0015233589423 0.00304332426488 -0.000218334651565)
(0.00139652766052 0.00263880996313 -0.00042988748305)
(0.000173838032093 0.00255852170431 -0.000364160081925)
(0.000622176013012 0.0030828596702 -0.000166978589519)
(0.000593492898372 0.00267163876244 -0.000361028621811)
(-0.000679095517474 0.00250132371591 -0.000402972269152)
(-0.000296132591162 0.00305252309869 -0.000181765447805)
(-0.0002275913642 0.00265098081467 -0.000378434965925)
(-0.00141645246672 0.00238473101901 -0.000492633025029)
(-0.0011385152361 0.00295840799347 -0.000255655948065)
(-0.000984337908224 0.0025802342987 -0.000474209974646)
(-0.00196186984312 0.00221580765017 -0.000621948085378)
(-0.00182031346486 0.0028035014844 -0.000377370972122)
(-0.00160396827761 0.00246221935709 -0.00063594051048)
(-0.00225744531122 0.0020064749268 -0.000776645771508)
(-0.00227129005241 0.00259883949534 -0.000541941600388)
(-0.00202711472782 0.00230137312372 -0.00084759625837)
(-0.00226207343356 0.00177264940553 -0.000940528358163)
(-0.00244400348522 0.00235639355227 -0.000729770782814)
(-0.00221456957263 0.0021086450022 -0.00108759207147)
(-0.00195958179606 0.00154552156614 -0.00108807949353)
(-0.00229799530539 0.0020934388459 -0.000926014050366)
(-0.00214134855397 0.0018981274119 -0.00133093563987)
(-0.00137793091796 0.00136302299046 -0.00117120994757)
(-0.0018324895509 0.00185433214072 -0.0010932207965)
(-0.00181395468638 0.00170130324779 -0.00153347236101)
(-0.000618730730455 0.00124283698176 -0.00106713927918)
(-0.00111967959052 0.00166999116826 -0.00116427239329)
(-0.00128464740006 0.00154300346924 -0.00162185410227)
(2.51343964377e-05 0.00116786828118 -0.000548422429711)
(-0.000192541994769 0.00154638702175 -0.000936010100155)
(-0.000577332405908 0.0014328277532 -0.00140914295759)
(0.000231004801813 0.00142352957472 -0.000111239789775)
(-0.000119021148269 0.00133948529319 -0.000586413311394)
(7.41326392982e-05 0.00178209502675 -0.000582243571961)
(-0.000222184779498 0.00188974907666 -4.04533274466e-05)
(0.000218817541759 0.00188463422106 -0.000565749544246)
(0.00103118076698 0.00197536718809 -0.00119190789787)
(0.000470635511474 0.00212732197024 -0.00102945148225)
(0.000925374572092 0.00202084616229 -0.00156442943172)
(0.00208818670259 0.00220349230744 -0.00123130822218)
(0.00176364274517 0.00233707106689 -0.00123114119314)
(0.00190667488046 0.00217179241657 -0.0017285190431)
(0.00284784307045 0.00249537578355 -0.00101856881491)
(0.00271840447037 0.0026133432902 -0.00103133962069)
(0.00260603861108 0.0023903801455 -0.00148064874138)
(0.00318997337165 0.00281535788729 -0.000737780831017)
(0.00327928830304 0.00293450334345 -0.00071442465924)
(0.00299404008921 0.00265219633689 -0.00109622108612)
(0.00311268853544 0.00311070872361 -0.000467417364645)
(0.003381383941 0.00325306002893 -0.000389618387397)
(0.00302974110182 0.00291702080683 -0.00069485148193)
(0.00267615304128 0.00334542779517 -0.000245030657045)
(0.00307521722866 0.00351661358257 -0.000118590671877)
(0.00274134058056 0.00314226449975 -0.000345030132376)
(0.00196966711382 0.0035046453505 -8.68269445824e-05)
(0.00244340684176 0.00371056580291 8.67606609931e-05)
(0.00218692039592 0.00331247987088 -7.6902381221e-05)
(0.00109327165359 0.00358261696563 -3.55669134191e-07)
(0.0015897211422 0.00382228098588 0.000212504224644)
(0.00144455835097 0.00341608042716 9.74421627277e-05)
(0.000153859662427 0.00358425910505 1.54160446009e-05)
(0.000627024676086 0.00385651931565 0.000260433282688)
(0.000604025734963 0.0034534040565 0.000165755516561)
(-0.000753049964598 0.00351665819831 -3.44491267173e-05)
(-0.000345933928011 0.00382115940737 0.000236614865782)
(-0.000250611374318 0.00342929535748 0.000138276171978)
(-0.00154273621839 0.00338522088284 -0.000140393895158)
(-0.00123980491531 0.00372293661179 0.000148893620106)
(-0.00104036129206 0.00334851150576 2.51601001673e-05)
(-0.00213459600288 0.00319615414403 -0.000297364487132)
(-0.00197238515782 0.00356691005534 5.81386993497e-06)
(-0.00169508880539 0.00321472702292 -0.000171546785568)
(-0.00246953419449 0.00295969929279 -0.000495066611694)
(-0.00247114919877 0.00335788372007 -0.00019112210296)
(-0.00215416470442 0.00303452302804 -0.000424104559016)
(-0.00249601626292 0.00268992662936 -0.000715256475017)
(-0.00268037315973 0.00310746173598 -0.000423932386536)
(-0.00237298927427 0.00281886548956 -0.000724585197428)
(-0.00218678478437 0.00241604149587 -0.000931155353334)
(-0.00255025617295 0.00282923297955 -0.000681203109156)
(-0.00232000711008 0.00258261285345 -0.00104502522496)
(-0.0015591065398 0.00217438074922 -0.00108628324222)
(-0.002067583713 0.00256294460324 -0.000920593521617)
(-0.00199249743489 0.00235813684225 -0.00133629075875)
(-0.000714676571115 0.00198353549409 -0.00103314321426)
(-0.0012958840728 0.00233587751994 -0.00106283231849)
(-0.00143446010232 0.00217145885742 -0.00151031667528)
(2.22004682754e-05 0.00180638107503 -0.000498827460219)
(-0.000267838790206 0.00215514929738 -0.000875671431394)
(-0.000663119206306 0.00203465705128 -0.00134563982402)
(0.000238833479398 0.00192605247443 -2.31982447958e-05)
(-0.000143084758145 0.00189087566827 -0.000480322779401)
(0.000151677751422 0.00222365230066 -0.000487661237738)
(-0.000177889439977 0.00215796808821 5.48877110258e-05)
(0.00027579406047 0.00224114501333 -0.000419893341988)
(0.00123122808942 0.00247554451414 -0.00106868477752)
(0.000631208391274 0.00245001783254 -0.000917357127636)
(0.0010784137208 0.0023960992102 -0.0014022425587)
(0.00237757627214 0.00273144556879 -0.00103117259165)
(0.00203197943913 0.00267648190344 -0.00105819280807)
(0.0021379110424 0.0025457732911 -0.0014857553474)
(0.00317040625689 0.00303496430865 -0.000727195465019)
(0.00304134215474 0.00294989854051 -0.000774381405831)
(0.00287021514015 0.00275877640242 -0.00112938157761)
(0.00349265149294 0.00335399525542 -0.00036626221562)
(0.00360067614918 0.00325296825725 -0.000376490335901)
(0.00324955352598 0.00301207181114 -0.000640706504933)
(0.00336133019269 0.00364032699493 -4.07916946282e-05)
(0.00365587620516 0.00354523995497 6.14384334143e-06)
(0.00324735829928 0.00326791489237 -0.000160854996577)
(0.00285166323948 0.00386202355165 0.000213200646161)
(0.00328134372862 0.00377970689406 0.000311526668862)
(0.00290713161351 0.00348622681985 0.000246577223862)
(0.00206970851381 0.004008072048 0.00038609183022)
(0.00257293790725 0.00394913025375 0.000532688742682)
(0.0022965183203 0.00365144909221 0.000543393751885)
(0.00112692236176 0.00407584164725 0.000473293176466)
(0.00164950634706 0.00404335232133 0.000659077770446)
(0.00150212016255 0.0037520081641 0.000721718115394)
(0.000129147715708 0.0040725344672 0.000481632103869)
(0.000628433247342 0.004068151788 0.00069940768636)
(0.000616322203026 0.00378807604572 0.000786145213243)
(-0.000830587287138 0.00400625038877 0.000419957612605)
(-0.000394800879059 0.0040332591299 0.000666205547606)
(-0.000278718287012 0.00376467538477 0.00074763797301)
(-0.00167055594037 0.00388280074243 0.000295101385199)
(-0.00133602410245 0.00394604068933 0.000568193495318)
(-0.0011077447624 0.00368721245421 0.000616866832206)
(-0.00231503852314 0.00370643400845 0.000112056254107)
(-0.00211784841401 0.0038101199045 0.000408563277033)
(-0.0018029141488 0.00356008564847 0.000401274477685)
(-0.00269545826781 0.00348385132277 -0.000119987877802)
(-0.00266615920166 0.00362905556173 0.000190366993338)
(-0.00230276854179 0.00339000193474 0.000109249092137)
(-0.00275297732374 0.00322556376214 -0.000389879020675)
(-0.00291736760799 0.00341055389006 -7.5903227741e-05)
(-0.00255811222113 0.00318651533305 -0.000245572453995)
(-0.00244869385776 0.00295609340004 -0.000670641277439)
(-0.00281236394926 0.00316180349532 -0.000382287071633)
(-0.00252996534665 0.00296351028781 -0.000636853809296)
(-0.00178852099928 0.00270622350704 -0.000897142597891)
(-0.00232378909986 0.00291569714923 -0.000683730189597)
(-0.00220479615621 0.0027501718388 -0.00101292557348)
(-0.000872255790389 0.00249121707213 -0.000905360535621)
(-0.00150639595867 0.00269296074412 -0.000890486276453)
(-0.00161750105506 0.00256965411905 -0.00127334879544)
(-4.1215081942e-05 0.00225960125094 -0.00040004221597)
(-0.00039565406214 0.00249805150941 -0.000753799416238)
(-0.000782464281227 0.00243314003525 -0.00117394335344)
(0.000200859434265 0.00221554175151 7.23285022753e-05)
(-0.00018671292806 0.00226746339141 -0.000330704640951)
(0.000270072020351 0.0023717606345 -0.000374808178872)
(-0.000110022761427 0.002153311651 0.000137001822368)
(0.00034386545604 0.00233271902268 -0.000265412339311)
(0.001462290298 0.00263748955467 -0.000906865158181)
(0.000805790623326 0.002452652575 -0.000785331676785)
(0.00124329995829 0.0024885720646 -0.00119484958966)
(0.00268072550948 0.00287891799961 -0.000801401622245)
(0.00229222194292 0.00266110538374 -0.000870665504184)
(0.00237524270559 0.00261898191458 -0.00120305524512)
(0.00349287772016 0.00314974121632 -0.000423676276713)
(0.00334245720263 0.00289502015012 -0.000522286613625)
(0.00313894784408 0.00280025897163 -0.000757270386606)
(0.00378776021757 0.00342400155033 -4.08427693992e-06)
(0.00389268310255 0.00314674949045 -6.73693374292e-05)
(0.00350960110975 0.00301600432321 -0.00018866029521)
(0.00359461975412 0.00366272124153 0.000358462206832)
(0.00389837803955 0.0033794102119 0.000352716004722)
(0.00346868602361 0.00323342762917 0.000358973647275)
(0.00301307188683 0.00384392396181 0.000631014765382)
(0.00346008014694 0.00356439827474 0.000678260320879)
(0.00307679725981 0.00341990076091 0.00079685990046)
(0.00215948683708 0.00396008297586 0.000805674682907)
(0.00268250188043 0.00369463930061 0.000903082464768)
(0.00240913575387 0.0035616201388 0.00110807932377)
(0.00115515356358 0.00401023267031 0.00088519228034)
(0.00169774736082 0.00376270862583 0.0010212016453)
(0.00156177631182 0.00364737858109 0.00128498010983)
(0.000106296306738 0.00400299460067 0.000883981130097)
(0.000627944449436 0.00377628417784 0.00104987575723)
(0.000630426910112 0.00367776215098 0.00134072772986)
(-0.000898897066005 0.00394718080662 0.000814441430319)
(-0.000435005370382 0.00374613013442 0.0010083571447)
(-0.000304583152026 0.00365813540376 0.00129232485087)
(-0.00178427065166 0.00384799688987 0.000681655387152)
(-0.00141359250989 0.00367952342221 0.000906097439579)
(-0.00117208103348 0.00359424918234 0.00115189286035)
(-0.00247643314865 0.00370816182786 0.000486874016264)
(-0.00223577318778 0.00357930726614 0.000741870278492)
(-0.00190713669345 0.00349062503144 0.000922976600096)
(-0.00290256155152 0.0035317349788 0.000234451643399)
(-0.00282714265237 0.00344605942808 0.000515094450912)
(-0.00244764513406 0.00335244667571 0.000609125438262)
(-0.00299667752499 0.00332355603935 -6.83112786988e-05)
(-0.00311777507574 0.00328341732657 0.000231597567741)
(-0.00273956674609 0.0031878491234 0.000221252919122)
(-0.0027061911999 0.00309964119612 -0.000395375983791)
(-0.00304181444281 0.00309388071965 -0.000105132317606)
(-0.00273711987951 0.00300664139229 -0.000222563577267)
(-0.00202697250657 0.00288283895691 -0.000677073868159)
(-0.0025558392056 0.00289960447716 -0.000447653775582)
(-0.0024161744383 0.00283273778234 -0.00066312630165)
(-0.00105527958415 0.00268214783071 -0.00073892515707)
(-0.00170739980135 0.00271415618887 -0.000702072008811)
(-0.00180258603886 0.00268305835949 -0.000992888745864)
(-0.000137544883009 0.00243716138444 -0.000281428697993)
(-0.000536092084382 0.00253549380868 -0.000612021590365)
(-0.00091121035536 0.00256409932614 -0.000955177379972)
(0.00014147105873 0.00224580423943 0.000157543677777)
(-0.000240206990919 0.00239428531138 -0.000167807604718)
(0.000385936568041 0.00222837302282 -0.000273521675545)
(-3.90095273108e-05 0.00189834552053 0.000201224646305)
(0.000402205551724 0.00216171968294 -0.000130967421982)
(0.001668515948 0.00246771063669 -0.000749132022788)
(0.000959815295367 0.00215916490546 -0.000657656009545)
(0.00138515694305 0.00229920337475 -0.000989088543965)
(0.00294068019399 0.00266601651906 -0.000591550495564)
(0.00250780403049 0.00232542723655 -0.000700380413859)
(0.00257891143175 0.00239936169135 -0.000936482920718)
(0.0037638817885 0.00287835458583 -0.000165979674341)
(0.00358628198312 0.00249944461747 -0.000309700960607)
(0.00337064487136 0.00253603924439 -0.000427622881616)
(0.00402866283035 0.00308710223918 0.000289430944232)
(0.00412360777352 0.0026808599865 0.000178967508565)
(0.00373453749183 0.00270024672482 0.000201111670079)
(0.00378344844639 0.0032649424017 0.000672514118769)
(0.0040870600115 0.00284445177741 0.000618984828218)
(0.0036611856514 0.00286666052354 0.0007801760578)
(0.00314079659914 0.0033973750564 0.000950328020265)
(0.00359672654323 0.00297124364026 0.000950678665512)
(0.00322549801763 0.00301054589219 0.00123580971049)
(0.00222822457969 0.00347813265315 0.00111860942716)
(0.00276296891358 0.00305722312162 0.00116980486851)
(0.00250846985989 0.00312029085184 0.00154999133495)
(0.00117495007028 0.00350872574466 0.00118588512219)
(0.0017305776594 0.00309705676282 0.00126914572473)
(0.00161489793691 0.00318547107905 0.0017189293138)
(8.81412456897e-05 0.00349915295496 0.00117425177183)
(0.000624970059588 0.00310011516404 0.00128268987319)
(0.000644551057663 0.00320823125749 0.00176298047595)
(-0.00094879180979 0.00345851750482 0.00110001315396)
(-0.000464190330621 0.00307743357828 0.0012342357072)
(-0.000323433005623 0.00319389606004 0.00170563184136)
(-0.00186654996246 0.00339147544309 0.000966312330918)
(-0.00146520082898 0.00303646435999 0.00113660038789)
(-0.00122162899401 0.00314890297108 0.00156081895017)
(-0.00259459269408 0.00329827630547 0.000770090713139)
(-0.00231404814143 0.00297856424946 0.000977633787372)
(-0.0019885999137 0.0030770990259 0.00132878693655)
(-0.00305778311019 0.0031794670585 0.000512240375254)
(-0.00293748211492 0.00290133378497 0.000753113527479)
(-0.00256246763111 0.00298148813439 0.00100791669836)
(-0.00318373176883 0.00303621245384 0.000194776528834)
(-0.00325895658699 0.0028043776499 0.00046779838531)
(-0.00288448537888 0.00286746386008 0.000604988488222)
(-0.00291072525709 0.00287723306356 -0.000157410109397)
(-0.00320969780818 0.00268620546267 0.000118362245772)
(-0.00290459918717 0.00274112245865 0.000134668541959)
(-0.00222372146513 0.00271591941864 -0.000472651916234)
(-0.00273202394013 0.00255921787084 -0.000244930256785)
(-0.00258815505749 0.00261934999326 -0.000346617572663)
(-0.00121562845834 0.00255440263987 -0.000575168442106)
(-0.00186689143253 0.00242905285595 -0.000528659751108)
(-0.00195450862768 0.00251271594715 -0.00072299008846)
(-0.000232849495703 0.00233324311831 -0.000173049214595)
(-0.000657716233985 0.00228833801012 -0.000475384528189)
(-0.00101923620653 0.00242116045812 -0.000735623526625)
(8.06971110666e-05 0.00203652564725 0.000223597400309)
(-0.000285458809425 0.00226584837981 -2.35711142689e-05)
(0.000488867919342 0.00182766811429 -0.000182909687696)
(2.36521090182e-05 0.00142959555906 0.000246472991124)
(0.000450213226894 0.00175467999303 -2.01152364681e-05)
(0.00183454264849 0.00201421866663 -0.000608904400616)
(0.00107639363854 0.00162110011249 -0.000549493381929)
(0.00149495352884 0.00186243891959 -0.000807607099102)
(0.00314110671984 0.00215508574338 -0.000418530878902)
(0.00266383677083 0.0017335761877 -0.000565154518087)
(0.00273526703229 0.0019297390593 -0.00071471016759)
(0.00396864463234 0.00229687976605 3.5246222299e-05)
(0.00375821164224 0.00184345361749 -0.00015412486787)
(0.00354929234914 0.00201845513299 -0.000171544025879)
(0.00420814878933 0.00243139129916 0.000508521392551)
(0.00428239855282 0.00194950930897 0.000353714260499)
(0.00390829035913 0.00212669856568 0.000491849473047)
(0.00392118090025 0.00254297293654 0.000897149374961)
(0.00421471542366 0.00204364696742 0.000798679648773)
(0.00381090019952 0.00223698536911 0.00108777571434)
(0.0032307759716 0.0026226008916 0.00117015551376)
(0.00368574220246 0.0021138645732 0.00112656547819)
(0.00334158945246 0.00233269543803 0.00154778701338)
(0.00227288784035 0.00266775210392 0.00132034116608)
(0.00281236405372 0.00215833373871 0.00132866379606)
(0.00258589223055 0.00240570613617 0.00185678043094)
(0.00118540136763 0.00268072369117 0.00136595047573)
(0.00174641233665 0.00217501060525 0.00140696574713)
(0.00165637489082 0.00244810204066 0.00200953532807)
(7.42347630816e-05 0.00267028469154 0.00134267380855)
(0.000619834161424 0.00217190783922 0.00140507003165)
(0.00065644716377 0.00246202512359 0.00203937629705)
(-0.00097952143721 0.00264585072744 0.00127082294113)
(-0.000480395497709 0.00215840838928 0.00134930480756)
(-0.000334527013836 0.00245412621747 0.00197278333435)
(-0.00191483325148 0.00261307947021 0.00114792184434)
(-0.00148934014125 0.0021424930063 0.00125621846196)
(-0.00125192665304 0.00243061686497 0.00182928462295)
(-0.00266562037567 0.00257107364466 0.000960656601711)
(-0.00234876360641 0.00212604403 0.00111390481401)
(-0.00203951225665 0.00239507862502 0.0016033082741)
(-0.00315509307263 0.00251564047689 0.000708671537535)
(-0.00299164024012 0.00210349006627 0.000900981718385)
(-0.00263680869103 0.00234767603933 0.00128731682915)
(-0.00330639600202 0.0024439500454 0.000391384102248)
(-0.00333452350575 0.00207047380559 0.000624606783784)
(-0.00298074088983 0.00228983797985 0.000885206738822)
(-0.00305064914076 0.00235854639034 3.08420983843e-05)
(-0.00330666584359 0.00202402848916 0.000276805069694)
(-0.00301851164765 0.00222392984079 0.000406429764039)
(-0.00236448390393 0.00226347335421 -0.000300938091659)
(-0.00284101390346 0.00196734754783 -9.37761544118e-05)
(-0.00270725031748 0.00215859742613 -9.42953989146e-05)
(-0.00133842760702 0.00215477167839 -0.00042887583719)
(-0.00197227743912 0.00189688077746 -0.000389011208281)
(-0.00206114885223 0.00209854129961 -0.000493884683519)
(-0.000314560370022 0.00198243070573 -7.87379132855e-05)
(-0.000745925291716 0.00180494859588 -0.0003598703852)
(-0.00109737434001 0.00203814515507 -0.000540478199162)
(2.82293204112e-05 0.00161516139081 0.000269760511762)
(-0.000321029208844 0.00191063718104 0.000106803679564)
(0.000560571635637 0.00122434752276 -0.000120110703109)
(6.56154346732e-05 0.000808844570768 0.000268773465238)
(0.000481453488738 0.0011651918789 6.01817132375e-05)
(0.00194350307289 0.0013413828164 -0.0005057434994)
(0.00114460680437 0.00091287438217 -0.000477508754045)
(0.0015635008809 0.00123468333767 -0.000674703260374)
(0.00327055046359 0.00142048274682 -0.000300748507055)
(0.00275139520736 0.000965888613642 -0.000478545845087)
(0.0028342195655 0.00127069934487 -0.000559357334819)
(0.00409434666518 0.00149348118781 0.00016434317033)
(0.0038513066326 0.00100989730914 -6.18489231367e-05)
(0.00366342113475 0.00131535957172 9.76266221845e-06)
(0.00431650652637 0.00155919557379 0.000643872516721)
(0.00436522509782 0.00105015803594 0.000452402499758)
(0.00401967622463 0.00137103661809 0.000677194080484)
(0.00400111206878 0.00161116167188 0.001028095752)
(0.0042785762111 0.00108313773477 0.000893852770059)
(0.00390682820033 0.00142852114145 0.00127590645599)
(0.0032789343681 0.00164597758625 0.0012850737605)
(0.00372714749287 0.00110490324017 0.00121236707711)
(0.00341540834427 0.00147858018532 0.00173114181145)
(0.00229359173005 0.00166163845136 0.00141528837712)
(0.00283227331026 0.00111713563156 0.00139535580288)
(0.00263471040075 0.00151751130607 0.00202654340747)
(0.00118680345418 0.00166095143701 0.00144608530306)
(0.00174863524619 0.00111778920082 0.00145987269203)
(0.00168085637526 0.00153824441848 0.0021640120971)
(6.71161292679e-05 0.00165387296648 0.00141170103066)
(0.00061649602737 0.00111443646786 0.00144484132073)
(0.00066531097556 0.00154609466597 0.00217716076336)
(-0.000989108145672 0.00164873146248 0.00133470032838)
(-0.00048092212105 0.00111445433804 0.00138169969274)
(-0.000334330357015 0.00154718268853 0.00210017997281)
(-0.0019255399489 0.00164878839065 0.00122220143162)
(-0.00148531475707 0.00112338866645 0.00128838298873)
(-0.00125832255268 0.00154695532932 0.0019555373274)
(-0.00268439202981 0.00165187123467 0.00105422993068)
(-0.00234260161869 0.00114188025616 0.00116074204316)
(-0.00205306989757 0.00154645647219 0.00174301655872)
(-0.003188231129 0.0016524248841 0.000816916964634)
(-0.00299048966029 0.00116603350841 0.000965227118242)
(-0.00266236595081 0.00154448616287 0.00144129589077)
(-0.00335698598826 0.00164522775873 0.000510027751229)
(-0.00334435472921 0.00118770469789 0.000702310787415)
(-0.00301954310337 0.00153877779694 0.00105152379356)
(-0.00311654774995 0.00162774033753 0.000152186816898)
(-0.00333104536237 0.00120443611853 0.000364125778423)
(-0.00306999559484 0.00152914638822 0.000579153680231)
(-0.00244001295557 0.00159632325965 -0.000181849271034)
(-0.00287868091892 0.00120971241372 -3.71859534781e-06)
(-0.00276508169581 0.00151599832112 8.10997822318e-05)
(-0.00141101150035 0.0015437016277 -0.000320005756291)
(-0.00201741676338 0.00119759059256 -0.000298216799748)
(-0.00211549422879 0.00149851746656 -0.000329711778533)
(-0.000370165795696 0.00143430607639 -1.13719601525e-05)
(-0.000792705256635 0.00115895679732 -0.00028227622645)
(-0.00113957960377 0.00146846197026 -0.000394854300535)
(-6.8077889273e-06 0.00104884935953 0.00029450342616)