/*--------------------------------*- C++ -*----------------------------------*\
| =========                 |                                                 |
| \\      /  F ield         | OpenFOAM: The Open Source CFD Toolbox           |
|  \\    /   O peration     | Version:  3.0.1                                 |
|   \\  /    A nd           | Web:      www.OpenFOAM.org                      |
|    \\/     M anipulation  |                                                 |
\*---------------------------------------------------------------------------*/
FoamFile
{
    version     2.0;
    format      ascii;
    class       volScalarField;
    location    "7.4";
    object      ddt0(k);
}
// * * * * * * * * * * * * * * * * * * * * * * * * * * * * * * * * * * * * * //

dimensions      [0 2 -3 0 0 0 0];

internalField   nonuniform List<scalar> 
7968
(
-5.67173115152e-05
-6.4989941257e-05
-7.33417647466e-05
-7.9262599402e-05
-8.34725552387e-05
-8.61575221398e-05
-8.79586112196e-05
-8.87659866046e-05
-8.87521919594e-05
-8.83569607713e-05
-8.8368416228e-05
-8.87756101384e-05
-8.87963677376e-05
-8.79916821858e-05
-8.61907016633e-05
-8.35024917555e-05
-7.92885227659e-05
-7.33622224123e-05
-6.50050587258e-05
-5.67239552845e-05
-6.49898804334e-05
-0.000102878878781
-0.000131593932954
-0.00014979635255
-0.000160574804326
-0.000165873335333
-0.000168700382923
-0.000170114415589
-0.000171035978145
-0.000171656283642
-0.000171667386517
-0.000171055747908
-0.00017013597875
-0.00016872088753
-0.000165895947657
-0.000160601183969
-0.000149824578882
-0.000131620410432
-0.00010289855992
-6.49984194578e-05
-7.33395274302e-05
-0.00013159221452
-0.000172547465785
-0.000197843763032
-0.000212491129183
-0.000219646197919
-0.000223137249092
-0.000225251566881
-0.000227370282039
-0.000229162227671
-0.00022917277447
-0.0002273827445
-0.000225258054609
-0.000223137244612
-0.000219647306319
-0.000212501245001
-0.000197859980669
-0.000172566119348
-0.000131607079434
-7.334768035e-05
-7.92577989803e-05
-0.000149794684132
-0.000197847646546
-0.000226426142785
-0.000241871601125
-0.000248358387671
-0.000250172966104
-0.00024550531842
-0.000246174497195
-0.00024769013947
-0.000247696256645
-0.00024617368282
-0.000245484726614
-0.00025015036001
-0.000248334302445
-0.000241859016666
-0.000226422900879
-0.000197850859534
-0.000149800368857
-7.92653992021e-05
-8.34653553049e-05
-0.000160581448659
-0.000212512535084
-0.000241893771061
-0.000255720240746
-0.000256250583374
-0.000258892986419
-0.000259471587643
-0.000260256797551
-0.000261472545086
-0.000261476507774
-0.000260252214515
-0.000259449926545
-0.000258867463258
-0.000256221127869
-0.000255684872903
-0.000241868169455
-0.000212497384225
-0.0001605751546
-8.34717072654e-05
-8.61505679243e-05
-0.000165898819068
-0.000219699876113
-0.000248422509683
-0.000256282010401
-0.000262158509404
-0.000264580844283
-0.000264753925814
-0.000264710781224
-0.000265322662485
-0.000265326017839
-0.000264705929691
-0.000264734269141
-0.000264550344364
-0.000262121283353
-0.000256245425883
-0.000248378606003
-0.000219670397271
-0.000165884840786
-8.61568637443e-05
-8.7945880152e-05
-0.000168743008501
-0.00022322810495
-0.000250288010479
-0.000258965995589
-0.00026462265789
-0.00026546186702
-0.000263792146781
-0.000262195008952
-0.000261805937414
-0.000261809655007
-0.000262191368725
-0.00026377657169
-0.00026543476112
-0.000264588558536
-0.000258930171252
-0.000250242904029
-0.000223194961809
-0.000168725211184
-8.79513889461e-05
-8.87435751369e-05
-0.000170165606239
-0.000225367281919
-0.000245642106568
-0.000259588586661
-0.00026484130037
-0.000263839712612
-0.000259989858134
-0.000256584874075
-0.000255054227455
-0.000255059509183
-0.000256586842696
-0.000259983628286
-0.000263825268015
-0.000264820678915
-0.000259561792764
-0.000245608886755
-0.000225348357867
-0.000170154396465
-8.87488972051e-05
-8.87192995214e-05
-0.000171077795105
-0.000227479903543
-0.000246290098797
-0.000260376168192
-0.000264819437353
-0.000262275724811
-0.000256618944374
-0.000251326945924
-0.00024856297594
-0.000248570824382
-0.000251336998418
-0.000256627034442
-0.000262281686304
-0.00026482507215
-0.000260381135303
-0.000246294185605
-0.000227489366354
-0.000171080965264
-8.87229329795e-05
-8.83213333111e-05
-0.000171678686044
-0.000229237359727
-0.000247774429782
-0.000261571862783
-0.00026542337936
-0.000261884877388
-0.00025509606808
-0.000248574342765
-0.00024494307669
-0.000244954441001
-0.000248593845234
-0.000255120529769
-0.000261914319154
-0.000265457585354
-0.000261609121993
-0.000247811597306
-0.000229276686637
-0.000171695277096
-8.83184436339e-05
-8.83419555781e-05
-0.000171674134732
-0.000229215714135
-0.000247749221104
-0.000261546496483
-0.000265405464326
-0.00026188055658
-0.000255108539518
-0.000248601924527
-0.000244980706942
-0.000244994547825
-0.000248630079438
-0.000255148070258
-0.000261930738474
-0.000265464137399
-0.000261609703913
-0.000247810399478
-0.000229275500504
-0.000171698687375
-8.83305174799e-05
-8.87568254692e-05
-0.000171055410499
-0.0002274061538
-0.000246202162577
-0.000260293091708
-0.000264758596505
-0.000262248949648
-0.000256636013687
-0.000251382662093
-0.000248643121668
-0.000248657976728
-0.000251417557208
-0.000256689016874
-0.000262318081463
-0.000264838041955
-0.000260379417816
-0.000246288289521
-0.000227488201546
-0.000171092354144
-8.87456950058e-05
-8.87863614061e-05
-0.000170133014762
-0.000225263470448
-0.000245492038107
-0.000259460401702
-0.000264751780111
-0.000263801090704
-0.000260009295196
-0.000256656870428
-0.000255156792099
-0.000255171709939
-0.000256694529374
-0.000260067753131
-0.000263876190921
-0.000264838149415
-0.000259557327606
-0.000245596643213
-0.000225353588629
-0.000170178066101
-8.87810443581e-05
-8.79909997115e-05
-0.000168719990782
-0.000223131740845
-0.000250132508631
-0.000258848794542
-0.000264533770686
-0.000265422843011
-0.000263815872187
-0.000262275972379
-0.00026191518104
-0.000261929620943
-0.00026231274143
-0.000263872003922
-0.000265491312523
-0.000264608647728
-0.000258929777606
-0.000250232626058
-0.000223208939349
-0.000168761805772
-8.79918564876e-05
-8.61994543211e-05
-0.000165903705924
-0.000219643182691
-0.000248308657705
-0.000256188234665
-0.000262085176347
-0.000264552111634
-0.000264782596447
-0.000264790450441
-0.000265430610599
-0.000265444483765
-0.000264825188101
-0.00026483224696
-0.000264608598213
-0.000262142186985
-0.000256246024506
-0.000248373893549
-0.000219694918729
-0.000165933176155
-8.62037325894e-05
-8.35208799444e-05
-0.000160624149822
-0.000212511497646
-0.000241846473846
-0.000255642658339
-0.000256206435456
-0.000258885559709
-0.000259510194696
-0.000260336059301
-0.000261573936913
-0.000261587710678
-0.00026036959608
-0.000259555253383
-0.000258933950759
-0.000256249713908
-0.000255682569946
-0.000241880914206
-0.000212539086465
-0.000160640705692
-8.35271184193e-05
-7.93158397351e-05
-0.000149870093703
-0.000197896483709
-0.000226439176813
-0.000241856925238
-0.000248341966175
-0.00025018871663
-0.000245556335315
-0.000246254749036
-0.000247783994471
-0.000247798539065
-0.00024628966855
-0.000245602266992
-0.00025024118279
-0.000248381472924
-0.000241885957578
-0.000226460201861
-0.00019791131117
-0.000149879318699
-7.93236298166e-05
-7.33979208972e-05
-0.000131686403004
-0.000172626619513
-0.000197894740113
-0.000212518518017
-0.000219669128681
-0.000223177356236
-0.000225321103204
-0.000227463248899
-0.000229259680587
-0.000229276773642
-0.000227505176945
-0.000225376410803
-0.000223230211983
-0.000219710112898
-0.00021254901196
-0.000197914624828
-0.000172639812914
-0.000131696146487
-7.34085870843e-05
-6.50466864369e-05
-0.000102969795716
-0.000131676156127
-0.000149858942413
-0.000160619981188
-0.000165914384609
-0.000168747408521
-0.000170174943712
-0.000171105775562
-0.000171727432928
-0.000171742799791
-0.000171142277252
-0.000170224386947
-0.000168796988663
-0.000165955891458
-0.000160653777278
-0.000149883014811
-0.000131694181564
-0.000102984762366
-6.50600875517e-05
-5.67649064493e-05
-6.50469464812e-05
-7.3394601621e-05
-7.93097932414e-05
-8.35148294617e-05
-8.61985815081e-05
-8.799832949e-05
-8.88038277438e-05
-8.87846111947e-05
-8.83823353878e-05
-8.83926246557e-05
-8.88068020381e-05
-8.88347709287e-05
-8.80323708459e-05
-8.6231095603e-05
-8.35438358613e-05
-7.93332294825e-05
-7.34137256171e-05
-6.50632087056e-05
-5.67772950294e-05
-3.84729236952e-05
-6.34876462693e-05
-8.72147318545e-05
-0.000105464308842
-0.000118271585714
-0.000126467601299
-0.000130161897739
-0.000129025759001
-0.000124148067979
-0.000119344053938
-0.000119361628862
-0.000124196774456
-0.000129098478965
-0.000130244790506
-0.000126547350164
-0.000118341179898
-0.000105522292108
-8.72612522433e-05
-6.35239050797e-05
-3.84943613128e-05
-6.3480562975e-05
-0.00015946672084
-0.00022574116255
-0.000273273897398
-0.000304842226659
-0.000324674844257
-0.000335479779903
-0.000339821336696
-0.000340114191297
-0.000339105501005
-0.000339121462238
-0.000340150671105
-0.00033987396689
-0.000335544129542
-0.000324749002906
-0.000304921669119
-0.000273352968263
-0.000225809523888
-0.00015951587432
-6.35035164015e-05
-8.72034407926e-05
-0.000225739139779
-0.0003150426987
-0.000378254734323
-0.000420543608369
-0.000446810649645
-0.000461431911215
-0.000469616402588
-0.000473154173978
-0.00047496720368
-0.000474979843903
-0.000473168222424
-0.000469636975088
-0.000461456495568
-0.000446845504336
-0.000420592573237
-0.000378310638183
-0.000315093636646
-0.000225775743333
-8.72227056698e-05
-0.000105452804785
-0.000273271342341
-0.000378261120397
-0.000449859162666
-0.000495760821615
-0.000522099975346
-0.000532285747491
-0.000544475604693
-0.000550078158866
-0.000553010133021
-0.000553015641521
-0.000550081612717
-0.000544474940726
-0.000532274806702
-0.00052208966873
-0.000495769509317
-0.000449879878435
-0.000378284671084
-0.000273290857357
-0.000105465243492
-0.000118261638129
-0.000304847375092
-0.000420568992798
-0.000495785200672
-0.000541155554049
-0.00056525037262
-0.00057477138969
-0.000580257870404
-0.000583696486666
-0.000586049823128
-0.000586051469893
-0.000583687595701
-0.000580232921105
-0.000574728200607
-0.00056520725127
-0.000541132054841
-0.00049577081545
-0.000420564559344
-0.000304850218084
-0.000118270694139
-0.000126454779714
-0.000324694915724
-0.000446867393106
-0.000522163588176
-0.000565298465997
-0.000583881033566
-0.000589004265467
-0.000589335664005
-0.000589384184584
-0.000590274384826
-0.000590274341263
-0.000589368658311
-0.000589297540593
-0.00058894631984
-0.00058381895071
-0.000565246025178
-0.000522122036626
-0.000446843429812
-0.000324689543316
-0.000126466720516
-0.000130129355417
-0.000335508950292
-0.000461517881171
-0.000532369328934
-0.000574877433413
-0.000589078080626
-0.000589318052689
-0.000584854867216
-0.000580897553196
-0.000579383876093
-0.000579381871982
-0.000580873191035
-0.000584817939321
-0.00058926267685
-0.000589017928357
-0.000574825203396
-0.000532334701329
-0.000461493598809
-0.000335505986367
-0.000130148548897
-0.000128960405396
-0.000339845915712
-0.000469721709474
-0.000544609867796
-0.000580419636996
-0.000589486439224
-0.000584945306305
-0.000575617338305
-0.000568734462518
-0.000565299336569
-0.000565300203929
-0.000568723590675
-0.000575596847496
-0.000584917034481
-0.000589456968066
-0.000580398880089
-0.000544600366808
-0.000469717822485
-0.000339856097198
-0.000128981290822
-0.000124057814525
-0.000340120735163
-0.000473264032881
-0.000550237176178
-0.000583893386914
-0.000589582895465
-0.000581073807953
-0.000568807449345
-0.00055846637577
-0.000553147105723
-0.000553153105947
-0.000558474339611
-0.000568815462113
-0.000581082383018
-0.000589603976269
-0.000583921869826
-0.000550269546049
-0.000473293987925
-0.000340149132765
-0.000124065408972
-0.000119257212234
-0.000339087709761
-0.000475032012672
-0.000553150795857
-0.000586235226819
-0.000590466884174
-0.000579538252069
-0.000565390077587
-0.000553181721203
-0.000546707945736
-0.0005467208039
-0.000553211336953
-0.000565436664065
-0.000579600796193
-0.000590544824081
-0.000586322567039
-0.000553236510431
-0.000475107934488
-0.00033913127394
-0.000119234020447
-0.000119299669684
-0.000339089660736
-0.000475005108586
-0.000553102865816
-0.000586182464127
-0.00059042744042
-0.00057951999867
-0.000565402216082
-0.000553220965914
-0.000546765319764
-0.000546784820879
-0.000553271666038
-0.000565483928025
-0.000579628693601
-0.000590555213631
-0.000586321739272
-0.000553235635844
-0.00047511303003
-0.000339143467126
-0.000119249005134
-0.000124160316525
-0.000340114590238
-0.000473167311237
-0.000550107572971
-0.000583747431548
-0.000589463296668
-0.000580997626463
-0.000568822860115
-0.000558560002757
-0.000553291108676
-0.000553315483233
-0.000558627144168
-0.000568934754403
-0.00058114945581
-0.000589628386563
-0.000583919439974
-0.000550268823419
-0.000473306831232
-0.000340183921832
-0.000124105811794
-0.000129083569634
-0.000339837206913
-0.000469605182303
-0.000544450617734
-0.000580225967844
-0.0005893188694
-0.00058486454576
-0.000575646280593
-0.000568869615801
-0.000565495500639
-0.000565522316249
-0.000568944654148
-0.000575770731353
-0.000585026583407
-0.000589493320458
-0.000580399857665
-0.000544608924179
-0.000469748870445
-0.000339917392764
-0.000129044497893
-0.000130247247836
-0.000335516900662
-0.000461418247226
-0.000532231105497
-0.000574680523019
-0.000588904718848
-0.000589233412459
-0.000584895380997
-0.000581062088798
-0.000579589922157
-0.00057961660157
-0.000581134039411
-0.000585016118628
-0.000589379629125
-0.000589057053316
-0.000574828548896
-0.000532357698354
-0.000461547263587
-0.000335597160382
-0.000130232610513
-0.000126569274673
-0.000324748624499
-0.000446826707299
-0.000522050848853
-0.000565151161989
-0.000583748940468
-0.000588942260388
-0.000589377741823
-0.00058952639642
-0.000590477315498
-0.000590502585116
-0.0005895944069
-0.000589478490318
-0.000589056180481
-0.000583861912562
-0.000565261880591
-0.000522160915818
-0.000446928775801
-0.000324816209291
-0.000126569909486
-0.000118383750788
-0.000304967578975
-0.000420621376582
-0.000495771433274
-0.000541105267623
-0.000565191004989
-0.000574753858955
-0.000580312779188
-0.000583828887377
-0.000586240714226
-0.000586264160254
-0.000583890788047
-0.000580397813738
-0.000574840761079
-0.000565272466839
-0.000541187981383
-0.000495852619947
-0.000420694865608
-0.000305018503914
-0.000118391828486
-0.000105586274386
-0.000273459876512
-0.000378405930946
-0.000449944022346
-0.000495797009418
-0.000522114198346
-0.000532318537208
-0.000544556021705
-0.00055021190141
-0.000553185107896
-0.000553209047542
-0.000550273414592
-0.000544638311555
-0.000532397554084
-0.00052219316844
-0.000495870877145
-0.000450011091453
-0.000378462569446
-0.000273499897317
-0.000105599688338
-8.73418190325e-05
-0.000225975993666
-0.000315254712579
-0.000378412215175
-0.00042065179652
-0.000446892705708
-0.000461517898119
-0.000469726491057
-0.000473298075994
-0.000475123119056
-0.000475148451365
-0.000473363625078
-0.00046981755119
-0.000461615422508
-0.000446985218605
-0.000420734107337
-0.000378481586635
-0.000315309924081
-0.000226016006346
-8.73620581437e-05
-6.36053361475e-05
-0.000159702687866
-0.000225970416904
-0.000273459914707
-0.000304987617772
-0.000324797696653
-0.000335598082689
-0.000339945803731
-0.000340247031124
-0.000339243968947
-0.00033926776475
-0.000340310268151
-0.000340037325837
-0.000335702090314
-0.000324900337149
-0.000305079423972
-0.000273535999773
-0.00022603001608
-0.0001597468402
-6.36320572832e-05
-3.85643338957e-05
-6.36257141379e-05
-8.73584526307e-05
-0.000105594059874
-0.000118387148757
-0.000126576271408
-0.000130267001952
-0.000129122886787
-0.000124230202007
-0.000119414441039
-0.000119427363797
-0.000124269154165
-0.000129185929654
-0.000130344284521
-0.000126654642108
-0.000118457280975
-0.000105651604109
-8.74042707835e-05
-6.36619926302e-05
-3.85931164956e-05
-1.59796722643e-05
-4.48149795023e-05
-7.12602968836e-05
-9.17182492263e-05
-0.000103767799998
-0.000107065636933
-0.000100828093231
-8.54390325937e-05
-6.72972725528e-05
-5.5792693354e-05
-5.58061873614e-05
-6.73427215257e-05
-8.55272575137e-05
-0.000100958468469
-0.000107196949769
-0.000103877960618
-9.18067828087e-05
-7.13251558165e-05
-4.48656299577e-05
-1.60160877424e-05
-4.47938279925e-05
-0.000157368047242
-0.000235835331564
-0.000296839362219
-0.000340270655207
-0.000368598629457
-0.000383269584682
-0.00038556253493
-0.000379655070965
-0.000373808483083
-0.00037383414926
-0.000379727855328
-0.000385687124218
-0.000383433497986
-0.00036877477524
-0.000340441047266
-0.000296992087402
-0.000235960779537
-0.000157462345995
-4.48486130809e-05
-7.12298220628e-05
-0.000235826175345
-0.000345346568622
-0.000431620013083
-0.0004956617124
-0.00053998433647
-0.000568941486679
-0.000583555175008
-0.000581750721548
-0.000580422839515
-0.000580434388974
-0.000581772574334
-0.000583625038682
-0.0005690526161
-0.000540114953303
-0.000495800257837
-0.000431748119538
-0.000345448154156
-0.000235905236835
-7.1278516211e-05
-9.16888258499e-05
-0.000296829961342
-0.000431628812054
-0.000532355756058
-0.000603120479395
-0.000645856486726
-0.000678059966666
-0.000696029963119
-0.000703983557768
-0.000707232908377
-0.00070724286891
-0.000704000151129
-0.000696062699476
-0.000678104978292
-0.000645911489679
-0.000603199243647
-0.000532436630244
-0.000431695755885
-0.000296880281914
-9.17148947742e-05
-0.000103728515412
-0.000340264277069
-0.000495686971695
-0.000603143230048
-0.000669725724982
-0.000714742874261
-0.000740673015114
-0.000755025248612
-0.000762861283223
-0.000766918645149
-0.000766924580671
-0.000762867271
-0.00075503819828
-0.000740686041555
-0.000714750518215
-0.000669754433881
-0.000603176751838
-0.000495721678122
-0.000340291858521
-0.000103738460277
-0.00010700963798
-0.000368593018384
-0.00054002984374
-0.000645897395967
-0.000714777858573
-0.000752629414644
-0.000770894532346
-0.000779002204897
-0.000783184651066
-0.000785615629829
-0.000785614809451
-0.000783173889752
-0.000779010284907
-0.00077092772634
-0.000752636722824
-0.000714763011639
-0.000645892637098
-0.000540043908936
-0.000368613233092
-0.000107008490375
-0.000100730644672
-0.000383248625701
-0.000569000936242
-0.00067813636149
-0.000740749426503
-0.00077094745007
-0.000781251933749
-0.000782732777198
-0.000782740512439
-0.000782706837175
-0.000782699517351
-0.00078271221751
-0.000782739235523
-0.000781329194889
-0.000771013936157
-0.000740739667458
-0.000678127096945
-0.000569015898467
-0.000383275730563
-0.000100719310562
-8.52991294854e-05
-0.00038551539028
-0.000583625651165
-0.000696130964466
-0.000755140057917
-0.000779114867611
-0.000782809045919
-0.000778506790749
-0.000773604190982
-0.0007710190752
-0.000771010425799
-0.000773576909125
-0.000778529559465
-0.000782932374698
-0.000779251876652
-0.000755170313571
-0.000696140605752
-0.000583647339288
-0.000385547690145
-8.52519637147e-05
-6.71596758541e-05
-0.00037958209325
-0.000581811698234
-0.000704099515223
-0.000763006383886
-0.000783345091492
-0.000782888066043
-0.000773681235358
-0.000764489056636
-0.000759527350484
-0.000759524668671
-0.000764482962498
-0.000773747687574
-0.000783070570298
-0.000783542543015
-0.000763085386578
-0.00070414391447
-0.000581847010073
-0.000379614458738
-6.70558867691e-05
-5.56638786025e-05
-0.000373704643988
-0.000580428049254
-0.000707320511787
-0.000767055833068
-0.000785785223831
-0.000782875906449
-0.000771144232766
-0.000759584220199
-0.000753201083978
-0.000753208508033
-0.000759609753903
-0.000771263968515
-0.000783122817154
-0.000786041918608
-0.000767187047503
-0.000707416144475
-0.000580507387702
-0.000373739305186
-5.55069991726e-05
-5.56879785109e-05
-0.00037371368164
-0.000580399943273
-0.000707277241948
-0.000767011278068
-0.000785740798363
-0.000782844393087
-0.000771139801455
-0.000759608550897
-0.00075324655906
-0.000753263738845
-0.000759663930784
-0.000771307425367
-0.000783148825278
-0.000786051595532
-0.000767188441805
-0.000707416605841
-0.000580515048502
-0.000373756838129
-5.55096797406e-05
-6.7257160053e-05
-0.000379611788731
-0.000581713383758
-0.000703972063298
-0.00076287507153
-0.000783215319765
-0.000782789582798
-0.000773659046509
-0.000764545955882
-0.000759644265063
-0.000759668691573
-0.000764622098001
-0.000773859518959
-0.000783134559978
-0.000783562465103
-0.000763082326944
-0.000704142469888
-0.00058186559955
-0.000379666538066
-6.70745647177e-05
-8.54682231494e-05
-0.000385572119406
-0.000583526811798
-0.000695978948806
-0.000754975274488
-0.00077896170649
-0.000782715964118
-0.000778521036249
-0.000773732625683
-0.000771229203092
-0.000771256502588
-0.000773816701782
-0.000778730959452
-0.000783061075796
-0.000779299835818
-0.00075517273121
-0.000696147923757
-0.00058369317603
-0.000385638266281
-8.53021003822e-05
-0.00010091832841
-0.00038332918702
-0.000568946135261
-0.000678006088901
-0.000740596693413
-0.000770825545162
-0.000781221507821
-0.000782826565518
-0.000782955919832
-0.000782995199726
-0.000783022036507
-0.000783033851725
-0.000783009775934
-0.000781508266953
-0.000771082320061
-0.000740748326505
-0.000678151114883
-0.000569097677994
-0.000383401574553
-0.000100801241617
-0.000107188495391
-0.000368702997629
-0.000540036925036
-0.000645836976404
-0.000714672471974
-0.000752537903375
-0.000770885595241
-0.000779105104029
-0.000783384309721
-0.000785875052039
-0.000785899944879
-0.000783453000689
-0.000779241914739
-0.000771069637116
-0.000752685223879
-0.000714781066412
-0.000645946166194
-0.000540159909829
-0.000368767059311
-0.000107110922369
-0.00010389881938
-0.000340422862092
-0.000495783543284
-0.000603175145636
-0.000669729082839
-0.000714706325363
-0.000740652221912
-0.000755051584326
-0.000762950141341
-0.000767043828562
-0.000767070025147
-0.000763018690864
-0.000755156968914
-0.00074076444097
-0.000714798566629
-0.000669817116289
-0.000603276673983
-0.000495876307133
-0.000340468288899
-0.000103848176422
-9.1851654381e-05
-0.000297044394588
-0.000431814967073
-0.000532489863949
-0.000603202342253
-0.00064589838347
-0.000678095534756
-0.000696080096919
-0.000704072152631
-0.000707352639634
-0.000707380355659
-0.000704146028692
-0.000696183887094
-0.000678204298905
-0.000645995097209
-0.000603304305241
-0.000532582453033
-0.000431886120931
-0.00029707672533
-9.18239152596e-05
-7.13814615221e-05
-0.000236077496331
-0.000345597394504
-0.000431827916396
-0.000495821483072
-0.000540111299293
-0.000569059027006
-0.000583676685396
-0.000581891554722
-0.000580581510218
-0.000580612695195
-0.000581976156151
-0.000583807221387
-0.000569207343952
-0.000540251841393
-0.000495942261457
-0.000431920994107
-0.00034566072585
-0.000236106901884
-7.13741646419e-05
-4.49084634614e-05
-0.00015760903802
-0.000236099397668
-0.000297069856339
-0.000340461640663
-0.000368767346545
-0.000383432920365
-0.000385726728637
-0.000379827081253
-0.000373987833541
-0.000374026131742
-0.000379929862064
-0.000385875272351
-0.000383601086731
-0.000368925239631
-0.00034058909197
-0.000297160142354
-0.000236155405857
-0.000157637604199
-4.4917673855e-05
-1.60362846978e-05
-4.49599602984e-05
-7.14295454862e-05
-9.18761048162e-05
-0.000103905265105
-0.000107185605098
-0.000100923833624
-8.54967178396e-05
-6.73169194842e-05
-5.57834835752e-05
-5.58022774647e-05
-6.73713194556e-05
-8.55825163051e-05
-0.000101030756356
-0.000107289164952
-0.000103989162327
-9.19355757311e-05
-7.14694660411e-05
-4.4984674431e-05
-1.60571220158e-05
-2.52819708579e-06
-3.31062708011e-05
-5.71953073084e-05
-7.27158361982e-05
-7.43095704024e-05
-6.35730422576e-05
-4.34034709987e-05
-2.20480861923e-05
-1.01811559739e-05
-5.97617903025e-06
-5.983681652e-06
-1.01933903229e-05
-2.2005544063e-05
-4.34381580581e-05
-6.3643785014e-05
-7.43736888367e-05
-7.27799361567e-05
-5.72322422947e-05
-3.31368414504e-05
-2.56784224843e-06
-3.30599568715e-05
-0.000152035085717
-0.000232980833532
-0.00029474188033
-0.000337275180729
-0.000360387721201
-0.000364370247323
-0.000352709630536
-0.000337179851353
-0.000327590688241
-0.000327613633324
-0.000337248544527
-0.000352823834849
-0.000364564546973
-0.000360614853323
-0.000337483949044
-0.000294920067053
-0.000233123339804
-0.000152143663241
-3.31450262631e-05
-5.71282145671e-05
-0.00023296744193
-0.000353927288845
-0.000452154010833
-0.000529296862256
-0.000585291548021
-0.000621383658634
-0.000629777519892
-0.000635954519154
-0.000635718593872
-0.000635751568657
-0.000636034254191
-0.000629845411756
-0.000621584120846
-0.000585524761328
-0.000529505349979
-0.000452322290847
-0.000354051587915
-0.000233054707082
-5.71994292628e-05
-7.26495936686e-05
-0.00029472435617
-0.000452160853561
-0.00057649679761
-0.000670050328936
-0.000732179537874
-0.000774728964281
-0.000798591540903
-0.000811094945744
-0.000816306124497
-0.000816330262262
-0.000811152159567
-0.000798683180081
-0.00077491035975
-0.000732365659506
-0.000670200147436
-0.000576619375065
-0.000452245197342
-0.000294768697995
-7.26638365329e-05
-7.41979012137e-05
-0.000337249925946
-0.000529320032944
-0.000670070262174
-0.000763551081353
-0.000823833013857
-0.000860786453633
-0.000882379993008
-0.00089447015671
-0.000900257032354
-0.000900264480496
-0.000894489858128
-0.000882485609176
-0.000861021119352
-0.000824068747578
-0.000763690946466
-0.000670149468328
-0.000529373509227
-0.000337257851722
-7.41629487902e-05
-6.34662309128e-05
-0.000360360455963
-0.00058533056486
-0.00073220572059
-0.000823841207114
-0.000875856092747
-0.000903717389581
-0.000918329692906
-0.000925985836275
-0.000929700669781
-0.000929687250332
-0.000925954396866
-0.000918430026976
-0.000904045599097
-0.000876246004969
-0.000824095084197
-0.000732291389363
-0.000585377423685
-0.000360344646304
-6.33455783008e-05
-4.33112943867e-05
-0.00036433173274
-0.00062143504647
-0.000774762825749
-0.000860794405877
-0.000903725800239
-0.000922724312659
-0.000929466369848
-0.000931432947102
-0.000932120443888
-0.000932089633453
-0.000931356729377
-0.000929555262669
-0.000923140604875
-0.000904273910483
-0.000861198455818
-0.000774899418047
-0.000621478602329
-0.00036430131949
-4.3095427564e-05
-2.19646278377e-05
-0.000352678184831
-0.000629828570816
-0.000798629595568
-0.000882383010905
-0.000918355518591
-0.000929509657986
-0.000928821228108
-0.000924815074015
-0.000922201917118
-0.000922165767838
-0.000924729220762
-0.000928927561099
-0.000930000853873
-0.000919023644268
-0.000882885460643
-0.000798812719884
-0.00062982666576
-0.000352621184926
-2.16648471136e-05
-1.01569568186e-05
-0.000337113086046
-0.000635890734235
-0.000811082555177
-0.00089447492428
-0.000926040919326
-0.0009315315467
-0.000924894128217
-0.00091582074881
-0.000910406778308
-0.000910378973639
-0.00091576216111
-0.000925063293107
-0.00093210794776
-0.0009267867669
-0.000895039297721
-0.000811335226854
-0.000635974976666
-0.000337049213848
-9.7679155306e-06
-5.88552590596e-06
-0.000327475866154
-0.000635616213509
-0.000816270335251
-0.000900267938182
-0.000929769468434
-0.000932247856564
-0.000922343901657
-0.000910482821466
-0.000903482572163
-0.000903469785704
-0.000910470762953
-0.00092259095639
-0.000932910297098
-0.000930582032951
-0.000900878960554
-0.000816562265375
-0.000635728796123
-0.000327427480194
-5.49614587341e-06
-5.82499051489e-06
-0.000327440430509
-0.000635603946465
-0.000816239151212
-0.000900211865039
-0.000929689478056
-0.000932164779176
-0.000922291599985
-0.000910465281646
-0.000903490459226
-0.000903491839587
-0.000910495111242
-0.000922606155768
-0.000932909694142
-0.000930570180385
-0.000900868946995
-0.000816560644761
-0.000635733955473
-0.000327421562859
-5.46384894222e-06
-1.0010676171e-05
-0.000337043044442
-0.000635846451958
-0.000810984081383
-0.000894317743554
-0.00092582391565
-0.000931310742423
-0.000924751973078
-0.00091577343371
-0.000910430483219
-0.000910440369192
-0.000915824829381
-0.000925099727854
-0.000932100673878
-0.000926747078365
-0.000895003774432
-0.000811324770182
-0.00063598563736
-0.000337039745759
-9.67237680217e-06
-2.18577987383e-05
-0.000352601105456
-0.00062964657274
-0.000798469549859
-0.000882225977319
-0.000918171949746
-0.000929360444689
-0.000928792324776
-0.000924921798932
-0.000922401154702
-0.00092241034115
-0.000924968843839
-0.000929136192754
-0.000930133799263
-0.000919063504306
-0.000882882847463
-0.000798804452823
-0.000629823591601
-0.000352624223962
-2.15403243974e-05
-4.32701659337e-05
-0.000364319415514
-0.000621356513171
-0.000774694665096
-0.000860750947482
-0.000903723025945
-0.000922823456055
-0.000929714583658
-0.000931808096291
-0.000932570871126
-0.000932576066046
-0.000931834947865
-0.000929993434591
-0.000923467393024
-0.000904447496648
-0.000861272259761
-0.000774934673732
-0.000621527409748
-0.000364335379829
-4.29971582744e-05
-6.35060721515e-05
-0.000360378188524
-0.000585307897693
-0.000732181633316
-0.000823854024404
-0.000875963624225
-0.000903943547962
-0.000918689318522
-0.000926441018997
-0.000930202485594
-0.000930205232526
-0.000926453939529
-0.000918879115715
-0.000904383701148
-0.000876444123015
-0.000824172276014
-0.000732325508313
-0.000585433309749
-0.000360379242403
-6.32777118695e-05
-7.42831281487e-05
-0.000337285423938
-0.000529328095819
-0.000670052478861
-0.000763556394937
-0.000823919955118
-0.000860971418669
-0.000882620518234
-0.000894757949883
-0.00090057816286
-0.000900591099365
-0.000894796491363
-0.000882763653486
-0.000861241262545
-0.000824178906134
-0.000763714972123
-0.000670161819587
-0.000529405335031
-0.000337266928365
-7.41011040834e-05
-7.27257002766e-05
-0.000294773146209
-0.000452207937956
-0.000576535477151
-0.000670075243836
-0.000732219163242
-0.000774793527185
-0.000798667723901
-0.0008111928615
-0.000816425234179
-0.00081645561996
-0.000811276670895
-0.000798811613295
-0.000774987797277
-0.000732383736072
-0.000670198454341
-0.000576622613818
-0.00045224631559
-0.000294748051751
-7.26009684189e-05
-5.71931837524e-05
-0.000233035711791