/*--------------------------------*- C++ -*----------------------------------*\
| =========                 |                                                 |
| \\      /  F ield         | OpenFOAM: The Open Source CFD Toolbox           |
|  \\    /   O peration     | Version:  3.0.1                                 |
|   \\  /    A nd           | Web:      www.OpenFOAM.org                      |
|    \\/     M anipulation  |                                                 |
\*---------------------------------------------------------------------------*/
FoamFile
{
    version     2.0;
    format      ascii;
    class       surfaceVectorField;
    location    "0.6";
    object      ddt0(Uf);
}
// * * * * * * * * * * * * * * * * * * * * * * * * * * * * * * * * * * * * * //

dimensions      [0 1 -2 0 0 0 0];

internalField   nonuniform List<vector> 
45932
(
(0.00222729799045 0.000616460817102 -0.00128345734343)
(0.00116822182403 0.00105352541922 -0.00140395420613)
(0.00124269499001 0.000660012774246 -0.00244370126241)
(0.00383077199777 0.000842772556494 -0.00122475549621)
(0.00333263221488 0.00129431287148 -0.00145644118265)
(0.00330858155403 0.000844532103213 -0.00243846363564)
(0.00385392351961 0.00124107868699 -0.00116068035992)
(0.0043396067017 0.00201579377297 -0.00143856499069)
(0.00425156126143 0.00129331778807 -0.00240951014666)
(0.00194914611639 0.00159035343945 -0.00109984972913)
(0.00328191634784 0.00287072064731 -0.00138661348086)
(0.00319905914062 0.001811056902 -0.00233892098748)
(-0.00116744870511 0.00172260266616 -0.00104362956301)
(0.000534557622647 0.00337292051826 -0.00133951055624)
(0.000513351731806 0.00210897509039 -0.00226779305785)
(-0.00454668917949 0.00159316180223 -0.000984213312471)
(-0.0029424755172 0.00337802657971 -0.00127398080985)
(-0.00288241465661 0.00211017884064 -0.0021570342357)
(-0.00715008266507 0.00123754534629 -0.000921897739935)
(-0.00616186423718 0.00286155819658 -0.00119381408906)
(-0.0060357525109 0.00179939490254 -0.00201223189709)
(-0.00823935363486 0.00079712450455 -0.000847288238593)
(-0.00813221913536 0.00198249989284 -0.00109506214795)
(-0.00798449054495 0.00126658260159 -0.00183263006999)
(-0.0078941119221 0.000443520384735 -0.000750965128456)
(-0.00841962174648 0.00112710611894 -0.000957921204769)
(-0.00829729739041 0.00074427768527 -0.00160276900813)
(-0.00675543724664 0.000235843529807 -0.0006417898848)
(-0.00752279139564 0.000571422535412 -0.000794759174294)
(-0.00744076417474 0.000405249538781 -0.00133953526318)
(-0.00532953151562 0.000131490288958 -0.000535125902889)
(-0.0061598587484 0.0002777374635 -0.000637598137682)
(-0.00610591036571 0.000225598472452 -0.00109489953405)
(-0.00390782715331 8.76168956257e-05 -0.000440556731656)
(-0.00465514791651 0.000134758267424 -0.000501244510773)
(-0.00462043000415 0.00013368069243 -0.000878518158478)
(-0.00261161252425 7.3091759408e-05 -0.000356116219435)
(-0.00324816314827 7.17815641301e-05 -0.000398188417313)
(-0.00322273759473 9.58034966192e-05 -0.000709155285567)
(-0.00152758702254 6.58200425501e-05 -0.000281219678725)
(-0.00206702614266 3.99626986559e-05 -0.000299862259186)
(-0.00204181999653 7.70655146263e-05 -0.000553137907779)
(-0.000705256406867 6.35183134446e-05 -0.000216417633336)
(-0.00111468982609 2.4467789147e-05 -0.000221063130374)
(-0.00109129661331 6.67037395064e-05 -0.000407059308126)
(-0.000115164474611 6.4173271361e-05 -0.000160262214163)
(-0.000409596820738 2.29865035569e-05 -0.000153917927358)
(-0.000388285628172 6.2740292261e-05 -0.000298299663579)
(0.000272493441266 6.40734858178e-05 -0.000116047346174)
(7.7295927391e-05 2.10549171404e-05 -0.000100671689855)
(9.56364872117e-05 6.03874819943e-05 -0.00020442442463)
(0.000504369591966 6.36784812322e-05 -8.26260217295e-05)
(0.000386326612971 1.96752012686e-05 -6.02832919027e-05)
(0.000401208196875 5.88331833427e-05 -0.000131188726512)
(0.000624334737238 6.30674268453e-05 -5.85855566928e-05)
(0.00056227895213 1.86126580409e-05 -3.11586008431e-05)
(0.000573691546217 5.77462186455e-05 -7.71252211308e-05)
(0.000667660100803 6.22866547434e-05 -4.2121139377e-05)
(0.00064427248815 1.75139366509e-05 -1.11363930438e-05)
(0.000652646259045 5.6892446292e-05 -3.90920519524e-05)
(0.000660906690052 6.14052366965e-05 -3.14097976552e-05)
(0.00066282595369 1.6310030444e-05 1.87531032221e-06)
(0.000668781579432 5.61222350965e-05 -1.37206595579e-05)
(0.000623262133722 6.0489542475e-05 -2.48250438433e-05)
(0.000640708487001 1.50070314855e-05 9.86067145196e-06)
(0.000644824079141 5.53979781631e-05 2.40336491377e-06)
(0.000568503180276 5.96022065019e-05 -2.11113604775e-05)
(0.000594494101202 1.36833839187e-05 1.43411432611e-05)
(0.000597250738533 5.47167064746e-05 1.19771359603e-05)
(0.000506145558404 5.87930438988e-05 -1.9336425957e-05)
(0.000535868046562 1.24191844907e-05 1.64635086247e-05)
(0.000537640456662 5.40962611486e-05 1.7056463801e-05)
(0.000442330760763 5.8087795333e-05 -1.8835400395e-05)
(0.000472653570722 1.12863516545e-05 1.70419851084e-05)
(0.000473723113571 5.3552270808e-05 1.91247418329e-05)
(0.000380750842647 5.7484125351e-05 -1.91374714001e-05)
(0.000409742586866 1.03017672224e-05 1.66463723722e-05)
(0.000410324029361 5.30924474891e-05 1.92302291189e-05)
(0.000323467714855 5.69547555276e-05 -1.99088735773e-05)
(0.000349974931252 9.44169960603e-06 1.56872315099e-05)
(0.000350238771584 5.27130427744e-05 1.81192767954e-05)
(0.000271557054971 5.64749010328e-05 -2.09165615869e-05)
(0.000294881065807 8.64527705775e-06 1.44778527825e-05)
(0.000294955652309 5.23981951609e-05 1.63334807319e-05)
(0.000225440010272 5.61762029535e-05 -2.20699850753e-05)
(0.000245228177785 7.91923019665e-06 1.32125795935e-05)
(0.000245096867532 5.21532298654e-05 1.4224271772e-05)
(0.00018464871125 5.59892327869e-05 -2.32828310144e-05)
(0.000200814825768 7.7825351585e-06 1.17078420861e-05)
(0.000200562350126 5.20760004196e-05 1.17517461428e-05)
(0.000149659212192 5.57653630759e-05 -2.44533807718e-05)
(0.00016150263952 7.44491009157e-06 1.02920548498e-05)
(0.000161264564017 5.19344907714e-05 9.25106213843e-06)
(0.000120441708772 5.55534127176e-05 -2.55246084171e-05)
(0.000127475040794 7.1478697474e-06 8.95632167371e-06)
(0.000127266512499 5.18261297505e-05 6.73197848965e-06)
(9.66969906224e-05 5.53258563327e-05 -2.63513046615e-05)
(9.83753092847e-05 6.87926007224e-06 7.7591298488e-06)
(9.82931031006e-05 5.17264072965e-05 4.33636024954e-06)
(7.76109792422e-05 5.48690884456e-05 -2.68329326513e-05)
(7.32117341498e-05 6.57068268992e-06 6.91240379401e-06)
(7.34309567476e-05 5.16305081458e-05 2.39601511187e-06)
(6.35809941341e-05 5.44636323686e-05 -2.67686552702e-05)
(5.21086229358e-05 5.64536748e-06 6.56356645771e-06)
(5.25548385208e-05 5.13533638351e-05 8.89283684448e-07)
(5.06140076781e-05 5.40445944754e-05 -2.63188011928e-05)
(3.14403554179e-05 5.74610294133e-06 6.6795595921e-06)
(3.21686525949e-05 5.13000979916e-05 3.51840778669e-07)
(3.92156254679e-05 5.31904650925e-05 -2.52801707151e-05)
(1.27444132758e-05 5.45319990227e-06 6.59340072278e-06)
(1.38488424543e-05 5.07774841876e-05 -8.16154445217e-08)
(2.73566829122e-05 5.13492030719e-05 -2.39522580814e-05)
(-8.62421925139e-06 4.81186543865e-06 7.70792427504e-06)
(-6.9235699888e-06 4.95820456838e-05 7.95131650265e-07)
(1.06570762053e-05 4.73037056044e-05 -2.96439955369e-05)
(-2.60390999919e-05 4.21580715937e-06 8.00921377384e-06)
(-2.36980617768e-05 4.66004300284e-05 3.77428383619e-06)
(-2.42845627849e-05 1.41255538416e-06 -7.50910685572e-06)
(-1.93611266227e-05 4.12488946347e-05 3.54822383195e-06)
(0.00230162872866 0.00189660009765 -0.00157693804535)
(0.00122709646078 0.00226871640986 -0.0015015375118)
(0.00126502126765 0.00180497072642 -0.00268321657101)
(0.00416245683413 0.0026650921657 -0.00167025067714)
(0.00371967658291 0.0029357266294 -0.00173355851155)
(0.00354195440053 0.00235541405504 -0.00295338887804)
(0.00426206523971 0.0038822212579 -0.00166449811163)
(0.0049502335902 0.00454506038183 -0.00172519396249)
(0.00461186426916 0.00359157254547 -0.00299472811065)
(0.00222061935358 0.00492032696445 -0.00162627430797)
(0.00380407892872 0.00635286195419 -0.00162249779946)
(0.00351757615747 0.00498851326542 -0.00290750341432)
(-0.00114277733302 0.00530589282463 -0.00156986180308)
(0.000734875543269 0.00740104697369 -0.00154803491761)
(0.00064427617622 0.00580423610634 -0.00281881169482)
(-0.00477347354285 0.00490818830038 -0.00148358158644)
(-0.00312726669905 0.00739788448624 -0.00147278714473)
(-0.00298231755402 0.00580102077611 -0.00269176875629)
(-0.00752954780321 0.00383553557737 -0.00136697849708)
(-0.00667784565139 0.00629783705649 -0.00140293568561)
(-0.00633154137085 0.00494091700031 -0.00253393432684)
(-0.00860177106082 0.00250555307414 -0.00120569511413)
(-0.00877531168783 0.00442667827705 -0.00132645818405)
(-0.00835153336981 0.00349414937263 -0.00233094938309)
(-0.00813426902937 0.00141876772861 -0.00100171525061)
(-0.00893984351921 0.00257973642143 -0.00117237214455)
(-0.00859081855711 0.00207647582948 -0.00201754715788)
(-0.00686753138517 0.000757349537293 -0.000790567427176)
(-0.00782975445179 0.00135304608185 -0.00094748205539)
(-0.00760936912727 0.0011310551904 -0.00163617547511)
(-0.0053640946256 0.000409481890944 -0.000603716745566)
(-0.00631077979581 0.000686727350948 -0.000722132859583)
(-0.00618251890032 0.000617602057978 -0.00127866834457)
(-0.0038947779062 0.000246934311018 -0.000458876196429)
(-0.00471534449897 0.00034270276104 -0.000533841815353)
(-0.00464418357728 0.000351747301513 -0.000981418992673)
(-0.00258770582579 0.000173410866163 -0.000341934457064)
(-0.00326567653459 0.00019910447854 -0.000406525991043)
(-0.00321829406729 0.000232786550657 -0.000771052277115)
(-0.0015060817552 0.000131729997111 -0.000239705710835)
(-0.00207063544095 0.000103697367367 -0.000286100290172)
(-0.00202783535159 0.00016340955083 -0.000574460585412)
(-0.000679762958097 0.000112339946769 -0.000158563424397)
(-0.00110934160502 6.04597524443e-05 -0.000191042715479)
(-0.00107306508901 0.000127101101917 -0.000418886883165)
(-9.3627612002e-05 0.000104020200807 -9.43274030495e-05)
(-0.000400896154954 3.625155105e-05 -0.000116345854527)
(-0.00036880196822 0.000108993816028 -0.000285160091467)
(0.000290902119364 9.94274918479e-05 -4.49076355831e-05)
(8.575801634e-05 2.54227461962e-05 -5.94152848958e-05)
(0.000113548096687 9.86362462463e-05 -0.000185106125333)
(0.000520080136701 9.63074139804e-05 -8.81587101634e-06)
(0.000393614140266 1.85894785567e-05 -1.67100865435e-05)
(0.00041699016087 9.25552431365e-05 -0.00010833491742)
(0.000637574094705 9.40334241197e-05 1.62905628059e-05)
(0.000568352754116 1.45235126819e-05 1.34086540829e-05)
(0.000587193561638 8.89477840566e-05 -5.27103240641e-05)
(0.000678642401944 9.20676371293e-05 3.28600566553e-05)
(0.000649129949603 1.17666227807e-05 3.36149174855e-05)
(0.000663901773733 8.65564445268e-05 -1.4436703427e-05)
(0.000669854810926 9.01837118964e-05 4.31457794294e-05)
(0.000666596006737 9.53743073872e-06 4.63748246218e-05)
(0.000677975553408 8.46830488205e-05 1.05004588029e-05)
(0.000630490764933 8.83501045543e-05 4.90268585564e-05)
(0.000643587165221 7.498017246e-06 5.38774808905e-05)
(0.000652236781284 8.30357653362e-05 2.5827115087e-05)
(0.000574322488502 8.66290909842e-05 5.19160123633e-05)
(0.000596697924396 5.62559389379e-06 5.77392981634e-05)
(0.000603193018728 8.15361209684e-05 3.44487626657e-05)
(0.000510837694217 8.50933815468e-05 5.284191969e-05)
(0.000537594515292 3.95160497114e-06 5.92189770587e-05)
(0.000542420514578 8.01880857313e-05 3.8532206602e-05)
(0.000446121026835 8.37801269302e-05 5.25237578755e-05)
(0.000474058182367 2.54558020445e-06 5.91567377383e-05)
(0.000477621603377 7.9030763595e-05 3.96272894348e-05)
(0.000383814648909 8.26609823247e-05 5.14710752821e-05)
(0.000410926979693 1.3824274553e-06 5.81605885702e-05)
(0.000413579769384 7.80597722553e-05 3.88294607e-05)
(0.000325915379722 8.16098088428e-05 5.00739578697e-05)
(0.000350971994588 3.6937846962e-07 5.67067704915e-05)
(0.000353048110771 7.72613782134e-05 3.69401845912e-05)
(0.000273501966281 8.04922592538e-05 4.86069939629e-05)
(0.00029570058504 -7.86702007777e-07 5.52489747392e-05)
(0.000297484875357 7.65851005686e-05 3.46440427636e-05)
(0.000227255703465 7.99729355333e-05 4.69904067548e-05)
(0.000246264185622 -2.21719920178e-06 5.40765672121e-05)
(0.000247538610448 7.60425434801e-05 3.23131963415e-05)
(0.000185993754487 7.98396699479e-05 4.52827279502e-05)
(0.000202010363305 -1.69619869737e-06 5.19989591892e-05)
(0.000202964907559 7.60629344117e-05 2.9208894638e-05)
(0.000150688133749 7.94653264884e-05 4.37017572953e-05)
(0.000162581645202 -2.01996451811e-06 5.02235625959e-05)
(0.000163652407049 7.57155429339e-05 2.62755748664e-05)
(0.000121167067594 7.91338553998e-05 4.22400599396e-05)
(0.000128607192226 -2.28173210764e-06 4.86395505866e-05)
(0.00012975365166 7.54990265039e-05 2.34164615702e-05)
(9.70460078636e-05 7.8777459265e-05 4.10228383043e-05)
(9.95538207944e-05 -2.44764876796e-06 4.71965143324e-05)
(0.000100939782941 7.53281692705e-05 2.06866118026e-05)
(7.72872193181e-05 7.75170192483e-05 4.0308902903e-05)
(7.40099504905e-05 -2.68240204182e-06 4.61572200951e-05)
(7.62290069698e-05 7.51253990992e-05 1.85160403361e-05)
(6.32807614877e-05 7.64804457015e-05 4.001178132e-05)
(5.3198433286e-05 -5.51411924281e-06 4.68026321366e-05)
(5.57758278426e-05 7.456906502e-05 1.76486592324e-05)
(4.99522034197e-05 7.59227900704e-05 3.95917615077e-05)
(3.29538526984e-05 -4.62243981581e-06 4.64559585573e-05)
(3.59646384109e-05 7.4694303019e-05 1.66177534613e-05)
(3.80542655666e-05 7.4015946698e-05 3.95814957129e-05)
(1.41916260507e-05 -4.9342699178e-06 4.54032537594e-05)
(1.81095075222e-05 7.35250765582e-05 1.59776819132e-05)
(2.61433314169e-05 7.04645165768e-05 3.96693961302e-05)
(-7.28116531103e-06 -5.84588396611e-06 4.59270009205e-05)
(-1.86692981015e-06 7.06874857331e-05 1.62542132504e-05)
(8.24542850734e-06 6.400216598e-05 3.0144102455e-05)
(-2.56246806921e-05 -6.58248669984e-06 4.53171391711e-05)
(-1.91283816641e-05 6.58909664182e-05 1.93481807833e-05)
(-2.74964387736e-05 -9.25894524306e-06 2.51775994734e-05)
(-2.43156499652e-05 5.87402942175e-05 1.43976099764e-05)
(0.00262046008417 0.00335237729547 -0.00165815797799)
(0.00144629767277 0.00334049543121 -0.00150777471768)
(0.00144249617251 0.00295809716212 -0.00274003515315)
(0.00487731494066 0.00483461292141 -0.0017885017969)
(0.00444009474138 0.0045067065723 -0.00179643059574)
(0.00409316748459 0.00397402225053 -0.00312281417482)
(0.00507758423106 0.00699350673016 -0.00168319365032)
(0.00599558585247 0.00699426179207 -0.00162495797756)
(0.00539128694657 0.00605703006712 -0.00299978589171)
(0.00273611411266 0.00878849450009 -0.0015442584091)
(0.00467301344705 0.00970385058442 -0.00129535614555)
(0.00417156080429 0.00835007209178 -0.00264957132518)
(-0.00114143926382 0.00944432190314 -0.00145096025926)
(0.00105369163006 0.0112692606317 -0.00110579502937)
(0.000888173225402 0.00969571847185 -0.00241561145984)
(-0.0052942228109 0.00874306206992 -0.0013921412439)
(-0.00346285160807 0.0112545317713 -0.00102649743078)
(-0.00323333334311 0.00968228248092 -0.00228135300436)
(-0.00836980511485 0.00687130602047 -0.00136241537258)
(-0.00757605084053 0.00959685826351 -0.00106842815493)
(-0.00700251373707 0.00825168667006 -0.00226022531237)
(-0.00941629133293 0.00453589043065 -0.00129313521448)
(-0.00989270444359 0.00678942142923 -0.00119957075056)
(-0.00917676735798 0.0058661876736 -0.00229599244612)
(-0.00869340451006 0.0026001339679 -0.00111813894933)
(-0.00985814793117 0.00399826784725 -0.00120797929964)
(-0.00926424380708 0.00351139560179 -0.00214808679171)
(-0.00716877773273 0.00140014245766 -0.000879047487797)
(-0.00838902760082 0.00212524348277 -0.001021633732)
(-0.00801717099988 0.00191541925268 -0.00178769257158)
(-0.00551520312949 0.000750452510245 -0.00065225792937)
(-0.00660550775607 0.00110171793757 -0.00077323430751)
(-0.00639081069104 0.00103549082639 -0.00138246909323)
(-0.0039743158287 0.000431824878142 -0.000481491609967)
(-0.00485399913885 0.000552825283965 -0.000555274811708)
(-0.00473919994481 0.000571140039187 -0.00103331459024)
(-0.00262009971118 0.000273230147388 -0.000350691824152)
(-0.00333122594788 0.000327616135222 -0.00042341705195)
(-0.00326122455919 0.000357467410602 -0.000803500600466)
(-0.00151968053002 0.000178010359219 -0.000237437294817)
(-0.00210942600775 0.000166676941602 -0.000290485977576)
(-0.00205026632011 0.000223121316236 -0.000586852968207)
(-0.000687011847457 0.000130878750853 -0.00014882514561)
(-0.00112760669561 9.05921297708e-05 -0.000190337017038)
(-0.00108245148035 0.000155354475877 -0.000417587327656)
(-9.61989524153e-05 0.000105182175874 -8.14337363735e-05)
(-0.000410800895324 4.81309171392e-05 -0.000112228732714)
(-0.000373026979326 0.000116865961072 -0.000286255082073)
(0.000288788102057 9.13817697149e-05 -3.12177358562e-05)
(8.02499809093e-05 2.4928333479e-05 -5.50230026183e-05)
(0.000111512502401 9.54756239707e-05 -0.000180182810928)
(0.000518428652515 8.34168772514e-05 5.51443855575e-06)
(0.000390044937381 1.18494003936e-05 -1.17987695622e-05)
(0.000415857022106 8.34606008038e-05 -0.000102663501428)
(0.000636047780293 7.87237093441e-05 3.07330087626e-05)
(0.000565828411643 4.66544126254e-06 1.84763695525e-05)
(0.000586309297802 7.67953628185e-05 -4.69526972731e-05)
(0.00067708035628 7.55518090436e-05 4.7129685452e-05)
(0.000647042682428 3.27559711354e-07 3.85860950124e-05)
(0.000662912823639 7.28427861273e-05 -8.8318146424e-06)
(0.000668224636603 7.3046283828e-05 5.71065260828e-05)
(0.000664682966898 -2.73277163294e-06 5.11595883717e-05)
(0.000676765844173 7.0106656523e-05 1.58704310638e-05)
(0.000628874493919 7.08715577849e-05 6.25899204975e-05)
(0.000641782279185 -5.20054481678e-06 5.84143759371e-05)
(0.000650840361354 6.7912965663e-05 3.08640255154e-05)
(0.000572799699848 6.89442269751e-05 6.50422628589e-05)
(0.000595021028667 -7.33096535342e-06 6.19870593537e-05)
(0.000601704558956 6.60087129331e-05 3.91976299269e-05)
(0.000509477358791 6.72849541406e-05 6.55337951069e-05)
(0.000536092444969 -9.18417008979e-06 6.3143850609e-05)
(0.000540944086783 6.43423104794e-05 4.30535938959e-05)
(0.000444938170893 6.59086877377e-05 6.4793568433e-05)
(0.000472758263367 -1.0729133002e-05 6.28241937642e-05)
(0.000476235580958 6.29609592701e-05 4.402910549e-05)
(0.000382774126672 6.47687136359e-05 6.33962837796e-05)
(0.000409815921384 -1.19888530252e-05 6.15838621551e-05)
(0.000412321096872 6.18251527273e-05 4.31761114183e-05)
(0.000324867375825 6.34574126527e-05 6.1881787361e-05)
(0.000349851158032 -1.29792630993e-05 5.9954061531e-05)
(0.000351932887817 6.08643492361e-05 4.11885649722e-05)
(0.000272369788521 6.12759294261e-05 6.07185479883e-05)
(0.000294222431838 -1.49157194835e-05 5.90002127972e-05)
(0.000296531039288 6.00372467864e-05 3.93519133215e-05)
(0.000227185959748 6.06593974537e-05 5.90851196464e-05)
(0.0002456516764 -1.91199316403e-05 5.97096699971e-05)
(0.000246947867188 5.93116103989e-05 3.85178615147e-05)
(0.000185560020455 6.12584268641e-05 5.69397938349e-05)
(0.000202105620936 -1.64958099581e-05 5.65201714003e-05)
(0.00020259682159 6.00811842718e-05 3.46831886075e-05)
(0.000150350341547 6.09330288143e-05 5.51613558872e-05)
(0.000162344371049 -1.68180647073e-05 5.41476104243e-05)
(0.000163421355428 5.93757343624e-05 3.15345354659e-05)
(0.000120959916052 6.06283977967e-05 5.35960049794e-05)
(0.000128557384543 -1.70971237104e-05 5.24513502322e-05)
(0.000129932859757 5.91448378777e-05 2.87124709111e-05)
(9.68933346432e-05 6.03015163193e-05 5.23308961232e-05)
(9.97490966734e-05 -1.74286057314e-05 5.09813400574e-05)
(0.00010162780535 5.89941303583e-05 2.62903965098e-05)
(7.59992132208e-05 5.98685564955e-05 5.26509493286e-05)
(7.45165053945e-05 -1.76706640868e-05 4.99644749789e-05)
(7.75351220462e-05 5.88503494105e-05 2.47981620945e-05)
(6.39548158537e-05 5.91867877621e-05 5.32468093738e-05)
(5.41254393707e-05 -1.54166649118e-05 5.05729549509e-05)
(5.8358257189e-05 5.85457026063e-05 1.53934533498e-05)
(5.02489130497e-05 5.81185090445e-05 5.22674508089e-05)
(3.43743295444e-05 -1.70736012344e-05 5.01946367629e-05)
(3.98017662936e-05 5.78602574924e-05 1.88741512477e-05)
(3.83868711634e-05 5.60906817111e-05 5.1748758967e-05)
(1.60222251564e-05 -1.74438023136e-05 4.91544162237e-05)
(2.27618667825e-05 5.68905956985e-05 1.80659806774e-05)
(2.62490734837e-05 5.25396426217e-05 5.15747439613e-05)
(-5.48962256868e-06 -1.81670135459e-05 4.9522867961e-05)
(3.53799517372e-06 5.4079775382e-05 1.8012587113e-05)
(7.85400217934e-06 4.73920044501e-05 4.03506361894e-05)
(-2.48111495308e-05 -1.85833088076e-05 4.87312147217e-05)
(-1.49585479452e-05 4.96634234386e-05 2.07792193908e-05)
(-2.73128066143e-05 -2.0018457637e-05 2.71940463814e-05)
(-2.34529813929e-05 4.45483682522e-05 1.42744535566e-05)
(0.00321246038665 0.00451520095128 -0.00164604733543)
(0.00179662876542 0.0041036972378 -0.0015144612742)
(0.00177548148103 0.00387632370292 -0.00277194381482)
(0.00602769700602 0.00663578071537 -0.0016328867764)
(0.00549565539745 0.00568989871616 -0.00172142155986)
(0.00500961382465 0.00530050590086 -0.00305950308726)
(0.0063435219255 0.00960380917758 -0.00123712047279)
(0.00746316425663 0.00886296450636 -0.00121666737807)
(0.00663178212893 0.00809562755828 -0.00251049278798)
(0.00352751330854 0.0120450911368 -0.000856892765825)
(0.00587901970985 0.0122663221991 -0.00049612836803)
(0.00519603776034 0.0111394424278 -0.00163807725067)
(-0.00115044261137 0.0129339807911 -0.000681332200888)
(0.00149390194992 0.0142431782575 -0.000107218936521)
(0.00126638527648 0.012945675577 -0.0011195862272)
(-0.00611509174891 0.0119698337549 -0.000702784341816)
(-0.003935833727 0.0142195079691 -2.60738063665e-05)
(-0.00363518991616 0.0129228628802 -0.000981691611336)
(-0.00968840206449 0.00941808068984 -0.000905583532907)
(-0.00882937061189 0.0121178836377 -0.000271458438622)
(-0.00806255806949 0.0109950981502 -0.00124655303108)
(-0.0107076124341 0.00623341019095 -0.00111441483572)
(-0.0114525528578 0.00859310936828 -0.000772598760459)
(-0.0104846151209 0.00782431874826 -0.00178223310448)
(-0.00960519716224 0.00357835113276 -0.0011114740823)
(-0.0111536502792 0.00508438097711 -0.00110157055155)
(-0.0103487225792 0.0046934289701 -0.00204697849006)
(-0.00768017491184 0.00192553534724 -0.000915820551708)
(-0.00919014295381 0.00271564080699 -0.00104189275904)
(-0.00869113297601 0.00255403458655 -0.00184577657198)
(-0.00578022520786 0.00104127084598 -0.000676251189848)
(-0.00702985689559 0.00142362459826 -0.000801671250051)
(-0.00675183631017 0.00137340614716 -0.00144306044411)
(-0.00430014059483 0.000572051304828 -0.000497200253691)
(-0.00507707733993 0.000794189823139 -0.000575795711976)
(-0.00491765664578 0.000766118920301 -0.00105445636913)
(-0.00269503107246 0.000325215130197 -0.000363211205374)
(-0.0034474699419 0.000346675405942 -0.000428879194254)
(-0.00335058182464 0.000422140031956 -0.000831775679362)
(-0.00155597800108 0.000204371959405 -0.000243385699797)
(-0.00216555269018 0.000209871416587 -0.000294677756455)
(-0.00210208812479 0.00026077156107 -0.000592997620767)
(-0.000707822395809 0.000135116728949 -0.000153740604142)
(-0.00115990255693 0.000114110640687 -0.0001950319753)
(-0.00110948378797 0.000168299792687 -0.000421553952873)
(-0.000107732120845 9.54640333641e-05 -8.58179989588e-05)
(-0.000429540947157 5.69787196368e-05 -0.00011631544359)
(-0.000388614122667 0.000113349248239 -0.000288559655176)
(0.000281896331624 7.33579516181e-05 -3.56040363243e-05)
(6.95010266036e-05 2.48160505254e-05 -5.92676972998e-05)
(0.000102603585413 8.26310467553e-05 -0.000182757634083)
(0.000514248409917 6.11358266774e-05 1.16316143456e-06)
(0.000383794835743 6.87800048815e-06 -1.62367719573e-05)
(0.000410535207829 6.5509714196e-05 -0.000105620301508)
(0.000633182943936 5.43544031903e-05 2.63294558022e-05)
(0.000562044960117 -2.73952421068e-06 1.40075902753e-05)
(0.000582902189323 5.62443500052e-05 -5.01171986136e-05)
(0.000674822438017 5.01755982504e-05 4.26159979321e-05)
(0.000644446486511 -8.18522736728e-06 3.4051704856e-05)
(0.00066039789126 5.10138057712e-05 -1.22861917193e-05)
(0.000666274643811 4.71815043584e-05 5.2467438226e-05)
(0.000662645425879 -1.17558093208e-05 4.65647935189e-05)
(0.000674629684579 4.76386447176e-05 1.22035728342e-05)
(0.000627136548555 4.47693971207e-05 5.78115147933e-05)
(0.000640047551918 -1.44598469082e-05 5.37454356845e-05)
(0.000648892691538 4.51125412934e-05 2.70969110404e-05)
(0.000571258178113 4.27359181716e-05 6.00886471038e-05)
(0.000593512432191 -1.6700948634e-05 5.72641534173e-05)
(0.000599905714667 4.30271761248e-05 3.53564030479e-05)
(0.000508160776717 4.10447814223e-05 6.04342492662e-05)
(0.000534804026847 -1.8526541669e-05 5.83305780679e-05)
(0.000539329158558 4.12770954764e-05 3.9043018461e-05)
(0.000443837845769 3.96784121526e-05 5.96144874863e-05)
(0.000471685390492 -1.99891758509e-05 5.79199909403e-05)
(0.000474827933939 3.98314048336e-05 3.98330370973e-05)
(0.000381863691739 3.85394821432e-05 5.81416399065e-05)
(0.000408908870064 -2.11103485967e-05 5.66103797016e-05)
(0.000411090403461 3.86716714599e-05 3.87755093837e-05)
(0.000323540750651 3.64016526923e-05 5.70724869673e-05)
(0.000348491798795 -2.22144326468e-05 5.50531897897e-05)
(0.00035085055979 3.7727576408e-05 3.72379771998e-05)
(0.000270008222996 3.51231329184e-05 5.7991334806e-05)
(0.000293331484043 -2.67389627341e-05 5.61828033348e-05)
(0.000295572666629 3.6682383182e-05 3.75264829426e-05)
(0.000228243387764 3.53475856722e-05 5.7144721751e-05)
(0.000245542830998 -2.12033991699e-05 5.60454909761e-05)
(0.000246629006122 3.68347655607e-05 2.1958976555e-05)
(0.000185156036963 3.50975349753e-05 5.37279879897e-05)
(0.000201781677679 -2.42019326725e-05 5.24838731636e-05)
(0.000202301006624 3.64412953421e-05 2.82964249151e-05)
(0.000149981700382 3.48323109746e-05 5.14376047692e-05)
(0.000162022710844 -2.44334216802e-05 5.00418761602e-05)
(0.000162759034741 3.6208547133e-05 2.4315121032e-05)
(0.000120558522245 3.45883505757e-05 4.98366853103e-05)
(0.000128240387486 -2.45380563691e-05 4.8349683939e-05)
(0.000129495509568 3.61132637997e-05 2.13388307056e-05)
(9.64793209747e-05 3.43517622589e-05 4.86149189132e-05)
(9.94107109101e-05 -2.45761086013e-05 4.69223587651e-05)
(0.000101226506369 3.60485522691e-05 1.84498595158e-05)
(7.67914336147e-05 3.47943098598e-05 4.78864806012e-05)
(7.44629037244e-05 -2.44979145679e-05 4.59162017937e-05)
(7.71413307904e-05 3.60223879277e-05 1.60226458815e-05)
(6.26641940366e-05 3.44987693824e-05 4.752078234e-05)
(5.36245651383e-05 -2.39862829366e-05 4.52486669694e-05)
(5.74346804298e-05 3.60232165845e-05 1.50929432889e-05)
(4.94868050818e-05 3.30424005992e-05 4.70816021777e-05)
(3.31649615405e-05 -2.47704185244e-05 4.5064494675e-05)
(3.86752430264e-05 3.45530955395e-05 1.38479552195e-05)
(3.74220081629e-05 3.12868178042e-05 4.69285252177e-05)
(1.45451589764e-05 -2.50598898725e-05 4.4578749873e-05)
(2.13340674972e-05 3.39156276848e-05 1.32653912133e-05)
(2.53132390699e-05 2.86457278254e-05 4.66793387214e-05)
(-7.52881047595e-06 -2.5624316801e-05 4.48577451207e-05)
(1.23257208552e-06 3.15435521429e-05 1.31235867236e-05)
(7.11627302474e-06 2.54237442882e-05 3.55746249137e-05)
(-2.69349109244e-05 -2.58293485972e-05 4.41364481397e-05)
(-1.77351627669e-05 2.83027818434e-05 1.59132587626e-05)
(-2.77648308274e-05 -2.56816098189e-05 2.33862417104e-05)
(-2.4500312517e-05 2.52412346906e-05 8.79890938327e-06)
(0.00402109461115 0.00524117499447 -0.00158983549862)
(0.00223453386531 0.00445263630033 -0.00152818717929)
(0.00221948968292 0.0044296748299 -0.00280973975076)
(0.00752230966828 0.00779476613719 -0.00130520216153)
(0.0067755522253 0.00627332575138 -0.00157104648852)
(0.00620471161864 0.00613606371856 -0.00284925011117)
(0.00796851109279 0.011299257376 -0.000475675273309)
(0.00921071476392 0.00979836675296 -0.000623878068115)
(0.00822450830513 0.00939135465617 -0.00167107808026)
(0.00454306168378 0.0141790344424 0.000253545461275)
(0.00731418565599 0.0135671410284 0.000597153312053)
(0.00651187399625 0.0129441128848 -7.24000549217e-05)
(-0.00116753395335 0.0152329421362 0.000548039458001)
(0.00201885299203 0.0157875030042 0.00124704970357)
(0.00175260288663 0.0150930129749 0.000848632328384)
(-0.00717981729642 0.0140848008137 0.000405252096827)
(-0.00450579361886 0.0157617122338 0.00132978057954)
(-0.00416291187183 0.0150654542332 0.000988297327036)
(-0.0113822372653 0.0110718243638 -0.000138473666175)
(-0.0103263292122 0.0134007382802 0.000814988480253)
(-0.00943321597896 0.0127697484238 0.000308406348172)
(-0.0123659641445 0.00733294049677 -0.000759754476286)
(-0.0133051202635 0.00949560076762 -0.00016432764494)
(-0.0121630291511 0.00906678620314 -0.000923495145199)
(-0.0107886942204 0.00421288750827 -0.00103198922829)
(-0.0126968880765 0.00563337415106 -0.000913532141742)
(-0.0117470777355 0.00544569256104 -0.00178954566692)
(-0.0083517036674 0.00226509495106 -0.00092774345738)
(-0.0101514074677 0.00301410379826 -0.0010370727774)
(-0.00956976242328 0.00295764922691 -0.00185447685767)
(-0.00610698495902 0.00122878263006 -0.000701215772179)
(-0.0075395915318 0.00158315485249 -0.000820656105216)
(-0.00721652228636 0.00158481450035 -0.0014891893518)
(-0.00418677500401 0.000661905059794 -0.000507474652539)
(-0.00535522770306 0.00084505895785 -0.000597368304563)
(-0.00517320657969 0.000884914743295 -0.00110872080276)
(-0.00276424041072 0.000358362687528 -0.000360345745335)
(-0.00359609875982 0.000427627830848 -0.000424629296613)
(-0.00348898015265 0.000460560915996 -0.000817438289202)
(-0.00160626034026 0.000221061850233 -0.000246324031957)
(-0.00223240360417 0.000237754947937 -0.000296029998535)
(-0.00216224814315 0.00028159921827 -0.00059521733205)
(-0.000737527489758 0.000136900725676 -0.000157606814748)
(-0.00120107218265 0.000127948365455 -0.000197037011577)
(-0.00114774399541 0.000172473809049 -0.000425582531501)
(-0.000124569643477 8.82241253271e-05 -8.97651419314e-05)
(-0.000453502109635 6.12302059432e-05 -0.000118922491104)