/*--------------------------------*- C++ -*----------------------------------*\
| =========                 |                                                 |
| \\      /  F ield         | OpenFOAM: The Open Source CFD Toolbox           |
|  \\    /   O peration     | Version:  3.0.1                                 |
|   \\  /    A nd           | Web:      www.OpenFOAM.org                      |
|    \\/     M anipulation  |                                                 |
\*---------------------------------------------------------------------------*/
FoamFile
{
    version     2.0;
    format      ascii;
    class       volScalarField;
    location    "0.6";
    object      k;
}
// * * * * * * * * * * * * * * * * * * * * * * * * * * * * * * * * * * * * * //

dimensions      [0 2 -2 0 0 0 0];

internalField   nonuniform List<scalar> 
15984
(
0.0155186255625
0.0157336370533
0.0157684040663
0.0157710024854
0.0157695509351
0.015768296403
0.0157686523664
0.0157685798526
0.0157667754914
0.0157637111713
0.0157608484545
0.0157592440575
0.0157589656844
0.0157588984487
0.0157588148275
0.0157587435853
0.0157586008997
0.0157584207289
0.0157582351222
0.0157580612351
0.0157579068303
0.0157577744469
0.0157576637571
0.0157575729628
0.0157574996279
0.0157574411584
0.0157573951179
0.0157573593154
0.0157573318248
0.0157573110484
0.0157572957147
0.0157572848028
0.0157572776139
0.0157572735945
0.0157572724995
0.0157572636622
0.015757081135
0.0157542200503
0.0157220409564
0.0155128175276
0.0171637080595
0.0187053196987
0.0189803022927
0.0190067903978
0.0190068225961
0.0190053403664
0.0190045419706
0.0190045815564
0.019001966184
0.0189944105442
0.0189857937003
0.0189792510688
0.0189751348745
0.0189725240546
0.018971015969
0.0189704573627
0.0189702808796
0.0189701081576
0.0189699484438
0.0189698067566
0.0189696845186
0.0189695815556
0.0189694966312
0.0189694278685
0.0189693731712
0.0189693303725
0.0189692975713
0.0189692730323
0.0189692551997
0.0189692428881
0.0189692352416
0.0189692318189
0.0189692325092
0.0189692372
0.018969240247
0.0189691054977
0.0189668094627
0.0189374909319
0.0186655811846
0.0171362096534
0.0175414583617
0.0203048177441
0.0208412197703
0.0209006457368
0.0209033525352
0.0209019610443
0.0209015822396
0.0209040376896
0.0209024452478
0.0208920329593
0.0208794581724
0.0208699760844
0.0208641049774
0.0208603825212
0.0208580863701
0.020856956251
0.0208566595761
0.0208564835796
0.0208563364992
0.0208562138315
0.0208561118732
0.0208560281009
0.0208559611501
0.0208559087976
0.0208558697428
0.0208558416695
0.020855822929
0.0208558119542
0.0208558070881
0.020855807155
0.0208558115088
0.0208558203269
0.02085583507
0.0208558576688
0.0208558772338
0.020855505276
0.0208497616882
0.0207846780444
0.0202522283416
0.0175060360833
0.0176193548979
0.0209084336871
0.0215910016946
0.0216656173313
0.0216672735074
0.0216659995412
0.0216694811607
0.0216818996336
0.0216890604912
0.0216795140825
0.0216643542243
0.0216527542737
0.0216456825153
0.0216414091275
0.021638761834
0.0216373200256
0.0216368513941
0.0216366688213
0.021636524695
0.021636409032
0.0216363158759
0.0216362420785
0.0216361857797
0.0216361454491
0.0216361203605
0.0216361091197
0.0216361103199
0.0216361228622
0.021636144755
0.0216361752213
0.0216362102296
0.0216362447911
0.0216362821764
0.0216363238396
0.0216363443749
0.02163572648
0.0216271204663
0.0215368677049
0.0208517996934
0.0175804748415
0.0176354833668
0.0210904304274
0.0218235340786
0.0219026898668
0.0219084675134
0.0219085443555
0.0219121538593
0.0219290533344
0.0219541067054
0.0219503468701
0.0219340926729
0.0219209835645
0.0219130176876
0.0219083513497
0.0219055406238
0.0219039690178
0.0219034003347
0.0219032115788
0.0219030662884
0.021902950643
0.0219028577664
0.0219027841731
0.0219027278613
0.0219026877517
0.0219026636307
0.0219026551231
0.0219026616868
0.0219026829673
0.0219027179571
0.0219027573396
0.0219027925096
0.0219028265097
0.0219028633093
0.0219029037467
0.0219029133145
0.0219021487779
0.0218919792229
0.021789186948
0.0210377818773
0.0175947392148
0.0176392955239
0.0211298105026
0.0218707994262
0.0219655674029
0.0219689136788
0.021969018875
0.0219759552118
0.0219920799225
0.0220243520061
0.0220298627829
0.0220136051765
0.0219994448534
0.0219906910843
0.0219857561052
0.021982808645
0.0219811846726
0.021980576097
0.0219803821471
0.0219802350027
0.0219801174835
0.021980022617
0.0219799463583
0.0219798860462
0.0219798404787
0.021979809086
0.0219797917256
0.0219797892752
0.0219798016857
0.0219798289654
0.021979864912
0.0219798980467
0.021979930023
0.0219799649896
0.0219800037127
0.0219800079516
0.0219791818962
0.0219683778066
0.0218607893816
0.0210865072069
0.0175973927104
0.0176404988571
0.0211304569533
0.0218791355951
0.0219687743832
0.021968369999
0.0219683918076
0.0219794529257
0.0220033171605
0.0220354922053
0.0220506446969
0.0220347655749
0.0220197808436
0.0220103335063
0.0220051773511
0.0220021235308
0.0220004536483
0.0219998359686
0.021999638367
0.0219994890546
0.0219993705079
0.0219992742829
0.0219991959426
0.0219991324546
0.0219990820095
0.02199904358
0.0219990169474
0.0219990023586
0.0219990003462
0.0219990115988
0.021999037607
0.0219990686287
0.021999098676
0.0219991318665
0.021999169203
0.0219991715478
0.0219983262193
0.0219873192932
0.021878250079
0.0210974614835
0.0175978580604
0.017641149049
0.0211252451274
0.0218761320088
0.0219607026405
0.0219567095309
0.0219565629479
0.0219714955909
0.0220015359292
0.0220342515747
0.0220562890891
0.0220405724089
0.0220249035914
0.0220148532186
0.0220095149557
0.0220063773794
0.0220046598081
0.0220040472651
0.0220038463257
0.0220036952558
0.0220035757134
0.0220034787407
0.0220033993085
0.022003334008
0.0220032811053
0.0220032387465
0.0220032063808
0.022003183673
0.0220031710357
0.022003169144
0.0220031799957
0.0220032048213
0.022003233529
0.0220032655077
0.0220033019609
0.0220033038887
0.0220024544544
0.0219913949872
0.0218819429151
0.0210995818911
0.0175979298151
0.0176416680349
0.0211224693507
0.0218736248027
0.0219553712047
0.0219485278149
0.0219481119653
0.0219662067154
0.0219996742373
0.0220333860638
0.0220585045927
0.0220426387791
0.0220263734647
0.0220158992105
0.0220104189643
0.0220072225693
0.0220054729188
0.0220048587419
0.0220046569443
0.0220045049925
0.0220043847936
0.022004287457
0.0220042072482
0.0220041413442
0.0220040873726
0.0220040433414
0.0220040083505
0.0220039818221
0.0220039635636
0.0220039539311
0.0220039545441
0.0220039687499
0.0220039958161
0.0220040272502
0.0220040633531
0.0220040653565
0.0220032157185
0.0219921450661
0.0218826080939
0.0210999181545
0.0175979381415
0.0176419843391
0.0211218830947
0.0218728938411
0.0219536168339
0.0219450266034
0.0219443261528
0.0219644500019
0.0219992471412
0.0220336746392
0.0220595587455
0.0220434575196
0.0220268581675
0.0220161520094
0.0220106004949
0.0220073733087
0.0220056071736
0.0220049922978
0.0220047902209
0.0220046381753
0.022004517817
0.0220044201905
0.0220043399966
0.0220042738642
0.022004219479
0.0220041750254
0.0220041392458
0.0220041114184
0.0220040910955
0.0220040783132
0.0220040743483
0.0220040823514
0.0220041066221
0.0220041380503
0.0220041743179
0.0220041761524
0.0220033264631
0.0219922529885
0.0218826992691
0.0210999498992
0.0175979393743
0.0176419787819
0.0211218880916
0.0218728975175
0.0219536243679
0.0219450322972
0.0219443408713
0.0219644597818
0.0219992567578
0.0220336830493
0.0220595583285
0.0220434511274
0.0220268513587
0.0220161454997
0.0220105976922
0.0220073703477
0.0220056047746
0.0220049914026
0.0220047897525
0.0220046378601
0.0220045176536
0.0220044201502
0.0220043401617
0.0220042742683
0.0220042200656
0.022004175904
0.0220041403382
0.0220041127443
0.022004092583
0.0220040799705
0.0220040760267
0.0220040838304
0.0220041081696
0.0220041399808
0.0220041764916
0.0220041782844
0.0220033280161
0.0219922527157
0.0218826973637
0.0210999463141
0.0175979424367
0.0176416344261
0.0211224595762
0.0218736319866
0.0219553995887
0.0219485556149
0.0219481614125
0.0219662323861
0.0219996996989
0.0220334144655
0.0220584990553
0.0220426211246
0.022026351693
0.0220158771434
0.0220104076029
0.0220072132699
0.0220054649664
0.0220048562796
0.0220046554736
0.0220045038406
0.0220043842132
0.022004287229
0.0220042075678
0.0220041422565
0.0220040889033
0.0220040455293
0.0220040111423
0.0220039851317
0.0220039671377
0.0220039576922
0.0220039579469
0.0220039713548
0.0220039992586
0.0220040318432
0.0220040688087
0.0220040703568
0.0220032190195
0.0219921430149
0.0218826011864
0.021099906063
0.0175979469886
0.01764110664
0.0211252458706
0.0218761408343
0.021960740685
0.0219567542744
0.0219566314963
0.0219715334363
0.0220015688102
0.0220342849672
0.0220562791601
0.0220405478418
0.0220248801766
0.022014825381
0.0220094962174
0.0220063592926
0.022004646844
0.0220040429789
0.0220038431349
0.0220036930654
0.022003574331
0.0220034781821
0.0220033993304
0.0220033350996
0.0220032829785
0.0220032414166
0.022003209616
0.0220031872152
0.0220031744193
0.0220031719763
0.0220031814483
0.0220032057572
0.0220032362834
0.0220032699056
0.0220033074868
0.0220033087883
0.0220024569198
0.021991389457
0.0218819296832
0.0210995601673
0.0175979438449
0.0176404388277
0.0211304404581
0.0218791401225
0.0219688122235
0.0219684185219
0.0219684623207
0.0219794954495
0.0220033466843
0.0220355091629
0.022050625207
0.0220347263357
0.0220197372975
0.0220102928971
0.0220051457927
0.0220020973188
0.022000433552
0.0219998309656
0.021999634497
0.0219994864596
0.0219993688644
0.0219992738631
0.0219991962849
0.0219991338144
0.021999084113
0.0219990460973
0.0219990192795
0.0219990039056
0.0219990003707
0.0219990098971
0.0219990335448
0.0219990661224
0.0219990982666
0.0219991332037
0.0219991715887
0.0219991730059
0.0219983246847
0.0219873078567
0.0218782281917
0.0210974274433
0.017597875547
0.0176392229408
0.0211297765659
0.02187079526
0.0219655961219
0.0219689557319
0.0219690795265
0.02197599047
0.021992098515
0.0220243415537
0.022029832104
0.0220135529401
0.0219993878818
0.0219906469126
0.0219857182245
0.0219827705507
0.0219811632348
0.0219805704787
0.0219803781703
0.0219802323266
0.0219801162723
0.0219800230024
0.021979947668
0.0219798878886
0.0219798423152
0.021979810038
0.0219797913506
0.0219797864346
0.0219797955081
0.0219798189509
0.0219798552764
0.0219798906006
0.0219799245745
0.0219799610559
0.0219800005114
0.0219800033827
0.0219791738006
0.0219683582602
0.0218607565649
0.0210864582061
0.0175974110919
0.0176354068038
0.0210903824696
0.0218235380619
0.021902694265
0.0219084891618
0.0219085806752
0.0219121655609
0.0219290884104
0.0219540531947
0.0219502856473
0.0219340230645
0.0219209158512
0.02191296542
0.0219083048517
0.0219054875786
0.0219039438264
0.0219033923211
0.0219032055306
0.0219030617869
0.0219029474986
0.021902855908
0.0219027828739
0.0219027265409
0.0219026857286
0.0219026598589
0.0219026487511
0.0219026520109
0.0219026693193
0.0219027000637
0.0219027397248
0.0219027769481
0.0219028126693
0.0219028506399
0.0219028914405
0.0219028991462
0.0219021305597
0.0218919481066
0.0217891397469
0.0210377148038
0.0175947545832
0.0176192675187
0.0209083611534
0.0215909571499
0.0216656036865
0.0216672780467
0.021666026215
0.0216694895612
0.0216818786854
0.0216889859536
0.0216794275941
0.0216642642795
0.0216526700887
0.0216456121559
0.0216413304359
0.021638701269
0.0216372810238
0.0216368317414
0.0216366517695
0.0216365098464
0.0216363956718
0.0216363031489
0.0216362293616
0.0216361725932
0.0216361311389
0.0216361039514
0.0216360899348
0.0216360879526
0.0216360963344
0.0216361143048
0.021636140116
0.0216361742052
0.0216362101251
0.0216362483544
0.0216362900615
0.0216363081702
0.0216356859151
0.0216270661411
0.0215367955244
0.0208517065504
0.017580481917
0.0175413986394
0.0203047433482
0.0208411313191
0.0209005683578
0.0209032850648
0.020901916807
0.0209015289631
0.0209039635679
0.0209023434595
0.0208919294584
0.0208793576018
0.0208698934741
0.0208640205188
0.0208602968199
0.0208580187573
0.0208569158547
0.0208566319423
0.0208564582695
0.0208563134647
0.0208561922737
0.0208560914229
0.0208560087382
0.0208559421495
0.0208558899129
0.0208558505116
0.0208558219783
0.0208558025207
0.0208557907131
0.0208557850148
0.020855784281
0.020855787803
0.0208557955942
0.0208558086697
0.0208558282827
0.0208558401862
0.020855459011
0.0208497006734
0.0207845994243
0.020252131403
0.0175060338283
0.0171636807679
0.0187052477883
0.0189801979559
0.0190066766937
0.0190067163403
0.0190052557765
0.0190044559259
0.0190044942275
0.0190018648304
0.018994313088
0.0189857307232
0.0189791855947
0.0189750557066
0.0189724705983
0.0189709869656
0.0189704469877
0.0189702722615
0.0189701008836
0.018969942387
0.0189698018873
0.0189696808795
0.0189695791093
0.0189694952606
0.0189694275054
0.0189693737927
0.0189693319421
0.0189693000866
0.0189692764802
0.0189692595968
0.0189692482672
0.0189692416391
0.0189692392326
0.0189692409032
0.0189692464979
0.0189692500673
0.0189691148173
0.0189668149951
0.0189374871077
0.018665568674
0.0171362138268
0.0155185977828
0.0157335914309
0.0157683385633
0.0157709340347
0.0157694858546
0.0157682347677
0.015768589674
0.0157685176902
0.0157667101282
0.0157636410948
0.0157607984875
0.0157592104945
0.0157589642798
0.0157589086308
0.0157588367369
0.0157587716464
0.0157586300325
0.0157584507855
0.0157582659576
0.0157580928011
0.0157579391636
0.01575780764
0.0157576978292
0.015757607905
0.0157575354365
0.0157574778332
0.0157574326761
0.0157573977481
0.0157573711293
0.0157573512311
0.015757336777
0.0157573267831
0.0157573205302
0.0157573175301
0.0157573175325
0.0157573097705
0.0157571279046
0.0157542640435
0.0157220793742
0.015512846756
0.0171409077636
0.0186739487742
0.0189475027254
0.0189739751263
0.0189735458969
0.0189727572943
0.0189741347797
0.0189769172508
0.0189781909271
0.0189766419806
0.0189741659562
0.0189724196655
0.0189717870349
0.0189718524006
0.0189717508807
0.0189715393253
0.0189713102476
0.0189711041454
0.0189709311659
0.0189707899922
0.0189706765703
0.0189705867799
0.0189705162298
0.0189704615047
0.0189704195524
0.0189703876614
0.0189703640058
0.0189703470287
0.0189703351622
0.0189703275283
0.0189703233504
0.0189703222683
0.0189703242917
0.0189703286989
0.0189703308961
0.0189701878501
0.0189678796498
0.0189385262219
0.0186665631201
0.0171371336712
0.028011149252
0.0341441050531
0.0352933982192
0.0354223842136
0.0354238449502
0.0354241970099
0.0354362592981
0.0354608745592
0.0354845916515
0.0354951542663
0.0354966694271
0.0354950685629
0.0354926199677
0.035490300525
0.0354887870459
0.035487757739
0.0354871763391
0.0354869699266
0.0354869811021
0.0354871020063
0.0354872684397
0.035487445203
0.0354876139921
0.0354877660871
0.035487898224
0.035488010472
0.0354881043912
0.035488182548
0.0354882470062
0.0354883007658
0.0354883468096
0.0354883888555
0.0354884309461
0.0354884738075
0.0354884656371
0.0354874184117
0.0354729156393
0.0353205449867
0.0341574152266
0.02800940049
0.0300290510989
0.0394175132234
0.0412126697472
0.0414587942242
0.0414765894464
0.0414780679761
0.041488117547
0.0415096602747
0.0415287256134
0.0415333244135
0.041529454405
0.0415243460338
0.041519959632
0.0415167042355
0.0415145939552
0.0415133373262
0.041512625785
0.0415123695006
0.0415123934283
0.0415125578788
0.0415127771694
0.0415130055814
0.0415132208185
0.0415134119941
0.0415135762704
0.0415137141081
0.0415138274843
0.0415139208951
0.0415139966942
0.0415140588238
0.0415141106361
0.0415141560447
0.0415141989977
0.0415142333191
0.0415141105398
0.0415116710926
0.0414828066436
0.0412179748555
0.0394189809375
0.0300150047366
0.0305094446474
0.0414552525224
0.0436470241013
0.0439707086114
0.0439983615658
0.0440008218387
0.0440126412441
0.0440390665776
0.0440609438334
0.0440631551394
0.0440551553675
0.0440471410105
0.0440411837283
0.0440371955946
0.044034702743
0.0440332663115
0.0440324994017
0.0440322022361
0.0440322175993
0.0440323906163
0.0440326252919
0.0440328709139
0.0440331006125
0.0440333024457
0.0440334721984
0.0440336110865
0.0440337238791
0.0440338117207
0.0440338789834
0.044033929331
0.0440339714804
0.0440340125426
0.0440340519621
0.0440340773848
0.0440338545074
0.0440302003797
0.0439898733924
0.0436449355834
0.0414531722628
0.0304892454343
0.0306204707051
0.0421635422564
0.0445504192355
0.04490554721
0.0449322380892
0.0449350073273
0.0449544627996
0.0449977769758
0.0450335628508
0.0450391620747
0.0450290806633
0.0450189912722
0.0450118664677
0.0450072567601
0.0450044907681
0.0450029075509
0.0450020754399
0.0450017429663
0.045001746135
0.0450019173105
0.045002156345
0.045002407989
0.0450026435604
0.0450028505831
0.0450030247057
0.045003166704
0.0450032785414
0.0450033641026
0.0450034280934
0.0450034829377
0.0450035307917
0.045003573101
0.0450036128787
0.0450036339803
0.0450033436621
0.0449989153079
0.0449516841974
0.0445615262134
0.0421690456388
0.0305978099254
0.030645018479
0.0423663703117
0.0448228838034
0.0451692891241
0.0451883688607
0.0451913925479
0.0452222204297
0.0452944446921
0.0453547061734
0.0453686004677
0.0453583060164
0.045346935521
0.0453389923202
0.0453339211066
0.0453309328378
0.0453292382306
0.0453283370763
0.0453279723872
0.0453279650488
0.0453281303671
0.0453283691503
0.0453286233561
0.0453288629127
0.0453290742743
0.0453292533071
0.045329400002
0.0453295165668
0.0453296073129
0.0453296757561
0.0453297320001
0.0453297804837
0.0453298231413
0.0453298630241
0.0453298818725
0.0453295581394
0.0453247572472
0.0452742972737
0.0448638232147
0.0423878494626
0.0306217510302
0.0306497953792
0.0424057918442
0.0448705149991
0.0452003131768
0.0452105787726
0.0452136984152
0.0452554046183
0.0453531354538
0.045441177686
0.0454648106213
0.0454552502565
0.0454431055964
0.0454345775023
0.0454291774959
0.0454260131975
0.0454242266688
0.0454232707595
0.0454228763582
0.0454228559521
0.0454230184927
0.0454232563522
0.0454235116953
0.0454237535713
0.0454239678896
0.0454241499263
0.045424300975
0.0454244227232
0.0454245184375
0.0454245934405
0.0454246494292
0.0454246974433
0.045424740074
0.0454247799007
0.0454247978794
0.0454244613835
0.0454195191079
0.0453678507843
0.0449499818101
0.042445487027
0.0306266899743
0.0306504712896
0.0424047838822
0.0448631577184
0.0451800324653
0.0451840818134
0.045187182554
0.0452363571039
0.0453505573948
0.0454585779648
0.0454896106753
0.0454807524643
0.045468070652
0.0454591053443
0.0454534690707
0.0454501729793
0.0454483104324
0.0454473204498
0.0454468966012
0.0454468655121
0.0454470242301
0.0454472607147
0.0454475160863
0.0454477591035
0.0454479753689
0.0454481593293
0.0454483127105
0.0454484378433
0.0454485376314
0.0454486163066
0.0454486761734
0.0454487226963
0.0454487651724
0.0454488049751
0.0454488227649
0.0454484824397
0.0454434963976
0.0453914542157
0.0449713453426
0.0424586758918
0.0306276072626
0.0306505612326
0.0423995481551
0.0448541450787
0.0451653976211
0.0451666989254
0.0451697408902
0.0452224576017
0.0453436101426
0.0454610014785
0.0454957530118
0.0454871582218
0.0454740666542
0.0454647935256
0.0454589972328
0.0454556107762
0.0454536952584
0.045452674637
0.0454522377661
0.0454521982898
0.0454523537039
0.0454525892922
0.0454528440636
0.0454530875324
0.0454533047863
0.045453490326
0.0454536447779
0.0454537718133
0.0454538740249
0.0454539549335
0.0454540180249
0.0454540657316
0.0454541070438
0.0454541468769
0.0454541647261
0.0454538235173
0.0454488261619
0.0453966854827
0.0449759972448
0.0424613169668
0.0306277491104
0.0306506237751
0.0423970182388
0.0448511626613
0.0451612281768
0.0451618314537
0.0451648412979
0.0452186070786
0.0453414320051
0.0454614482326
0.0454973628683
0.0454887559354
0.0454754246229
0.045465999346
0.0454601155276
0.0454566819178
0.0454547387398
0.0454537013408
0.0454532584851
0.0454532156483
0.0454533692582
0.0454536042362
0.0454538588205
0.0454541024364
0.0454543199538
0.0454545060907
0.0454546617671
0.0454547894905
0.0454548929596
0.0454549749189
0.0454550393447
0.0454550888711
0.0454551290539
0.0454551689362
0.0454551868598
0.0454548453927
0.045449845452
0.045397682471
0.0449768673356
0.0424617668406
0.0306277611735
0.0306506197536
0.0423970322272
0.0448511889169
0.0451612576502
0.0451618448174
0.0451648769501
0.0452186494112
0.0453414684178
0.0454614620319
0.0454973662534
0.0454887540913
0.0454754211842
0.0454659955832
0.0454601120352
0.0454566779476
0.0454547341856
0.0454536971894
0.0454532552954
0.0454532124576
0.0454533660177
0.0454536009042
0.0454538556135
0.0454540994178
0.0454543170053
0.0454545033873
0.0454546592013
0.0454547870513
0.0454548906117
0.045454972905
0.0454550375089
0.0454550871868
0.0454551273311
0.0454551672437
0.0454551851174
0.0454548434073
0.0454498429927
0.0453976789327
0.0449768628343
0.0424617613001
0.0306277595505
0.0306505471261
0.0423995831262
0.0448542160129
0.0451654852967
0.0451667597703
0.0451698257433
0.0452225495044
0.0453437116495
0.0454610408105
0.0454957622644
0.0454871531307
0.04547405705
0.0454647824304
0.0454589867958
0.0454555990288
0.045453681805
0.0454526629042
0.04545222833
0.0454521884086
0.0454523443135
0.0454525795789
0.045452834591
0.0454530785995
0.0454532962971
0.0454534825527
0.0454536374687
0.0454537648905
0.0454538676413
0.0454539492651
0.0454540129389
0.0454540612686
0.0454541022209
0.0454541421312
0.0454541598491
0.045453817885
0.0454488191186
0.0453966751777
0.0449759838856
0.0424613000835
0.0306277427411
0.030650449231
0.042404835956
0.0448632735902
0.0451801729669
0.0451841835033
0.0451873104776
0.0452365083044
0.0453507092584
0.0454586361585
0.0454896252354
0.0454807459485
0.0454680582295
0.0454590896816
0.0454534533153
0.0454501548719
0.0454482892399
0.0454473006404
0.0454468789539
0.0454468490079
0.0454470082822
0.045447245295
0.0454475009762
0.0454477451596
0.0454479622977
0.045448147328
0.0454483015294
0.0454484273449
0.0454485285519
0.0454486079754
0.0454486693144
0.0454487158855
0.0454487585677
0.0454487984762
0.0454488160209
0.0454484744761
0.0454434861403
0.0453914384699
0.0449713239641
0.042458647515
0.0306275947984
0.0306497643539
0.042405849041
0.044870654327
0.0452004959946
0.0452107327754
0.0452138793678
0.0452555998063
0.0453533068883
0.0454412430206
0.0454648278311
0.0454552420036
0.0454430896414
0.0454345588138
0.0454291578289
0.0454259894083
0.0454241994617
0.0454232459468
0.0454228515463
0.0454228334724
0.0454229972929
0.045423236521
0.0454234927383
0.0454237363159
0.04542395216
0.0454241358382
0.0454242877791
0.0454244109172
0.0454245091267
0.0454245851267
0.0454246423911
0.0454246904986
0.045424733485
0.045424773403
0.0454247909828
0.0454244528015
0.0454195073448
0.045367831159
0.0449499532107
0.0424454467297
0.0306266664865
0.0306449815886
0.0423664218671
0.044823020495
0.0451694837592
0.0451885472891
0.0451916017416
0.0452224236207
0.0452946013993
0.0453547617297
0.045368611993
0.0453582919216
0.0453469137301
0.0453389694121
0.0453338949534
0.0453308983468
0.0453292020501
0.0453282992501
0.0453279363199
0.0453279316667
0.0453280997252
0.0453283413043
0.0453285978257
0.0453288395867
0.0453290531321
0.0453292339446
0.045329382364
0.0453295013839
0.0453295952666
0.0453296663661
0.0453297217472
0.0453297707297
0.0453298137851
0.045329853712
0.0453298720026
0.0453295461264
0.0453247411642
0.045274270836
0.0448637841995
0.0423877949153
0.0306217101955
0.0306204322887
0.0421635712482
0.0445505057738
0.0449056936147
0.0449323850583
0.0449351771853
0.0449546089803
0.0449978739448
0.0450335795077
0.0450391440983
0.0450290435413
0.0450189477013
0.0450118215834
0.0450072056577
0.0450044283724
0.0450028414192
0.0450020062755
0.0450016778645
0.0450016855777
0.0450018597656
0.0450021023584
0.0450023568451
0.0450025953924
0.0450028057041
0.0450029830589
0.0450031282816
0.0450032438233
0.0450033333108
0.0450034002873
0.0450034539123
0.0450035023014
0.0450035450214
0.0450035848271
0.0450036052778
0.0450033124336
0.0449988792266
0.0449516355038
0.0445614626852
0.0421689685678
0.0305977431856
0.0305094075581
0.0414552361025
0.0436470275624
0.0439707473809
0.0439984092288
0.0440008897819
0.044012693502
0.044039080358
0.0440608984919
0.044063083721
0.0440550741181
0.0440470542011
0.0440410936656
0.0440370950321
0.044034591494
0.044033143984
0.0440323721126
0.0440320805951
0.0440321019518
0.0440322793948
0.0440325181018
0.0440327667504
0.0440330000178
0.0440332063652
0.0440333806
0.0440335234588
0.0440336404786
0.0440337323253
0.044033803694
0.0440338584469
0.0440339001739
0.0440339408697
0.0440339806393
0.0440340057128
0.0440337803971
0.0440301209881
0.0439897797076
0.0436448270352
0.0414530599065
0.0304891428064
0.0300290383193
0.039417456606
0.0412125948953
0.0414587387781
0.0414765479219
0.0414780521553
0.0414880939311
0.041509606318
0.0415286292484
0.0415332101542
0.0415293440078
0.0415242268807
0.0415198318782
0.041516560886
0.0415144424839
0.0415131721909
0.0415124582252
0.0415122080222
0.0415122380239
0.041512406777
0.0415126299635
0.0415128624208
0.0415130806789
0.0415132747832
0.0415134422868
0.0415135827181
0.0415136985674
0.0415137938642
0.0415138719025
0.0415139364321
0.0415139907121
0.0415140388116
0.0415140839714
0.0415141204383
0.041514000057
0.0415115579633
0.0414826752252
0.0412178271558
0.0394188360367
0.0300148818958
0.0280112096577
0.034144058107
0.0352933162316
0.0354223158643
0.0354237966065
0.0354241832177
0.0354362454999
0.0354608316005
0.0354845133489
0.0354950584696
0.0354965953613
0.0354949735101
0.0354925093392
0.0354901783608
0.0354886564019
0.0354876168051
0.0354870399254
0.035486837657
0.0354868520253
0.0354869757973
0.0354871449651
0.0354873239515
0.0354874943429
0.0354876478317
0.0354877813849
0.0354878948417
0.0354879899336
0.0354880690559
0.0354881346739
0.0354881897234
0.035488237099
0.0354882804755
0.0354883237777
0.0354883673806
0.0354883578394
0.0354873056311
0.0354727863821
0.0353203908941
0.0341572501853
0.0280092954235
0.0171408902696
0.0186738952487
0.0189474408504
0.0189739201281
0.0189735031619
0.0189727271985
0.0189740982495
0.0189768702505
0.0189781283779
0.0189765693601
0.018974105709
0.0189723657987
0.0189717560782
0.0189718353795
0.0189717288485
0.01897151773
0.0189712912938
0.0189710859973
0.0189709140334
0.0189707734019
0.0189706607028
0.0189705715306
0.0189705017104
0.0189704477215
0.018970406515
0.0189703754104
0.0189703525575
0.0189703363932
0.0189703254247
0.0189703187371
0.0189703155407
0.0189703155553
0.0189703186616
0.0189703240243
0.0189703264253
0.01897018105
0.0189678648708
0.0189384895185
0.0186665029888
0.0171371128739
0.017511346036
0.0202532313304
0.0207847364621
0.0208444611196
0.0208465871451
0.020846373323
0.0208491364542
0.0208549458566
0.0208598595846
0.0208608523264
0.020859831567
0.0208588467736
0.020858525506
0.0208588348961
0.0208589344003
0.020858753825
0.0208585162801
0.0208582936382
0.0208581007701
0.0208579413641
0.0208578131293
0.0208577105774
0.0208576306273
0.0208575677383
0.0208575193665
0.0208574827659
0.0208574548476
0.0208574342196
0.020857419197
0.0208574085895
0.020857401375
0.0208573965535
0.0208573935546
0.0208573897328
0.0208573642457
0.0208569296495
0.0208510389334
0.02078593125
0.0202533970504
0.0175075296087
0.0300088997632
0.039372891211
0.0411494060939
0.0413818173669
0.041392919739
0.0413951487562
0.0414134941934
0.0414499136676
0.0414870765874
0.0415074651225
0.0415148903262
0.0415168618757
0.0415165545274
0.0415154907661
0.0415146933427
0.0415140543409
0.0415136495791
0.041513504826
0.0415135138996
0.0415136016349
0.0415137227833
0.0415138511047
0.0415139738749
0.0415140838248
0.0415141789727
0.0415142595842
0.0415143263656
0.0415143813579
0.0415144264315
0.0415144636311
0.0415144952025
0.0415145233129
0.0415145501952
0.041514568746
0.0415144300663
0.0415119737783
0.0414830664197
0.0412182208103
0.0394192184863
0.0300155883455
0.0325683391153
0.0460749943505
0.0486647650195
0.0490698261357
0.0491091805901
0.0491139626022
0.0491287966951
0.0491580904335
0.0491867156521
0.0491998716123
0.0492020343582
0.049200786158
0.0491987872424
0.0491969991205
0.0491957117006
0.0491948938288
0.0491943899783
0.0491942137021
0.0491942442946
0.0491943769171
0.049194548745
0.0491947259788
0.049194891518
0.0491950376698
0.0491951621801
0.0491952656983
0.0491953503321
0.0491954187855
0.0491954739211
0.0491955183827
0.0491955553124
0.0491955874035
0.0491956165849
0.0491956202424
0.0491952463491
0.0491900992514
0.0491369515938
0.0487094679756
0.0461132096086
0.0325638776639
0.0332626821431
0.0488343288787
0.05194051659
0.0524668732649
0.0525264474135
0.0525334652872
0.0525481779314
0.0525767048849
0.0526022050908
0.0526104998347
0.0526081673479
0.0526040638513
0.0526005956691
0.0525981484046
0.0525965508605
0.0525955925608
0.0525950389693
0.0525948291496
0.05259485792
0.0525950047288
0.0525951960924
0.0525953932935
0.0525955760006
0.0525957355492
0.0525958696985
0.0525959791932
0.052596066493
0.0525961357441
0.0525961887362
0.0525962303619
0.0525962627322
0.0525962899722
0.0525963138156
0.0525962957103
0.0525956885782
0.0525881552527
0.0525155676052
0.0519712715878
0.0488708993339
0.0332523337173
0.033449567316
0.0498874008377
0.0532791646005
0.0538701927761
0.0539361843203
0.0539444180406
0.053965430304
0.0540047957327
0.0540366951057
0.0540449400854
0.0540398806332
0.054033647185
0.0540290307874
0.0540260193801
0.0540241861567
0.054023108792
0.0540225069305
0.0540222667919
0.0540222876352
0.0540224380308
0.0540226383177
0.0540228454535
0.054023037569
0.0540232050052
0.05402334469
0.054023457681
0.0540235465688
0.0540236147024
0.0540236663027
0.0540237045586
0.0540237373681
0.0540237657271
0.0540237891558
0.0540237583311
0.0540229904604
0.0540138525227
0.0539287927504
0.0533136706003
0.0499327605244
0.0334370532362
0.0334973805912
0.0502313312426
0.053750872846
0.0543574494323
0.0544190384676
0.0544279459923
0.0544603964806
0.0545214941469
0.0545703048965
0.0545831031275
0.0545771513301
0.0545695594958
0.0545641447033
0.0545607104241
0.0545586859151
0.0545575146717
0.0545568625545
0.0545565960151
0.0545566081968
0.054556757165
0.0545569610803
0.0545571737185
0.0545573718253
0.0545575450979
0.0545576901184
0.0545578079433
0.0545579006397
0.054557971619
0.0545580252631
0.0545580647384
0.05455809836
0.0545581273288
0.0545581507578
0.0545581131757