/*--------------------------------*- C++ -*----------------------------------*\
| =========                 |                                                 |
| \\      /  F ield         | OpenFOAM: The Open Source CFD Toolbox           |
|  \\    /   O peration     | Version:  3.0.1                                 |
|   \\  /    A nd           | Web:      www.OpenFOAM.org                      |
|    \\/     M anipulation  |                                                 |
\*---------------------------------------------------------------------------*/
FoamFile
{
    version     2.0;
    format      ascii;
    class       volScalarField;
    location    "0.6";
    object      p;
}
// * * * * * * * * * * * * * * * * * * * * * * * * * * * * * * * * * * * * * //

dimensions      [1 -1 -2 0 0 0 0];

internalField   nonuniform List<scalar> 
15984
(
4648.60492267
4648.61095426
4648.57132417
4648.52265289
4648.48462851
4648.42013284
4648.33570587
4648.27411999
4648.2324575
4648.1805861
4648.11964675
4648.05053319
4647.96208887
4647.86758051
4647.76226377
4647.64889875
4647.53071267
4647.4112648
4647.29452448
4647.18387527
4647.08168236
4646.98926361
4646.90709381
4646.83506801
4646.77271753
4646.71935162
4646.67415123
4646.63624114
4646.60473816
4646.57877529
4646.55752779
4646.54027873
4646.5263446
4646.51508058
4646.50598569
4646.49847611
4646.49264432
4646.48760334
4646.48451594
4646.48269236
4648.63372083
4648.65515801
4648.62249075
4648.57799906
4648.5468786
4648.48134143
4648.38835933
4648.31958503
4648.27134774
4648.21027544
4648.13998573
4648.06338633
4647.96946244
4647.87106805
4647.76349348
4647.64874089
4647.52978057
4647.40995261
4647.29306842
4647.18239822
4647.0802437
4646.98788735
4646.9057883
4646.83383525
4646.77155464
4646.71825248
4646.6731069
4646.63524179
4646.60377693
4646.5778545
4646.55662673
4646.53939787
4646.5254836
4646.51423855
4646.50518552
4646.4977095
4646.49190069
4646.48690188
4646.48387148
4646.482318
4648.65963793
4648.69039489
4648.65093049
4648.6010824
4648.57730833
4648.51099029
4648.40978739
4648.34302664
4648.30138205
4648.23864732
4648.16159681
4648.07818427
4647.97807079
4647.87632604
4647.76607865
4647.64986002
4647.52994675
4647.40973455
4647.29271743
4647.18203497
4647.07991943
4646.98762137
4646.90558733
4646.83370308
4646.77148953
4646.7182479
4646.67315428
4646.63533143
4646.60390417
4646.5780481
4646.55682578
4646.53961378
4646.52571627
4646.51448823
4646.50551589
4646.49809907
4646.49227863
4646.48730871
4646.48431633
4646.48292651
4648.68475874
4648.71611932
4648.65836981
4648.59829416
4648.58557198
4648.5188625
4648.40664845
4648.34637948
4648.32132396
4648.26369885
4648.18258704
4648.09205101
4647.98870351
4647.88212546
4647.76915395
4647.65139042
4647.53062469
4647.41010707
4647.29301484
4647.18235483
4647.08029698
4646.98806449
4646.90609958
4646.83428679
4646.77214311
4646.7189661
4646.67392561
4646.63614129
4646.60475081
4646.57905582
4646.55779162
4646.54058717
4646.52670115
4646.51548654
4646.5064768
4646.49904512
4646.49328352
4646.48833549
4646.48534645
4646.48398766
4648.7087637
4648.73338431
4648.65154645
4648.58393727
4648.59052327
4648.52394224
4648.3934991
4648.33684549
4648.33237037
4648.28421154
4648.20121355
4648.10497433
4647.99876051
4647.88764533
4647.77213891
4647.65299868
4647.53152142
4647.41078839
4647.29368824
4647.18308389
4647.08109658
4646.98893338
4646.90703657
4646.83529021
4646.7732109
4646.72009327
4646.67510203
4646.63734862
4646.60607794
4646.58027253
4646.55908034
4646.5418873
4646.52800526
4646.51679159
4646.50777162
4646.5003486
4646.49461577
4646.4896819
4646.48668204
4646.48526739
4648.73183394
4648.74713132
4648.64372544
4648.57898741
4648.61655063
4648.55052893
4648.39110165
4648.32807499
4648.34034224
4648.30175109
4648.21759514
4648.1169146
4648.0073116
4647.89233368
4647.77467612
4647.65444925
4647.5324032
4647.41152405
4647.29445899
4647.18393936
4647.08202882
4646.9899348
4646.90810202
4646.83641758
4646.77439638
4646.72133157
4646.67638694
4646.63868037
4646.60743391
4646.58159779
4646.56043228
4646.54324296
4646.52935921
4646.51814328
4646.50912172
4646.50171206
4646.4960005
4646.49108126
4646.4880742
4646.48659527
4648.75410446
4648.76229475
4648.64711098
4648.6001679
4648.68105492
4648.61588598
4648.41590255
4648.33196617
4648.35103793
4648.31816484
4648.23207803
4648.12745436
4648.01436072
4647.89602218
4647.77669041
4647.65558386
4647.53315234
4647.41218228
4647.29517325
4647.18474943
4647.08291992
4646.99089072
4646.90911652
4646.83748668
4646.77551844
4646.72249895
4646.67759272
4646.63991155
4646.6085829
4646.58283657
4646.56168628
4646.54449403
4646.53060571
4646.51938689
4646.5103665
4646.50297113
4646.49728008
4646.49237926
4646.48937623
4646.48785842
4648.77453157
4648.78041473
4648.66552228
4648.64936831
4648.78109959
4648.7168175
4648.46929993
4648.35218965
4648.36657132
4648.33386962
4648.24445355
4648.13608139
4648.01990368
4647.89870084
4647.7781629
4647.656344
4647.53371545
4647.41269674
4647.29575121
4647.18541769
4647.08366515
4646.99169296
4646.90996973
4646.83838792
4646.77646295
4646.72348203
4646.67860501
4646.6409453
4646.60961861
4646.58381532
4646.56274314
4646.54553989
4646.53164524
4646.5204238
4646.51140567
4646.50402402
4646.49835286
4646.49347302
4646.49048387
4646.48895481
4648.79018034
4648.79769368
4648.69106548
4648.70847014
4648.88693643
4648.82344792
4648.53254677
4648.38051327
4648.38361926
4648.34721714
4648.25385418
4648.14220022
4648.0237851
4647.90039614
4647.77909797
4647.65683826
4647.53407269
4647.41303898
4647.29614832
4647.18588875
4647.0841994
4646.992277
4646.9105964
4646.83905288
4646.77716482
4646.72421316
4646.67935885
4646.64171362
4646.61039829
4646.58457885
4646.56354749
4646.54631741
4646.53241579
4646.52119238
4646.51217687
4646.50480673
4646.49915232
4646.49429204
4646.49131987
4646.48979555
4648.7971401
4648.80710341
4648.70845185
4648.74866971
4648.95617515
4648.89336489
4648.57629089
4648.40156912
4648.39545318
4648.35532898
4648.25906156
4648.14532734
4648.02569098
4647.90111997
4647.77949611
4647.65705427
4647.53422021
4647.41319454
4647.29634144
4647.18613126
4647.08448758
4646.99260345
4646.91095656
4646.83944298
4646.77758133
4646.72465114
4646.67981105
4646.64217541
4646.61086423
4646.58503687
4646.56391913
4646.54677908
4646.5328763
4646.52165215
4646.51263891
4646.50527662
4646.49963338
4646.49478736
4646.49182881
4646.49031384
4648.79269797
4648.803374
4648.70645217
4648.74944937
4648.95948076
4648.89753597
4648.57979985
4648.40400127
4648.39698066
4648.35604029
4648.25918274
4648.14513392
4648.02541787
4647.90090585
4647.77936373
4647.65698234
4647.53417708
4647.41316111
4647.29632183
4647.1861324
4647.08451343
4646.99265398
4646.91103116
4646.83953839
4646.77769288
4646.72477421
4646.67994065
4646.64230772
4646.6109969
4646.58516706
4646.56405797
4646.54691007
4646.53300482
4646.52178099
4646.51276936
4646.50541057
4646.49977144
4646.49493228
4646.49197953
4646.49046906
4648.77693356
4648.78645774
4648.68472977
4648.71004049
4648.89589349
4648.83513229
4648.5424292
4648.3873846
4648.38794442
4648.3492229
4648.25417384
4648.14163717
4648.02299918
4647.89978336
4647.77872353
4647.6566353
4647.53393802
4647.41293948
4647.29609225
4647.18589614
4647.08428064
4646.99243235
4646.91082261
4646.83934047
4646.77750117
4646.72458278
4646.67974799
4646.64211111
4646.61079788
4646.58496411
4646.5639515
4646.54670682
4646.53279895
4646.52157658
4646.51256586
4646.50520617
4646.49956412
4646.49472419
4646.49176979
4646.49026097
4648.75273935
4648.76159841
4648.65395471
4648.6495916
4648.79276619
4648.7332503
4648.48363777
4648.36232472
4648.37297712
4648.33680497
4648.24485383
4648.13518268
4648.01869714
4647.89776734
4647.77759205
4647.65603231
4647.53350109
4647.41253627
4647.29566681
4647.18544111
4647.08380868
4646.99196096
4646.91035391
4646.83887214
4646.77702601
4646.72409981
4646.67925393
4646.64160715
4646.61029269
4646.58444532
4646.56339706
4646.54617752
4646.53227598
4646.52105655
4646.5120462
4646.50468187
4646.49903115
4646.49418466
4646.49122475
4646.48971971
4648.72423963
4648.73591065
4648.62931217
4648.59641124
4648.69145057
4648.63315592
4648.43192323
4648.34366476
4648.35846367
4648.3215129
4648.23240473
4648.12626024
4648.01287229
4647.89489607
4647.77599566
4647.65517549
4647.53287547
4647.41197037
4647.29507176
4647.18480348
4647.08314144
4646.99128312
4646.90966635
4646.838172
4646.77630968
4646.72336419
4646.67849839
4646.64083576
4646.6095444
4646.58372178
4646.56256908
4646.54536712
4646.53147186
4646.52025582
4646.51124555
4646.50387431
4646.49821145
4646.49335601
4646.49039332
4646.48890465
4648.69459755
4648.71346615
4648.61906967
4648.56907073
4648.62205249
4648.56481157
4648.40587455
4648.33944273
4648.34760294
4648.30490647
4648.21766518
4648.11547917
4648.0057095
4647.89117695
4647.77396666
4647.65404544
4647.53208678
4647.41127364
4647.29435244
4647.18403332
4647.08234144
4646.99046114
4646.90882284
4646.83730382
4646.77541353
4646.7224377
4646.67754125
4646.63986036
4646.60869665
4646.58272497
4646.56153166
4646.54433403
4646.53044234
4646.51922913
4646.51021868
4646.50284041
4646.49716408
4646.49230084
4646.48934486
4646.48789722
4648.66503948
4648.69302223
4648.61990648
4648.56659641
4648.58870195
4648.53231551
4648.4044692
4648.3460735
4648.33831716
4648.28653843
4648.20079367
4648.10333381
4647.99717848
4647.88662094
4647.7716268
4647.65265349
4647.53118743
4647.41051236
4647.29358728
4647.18323067
4647.08150844
4646.98959783
4646.90792685
4646.83637092
4646.77444064
4646.72142365
4646.6764867
4646.63877338
4646.60762732
4646.58161459
4646.56036987
4646.54317214
4646.5292806
4646.51806812
4646.50905667
4646.50167503
4646.49598359
4646.49111425
4646.4881755
4646.48679223
4648.63551072
4648.66980684
4648.6200165
4648.5730783
4648.575157
4648.51946769
4648.41191798
4648.3518633
4648.32488515
4648.26457235
4648.18141418
4648.09020175
4647.98722981
4647.88133692
4647.76883971
4647.6511267
4647.53029108
4647.40981548
4647.29292385
4647.18255486
4647.08080341
4646.98885594
4646.90714233
4646.83553857
4646.77355775
4646.72049025
4646.67550406
4646.63773825
4646.60638064
4646.58056913
4646.55923992
4646.54203844
4646.52814047
4646.51692359
4646.50790754
4646.5005375
4646.494823
4646.48994529
4646.4870256
4646.48569858
4648.60583428
4648.63890021
4648.6063051
4648.56800641
4648.55780657
4648.50279577
4648.40800056
4648.34347983
4648.30157661
4648.2374652
4648.15938857
4648.07595707
4647.97676073
4647.87588907
4647.76598577
4647.64969745
4647.52961636
4647.4094214
4647.29262461
4647.18226953
4647.08049269
4646.98850247
4646.90673803
4646.83507865
4646.77303854
4646.71991169
4646.6748722
4646.6370548
4646.60560814
4646.57968373
4646.55841572
4646.54119141
4646.5272793
4646.51604959
4646.50701075
4646.49970564
4646.49394324
4646.48904734
4646.48613075
4646.48477061
4648.57556988
4648.59838913
4648.57115633
4648.53631981
4648.51725402
4648.46286885
4648.377631
4648.31310479
4648.26662161
4648.20599528
4648.13615226
4648.06056422
4647.9681199
4647.87089087
4647.76366092
4647.64874762
4647.52950613
4647.40964589
4647.29297802
4647.18265119
4647.08085296
4646.98881889
4646.90700048
4646.83528304
4646.77318483
4646.72000267
4646.67491274
4646.63704736
4646.60554688
4646.57957256
4646.55830967
4646.54105824
4646.52712449
4646.51587655
4646.50681552
4646.49940243
4646.49364835
4646.48872525
4646.48577918
4646.48425784
4648.54118671
4648.54741704
4648.51171342
4648.47105085
4648.44378506
4648.3900909
4648.31424171
4648.25864114
4648.2209599
4648.17182456
4648.1133556
4648.04674209
4647.96082277
4647.86772853
4647.76285735
4647.64923852
4647.53065386
4647.41108322
4647.29451411
4647.1841911
4647.08234919
4646.99025227
4646.9083656
4646.83658099
4646.77441971
4646.72117992
4646.67603943
4646.63813002
4646.60658951
4646.58058246
4646.55930547
4646.54203201
4646.52807848
4646.51681386
4646.50772939
4646.50027354
4646.49449328
4646.48952014
4646.48650145
4646.48467275
4158.93707547
4158.93233363
4158.88520572
4158.83267794
4158.7947342
4158.72910143
4158.64385308
4158.58744729
4158.55795083
4158.5219414
4158.47649658
4158.41905803
4158.34041727
4158.2501937
4158.14674795
4158.03403094
4157.91518432
4157.79477707
4157.67714702
4157.56582713
4157.463198
4157.37054335
4157.28828897
4157.21628533
4157.15402648
4157.10079368
4157.05574858
4157.01800453
4156.98667166
4156.96086943
4156.93977706
4156.92267528
4156.90887751
4156.89771924
4156.88870173
4156.88119901
4156.87537412
4156.87029359
4156.86707413
4156.86531806
4158.95739801
4158.96986221
4158.9384369
4158.90071367
4158.8767065
4158.81070405
4158.71138375
4158.63847528
4158.59368509
4158.54455955
4158.48959663
4158.4262907
4158.34401348
4158.25150748
4158.14685974
4158.03331505
4157.91406637
4157.79351356
4157.67584573
4157.56452572
4157.46190731
4157.36926144
4157.28701473
4157.21502057
4157.15277428
4157.09955455
4157.05452127
4157.01678448
4156.98545555
4156.95965308
4156.93855886
4156.92145723
4156.90766196
4156.8965031
4156.8874913
4156.8799796
4156.87416779
4156.86914268
4156.86603337
4156.8648479
4158.97863639
4158.99874392
4158.96631657
4158.9322088
4158.92345242
4158.85715409
4158.74279858
4158.66340132
4158.61877441
4158.56556718
4158.50442764
4158.43610699
4158.3494497
4158.25464212
4158.14830231
4158.03362116
4157.91392919
4157.79317306
4157.67546079
4157.56415224
4157.46155993
4157.36894145
4157.28672412
4157.21476425
4157.15255426
4157.09937088
4157.05436833
4157.01665036
4156.98532485
4156.95951881
4156.93842733
4156.92133136
4156.90753819
4156.89637637
4156.88732581
4156.87977611
4156.87400348
4156.86901321
4156.8660257
4156.86533648
4159.00052068
4159.02044046
4158.97653414
4158.94379819
4158.95728558
4158.89095605
4158.7551787
4158.67064214
4158.63460943
4158.58365167
4158.51908499
4158.44728195
4158.35539524
4158.25870709
4158.15044789
4158.03469835
4157.91451947
4157.79359031
4157.67586829
4157.56460652
4157.4620656
4157.36949405
4157.28732277
4157.21541121
4157.15325102
4157.10011609
4157.05515379
4157.01745793
4156.98610428
4156.96024646
4156.93917706
4156.9221188
4156.90833698
4156.89717788
4156.88817871
4156.88067963
4156.87488679
4156.86993041
4156.86700521
4156.86644445
4159.02429086
4159.04100162
4158.98636159
4158.96498635
4159.0147817
4158.94893001
4158.778495
4158.67834948
4158.64849831
4158.60055208
4158.53297907
4158.4559978
4158.3638103
4158.2629361
4158.15269559
4158.03594464
4157.91536183
4157.7943262
4157.67664745
4157.56546507
4157.4629972
4157.3704862
4157.28836999
4157.21651384
4157.15440971
4157.10132477
4157.05640573
4157.01873811
4156.9871228
4156.96157305
4156.94053517
4156.92345414
4156.90966351
4156.89850029
4156.88950957
4156.88202868
4156.8762384
4156.87130114
4156.86839258
4156.8677996
4159.04875265
4159.06327884
4159.00553409
4159.01134915
4159.11415771
4159.0491403
4158.82810991
4158.69728397
4158.66508258
4158.61730911
4158.54600499
4158.46498088
4158.37065588
4158.26662949
4158.15471509
4158.03708546
4157.91618754
4157.79512239
4157.67753043
4157.56644699
4157.46406457
4157.37162132
4157.28956375
4157.21776334
4157.15571453
4157.10268047
4157.057804
4157.02016263
4156.98857631
4156.96303271
4156.9420042
4156.92492063
4156.91112434
4156.89995702
4156.89096711
4156.88350089
4156.87772446
4156.87280355
4156.86989774
4156.86923161
4159.07302466
4159.08911194
4159.03975667
4159.09016545
4159.26245609
4159.19848741
4158.91112171
4158.73277414
4158.68713493
4158.6345903
4158.55810478
4158.4733055
4158.37613836
4158.26953123
4158.15633156
4158.03802763
4157.9168833
4157.79583809
4157.67836118
4157.56738578
4157.4650895
4157.3727156
4157.29071506
4157.21896744
4157.15696708
4157.10397851
4157.05913602
4157.02153233
4156.99021513
4156.96440467
4156.94338425
4156.92630761
4156.91250833
4156.90133809
4156.89234926
4156.88489797
4156.87914089
4156.87423937
4156.87133871
4156.87060947
4159.09547195
4159.11739542
4159.08772822
4159.19676333
4159.44884494
4159.38564291
4159.02235871
4158.78338926
4158.71382545
4158.65178338
4158.56881383
4158.48026837
4158.38036126
4158.27161521
4158.15748467
4158.03874498
4157.91739912
4157.79640683
4157.67903912
4157.56817559
4157.46595381
4157.37364401
4157.29169612
4157.21999381
4157.15803571
4157.10508201
4157.06027103
4157.02269147
4156.99144274
4156.96567736
4156.9445358
4156.92747975
4156.91368098
4156.90250911
4156.8935223
4156.88608554
4156.88034931
4156.87546974
4156.87258063
4156.87181269
4159.11265273
4159.14245623
4159.13701041
4159.30427161
4159.62954537
4159.56659231
4159.13450464
4158.83614353
4158.73956009
4158.66645896
4158.57706333
4158.48513158
4158.38336936
4158.27292694
4158.15819466
4158.03915013
4157.91774497
4157.79678939
4157.67951082
4157.56874005
4157.46658197
4157.37432382
4157.29242163
4157.22075899
4157.15883161
4157.10590654
4157.06111697
4157.02355655
4156.99232625
4156.96657044
4156.94536995
4156.92834892
4156.91455465
4156.90338247
4156.89439816
4156.88697386
4156.88125566
4156.87639691
4156.87352211
4156.87273633
4159.12020043
4159.15587387
4159.16760386
4159.37243391
4159.74286436
4159.6799636
4159.20652244
4158.87066468
4158.75594452
4158.67522857
4158.58160841
4158.48755948
4158.38477694
4158.27344829
4158.15847245
4158.03933468
4157.91790239
4157.79697244
4157.6797465
4157.56903564
4157.46692263
4157.37470493
4157.29283817
4157.2212061
4157.15930359
4157.10639587
4157.06162139
4157.02407087
4156.99284834
4156.9671006
4156.94601647
4156.92886796
4156.91507378
4156.90390209
4156.89492024
4156.88750467
4156.88179878
4156.87695575
4156.87409308
4156.87330213
4159.11516563
4159.15172809
4159.16552421
4159.37367345
4159.74686948
4159.68464587
4159.21028387
4158.87299658
4158.75725748
4158.67571842
4158.58155281
4158.48724204
4158.38442772
4158.27319286
4158.1583257
4158.03926294
4157.91785988
4157.79694403
4157.67973414
4157.56904403
4157.46695576
4157.3747637
4157.29292052
4157.22130887
4157.15942222
4157.10652519
4157.06175701
4157.02420882
4156.99298611
4156.96723723
4156.9461606
4156.92900435
4156.9152093
4156.90403832
4156.89505834
4156.88764698
4156.88194624
4156.87711131
4156.87425503
4156.87346486
4159.09769383
4159.13000188
4159.13044991
4159.30717584
4159.64083962
4159.58004639
4159.14500705
4158.84268434
4158.74324666
4158.66781303
4158.57686193
4158.48419794
4158.38235986
4158.27219495
4158.15777633
4158.03895503
4157.91762177
4157.79670757
4157.67947767
4157.56876879
4157.46668579
4157.37450313
4157.29267147
4157.22106932
4157.15918818
4157.10629546
4157.06152443
4157.02397085
4156.9927396
4156.96697988
4156.94583644
4156.92875788
4156.91495966
4156.90378952
4156.89481086
4156.88739917
4156.88169653
4156.87686199
4156.87400637
4156.87322295
4159.07104063
4159.09659921
4159.07561841
4159.19878441
4159.46389251
4159.40459935
4159.03745511
4158.79290543
4158.71918395
4158.65367388
4158.56837887
4158.47876935
4158.37879563
4158.2704987
4158.15684915
4158.03840771
4157.9172058
4157.79628107
4157.67899373
4157.56823688
4157.46613728
4157.37395259
4157.29212006
4157.22051598
4157.15863344
4157.10573193
4157.06095082
4157.02338189
4156.99213264
4156.96633645
4156.94521283
4156.92815287
4156.91434961
4156.9031812
4156.89420358
4156.88678762
4156.88107726
4156.87623735
4156.8733797
4156.87261267
4159.03988953
4159.06012101
4159.02086632
4159.08795172
4159.27623522
4159.218275
4158.92765925
4158.74347763
4158.693152
4158.63655186
4158.55733375
4158.47133599
4158.37418826
4158.2681789
4158.15557148
4158.03763834
4157.91663561
4157.79567861
4157.67831779
4157.56749273
4157.46536711
4157.37316431
4157.29132051
4157.21970522
4157.15780732
4157.10488868
4157.0600862
4157.0224949
4156.99120321
4156.96522663
4156.9443096
4156.92723456
4156.91342924
4156.90226375
4156.89328721
4156.8858644
4156.88014311
4156.87529582
4156.8724386
4156.87170482
4159.00795469
4159.02657799
4158.97913887
4159.00209811
4159.1220786
4159.06518195
4158.84281407
4158.70724356
4158.67061426
4158.61880513
4158.54477277
4158.46264407
4158.36851827
4158.26522121
4158.15396218
4158.03668234
4157.9159136
4157.79494252
4157.67750006
4157.56661266
4157.46444878
4157.37221851
4157.29035384
4157.21871638
4157.15679298
4157.10384577
4157.0590142
4157.02139021
4156.98996795
4156.9641801
4156.94316807
4156.92608347
4156.91227911
4156.90111761
4156.89214241
4156.88471155
4156.87897968
4156.87412628
4156.87127599
4156.87059675
4158.97704591
4158.99741727
4158.95230276
4158.94710611
4159.01387494
4158.9578203
4158.78857808
4158.68575749
4158.6524246
4158.60102799
4158.53112546
4158.45336919
4158.36167764
4158.26166883
4158.15213472
4158.03560809
4157.91508983
4157.79414194
4157.67663881
4157.56569946
4157.46349316
4157.37123175
4157.28933952
4157.21767188
4157.1557139
4157.10272817
4157.05785899
4157.02019682
4156.98869139
4156.96295302
4156.94189388
4156.92482484
4156.91102565
4156.89986926
4156.89089558
4156.88345557
4156.87771638
4156.87285768
4156.87001698
4156.86940127
4158.9480252
4158.97093435
4158.93525637
4158.91682955
4158.94616278
4158.89070035
4158.75875067
4158.67385678
4158.63587957
4158.58253691
4158.51640406
4158.44433901
4158.35344872
4158.25771956
4158.15005938
4158.03447583
4157.9142703
4157.7934054
4157.67588472
4157.56490814
4157.46266673
4157.37037546
4157.28845292
4157.21675038
4157.15475188
4157.10172307
4157.05681217
4157.01912193
4156.98774804
4156.96181251
4156.94062246
4156.9236571
4156.90987139
4156.89872105
4156.88974648
4156.88228778
4156.87654674
4156.87167519
4156.86882844
4156.86824251
4158.9218385
4158.94410297
4158.9183311
4158.89627447
4158.90173143
4158.84676615
4158.73846346
4158.66112345
4158.61643141
4158.56227768
4158.50065652
4158.43288369
4158.34760989
4158.25394679
4158.14815938
4158.0335158
4157.9136968
4157.79296899
4157.67547436
4157.5644834
4157.46222196
4157.36990878
4157.28795985
4157.21622474
4157.15418781
4157.10111859
4157.05616961
4157.01845002
4156.98708298
4156.96122631
4156.94009669
4156.92299866
4156.9091868
4156.89802948
4156.88904517
4156.88151498
4156.87576845
4156.87085816
4156.86794751
4156.86727484
4158.89642602
4158.91000434
4158.88349596
4158.85554026
4158.84401576
4158.78937587
4158.6978054
4158.6292293
4158.58650364
4158.53825975
4158.48426232
4158.42254439
4158.34225397
4158.25115137
4158.14701704
4158.03336675
4157.91389695
4157.79331686
4157.6758597
4157.56487138
4157.4626006
4157.37027352
4157.28830704
4157.21654948
4157.15448587
4157.10138698
4157.05640942
4157.0186682
4156.98729208
4156.96144605
4156.94032802
4156.92320287
4156.90938411
4156.89822753
4156.88924005
4156.88177495
4156.87601627
4156.87107834
4156.86806907
4156.86689179
4158.87088347
4158.86620289
4158.82268487
4158.77845958
4158.75187555
4158.69744427
4158.6208769
4158.57041165
4158.54489451
4158.51174318
4158.46899647
4158.41452262
4158.33870684
4158.25024287
4158.14734072
4158.03443016
4157.91522325
4157.79470002
4157.6772291
4157.5662191
4157.46392846
4157.37158876
4157.28961477
4157.21785132
4157.15578083
4157.10267395
4157.05768806
4157.01994035
4156.98856132
4156.96271798
4156.94160501
4156.92447663
4156.91065583
4156.89950039
4156.89050107
4156.883047
4156.87727631
4156.87226924
4156.86912832
4156.86736906
3669.25993181
3669.25065197
3669.20752409
3669.16158023
3669.13077802
3669.06191237
3668.9657304
3668.90291643
3668.87797246
3668.8559979
3668.82860063
3668.78665463
3668.72088355
3668.63608118
3668.53376114
3668.42038255
3668.29948144
3668.1767543
3668.05723128
3667.94458364
3667.84116572
3667.74815014
3667.66584495
3667.59399564
3667.53201856
3667.47913791
3667.4344772
3667.39712883
3667.36619412
3667.34076573
3667.32001934
3667.30324825
3667.28976313
3667.27886271
3667.27007192
3667.2626391
3667.25689129
3667.25174642
3667.24838484
3667.24656104
3669.27948244
3669.29211851
3669.27327885
3669.25151707
3669.24208349
3669.17310679
3669.05619421
3668.9677724
3668.9185814
3668.87810779
3668.83948047
3668.7916042
3668.72259206
3668.63610987
3668.5333974
3668.419283
3668.2982296
3668.17555349
3668.05607652
3667.94346391
3667.840057
3667.74703442
3667.66471097
3667.59284643
3667.53085878
3667.47796958
3667.43330088
3667.39594297
3667.36499926
3667.33955383
3667.31879436
3667.30200945
3667.28851669
3667.27760051
3667.26880862
3667.26136181
3667.25562075
3667.25053809
3667.24731984
3667.24620131
3669.30193946
3669.32330486
3669.30524692
3669.2923574
3669.30817757
3669.23915882
3669.09807153
3668.99731335
3668.94510204
3668.89717194
3668.85081628
3668.7983892
3668.72590183
3668.63779416
3668.5341826
3668.41935394
3668.29813797
3668.17545966
3668.05603705
3667.94347133
3667.84009117
3667.74707882
3667.66476258
3667.59290828
3667.53093732
3667.4780668
3667.43341375
3667.39606413
3667.36512701
3667.33966206
3667.31890113
3667.30209833
3667.28859603
3667.27766377
3667.26886016
3667.26141065
3667.25567397
3667.25064311
3667.24762166
3667.2469412
3669.32696223
3669.34519152
3669.30899993
3669.29777515
3669.34910474
3669.28015641
3669.1051445
3668.99761895
3668.95792153
3668.91191067
3668.86098159
3668.80537851
3668.72976239
3668.64020509
3668.53545537
3668.42012868
3668.29874853
3668.1760782
3668.05674913
3667.94426655
3667.84094039
3667.74796174
3667.66567475
3667.59385367
3667.53192261
3667.47909217
3667.4344752
3667.39715178
3667.36624949
3667.34074386
3667.32002448
3667.30317187
3667.28964688
3667.27869534
3667.26988689
3667.26242511
3667.25667867
3667.25168613
3667.24875267
3667.24825169
3669.35603045
3669.36752458
3669.30862229
3669.30980762
3669.42366786
3669.356869
3669.12465106
3668.99432606
3668.96980593
3668.92734533
3668.87116544
3668.81222436
3668.73402865
3668.64272744
3668.53676266
3668.42096201
3668.29948472
3668.17689516
3668.05769335
3667.94533393
3667.84209154
3667.74917058
3667.66693227
3667.59516136
3667.53328016
3667.48049807
3667.43592258
3667.398639
3667.36790483
3667.34225949
3667.3214663
3667.30463983
3667.29110752
3667.28014635
3667.2713343
3667.2638827
3667.25813945
3667.25317552
3667.25028902
3667.24979151
3669.38684885
3669.39335502
3669.31761485
3669.35374515
3669.56979428
3669.5111545
3669.19506169
3669.01240074
3668.98738336
3668.94521966
3668.88159957
3668.81835503
3668.73857269
3668.6449408
3668.53792706
3668.42168825
3668.30019233
3668.17774237
3668.05870128
3667.94648224
3667.84334428
3667.75049588
3667.66831701
3667.59660176
3667.53477381
3667.48204018
3667.43750132
3667.40024176
3667.36949211
3667.34390044
3667.32309142
3667.30626615
3667.2927241
3667.28175489
3667.272939
3667.26550371
3667.25977835
3667.25484254
3667.25198712
3667.25143121
3669.41744363
3669.42460015
3669.34835329
3669.46027889
3669.82072116
3669.77493751
3669.34284491
3669.06873477
3669.01423369
3668.96563958
3668.89219764
3668.82452474
3668.74199684
3668.64664566
3668.53884711
3668.42229592
3668.30079736
3668.17852485
3668.05966215
3667.94757722
3667.84454492
3667.75177418
3667.66965687
3667.59799681
3667.53621912
3667.48352606
3667.43902008
3667.40177852
3667.37091243
3667.34552017
3667.32466956
3667.30783602
3667.29428324
3667.28330714
3667.27448911
3667.26707268
3667.26137551
3667.25647042
3667.25364119
3667.25302497
3669.44588038
3669.46257138
3669.41576431
3669.64404373
3670.16834842
3670.13133858
3669.55791099
3669.16095919
3669.05122331
3668.98716972
3668.90221836
3668.83001659
3668.74441814
3668.64781627
3668.53944761
3668.42274039
3668.30126294
3668.17915595
3668.06047595
3667.94850401
3667.84556426
3667.75286756
3667.67080839
3667.59919735
3667.53746193
3667.48480734
3667.44032776
3667.40309998
3667.37221751
3667.3467963
3667.32603511
3667.30918642
3667.29562269
3667.28464067
3667.27582237
3667.26842485
3667.26275743
3667.25788424
3667.25507957
3667.25442607
3669.46796973
3669.5001198
3669.50366753
3669.85198849
3670.52635041
3670.49066429
3669.77984403
3669.26006734
3669.0908522
3669.00609701
3668.91019661
3668.83331511
3668.74669042
3668.6485622
3668.53978732
3668.42299827
3668.30157052
3668.17959102
3668.06104783
3667.9491782
3667.84630956
3667.75367542
3667.6716659
3667.60009632
3667.53839474
3667.48576758
3667.44131123
3667.40409373
3667.37321002
3667.34779129
3667.32705298
3667.31020492
3667.29662875
3667.28564203
3667.27682467
3667.26944327
3667.26380033
3667.25895544
3667.25617226
3667.25550316
3669.47810151
3669.52208847
3669.56317893
3669.98727366
3670.75175791
3670.71432223
3669.92012737
3669.32413411
3669.11675302
3669.01742625
3668.91462356
3668.83496655
3668.74759822
3668.64877693
3668.53986618
3668.4230922
3668.30171381
3668.17980491
3668.06134576
3667.94953783
3667.84671929
3667.75413085
3667.67215874
3667.60062061
3667.53894388
3667.48633542
3667.4418935
3667.40468367
3667.3738002
3667.34838194
3667.32762665
3667.31081746
3667.29722571
3667.28623604
3667.27742033
3667.27004982
3667.26442242
3667.25959777
3667.25682993
3667.25615695
3669.47242766
3669.51766881
3669.56110833
3669.98833828
3670.75467398
3670.71726357
3669.9229002
3669.32607819
3669.11797989
3669.01778126
3668.91441996
3668.83451553
3668.74715249
3668.64846595
3668.53969664
3668.42301395
3668.30167625
3668.17978632
3668.06134408
3667.94955722
3667.84676314
3667.75420044
3667.67225165
3667.60073324
3667.5390717
3667.48647367
3667.44203761
3667.40482934
3667.37394433
3667.34852596
3667.32776847
3667.31096761
3667.29737104
3667.2863817
3667.27756797
3667.27020239
3667.26458082
3667.25976568
3667.25700464
3667.25633211
3669.45117643
3669.48683845
3669.49699497
3669.85441795
3670.53657709
3670.50078596
3669.78746424
3669.26549327
3669.09430379
3669.00705119
3668.90955764
3668.83198281
3668.74539399
3668.64766591
3668.53930238
3668.4227783
3668.30146216
3668.1795388
3668.06104336
3667.94924057
3667.8464442
3667.75388679
3667.67194669
3667.60043573
3667.5387786
3667.48618306
3667.44174382
3667.40452974
3667.37363951
3667.348222
3667.32745307
3667.31064415
3667.29706209
3667.28607706
3667.27726564
3667.26989893
3667.26427362
3667.25945709
3667.25669427
3667.25602605
3669.41865786
3669.44038471
3669.40344832
3669.64578325
3670.18291407
3670.14717515
3669.56961267
3669.16919786
3669.05619225
3668.98840163
3668.90106122
3668.82787021
3668.74239129
3668.6464393
3668.53871091
3668.42239529
3668.30109696
3668.17907631