/*--------------------------------*- C++ -*----------------------------------*\
| =========                 |                                                 |
| \\      /  F ield         | OpenFOAM: The Open Source CFD Toolbox           |
|  \\    /   O peration     | Version:  3.0.1                                 |
|   \\  /    A nd           | Web:      www.OpenFOAM.org                      |
|    \\/     M anipulation  |                                                 |
\*---------------------------------------------------------------------------*/
FoamFile
{
    version     2.0;
    format      ascii;
    class       volScalarField;
    location    "0.6";
    object      rAU;
}
// * * * * * * * * * * * * * * * * * * * * * * * * * * * * * * * * * * * * * //

dimensions      [-1 3 1 0 0 0 0];

internalField   nonuniform List<scalar> 
15984
(
1.04626324443e-05
1.04553832881e-05
1.04543240204e-05
1.04538108264e-05
1.0454487789e-05
1.04546378914e-05
1.04540981056e-05
1.04543427825e-05
1.04549372711e-05
1.04547168727e-05
1.04546074172e-05
1.04546130741e-05
1.04546537545e-05
1.04547003405e-05
1.04547609071e-05
1.04545876846e-05
1.04543674216e-05
1.04544737453e-05
1.04546092512e-05
1.04546398842e-05
1.04546489759e-05
1.04546507855e-05
1.04546498365e-05
1.04546479546e-05
1.04546458759e-05
1.04546438669e-05
1.04546420432e-05
1.04546404435e-05
1.04546390647e-05
1.0454637934e-05
1.04546370836e-05
1.04546365333e-05
1.04546363208e-05
1.0454636911e-05
1.04546382348e-05
1.04546260449e-05
1.04546244477e-05
1.04546669856e-05
1.04549956759e-05
1.04625326048e-05
1.04120569373e-05
1.03849214199e-05
1.03803484426e-05
1.03795526058e-05
1.03799056991e-05
1.03800172461e-05
1.03798059877e-05
1.0379820707e-05
1.03800256339e-05
1.03800372046e-05
1.03800432938e-05
1.03801100366e-05
1.03801876399e-05
1.03802518241e-05
1.03803256889e-05
1.03800505301e-05
1.03798450538e-05
1.03800317789e-05
1.03801462835e-05
1.03801729057e-05
1.03801795171e-05
1.03801787141e-05
1.03801752298e-05
1.03801708303e-05
1.03801663201e-05
1.0380161683e-05
1.03801564731e-05
1.03801513411e-05
1.03801508991e-05
1.03801514335e-05
1.03801519024e-05
1.03801523204e-05
1.03801529561e-05
1.03801544277e-05
1.03801566953e-05
1.0380150049e-05
1.0380197831e-05
1.03807294116e-05
1.0384796865e-05
1.04120230506e-05
1.04090022571e-05
1.03640118646e-05
1.03558828766e-05
1.03548364328e-05
1.03550773898e-05
1.03551611169e-05
1.03548886447e-05
1.03546390221e-05
1.03546661408e-05
1.03548215539e-05
1.03549866374e-05
1.03551338435e-05
1.03552456657e-05
1.03553359652e-05
1.03554146071e-05
1.03551905034e-05
1.03549765473e-05
1.03551174303e-05
1.03552301547e-05
1.03552560339e-05
1.03552595224e-05
1.03552521034e-05
1.03552468862e-05
1.03552481619e-05
1.03552491423e-05
1.03552495265e-05
1.03552494543e-05
1.03552492926e-05
1.03552490061e-05
1.03552492892e-05
1.03552495074e-05
1.03552497909e-05
1.03552502705e-05
1.03552515085e-05
1.03552535958e-05
1.03552537833e-05
1.03553665381e-05
1.03564778925e-05
1.0364200972e-05
1.04089059789e-05
1.0408510288e-05
1.03558074539e-05
1.03455405592e-05
1.03444865734e-05
1.03449550372e-05
1.034501467e-05
1.03444360622e-05
1.03437743084e-05
1.03435696651e-05
1.03436880288e-05
1.03438918513e-05
1.03440658791e-05
1.03441952045e-05
1.03442803218e-05
1.03443670246e-05
1.03442859289e-05
1.03440710752e-05
1.03440887637e-05
1.03442153828e-05
1.03442426641e-05
1.03442462575e-05
1.03442371389e-05
1.03442403359e-05
1.03442419655e-05
1.0344242361e-05
1.03442430975e-05
1.03442433936e-05
1.03442434152e-05
1.03442433689e-05
1.03442428614e-05
1.03442415738e-05
1.03442405808e-05
1.03442399197e-05
1.03442401165e-05
1.03442413511e-05
1.03442469846e-05
1.03444165997e-05
1.03459530063e-05
1.03559194341e-05
1.04081963715e-05
1.0408280267e-05
1.03528704073e-05
1.03413643401e-05
1.03401573489e-05
1.03400900003e-05
1.03401243119e-05
1.03397268427e-05
1.03393674352e-05
1.03392046215e-05
1.03392972442e-05
1.03395312373e-05
1.03397322839e-05
1.03398802106e-05
1.03399744902e-05
1.03400510647e-05
1.03400550549e-05
1.03398263975e-05
1.03397617747e-05
1.03399073697e-05
1.03399374203e-05
1.03399406768e-05
1.03399333801e-05
1.03399363083e-05
1.03399377987e-05
1.03399383684e-05
1.03399382506e-05
1.03399386464e-05
1.03399385757e-05
1.03399381919e-05
1.0339936867e-05
1.03399362018e-05
1.03399358928e-05
1.0339935621e-05
1.03399358801e-05
1.03399373038e-05
1.03399460881e-05
1.03401491928e-05
1.03419207905e-05
1.03529760742e-05
1.04080261475e-05
1.04076806881e-05
1.03519227224e-05
1.03396513007e-05
1.03359768402e-05
1.03353220242e-05
1.03355050078e-05
1.03359852614e-05
1.03371722595e-05
1.033775424e-05
1.03378131974e-05
1.03380438694e-05
1.03382697046e-05
1.03384304596e-05
1.03385378829e-05
1.03386099116e-05
1.03386543752e-05
1.03384012463e-05
1.03382923939e-05
1.03384647816e-05
1.03384996608e-05
1.03385029702e-05
1.03384953119e-05
1.03384984036e-05
1.03384991749e-05
1.03385002414e-05
1.03385004141e-05
1.03385004885e-05
1.03385004025e-05
1.03385004754e-05
1.03384991966e-05
1.03384987347e-05
1.0338498528e-05
1.03384980557e-05
1.03384982329e-05
1.03384998481e-05
1.03385102679e-05
1.03387287993e-05
1.03406016333e-05
1.03520842062e-05
1.04079874182e-05
1.04073755039e-05
1.03517474258e-05
1.03381026186e-05
1.03351737867e-05
1.033552794e-05
1.03356916395e-05
1.03354439634e-05
1.0335962149e-05
1.03374429066e-05
1.03373900681e-05
1.03375907053e-05
1.03378350212e-05
1.03380089974e-05
1.03381212531e-05
1.0338204811e-05
1.03382577e-05
1.03379910711e-05
1.03378603014e-05
1.03380525251e-05
1.03380892947e-05
1.033809523e-05
1.03380861196e-05
1.03380885044e-05
1.03380904444e-05
1.03380909083e-05
1.0338091246e-05
1.03380912301e-05
1.03380913083e-05
1.0338091061e-05
1.03380907503e-05
1.03380893951e-05
1.03380894746e-05
1.03380892746e-05
1.0338089584e-05
1.0338091385e-05
1.03381023785e-05
1.03383264834e-05
1.03402343457e-05
1.03518545165e-05
1.04079792336e-05
1.04076171743e-05
1.03519549082e-05
1.03374715408e-05
1.03357315787e-05
1.03379913601e-05
1.0338126337e-05
1.0336245336e-05
1.03354673918e-05
1.03375880881e-05
1.03372898835e-05
1.0337451651e-05
1.0337711412e-05
1.03378951899e-05
1.03380150009e-05
1.03380990288e-05
1.03381752346e-05
1.03378974351e-05
1.03377579784e-05
1.03379491931e-05
1.03379887013e-05
1.03379950642e-05
1.0337985927e-05
1.03379887196e-05
1.0337989383e-05
1.03379906668e-05
1.033799082e-05
1.03379908344e-05
1.03379907197e-05
1.03379906804e-05
1.03379905088e-05
1.03379899499e-05
1.03379889341e-05
1.03379890615e-05
1.0337989621e-05
1.03379915993e-05
1.0338002763e-05
1.03382285596e-05
1.03401465072e-05
1.03518038781e-05
1.04079776821e-05
1.0407807588e-05
1.03522173386e-05
1.03378113169e-05
1.03364116047e-05
1.03390637088e-05
1.03391955401e-05
1.03363711298e-05
1.03351883127e-05
1.03378375899e-05
1.03372635089e-05
1.03373979521e-05
1.03376690053e-05
1.03378624557e-05
1.03379872161e-05
1.03380743361e-05
1.03381589301e-05
1.03378815537e-05
1.03377345044e-05
1.03379253632e-05
1.03379670767e-05
1.03379735547e-05
1.03379647763e-05
1.03379671952e-05
1.03379685599e-05
1.03379686117e-05
1.03379694045e-05
1.03379693686e-05
1.03379692715e-05
1.03379691201e-05
1.0337969136e-05
1.03379690743e-05
1.03379681692e-05
1.0337967756e-05
1.03379684087e-05
1.03379705154e-05
1.03379817374e-05
1.03382079953e-05
1.03401284355e-05
1.0351794429e-05
1.0407977465e-05
1.04078877616e-05
1.0352353702e-05
1.03378547077e-05
1.03365276145e-05
1.03392959348e-05
1.03394272636e-05
1.0336473945e-05
1.0335336246e-05
1.03380020218e-05
1.03372521272e-05
1.03373740489e-05
1.03376531093e-05
1.03378515339e-05
1.03379796442e-05
1.03380672599e-05
1.03381582511e-05
1.03378804874e-05
1.03377302231e-05
1.03379201994e-05
1.03379629757e-05
1.03379695609e-05
1.03379608066e-05
1.03379633234e-05
1.03379647447e-05
1.03379648941e-05
1.0337965176e-05
1.03379654631e-05
1.03379653393e-05
1.03379652213e-05
1.03379651866e-05
1.03379652335e-05
1.03379647192e-05
1.03379641269e-05
1.0337964644e-05
1.03379667679e-05
1.03379780004e-05
1.03382043602e-05
1.03401253347e-05
1.03517930591e-05
1.04079774171e-05
1.04078876465e-05
1.03523536558e-05
1.03378554352e-05
1.0336528726e-05
1.0339297596e-05
1.03394285049e-05
1.03364738109e-05
1.0335336638e-05
1.03380019094e-05
1.03372521143e-05
1.03373740141e-05
1.03376533178e-05
1.03378515371e-05
1.03379796221e-05
1.03380670468e-05
1.03381546425e-05
1.03378799159e-05
1.03377299162e-05
1.03379200888e-05
1.03379628489e-05
1.03379691547e-05
1.03379607599e-05
1.03379632752e-05
1.03379647092e-05
1.03379648993e-05
1.03379650765e-05
1.03379654063e-05
1.03379652771e-05
1.03379651635e-05
1.03379651112e-05
1.03379651602e-05
1.03379647262e-05
1.03379641631e-05
1.03379646036e-05
1.0337966691e-05
1.03379779157e-05
1.03382042807e-05
1.03401252725e-05
1.03517930664e-05
1.04079773856e-05
1.04078070021e-05
1.03522171828e-05
1.03378042803e-05
1.03364115639e-05
1.03390632025e-05
1.03391944907e-05
1.03363708244e-05
1.03351879237e-05
1.03378370071e-05
1.03372634946e-05
1.03373978719e-05
1.03376690725e-05
1.03378624691e-05
1.03379870539e-05
1.03380738291e-05
1.03381537656e-05
1.03378812824e-05
1.03377339048e-05
1.03379250757e-05
1.03379665982e-05
1.03379725193e-05
1.0337964307e-05
1.03379670623e-05
1.03379684312e-05
1.0337968341e-05
1.03379692069e-05
1.03379691597e-05
1.03379690525e-05
1.0337968906e-05
1.03379689075e-05
1.03379688468e-05
1.03379682391e-05
1.03379677464e-05
1.03379681744e-05
1.03379702236e-05
1.03379814362e-05
1.03382077097e-05
1.03401281947e-05
1.03517944042e-05
1.04079773438e-05
1.04076169664e-05
1.03519544773e-05
1.03374623552e-05
1.03357317455e-05
1.0337989036e-05
1.03381234152e-05
1.03362460879e-05
1.03354701865e-05
1.03375872136e-05
1.03372901943e-05
1.03374517318e-05
1.03377114454e-05
1.03378951749e-05
1.03380146714e-05
1.03380982221e-05
1.03381732746e-05
1.03378970935e-05
1.03377574556e-05
1.03379487583e-05
1.03379879522e-05
1.03379926846e-05
1.03379854998e-05
1.03379884124e-05
1.03379890148e-05
1.03379902739e-05
1.03379904471e-05
1.0337990441e-05
1.03379903009e-05
1.0337990293e-05
1.03379900715e-05
1.03379898512e-05
1.03379890243e-05
1.03379886162e-05
1.03379890248e-05
1.033799102e-05
1.03380022002e-05
1.03382280422e-05
1.03401460474e-05
1.03518037774e-05
1.04079775169e-05
1.04073780957e-05
1.03517465839e-05
1.03381072941e-05
1.03351751408e-05
1.03355256779e-05
1.0335689273e-05
1.03354453581e-05
1.03359671973e-05
1.03374428286e-05
1.03373898876e-05
1.03375909732e-05
1.03378351365e-05
1.03380089996e-05
1.03381212962e-05
1.03382041217e-05
1.03382582989e-05
1.03379904159e-05
1.0337859882e-05
1.03380521059e-05
1.03380883368e-05
1.03380911774e-05
1.03380857024e-05
1.03380883138e-05
1.03380897701e-05
1.03380905357e-05
1.03380907108e-05
1.03380907125e-05
1.03380906933e-05
1.03380904578e-05
1.03380903656e-05
1.03380893945e-05
1.0338088697e-05
1.0338088306e-05
1.03380886809e-05
1.03380905786e-05
1.03381016098e-05
1.03383257737e-05
1.03402336785e-05
1.03518543614e-05
1.04079790732e-05
1.04076836139e-05
1.03519221948e-05
1.03396542573e-05
1.03359824057e-05
1.03353286085e-05
1.03355155249e-05
1.03359911342e-05
1.03371765154e-05
1.03377547642e-05
1.03378127027e-05
1.03380441343e-05
1.03382698631e-05
1.0338430814e-05
1.03385378084e-05
1.03386132228e-05
1.03386512711e-05
1.03383997303e-05
1.03382922996e-05
1.03384646461e-05
1.03384987595e-05
1.03384971321e-05
1.03384950543e-05
1.03384978428e-05
1.03384991527e-05
1.03384998965e-05
1.03385000697e-05
1.03385000904e-05
1.03385000473e-05
1.03384998474e-05
1.03384991205e-05
1.03384980486e-05
1.03384973774e-05
1.03384969575e-05
1.03384972716e-05
1.0338499005e-05
1.03385094825e-05
1.03387280309e-05
1.03406008622e-05
1.03520841461e-05
1.04079875092e-05
1.04082792681e-05
1.035286909e-05
1.03413643244e-05
1.03401646092e-05
1.03400947426e-05
1.03401301261e-05
1.03397306685e-05
1.03393672022e-05
1.03392039795e-05
1.03392973936e-05
1.03395316517e-05
1.0339732678e-05
1.0339880559e-05
1.03399783298e-05
1.03400504147e-05
1.03400547925e-05
1.03398269349e-05
1.03397613474e-05
1.03399074511e-05
1.03399367444e-05
1.03399334761e-05
1.03399334163e-05
1.03399362627e-05
1.03399376462e-05
1.03399382327e-05
1.03399384964e-05
1.03399385235e-05
1.03399384169e-05
1.03399381541e-05
1.03399369886e-05
1.03399359899e-05
1.03399352748e-05
1.03399347734e-05
1.03399350215e-05
1.03399364996e-05
1.03399453892e-05
1.03401483283e-05
1.03419198993e-05
1.03529763149e-05
1.04080269568e-05
1.04085065905e-05
1.03558030614e-05
1.03455403323e-05
1.03444834887e-05
1.03449525623e-05
1.03450120864e-05
1.03444336436e-05
1.03437728041e-05
1.03435690921e-05
1.03436888712e-05
1.0343893215e-05
1.03440669215e-05
1.03441972266e-05
1.03442850742e-05
1.03443642017e-05
1.03442903956e-05
1.03440763117e-05
1.0344089053e-05
1.03442160468e-05
1.03442423312e-05
1.03442406948e-05
1.03442375097e-05
1.03442406982e-05
1.03442423732e-05
1.03442432461e-05
1.03442435624e-05
1.03442438852e-05
1.03442439448e-05
1.03442439236e-05
1.03442435949e-05
1.03442428526e-05
1.0344241745e-05
1.03442410098e-05
1.03442409739e-05
1.03442417938e-05
1.03442469919e-05
1.03444158427e-05
1.03459521211e-05
1.03559204752e-05
1.04081985536e-05
1.04090000389e-05
1.03640096382e-05
1.03558816186e-05
1.03548368938e-05
1.03550744414e-05
1.03551586117e-05
1.03548876352e-05
1.03546389474e-05
1.03546669247e-05
1.03548232991e-05
1.03549879351e-05
1.03551366159e-05
1.03552519386e-05
1.03553330908e-05
1.03554138008e-05
1.03551928902e-05
1.03549792826e-05
1.03551160274e-05
1.03552296702e-05
1.03552541893e-05
1.03552554201e-05
1.03552427641e-05
1.03552456669e-05
1.03552472844e-05
1.03552480313e-05
1.0355248339e-05
1.03552482758e-05
1.03552481159e-05
1.03552479517e-05
1.03552479201e-05
1.0355248102e-05
1.03552483122e-05
1.0355248719e-05
1.03552498452e-05
1.0355251869e-05
1.03552524522e-05
1.03553645353e-05
1.03564755491e-05
1.03642001855e-05
1.0408902619e-05
1.04120562775e-05
1.03849157418e-05
1.03803499312e-05
1.03795511224e-05
1.03799032146e-05
1.03800149106e-05
1.03798051477e-05
1.03798177053e-05
1.03800243975e-05
1.03800370049e-05
1.03800439133e-05
1.0380113462e-05
1.03801871025e-05
1.03802502418e-05
1.03803241873e-05
1.03800484245e-05
1.03798416819e-05
1.03800300424e-05
1.03801442256e-05
1.03801702183e-05
1.03801761323e-05
1.03801745254e-05
1.03801700365e-05
1.03801643598e-05
1.03801580464e-05
1.0380151121e-05
1.03801488224e-05
1.03801485e-05
1.03801481989e-05
1.03801482185e-05
1.03801487184e-05
1.0380149197e-05
1.0380149828e-05
1.03801513157e-05
1.03801537581e-05
1.03801468584e-05
1.03801945005e-05
1.0380726102e-05
1.03847931014e-05
1.04120055265e-05
1.04626307234e-05
1.04553816954e-05
1.04543210035e-05
1.04538098692e-05
1.0454484695e-05
1.04546364504e-05
1.0454097651e-05
1.04543422919e-05
1.04549350471e-05
1.04547162298e-05
1.04546073557e-05
1.04546138386e-05
1.04546531963e-05
1.04546993149e-05
1.04547591438e-05
1.04545928008e-05
1.0454372658e-05
1.04544732128e-05
1.04546086746e-05
1.04546388091e-05
1.04546476325e-05
1.04546492449e-05
1.04546481507e-05
1.04546461567e-05
1.0454643979e-05
1.04546418753e-05
1.04546399611e-05
1.04546382712e-05
1.04546368233e-05
1.0454635634e-05
1.04546347057e-05
1.04546341029e-05
1.04546338752e-05
1.04546345373e-05
1.04546362666e-05
1.04546226946e-05
1.04546202098e-05
1.04546625716e-05
1.04549884968e-05
1.04625300587e-05
1.04123161146e-05
1.03854715461e-05
1.0380742565e-05
1.03799488962e-05
1.03807070191e-05
1.03808553718e-05
1.0380370395e-05
1.03803431604e-05
1.03805807532e-05
1.03803327955e-05
1.03802044946e-05
1.03801811858e-05
1.03802293502e-05
1.0380273275e-05
1.03803161688e-05
1.03802844315e-05
1.03801583439e-05
1.03801248213e-05
1.03801796013e-05
1.03802026571e-05
1.03802099121e-05
1.03802110294e-05
1.03802098938e-05
1.0380207981e-05
1.03802059092e-05
1.03802039445e-05
1.03802021714e-05
1.03802006028e-05
1.03801992528e-05
1.03801981442e-05
1.03801972853e-05
1.03801966882e-05
1.03801963383e-05
1.0380196461e-05
1.03801971225e-05
1.03801895292e-05
1.03802311499e-05
1.03807612822e-05
1.03848325714e-05
1.04120583457e-05
1.02489414819e-05
1.00979089633e-05
1.00686543214e-05
1.00648049253e-05
1.0064903871e-05
1.00649689133e-05
1.00645396031e-05
1.00639694406e-05
1.0063483258e-05
1.00631512987e-05
1.00630420575e-05
1.00630621022e-05
1.00631156971e-05
1.0063217704e-05
1.00632793012e-05
1.00632541941e-05
1.00631546326e-05
1.00631281137e-05
1.00631722816e-05
1.00631889839e-05
1.00631901197e-05
1.00631856123e-05
1.00631790652e-05
1.00631723532e-05
1.00631657927e-05
1.00631595694e-05
1.00631534364e-05
1.00631473902e-05
1.00631462345e-05
1.00631453058e-05
1.00631445586e-05
1.00631440533e-05
1.0063143735e-05
1.00631438999e-05
1.00631463434e-05
1.00631740112e-05
1.00636038731e-05
1.00677694872e-05
1.00970023597e-05
1.02485761973e-05
1.02133586595e-05
9.95686151125e-06
9.90239560386e-06
9.89435566361e-06
9.89380319377e-06
9.89380740284e-06
9.89347101984e-06
9.89294657103e-06
9.89254639322e-06
9.89247717447e-06
9.89261916834e-06
9.89279905737e-06
9.89295558236e-06
9.89306587643e-06
9.89316348889e-06
9.89315367291e-06
9.89305537589e-06
9.89302637199e-06
9.8930680003e-06
9.89307966366e-06
9.89307571537e-06
9.89306251056e-06
9.89305180699e-06
9.89304877166e-06
9.89304566741e-06
9.89304280354e-06
9.89304012457e-06
9.89303797621e-06
9.8930362832e-06
9.89303468767e-06
9.89303350211e-06
9.89303254502e-06
9.89303170898e-06
9.89303151499e-06
9.893037187e-06
9.89311730206e-06
9.89407369168e-06
9.90240567965e-06
9.95647913253e-06
1.02131444524e-05
1.02084958757e-05
9.90063028839e-06
9.83042841472e-06
9.81893239466e-06
9.81820395264e-06
9.81820022363e-06
9.81769019947e-06
9.81737854655e-06
9.81701599918e-06
9.81705693723e-06
9.81734319043e-06
9.81762473535e-06
9.81784358124e-06
9.81798833884e-06
9.81808738534e-06
9.81810141817e-06
9.81799927173e-06
9.817967375e-06
9.81801096235e-06
9.81802369248e-06
9.81801848835e-06
9.8180028999e-06
9.81799933476e-06
9.81799480496e-06
9.81799169631e-06
9.81798852789e-06
9.81798598225e-06
9.81798387312e-06
9.81798240308e-06
9.81798080838e-06
9.81797860707e-06
9.81797684991e-06
9.81797544324e-06
9.81797523629e-06
9.81798472772e-06
9.8181134211e-06
9.81951449946e-06
9.83093731504e-06
9.90036631921e-06
1.02081619429e-05
1.02070668639e-05
9.87975387404e-06
9.8015116743e-06
9.78965487456e-06
9.78830826756e-06
9.78820174055e-06
9.78763713575e-06
9.78686882648e-06
9.78606045165e-06
9.78607902357e-06
9.78643380368e-06
9.78678262613e-06
9.78703908657e-06
9.78721128164e-06
9.78731287833e-06
9.78734614903e-06
9.78724515821e-06
9.78720375381e-06
9.78725463316e-06
9.78726902037e-06
9.78726373306e-06
9.78724981078e-06
9.78724602075e-06
9.78724177838e-06
9.787237602e-06
9.78723460383e-06
9.78723199783e-06
9.78723000705e-06
9.787228287e-06
9.78722639341e-06
9.78722465055e-06
9.78722336715e-06
9.78722218158e-06
9.7872220678e-06
9.78723404723e-06
9.78739354324e-06
9.78906815416e-06
9.80226091161e-06
9.87940716209e-06
1.02067768239e-05
1.02062792744e-05
9.87304510462e-06
9.79264516784e-06
9.77938449782e-06
9.77858419463e-06
9.77855062658e-06
9.77746556913e-06
9.77604259479e-06
9.77510173391e-06
9.77496083491e-06
9.77532645545e-06
9.77571532196e-06
9.77599977431e-06
9.77618703651e-06
9.77630306366e-06
9.77633880282e-06
9.77623996015e-06
9.77618994945e-06
9.77624374441e-06
9.77626128685e-06
9.7762562184e-06
9.77624182953e-06
9.776237399e-06
9.77623311655e-06
9.77622886376e-06
9.77622529859e-06
9.77622230544e-06
9.77621983963e-06
9.77621825876e-06
9.77621642301e-06
9.77621506926e-06
9.77621375382e-06
9.7762123257e-06
9.77621217134e-06
9.7762255281e-06
9.7764002496e-06
9.77820580768e-06
9.79220591098e-06
9.87256061455e-06
1.02064060427e-05
1.02059304543e-05
9.87127512774e-06
9.79003771267e-06
9.77850010078e-06
9.77848774591e-06
9.77840609812e-06
9.77649083145e-06
9.77318405364e-06
9.77191652439e-06
9.77152945395e-06
9.77187073813e-06
9.77228698124e-06
9.77259095823e-06
9.77279166026e-06
9.7729140595e-06
9.77296133424e-06
9.77285861328e-06
9.77280023625e-06
9.77285853203e-06
9.7728787398e-06
9.7728733925e-06
9.77285784498e-06
9.77285379476e-06
9.77284896613e-06
9.77284469192e-06
9.77284080151e-06
9.77283749821e-06
9.77283491917e-06
9.77283296137e-06
9.77283155453e-06
9.77282962116e-06
9.77282850846e-06
9.77282725754e-06
9.77282721437e-06
9.77284119968e-06
9.77302185816e-06
9.77487754713e-06
9.78917697018e-06
9.8706413027e-06
1.02063167668e-05
1.02060450372e-05
9.87090608464e-06
9.78991011874e-06
9.77941232989e-06
9.77989838456e-06
9.77980448051e-06
9.7773559057e-06
9.77274869414e-06
9.77112784179e-06
9.77060145879e-06
9.77091627282e-06
9.77135076647e-06
9.77167262026e-06
9.77188179271e-06
9.77201205173e-06
9.77206663469e-06
9.77196200504e-06
9.77189595429e-06
9.77195947168e-06
9.77197974871e-06
9.77197710007e-06
9.77196038716e-06
9.77195574255e-06
9.77195130988e-06
9.77194672232e-06
9.77194272234e-06
9.77193933598e-06
9.77193658213e-06
9.77193434226e-06
9.77193281235e-06
9.77193144984e-06
9.77192946972e-06
9.77192835464e-06
9.77192852878e-06
9.77194279837e-06
9.77212541697e-06
9.77399902109e-06
9.7883909301e-06
9.87017705838e-06
1.02062976326e-05
1.02061911479e-05
9.87097760789e-06
9.79013545925e-06
9.78002088727e-06
9.7808771469e-06
9.78078804333e-06
9.77792443267e-06
9.77274908449e-06
9.77094916832e-06
9.77036718221e-06
9.7706617908e-06
9.77111333133e-06
9.77144740559e-06
9.77166488552e-06
9.77179923801e-06
9.77186361799e-06
9.77175262972e-06
9.77168298073e-06
9.77175046684e-06
9.7717719832e-06
9.77176973845e-06
9.77175263753e-06
9.77174837441e-06
9.77174330192e-06
9.77173897273e-06
9.77173489055e-06
9.77173142259e-06
9.77172857547e-06
9.77172627359e-06
9.77172458311e-06
9.7717233847e-06
9.77172167845e-06
9.77171997499e-06
9.77172014468e-06
9.7717345592e-06
9.77191778984e-06
9.77379680725e-06
9.78821310318e-06
9.8700792861e-06
1.02062939924e-05
1.02062614038e-05
9.87108821627e-06
9.79013712366e-06
9.7801742917e-06
9.78121048822e-06
9.78111989114e-06
9.77806529727e-06
9.77272990643e-06
9.77090494939e-06
9.77030556893e-06
9.77059463604e-06
9.77105461783e-06
9.77139679531e-06
9.77161816939e-06
9.77175529342e-06
9.77182369912e-06
9.77171153616e-06
9.77163901469e-06
9.77170863907e-06
9.77173090791e-06
9.77172859707e-06
9.77171152732e-06
9.77170737013e-06
9.7717023451e-06
9.77169774773e-06
9.77169378737e-06
9.7716902906e-06
9.77168741696e-06
9.77168507459e-06
9.77168329792e-06
9.7716820814e-06
9.77168075616e-06
9.77167886129e-06
9.77167883303e-06
9.77169322854e-06
9.77187662944e-06
9.77375692833e-06
9.78817863163e-06
9.87006177749e-06
1.02062933048e-05
1.02062613038e-05
9.87108732152e-06
9.79013720692e-06
9.78017548711e-06
9.78121090674e-06
9.78111692807e-06
9.77806664653e-06
9.77272997218e-06
9.7709051635e-06
9.77030542145e-06
9.77059449581e-06
9.77105458595e-06
9.77139691759e-06
9.77161822623e-06
9.77175516741e-06
9.77182239363e-06
9.77171147717e-06
9.77163897794e-06
9.7717087216e-06
9.77173093988e-06
9.77172829775e-06
9.77171162421e-06
9.77170750602e-06
9.77170248256e-06
9.77169780846e-06
9.77169388354e-06
9.7716903877e-06
9.77168751266e-06
9.77168517957e-06
9.77168337262e-06
9.77168217043e-06
9.77168089139e-06
9.77167913155e-06
9.77167901552e-06
9.77169334162e-06
9.77187674121e-06
9.77375671207e-06
9.78817839049e-06
9.8700619487e-06
1.0206293092e-05
1.02061905401e-05
9.87097629102e-06
9.79012830328e-06
9.78002236401e-06
9.78088035294e-06
9.78078684409e-06
9.77792692613e-06
9.77274903945e-06
9.77094911771e-06
9.77036674319e-06
9.77066159808e-06
9.77111334023e-06
9.77144749867e-06
9.7716650065e-06
9.77179903871e-06
9.77186246656e-06
9.77175181817e-06
9.77168290629e-06
9.77175069482e-06
9.77177188272e-06
9.77176862645e-06
9.77175302959e-06
9.77174866332e-06
9.77174353609e-06
9.77173922201e-06
9.77173513504e-06
9.77173167059e-06
9.77172882557e-06
9.77172651752e-06
9.77172481928e-06
9.77172365001e-06
9.77172215435e-06
9.77172054403e-06
9.77172046796e-06
9.77173476655e-06
9.77191804985e-06
9.77379594052e-06
9.78821216479e-06
9.87007976305e-06
1.02062933483e-05
1.02060453135e-05
9.87091057027e-06
9.78990135316e-06
9.7794136452e-06
9.77989989822e-06
9.77980030006e-06
9.7773572371e-06
9.77274834939e-06
9.77112763526e-06
9.77060063968e-06
9.77091603847e-06
9.7713508039e-06
9.77167272e-06
9.77188190743e-06
9.77201213844e-06
9.77206676386e-06
9.77196183693e-06
9.77189611509e-06
9.7719597643e-06
9.77197968274e-06
9.77197549558e-06
9.77196079572e-06
9.77195606692e-06
9.77195160996e-06
9.77194704468e-06
9.77194303094e-06
9.77193963263e-06
9.77193684352e-06
9.77193467271e-06
9.77193320827e-06
9.77193172558e-06
9.77193009937e-06
9.77192859998e-06
9.77192861442e-06
9.77194286356e-06
9.77212569012e-06
9.77399745699e-06
9.78838923816e-06
9.87017775652e-06
1.02062965875e-05
1.02059321687e-05
9.87127715203e-06
9.79003703584e-06
9.77849827445e-06
9.77848832881e-06
9.778402289e-06
9.77649168531e-06
9.77318366475e-06
9.77191472694e-06
9.7715285821e-06
9.77187060147e-06
9.77228672891e-06
9.77259119096e-06
9.77279157992e-06
9.77291458058e-06
9.77296085803e-06
9.77285881127e-06
9.77280073845e-06
9.7728590751e-06
9.77287792527e-06
9.77287065321e-06
9.77285830818e-06
9.77285394134e-06
9.77284940776e-06
9.77284499176e-06
9.772841095e-06
9.77283778932e-06
9.77283527692e-06
9.77283329767e-06
9.77283176194e-06
9.77282993186e-06
9.77282828156e-06
9.77282687435e-06
9.77282690657e-06
9.77284096606e-06
9.77302203921e-06
9.77487808313e-06
9.78917730833e-06
9.87064216215e-06
1.02063154626e-05
1.0206282356e-05
9.8730458279e-06
9.79264136017e-06
9.7793813016e-06
9.77858101087e-06
9.7785473058e-06
9.77746591484e-06
9.77604091836e-06
9.77509970735e-06
9.77496009109e-06
9.77532588285e-06
9.77571531366e-06
9.77599955372e-06
9.7761871723e-06
9.7763038623e-06
9.7763381888e-06
9.77624053837e-06
9.77619117018e-06
9.77624436321e-06
9.77626145119e-06
9.77625168526e-06
9.77624221681e-06
9.77623785309e-06
9.77623344464e-06
9.7762292445e-06
9.77622561932e-06
9.77622270907e-06
9.77622025818e-06
9.77621845674e-06
9.77621636648e-06
9.77621452408e-06
9.77621286278e-06
9.77621149247e-06
9.77621147187e-06
9.77622493842e-06
9.77640030926e-06
9.7782063735e-06
9.79220615997e-06
9.87256160271e-06
1.02064048559e-05
1.0207068095e-05
9.87975248526e-06
9.80151037621e-06
9.78965468201e-06
9.78830669784e-06
9.78820251482e-06
9.78763776389e-06
9.78686568646e-06
9.78605934154e-06
9.78607799519e-06
9.78643393643e-06
9.78678244893e-06
9.78703962679e-06
9.78721141315e-06
9.78731613408e-06
9.7873459225e-06
9.78724623674e-06
9.78720526501e-06
9.78725543138e-06
9.7872686169e-06
9.78725759999e-06
9.78725016259e-06
9.78724616333e-06
9.78724181872e-06
9.78723795255e-06
9.78723468025e-06
9.78723190469e-06
9.78722967868e-06
9.78722808233e-06
9.78722605679e-06
9.78722412057e-06
9.78722233403e-06
9.78722095136e-06
9.78722083867e-06
9.78723287212e-06
9.78739322872e-06
9.78906846484e-06
9.80226076251e-06
9.87940793387e-06
1.02067760408e-05
1.02084938297e-05
9.90063086551e-06
9.83042802158e-06
9.81893105552e-06
9.81820016413e-06
9.81820023195e-06
9.81768591364e-06
9.81737593097e-06
9.81701418815e-06
9.817056693e-06
9.81734369142e-06
9.81762579604e-06
9.81784449483e-06
9.8179911876e-06
9.81808692352e-06
9.8181028935e-06
9.81800184529e-06
9.81796875085e-06
9.81801210485e-06
9.81802351617e-06
9.81801364466e-06
9.81800338177e-06
9.81799969942e-06
9.81799546196e-06
9.81799184229e-06
9.81798865571e-06
9.81798580377e-06
9.81798361759e-06
9.81798183361e-06
9.81798051219e-06
9.81797873909e-06
9.81797686539e-06
9.81797528908e-06
9.81797483216e-06
9.81798396897e-06
9.81811339273e-06
9.8195150043e-06
9.8309373792e-06
9.90036741589e-06
1.02081582319e-05
1.02133583245e-05
9.95686070592e-06
9.90239886085e-06
9.89435515273e-06
9.89380363046e-06
9.89380572023e-06
9.89346871412e-06
9.89294339955e-06
9.8925456533e-06
9.89247854675e-06
9.89262065524e-06
9.89280074226e-06
9.89295932832e-06
9.89306738117e-06
9.89316507905e-06
9.8931554028e-06
9.89305737873e-06
9.89302915213e-06
9.89306976301e-06
9.89308056849e-06
9.89307434275e-06
9.89305613978e-06
9.89305331145e-06
9.89305009059e-06
9.89304688537e-06
9.89304376481e-06
9.89304113393e-06
9.89303887814e-06
9.89303694195e-06
9.89303532333e-06
9.89303389162e-06
9.89303283232e-06
9.89303188463e-06
9.8930316378e-06
9.89303728123e-06
9.89311889757e-06
9.8940765405e-06
9.90240797525e-06
9.95648219726e-06
1.02131420633e-05
1.02489428211e-05
1.00979108334e-05
1.00686555207e-05
1.00648088713e-05
1.00649022819e-05
1.00649680241e-05
1.00645387098e-05
1.00639696843e-05
1.00634818612e-05
1.00631534379e-05
1.00630425545e-05
1.00630670544e-05
1.00631184753e-05
1.00632186935e-05
1.006328023e-05
1.00632554081e-05
1.00631578808e-05
1.0063130082e-05
1.00631741526e-05
1.00631901791e-05
1.00631907127e-05
1.00631854493e-05
1.00631780444e-05
1.00631701382e-05
1.00631620739e-05
1.00631536638e-05
1.00631502817e-05
1.00631488846e-05
1.00631477057e-05
1.00631467362e-05
1.00631459949e-05
1.00631454047e-05
1.00631450185e-05
1.00631451057e-05
1.00631474113e-05
1.00631755876e-05
1.00636056503e-05
1.00677710174e-05
1.00970045967e-05
1.02485673495e-05
1.0412319324e-05
1.0385471617e-05
1.03807442421e-05
1.03799477291e-05
1.03807091889e-05
1.03808559035e-05
1.03803736303e-05
1.03803438582e-05
1.03805815535e-05
1.03803332207e-05
1.03802068587e-05
1.03801827415e-05
1.03802298058e-05
1.03802738403e-05
1.03803150312e-05
1.03802871185e-05
1.03801621145e-05
1.03801275707e-05
1.03801817807e-05
1.03802046808e-05
1.03802117455e-05
1.03802127319e-05
1.03802115266e-05
1.03802095513e-05
1.03802074343e-05
1.03802054322e-05
1.03802036131e-05
1.03802019987e-05
1.0380200607e-05
1.03801994496e-05
1.03801985372e-05
1.0380197887e-05
1.03801974836e-05
1.0380197532e-05
1.03801980582e-05
1.0380190013e-05
1.0380229092e-05
1.03807585732e-05
1.0384830692e-05
1.04120609079e-05
1.04091171077e-05
1.036492986e-05
1.03565571878e-05
1.03552324899e-05
1.03559052551e-05
1.03560454894e-05
1.03558271991e-05
1.03557667664e-05
1.03556961235e-05
1.03554252223e-05
1.0355291967e-05
1.03553021364e-05
1.03553296383e-05
1.03553648322e-05
1.03553829751e-05
1.0355340614e-05
1.03552566369e-05
1.03552181146e-05
1.03552399851e-05
1.03552580193e-05
1.03552674481e-05
1.03552720785e-05
1.03552737621e-05
1.0355273958e-05
1.03552733888e-05
1.03552724482e-05
1.03552713745e-05
1.03552702981e-05
1.03552692761e-05