/*--------------------------------*- C++ -*----------------------------------*\
| =========                 |                                                 |
| \\      /  F ield         | OpenFOAM: The Open Source CFD Toolbox           |
|  \\    /   O peration     | Version:  3.0.1                                 |
|   \\  /    A nd           | Web:      www.OpenFOAM.org                      |
|    \\/     M anipulation  |                                                 |
\*---------------------------------------------------------------------------*/
FoamFile
{
    version     2.0;
    format      ascii;
    class       volScalarField;
    location    "0.4";
    object      p;
}
// * * * * * * * * * * * * * * * * * * * * * * * * * * * * * * * * * * * * * //

dimensions      [0 2 -2 0 0 0 0];

internalField   nonuniform List<scalar> 
400
(
-2.15051e-08
-0.000502737
-0.00102065
-0.00136433
-0.00143717
-0.0011999
-0.000643346
0.000226244
0.00138686
0.00279128
0.00435635
0.00595657
0.00743161
0.00860691
0.00933142
0.00952322
0.00921143
0.00855464
0.00778604
0.00729922
0.000497138
-2.4201e-05
-0.000418887
-0.000628443
-0.000626067
-0.000386025
0.000101994
0.000836618
0.00180347
0.00296682
0.00426052
0.00558642
0.00681253
0.00779759
0.00841947
0.00861297
0.00840212
0.00790866
0.00731304
0.00681647
0.00104701
0.000335014
-8.42729e-05
-0.000261038
-0.000242565
-2.28747e-05
0.000404452
0.00104207
0.00188582
0.00291411
0.00407661
0.00528805
0.00642831
0.00735983
0.00795649
0.00814285
0.00792924
0.00741877
0.0067461
0.00603608
0.00142221
0.000461612
-5.05469e-05
-0.000252558
-0.000258494
-8.105e-05
0.000282475
0.000840316
0.00160134
0.00256034
0.00368205
0.00489364
0.00607153
0.00706379
0.0077169
0.00792217
0.00766348
0.00703197
0.00614064
0.00509508
0.00144065
0.00023426
-0.000386987
-0.000638963
-0.000694552
-0.00058118
-0.000296742
0.000175854
0.000862251
0.00177766
0.00290451
0.00419418
0.00550748
0.00667
0.00748279
0.00777972
0.00749694
0.00670693
0.00551409
0.00403564
0.000950535
-0.00048344
-0.00121698
-0.00153627
-0.00166615
-0.00164509
-0.00146828
-0.00110611
-0.000511281
0.000361972
0.00153289
0.00294473
0.0044891
0.00595609
0.00708022
0.00760522
0.00738285
0.00644272
0.00487773
0.00284076
-0.000178348
-0.00181667
-0.0026621
-0.00306612
-0.00330062
-0.00341322
-0.00339442
-0.0031989
-0.0027518
-0.00196925
-0.000788699
0.00078443
0.00265222
0.0045849
0.00623758
0.00722112
0.00724255
0.00623375
0.00424336
0.00147394
-0.00205942
-0.00387582
-0.00483183
-0.00534074
-0.00571892
-0.0060239
-0.00624212
-0.00631142
-0.00612404
-0.00554537
-0.00444599
-0.00275352
-0.000511243
0.00205784
0.00452734
0.00632753
0.00693042
0.00606542
0.00364802
-7.84246e-05
-0.0047865
-0.00675302
-0.00781735
-0.00845226
-0.00901911
-0.0095899
-0.0101515
-0.0106277
-0.0108757
-0.0106982
-0.00987154
-0.00820316
-0.00562033
-0.00227917
0.00134311
0.00446216
0.00619983
0.00590922
0.0031853
-0.00175526
-0.00842679
-0.0105161
-0.0116806
-0.0124531
-0.013246
-0.0141554
-0.0151781
-0.0162314
-0.0171409
-0.01764
-0.017386
-0.0160166
-0.0132671
-0.00912746
-0.0040411
0.00100871
0.00468491
0.00571865
0.00304677
-0.00333933
-0.0130162
-0.0152055
-0.016444
-0.0173334
-0.018354
-0.0196428
-0.0212201
-0.0230096
-0.0248149
-0.0263012
-0.0269936
-0.02632
-0.0237412
-0.0189617
-0.0122422
-0.0046552
0.00196873
0.00546293
0.00358871
-0.00431507
-0.0185662
-0.0208426
-0.0220867
-0.0230012
-0.0241728
-0.0258036
-0.0279544
-0.0305689
-0.0334412
-0.0361786
-0.038175
-0.0386324
-0.0366742
-0.0316132
-0.023339
-0.0127907
-0.00216741
0.00526804
0.00545421
-0.00362345
-0.0250976
-0.0274558
-0.0285505
-0.0292701
-0.0303847
-0.032194
-0.0348123
-0.0382116
-0.0421846
-0.0462907
-0.0498052
-0.0517114
-0.0507889
-0.0458929
-0.0363779
-0.0227589
-0.00727863
0.00573619
0.00981233
0.000729852
-0.0327292
-0.0351393
-0.0357565
-0.0358559
-0.0365255
-0.0381936
-0.0410269
-0.0450172
-0.0499482
-0.0553297
-0.0603279
-0.0637314
-0.0640086
-0.059565
-0.0491466
-0.0325956
-0.0117457
0.00839679
0.0187572
0.0121859
-0.0418848
-0.0441547
-0.0436196
-0.0423737
-0.0420092
-0.0430765
-0.0457581
-0.0500288
-0.0556303
-0.0619961
-0.0681758
-0.0727808
-0.0740216
-0.0698729
-0.0585499
-0.039121
-0.0126102
0.0160357
0.0356867
0.0359406
-0.0537597
-0.0550992
-0.0520329
-0.0483235
-0.0461732
-0.0461203
-0.0482635
-0.0524831
-0.0584197
-0.0653715
-0.0722411
-0.0774482
-0.0789554
-0.0744091
-0.0615397
-0.03873
-0.00603406
0.0327041
0.0652993
0.0785992
-0.0714388
-0.069193
-0.0608926
-0.0531709
-0.0484268
-0.0467909
-0.0481074
-0.0520398
-0.0580209
-0.0651651
-0.0721719
-0.077241
-0.0780785
-0.0719896
-0.0562422
-0.0286382
0.0116527
0.0632607
0.113513
0.149246
-0.103405
-0.0884245
-0.0700339
-0.0563989
-0.0483119
-0.044786
-0.0452
-0.0487998
-0.0546972
-0.0617572
-0.0684583
-0.0727761
-0.0721537
-0.0634996
-0.043549
-0.00912691
0.0421086
0.109946
0.187885
0.268212
-0.175901
-0.112771
-0.0742457
-0.0535085
-0.0424674
-0.0378381
-0.0381161
-0.0419932
-0.0482006
-0.0553854
-0.0618928
-0.0655869
-0.063771
-0.0529028
-0.029324
0.0116463
0.0753189
0.167365
0.295025
0.46935
-0.342773
-0.134229
-0.0551641
-0.0324964
-0.0238002
-0.0213264
-0.0237792
-0.0296436
-0.0374314
-0.0457695
-0.0530709
-0.057284
-0.0558381
-0.045688
-0.0220651
0.020473
0.0909916
0.207591
0.405446
0.734782
)
;

boundaryField
{
    movingWall
    {
        type            zeroGradient;
    }
    fixedWalls
    {
        type            zeroGradient;
    }
    frontAndBack
    {
        type            empty;
    }
}


// ************************************************************************* //
