/*--------------------------------*- C++ -*----------------------------------*\
| =========                 |                                                 |
| \\      /  F ield         | OpenFOAM: The Open Source CFD Toolbox           |
|  \\    /   O peration     | Version:  3.0.1                                 |
|   \\  /    A nd           | Web:      www.OpenFOAM.org                      |
|    \\/     M anipulation  |                                                 |
\*---------------------------------------------------------------------------*/
FoamFile
{
    version     2.0;
    format      ascii;
    class       volVectorField;
    location    "0.4";
    object      U;
}
// * * * * * * * * * * * * * * * * * * * * * * * * * * * * * * * * * * * * * //

dimensions      [0 1 -1 0 0 0 0];

internalField   nonuniform List<vector> 
400
(
(0.000175635 -0.000175705 0)
(-4.44769e-05 0.000147306 0)
(-0.00126863 0.000488186 0)
(-0.00318856 0.000701773 0)
(-0.00549542 0.000804063 0)
(-0.00793998 0.000825127 0)
(-0.0103201 0.000782896 0)
(-0.0124573 0.000681952 0)
(-0.0141753 0.000518616 0)
(-0.0152942 0.000289368 0)
(-0.0156439 -4.01043e-07 0)
(-0.0150972 -0.000330338 0)
(-0.0136157 -0.000657878 0)
(-0.011294 -0.000924889 0)
(-0.00838596 -0.00106758 0)
(-0.00529416 -0.00103428 0)
(-0.00250753 -0.000806039 0)
(-0.00048252 -0.000416265 0)
(0.000441162 2.00341e-05 0)
(0.000296595 0.000280147 0)
(-0.000151293 3.40139e-05 0)
(-0.00167072 0.00162044 0)
(-0.00527335 0.00311037 0)
(-0.0102645 0.00408336 0)
(-0.0160264 0.00455747 0)
(-0.02204 0.00461485 0)
(-0.0278335 0.00431362 0)
(-0.0329672 0.00367511 0)
(-0.0370157 0.0026995 0)
(-0.0395702 0.00139704 0)
(-0.040274 -0.000178227 0)
(-0.0388851 -0.00190271 0)
(-0.035361 -0.00357009 0)
(-0.0299393 -0.00491266 0)
(-0.023174 -0.00564964 0)
(-0.0159078 -0.00556453 0)
(-0.00914949 -0.00459324 0)
(-0.00385596 -0.00289815 0)
(-0.000708706 -0.000931183 0)
(0.000132946 0.00046579 0)
(-0.000560849 0.00132992 0)
(-0.00351154 0.00532244 0)
(-0.00944696 0.00870801 0)
(-0.0171807 0.0109191 0)
(-0.0258443 0.0119763 0)
(-0.0347542 0.0120134 0)
(-0.0432685 0.011135 0)
(-0.0507743 0.00938907 0)
(-0.0566781 0.00679667 0)
(-0.0604156 0.00341459 0)
(-0.0615 -0.000597093 0)
(-0.0596003 -0.0049242 0)
(-0.0546473 -0.00907579 0)
(-0.0469359 -0.0124327 0)
(-0.0371803 -0.0143536 0)
(-0.026496 -0.0143451 0)
(-0.0162562 -0.0122599 0)
(-0.0078167 -0.0084559 0)
(-0.00225023 -0.00387198 0)
(-0.000148239 -0.000142138 0)
(-0.000921046 0.00361416 0)
(-0.00521403 0.0110193 0)
(-0.0133679 0.0167997 0)
(-0.0236445 0.0204758 0)
(-0.0349251 0.022161 0)
(-0.0464069 0.0220724 0)
(-0.0573419 0.0203697 0)
(-0.0670087 0.0171283 0)
(-0.0747001 0.0123925 0)
(-0.0797308 0.00627412 0)
(-0.0814904 -0.000941537 0)
(-0.079523 -0.00871901 0)
(-0.0736555 -0.0162243 0)
(-0.0641376 -0.0224045 0)
(-0.0517326 -0.0261469 0)
(-0.0377485 -0.026558 0)
(-0.0239125 -0.0233051 0)
(-0.0120569 -0.0169051 0)
(-0.00381366 -0.00883644 0)
(-0.00039132 -0.00155775 0)
(-0.00123169 0.00677541 0)
(-0.00674609 0.0185394 0)
(-0.016965 0.0271574 0)
(-0.0296119 0.0324633 0)
(-0.0433296 0.034788 0)
(-0.0572269 0.0344896 0)
(-0.070495 0.0317998 0)
(-0.0823524 0.0268175 0)
(-0.0920149 0.0195942 0)
(-0.0986895 0.0102737 0)
(-0.101623 -0.000754401 0)
(-0.100174 -0.0127203 0)
(-0.093962 -0.0244522 0)
(-0.0830679 -0.0343936 0)
(-0.0681817 -0.040827 0)
(-0.050734 -0.0422695 0)
(-0.0328371 -0.0380031 0)
(-0.0169561 -0.0285756 0)
(-0.0055311 -0.0160196 0)
(-0.000616318 -0.00376736 0)
(-0.00150324 0.0107199 0)
(-0.00811747 0.0277402 0)
(-0.020227 0.0396386 0)
(-0.0350667 0.0467543 0)
(-0.0510691 0.0497654 0)
(-0.0672854 0.0492404 0)
(-0.0828866 0.0455071 0)
(-0.0970733 0.0386791 0)
(-0.109018 0.0287835 0)
(-0.117831 0.0159488 0)
(-0.122573 0.000612472 0)
(-0.122369 -0.0162885 0)
(-0.116544 -0.0332419 0)
(-0.104837 -0.0481336 0)
(-0.0877082 -0.0584835 0)
(-0.0665918 -0.0619454 0)
(-0.0439806 -0.0570831 0)
(-0.0231466 -0.0442164 0)
(-0.00768768 -0.025915 0)
(-0.000884884 -0.00688469 0)
(-0.00173923 0.0153598 0)
(-0.00932509 0.0384581 0)
(-0.0231228 0.0540625 0)
(-0.0399398 0.0631849 0)
(-0.0580353 0.0669765 0)
(-0.0764363 0.0662912 0)
(-0.0943342 0.0615804 0)
(-0.110954 0.0529601 0)
(-0.125463 0.0403883 0)
(-0.136898 0.0239068 0)
(-0.144152 0.0039075 0)
(-0.146058 -0.0186185 0)
(-0.141534 -0.0418608 0)
(-0.129845 -0.0631349 0)
(-0.111009 -0.0790424 0)
(-0.0862456 -0.0860311 0)
(-0.0583022 -0.0814458 0)
(-0.0313663 -0.0649002 0)
(-0.0106408 -0.0393548 0)
(-0.0012745 -0.0111992 0)
(-0.0019366 0.0206022 0)
(-0.010347 0.050501 0)
(-0.0255841 0.0701946 0)
(-0.0440876 0.0815165 0)
(-0.0639786 0.0862131 0)
(-0.084293 0.0855023 0)
(-0.104284 0.0799914 0)
(-0.123252 0.0697886 0)
(-0.140411 0.0547311 0)
(-0.154777 0.0346838 0)
(-0.165117 0.0098714 0)
(-0.169983 -0.0187803 0)
(-0.167843 -0.0493134 0)
(-0.157358 -0.0785335 0)
(-0.137865 -0.10203 0)
(-0.110031 -0.114689 0)
(-0.0765234 -0.111971 0)
(-0.0423562 -0.0919642 0)
(-0.0148066 -0.0575464 0)
(-0.00188247 -0.0172073 0)
(-0.00208993 0.0263381 0)
(-0.0111539 0.0636369 0)
(-0.0275234 0.0877273 0)
(-0.0473146 0.101396 0)
(-0.0685358 0.107106 0)
(-0.0902604 0.106526 0)
(-0.111845 0.10046 0)
(-0.132719 0.0890096 0)
(-0.152216 0.0718475 0)
(-0.169421 0.0485762 0)
(-0.183071 0.0191226 0)
(-0.191532 -0.0158278 0)
(-0.192871 -0.0543727 0)
(-0.185097 -0.0929912 0)
(-0.166647 -0.126318 0)
(-0.137208 -0.147434 0)
(-0.0987742 -0.14916 0)
(-0.056716 -0.126808 0)
(-0.0206624 -0.0820556 0)
(-0.00284278 -0.0256487 0)
(-0.00220044 0.0324446 0)
(-0.0117388 0.0775946 0)
(-0.0288847 0.106264 0)
(-0.0494416 0.122312 0)
(-0.0713147 0.129051 0)
(-0.0936371 0.128698 0)
(-0.115908 0.122313 0)
(-0.137747 0.110006 0)
(-0.158693 0.0912701 0)
(-0.178021 0.0653845 0)
(-0.194597 0.0318635 0)
(-0.206785 -0.00903546 0)
(-0.212433 -0.0557322 0)
(-0.208986 -0.104703 0)
(-0.193886 -0.149923 0)
(-0.165419 -0.182697 0)
(-0.124096 -0.192577 0)
(-0.0746401 -0.170469 0)
(-0.028733 -0.114692 0)
(-0.00435385 -0.037556 0)
(-0.00229075 0.0388084 0)
(-0.0121649 0.0920943 0)
(-0.0297254 0.125331 0)
(-0.0504148 0.14358 0)
(-0.0720303 0.151163 0)
(-0.0937903 0.150965 0)
(-0.11538 0.144377 0)
(-0.136668 0.131564 0)
(-0.157491 0.111857 0)
(-0.177451 0.0841983 0)
(-0.195744 0.0476232 0)
(-0.211 0.0018031 0)
(-0.221145 -0.0522975 0)
(-0.223347 -0.111601 0)
(-0.21418 -0.169996 0)
(-0.190294 -0.217486 0)
(-0.149867 -0.240185 0)
(-0.095469 -0.222918 0)
(-0.039503 -0.157212 0)
(-0.00671055 -0.0543171 0)
(-0.00242905 0.0453862 0)
(-0.0126358 0.106924 0)
(-0.0303253 0.144419 0)
(-0.050441 0.164346 0)
(-0.0706689 0.172263 0)
(-0.0903681 0.171866 0)
(-0.10947 0.164964 0)
(-0.128155 0.151841 0)
(-0.146638 0.131729 0)
(-0.164976 0.103279 0)
(-0.182891 0.0650542 0)
(-0.199567 0.0160584 0)
(-0.213397 -0.043602 0)
(-0.221734 -0.1118 0)
(-0.22072 -0.183151 0)
(-0.205508 -0.247363 0)
(-0.171388 -0.287771 0)
(-0.117089 -0.2821 0)
(-0.0531669 -0.210705 0)
(-0.0103179 -0.0777127 0)
(-0.00277118 0.0523202 0)
(-0.0135983 0.122066 0)
(-0.0313151 0.163055 0)
(-0.0501138 0.183624 0)
(-0.0676178 0.190911 0)
(-0.0834622 0.189583 0)
(-0.0979294 0.181947 0)
(-0.111581 0.168475 0)
(-0.125072 0.148379 0)
(-0.138993 0.120124 0)
(-0.153723 0.0818904 0)
(-0.169228 0.0320504 0)
(-0.184743 -0.030259 0)
(-0.198371 -0.104279 0)
(-0.206542 -0.18623 0)
(-0.203586 -0.266992 0)
(-0.182 -0.328853 0)
(-0.135408 -0.342977 0)
(-0.0691169 -0.2745 0)
(-0.0156267 -0.109819 0)
(-0.00363816 0.0601473 0)
(-0.0158941 0.137879 0)
(-0.0337965 0.180861 0)
(-0.0504492 0.200294 0)
(-0.0636276 0.20542 0)
(-0.0735386 0.202022 0)
(-0.0809951 0.192924 0)
(-0.087025 0.178813 0)
(-0.0927524 0.158956 0)
(-0.0993106 0.131747 0)
(-0.107754 0.0951456 0)
(-0.11891 0.0470522 0)
(-0.133091 -0.0142755 0)
(-0.149646 -0.0896069 0)
(-0.166154 -0.177421 0)
(-0.177321 -0.271387 0)
(-0.173904 -0.355489 0)
(-0.144236 -0.397155 0)
(-0.0851477 -0.344675 0)
(-0.0228724 -0.152541 0)
(-0.00565578 0.0701699 0)
(-0.0209674 0.155281 0)
(-0.0393531 0.197486 0)
(-0.0526098 0.212975 0)
(-0.0592978 0.213789 0)
(-0.0607565 0.206843 0)
(-0.0585986 0.195363 0)
(-0.0544092 0.18018 0)
(-0.0497731 0.160628 0)
(-0.0462912 0.135121 0)
(-0.0455827 0.101567 0)
(-0.0492384 0.0576413 0)
(-0.0586567 0.00101927 0)
(-0.0746401 -0.0703247 0)
(-0.0966266 -0.157294 0)
(-0.121184 -0.257563 0)
(-0.13939 -0.360041 0)
(-0.13567 -0.433716 0)
(-0.0965458 -0.41286 0)
(-0.031423 -0.206723 0)
(-0.00995029 0.0851449 0)
(-0.0309968 0.175795 0)
(-0.0494962 0.212207 0)
(-0.0565777 0.219576 0)
(-0.0531985 0.213381 0)
(-0.0427407 0.20131 0)
(-0.0279123 0.186621 0)
(-0.0108952 0.170059 0)
(0.00634949 0.150921 0)
(0.0219187 0.127677 0)
(0.0338479 0.0983154 0)
(0.040035 0.0605433 0)
(0.038263 0.0118769 0)
(0.0264168 -0.0503613 0)
(0.00296103 -0.128933 0)
(-0.0316861 -0.225705 0)
(-0.0716783 -0.337196 0)
(-0.100633 -0.440973 0)
(-0.0955041 -0.466269 0)
(-0.0385974 -0.271455 0)
(-0.0181614 0.110701 0)
(-0.0480646 0.20061 0)
(-0.0625624 0.222101 0)
(-0.0562646 0.215667 0)
(-0.0361469 0.199757 0)
(-0.00861819 0.181565 0)
(0.0225413 0.163584 0)
(0.0547777 0.146012 0)
(0.0860665 0.127904 0)
(0.114535 0.107743 0)
(0.138205 0.0836955 0)
(0.154822 0.0537268 0)
(0.161733 0.0156017 0)
(0.155972 -0.0333224 0)
(0.13435 -0.0964587 0)
(0.0941037 -0.1787 0)
(0.0356477 -0.284922 0)
(-0.0288425 -0.407672 0)
(-0.0713122 -0.487946 0)
(-0.0380998 -0.342151 0)
(-0.030725 0.157439 0)
(-0.0680393 0.225194 0)
(-0.0603613 0.214773 0)
(-0.0239449 0.189295 0)
(0.0234427 0.163764 0)
(0.0737335 0.1413 0)
(0.123612 0.122253 0)
(0.171179 0.105795 0)
(0.215119 0.0905898 0)
(0.25419 0.0751402 0)
(0.286885 0.057909 0)
(0.311239 0.0373298 0)
(0.324585 0.011749 0)
(0.323751 -0.020837 0)
(0.304608 -0.0631943 0)
(0.262068 -0.1208 0)
(0.191453 -0.204363 0)
(0.093723 -0.325195 0)
(-0.0086099 -0.454479 0)
(-0.0162023 -0.396936 0)
(-0.0278375 0.22771 0)
(-0.0414165 0.224621 0)
(0.0374229 0.165749 0)
(0.125295 0.126586 0)
(0.204092 0.0997348 0)
(0.273562 0.0799061 0)
(0.334991 0.0650515 0)
(0.389088 0.0536123 0)
(0.436262 0.044127 0)
(0.476531 0.0353414 0)
(0.509326 0.0261899 0)
(0.533411 0.0157289 0)
(0.546547 0.00305317 0)
(0.546181 -0.0125438 0)
(0.528195 -0.0328175 0)
(0.486715 -0.0610862 0)
(0.413164 -0.106741 0)
(0.294552 -0.193625 0)
(0.131363 -0.332826 0)
(0.0668883 -0.369232 0)
(0.261865 0.137813 0)
(0.325117 0.118702 0)
(0.456633 0.0776939 0)
(0.561314 0.051965 0)
(0.632923 0.0362192 0)
(0.685216 0.0258692 0)
(0.726096 0.0189073 0)
(0.758933 0.0141428 0)
(0.785461 0.0106864 0)
(0.806591 0.00788629 0)
(0.822516 0.00526569 0)
(0.832826 0.00247383 0)
(0.8366 -0.000820885 0)
(0.832337 -0.00455256 0)
(0.817495 -0.00936073 0)
(0.788593 -0.0161045 0)
(0.738088 -0.0272458 0)
(0.6482 -0.0517697 0)
(0.474781 -0.1114 0)
(0.341577 -0.155817 0)
)
;

boundaryField
{
    movingWall
    {
        type            fixedValue;
        value           uniform (1 0 0);
    }
    fixedWalls
    {
        type            fixedValue;
        value           uniform (0 0 0);
    }
    frontAndBack
    {
        type            empty;
    }
}


// ************************************************************************* //
