/*--------------------------------*- C++ -*----------------------------------*\
| =========                 |                                                 |
| \\      /  F ield         | OpenFOAM: The Open Source CFD Toolbox           |
|  \\    /   O peration     | Version:  3.0.1                                 |
|   \\  /    A nd           | Web:      www.OpenFOAM.org                      |
|    \\/     M anipulation  |                                                 |
\*---------------------------------------------------------------------------*/
FoamFile
{
    version     2.0;
    format      ascii;
    class       surfaceScalarField;
    location    "2.1";
    object      alphaPhi;
}
// * * * * * * * * * * * * * * * * * * * * * * * * * * * * * * * * * * * * * //

dimensions      [0 3 -1 0 0 0 0];

internalField   nonuniform List<scalar> 
22672
(
3.94738148238e-06
3.96844984796e-06
-7.91573532081e-06
9.06199062722e-06
3.0176570908e-06
-8.13254074027e-06
1.3925853732e-05
2.81441498949e-06
-7.67789207801e-06
1.73892774005e-05
3.38304558961e-06
-6.84718076979e-06
1.87924582505e-05
4.61382070949e-06
-6.01638213044e-06
1.79791069154e-05
6.1899336176e-06
-5.37717863414e-06
1.52441586045e-05
7.72402657905e-06
-4.98833439213e-06
1.0963665331e-05
9.06761938697e-06
-4.78790925459e-06
5.70924605454e-06
1.0004215658e-05
-4.75005868816e-06
8.44166723118e-10
1.0476076155e-05
-4.76835873831e-06
-5.70792796533e-06
1.04771155485e-05
-4.76836400698e-06
-1.09650679694e-05
1.00062667525e-05
-4.74994370925e-06
-1.5248846448e-05
9.07202022276e-06
-4.78839612785e-06
-1.79871465652e-05
7.72960871738e-06
-4.9910646702e-06
-1.88022635836e-05
6.19611225589e-06
-5.38131592163e-06
-1.73998303945e-05
4.61952015356e-06
-6.02213970446e-06
-1.39347691241e-05
3.38842515839e-06
-6.85367176019e-06
-9.06949573404e-06
2.81999445454e-06
-7.68549472252e-06
-3.95076188844e-06
3.02475762885e-06
-8.14357531446e-06
3.97830961738e-06
-7.92905749858e-06
3.00080856834e-06
9.09706453271e-06
-8.1297783285e-06
8.94251262584e-06
8.96541235293e-06
-1.18893324386e-05
1.49351247099e-05
9.73981771226e-06
-1.29185443574e-05
1.91848385261e-05
1.1718241869e-05
-1.25847454174e-05
2.09387314737e-05
1.46989009454e-05
-1.18393313088e-05
2.00899938358e-05
1.81384753732e-05
-1.10992656514e-05
1.69634559941e-05
2.14127403704e-05
-1.05632763141e-05
1.214533567e-05
2.41702020879e-05
-1.02842488845e-05
6.29979846494e-06
2.60810700064e-05
-1.02316237709e-05
-1.90525068843e-09
2.70413357806e-05
-1.02637672846e-05
-6.30391274516e-06
2.70413303787e-05
-1.02632191619e-05
-1.2151800744e-05
2.60828712248e-05
-1.02298382729e-05
-1.69725395554e-05
2.41754836901e-05
-1.02824435987e-05
-2.0101392847e-05
2.14202754004e-05
-1.0561793169e-05
-2.09523875591e-05
1.81460063566e-05
-1.10992344469e-05
-1.91978687059e-05
1.4706526608e-05
-1.18418935488e-05
-1.49452136683e-05
1.17256903604e-05
-1.25902845323e-05
-8.94832229837e-06
9.74868246092e-06
-1.29259821955e-05
-3.00207914796e-06
8.97781029358e-06
-1.18993659381e-05
9.11633088825e-06
-8.14006022964e-06
2.80221712246e-06
1.39646719928e-05
-7.66969375746e-06
9.72828914982e-06
1.49541958065e-05
-1.2915305492e-05
1.69129582065e-05
1.69144619246e-05
-1.43591278564e-05
2.20324592688e-05
2.0373309783e-05
-1.37747974933e-05
2.41723323249e-05
2.50202611734e-05
-1.2460885154e-05
2.31986023472e-05
3.01556851291e-05
-1.10446686615e-05
1.95265032998e-05
3.49754348551e-05
-9.89041798465e-06
1.39174688515e-05
3.89529540809e-05
-9.17446419763e-06
7.19193942439e-06
4.16943333988e-05
-8.8879131369e-06
-1.99074382985e-09
4.30680966495e-05
-8.83421990268e-06
-7.19583616906e-06
4.30678394923e-05
-8.83261419095e-06
-1.39232211533e-05
4.16943290896e-05
-8.8842308137e-06
-1.95351350731e-05
3.89565203419e-05
-9.16891011049e-06
-2.32107172661e-05
3.49801649489e-05
-9.8841517118e-06
-2.41864760235e-05
3.01611688971e-05
-1.10391751363e-05
-2.2046851913e-05
2.50253294129e-05
-1.24587289394e-05
-1.69245998923e-05
2.03795640831e-05
-1.37765635079e-05
-9.73534834707e-06
1.69235539341e-05
-1.43644640537e-05
-2.80423420949e-06
1.49691438585e-05
-1.29225916674e-05
1.39890071242e-05
-7.67708415716e-06
3.37422348737e-06
1.74225421278e-05
-6.83273383308e-06
1.17143551915e-05
1.91929349775e-05
-1.257871136e-05
2.03837730793e-05
2.20184136138e-05
-1.37736716087e-05
2.65676785124e-05
2.6537234955e-05
-1.23473261794e-05
2.91194958556e-05
3.23416999773e-05
-9.87417240951e-06
2.78622909851e-05
3.8625033835e-05
-7.21141189805e-06
2.33404975715e-05
4.44515029687e-05
-4.95544356221e-06
1.6539707553e-05
4.92098296804e-05
-3.45568772653e-06
8.50856801636e-06
5.24800349695e-05
-2.75498013274e-06
-1.3140452399e-09
5.41208341921e-05
-2.54064572238e-06
-8.51196052843e-06
5.41162906966e-05
-2.53865592772e-06
-1.65440878398e-05
5.2476460585e-05
-2.74953896334e-06
-2.33482866363e-05
4.92074989141e-05
-3.44713136122e-06
-2.78738636994e-05
4.44499333774e-05
-4.94471010832e-06
-2.91350855694e-05
3.86230018263e-05
-7.20130125445e-06
-2.65835450028e-05
3.23412393267e-05
-9.86724686013e-06
-2.03973922107e-05
2.65389624289e-05
-1.23452030173e-05
-1.17233151666e-05
2.20248032881e-05
-1.37754509299e-05
-3.37784515648e-06
1.92072311649e-05
-1.25835019345e-05
1.74488506953e-05
-6.83772610684e-06
4.60642774968e-06
1.88132004487e-05
-5.99695074524e-06
1.46976224504e-05
2.09337138101e-05
-1.18323489295e-05
2.50354755051e-05
2.41433576113e-05
-1.24623923759e-05
3.2380980019e-05
2.90703086516e-05
-9.87903890118e-06
3.53350747847e-05
3.52723001951e-05
-5.88312864756e-06
3.36661223872e-05
4.18929059795e-05
-1.60022218209e-06
2.80714744133e-05
4.79541023365e-05
2.0930221862e-06
1.97955757951e-05
5.28937561895e-05
4.59193174769e-06
1.01473136112e-05
5.62792589006e-05
5.8519375112e-06
-1.61509927159e-09
5.79748745427e-05
6.29553178227e-06
-1.01504271879e-05
5.79700968535e-05
6.29778472077e-06
-1.98004145511e-05
5.62689389158e-05
5.85844920163e-06
-2.80790532158e-05
5.28843896092e-05
4.60279747953e-06
-3.36780468247e-05
4.7942766148e-05
2.10616150686e-06
-3.53497928156e-05
4.18815511718e-05
-1.58747501713e-06
-3.23978263585e-05
3.52617852452e-05
-5.87274435537e-06
-2.50505018249e-05
2.90647790826e-05
-9.87320187733e-06
-1.47083634885e-05
2.41438551781e-05
-1.24611683909e-05
-4.61142916578e-06
2.09440469986e-05
-1.18341349623e-05
1.88366552872e-05
-5.99916337854e-06
6.1806671626e-06
1.79875103569e-05
-5.35569522095e-06
1.81335168734e-05
2.0075744619e-05
-1.10946526296e-05
3.01671976947e-05
2.31630494084e-05
-1.10538708786e-05
3.86629154981e-05
2.78071760047e-05
-7.23108317073e-06
4.19582070151e-05
3.35964164184e-05
-1.62039197524e-06
3.97796326946e-05
3.97085009108e-05
4.36423990378e-06
3.30305717401e-05
4.5273298603e-05
9.42973361847e-06
2.32071357081e-05
4.98417576019e-05
1.28784632228e-05
1.1867132938e-05
5.29545942656e-05
1.46662390179e-05
-3.70054384098e-09
5.45052885919e-05
1.53419756671e-05
-1.18739420519e-05
5.45008824402e-05
1.53421543985e-05
-2.3213157748e-05
5.2942793777e-05
1.46691904626e-05
-3.30392139671e-05
4.9824318079e-05
1.28873761353e-05
-3.97911454526e-05
4.52531273042e-05
9.44224738783e-06
-4.19727327953e-05
3.96858641515e-05
4.37727400061e-06
-3.8678640733e-05
3.3575629821e-05
-1.60829259269e-06
-3.01825875097e-05
2.77909598362e-05
-7.22211187925e-06
-1.81449187482e-05
2.31553452648e-05
-1.10497983786e-05
-6.18629880254e-06
2.00789166013e-05
-1.10934374025e-05
1.80047220788e-05
-5.35460301407e-06
7.7131553365e-06
1.52411953827e-05
-4.96585183412e-06
2.14027785539e-05
1.69481236564e-05
-1.05626879889e-05
3.49798970867e-05
1.94981668343e-05
-9.91159667018e-06
4.44845018693e-05
2.32985256635e-05
-4.99679331211e-06
4.80193036719e-05
2.801979104e-05
2.04332671696e-06
4.53418807098e-05
3.29822707642e-05
9.40305481009e-06
3.75187652638e-05
3.74819675694e-05
1.56165218141e-05
2.62563639953e-05
4.11850907876e-05
1.99205996907e-05
1.33842205308e-05
4.36555211415e-05
2.21737433035e-05
-6.98549896669e-09
4.48664947044e-05
2.3030623971e-05
-1.339777136e-05
4.48628575489e-05
2.30303219563e-05
-2.6268948769e-05
4.36427331563e-05
2.21725253458e-05
-3.75307361634e-05
4.11651700965e-05
1.99238249862e-05
-4.53558678835e-05
3.74543360354e-05
1.56254304107e-05
-4.80334874387e-05
3.29510910612e-05
9.41318456124e-06
-4.4499568771e-05
2.79879453839e-05
2.05378684335e-06
-3.49939028904e-05
2.32725553949e-05
-4.98779651664e-06
-2.14133161549e-05
1.94811251363e-05
-9.90629352084e-06
-7.71838293791e-06
1.69427572977e-05
-1.05593141294e-05
1.52488460752e-05
-4.96234838214e-06
9.05488558757e-06
1.09492856734e-05
-4.763374774e-06
2.41555068034e-05
1.21342034281e-05
-1.0286251551e-05
3.89515435159e-05
1.39053199525e-05
-9.20419386018e-06
4.92419339803e-05
1.65235694564e-05
-3.51439877601e-06
5.29698198452e-05
1.97717761938e-05
4.51953521933e-06
4.99255631728e-05
2.31836807067e-05
1.2843596091e-05
4.12265087999e-05
2.62405995322e-05
1.99412344907e-05
2.87815891852e-05
2.87676769893e-05
2.48654744624e-05
1.46339076235e-05
3.03877024734e-05
2.7417183032e-05
-1.09172877424e-08
3.11673343361e-05
2.83442486819e-05
-1.46552558706e-05
3.11626808808e-05
2.83450546597e-05
-2.88020993263e-05
3.03732066378e-05
2.74177645102e-05
-4.12474348105e-05
2.87426626307e-05
2.48702334982e-05
-4.99449526657e-05
2.62076498325e-05
1.99463444358e-05
-5.29869440142e-05
2.31457157034e-05
1.28480279555e-05
-4.9255402412e-05
1.97332130207e-05
4.52374043132e-06
-3.89632978614e-05
1.64897222424e-05
-3.50941003199e-06
-2.4163653074e-05
1.38810681995e-05
-9.20004226209e-06
-9.0592199714e-06
1.21205430082e-05
-1.02821446314e-05
1.09479306788e-05
-4.75838916814e-06
9.98963049162e-06
5.68260677381e-06
-4.72233877674e-06
2.60620457206e-05
6.2936619047e-06
-1.02316813159e-05
4.16864144888e-05
7.19909679219e-06
-8.91797586564e-06
5.25048611844e-05
8.52047433275e-06
-2.81610935793e-06
5.63532753304e-05
1.01544674437e-05
5.7693267109e-06
5.30441842474e-05
1.1867909113e-05
1.46243114815e-05
4.36990722418e-05
1.33806012843e-05
2.22076848909e-05
3.03993251175e-05
1.46284387895e-05
2.74399766105e-05
1.54089928989e-05
1.54066981294e-05
2.99727223898e-05
-1.38333777055e-08
1.5783001233e-05
3.08066098527e-05
-1.54393719364e-05
1.57756927812e-05
3.08126627199e-05
-3.04330143837e-05
1.53868005607e-05
2.998021489e-05
-4.37298758071e-05
1.46000601533e-05
2.7440525154e-05
-5.30702576896e-05
1.33453736956e-05
2.22054341509e-05
-5.6371941398e-05
1.18282501932e-05
1.46208230631e-05
-5.25173948311e-05
1.01137650344e-05
5.76489821065e-06
-4.16940023741e-05
8.48442028798e-06
-2.81807843441e-06
-2.60666632106e-05
7.17080261991e-06
-8.91716148911e-06
-9.99207948297e-06
6.27439765475e-06
-1.02286576827e-05
5.67287372784e-06
-4.7169555526e-06
1.04604961563e-05
-4.04851898294e-08
-4.73758796095e-06
2.70195033332e-05
-5.94900660968e-09
-1.02589608467e-05
4.30543556698e-05
2.0553609935e-08
-8.85648895615e-06
5.4133732202e-05
3.51642674814e-08
-2.59390169105e-06
5.80351107455e-05
3.62709815538e-08
6.21644168045e-06
5.45857456052e-05
2.76000359544e-08
1.52899929439e-05
4.49063785356e-05
1.28889353958e-08
2.30475498895e-05
3.11829645766e-05
-1.67059629151e-09
2.83548050855e-05
1.57879968614e-05
-1.00361386403e-08
3.08110492273e-05
-2.20384201059e-08
-1.96080934285e-08
3.16118263767e-05
-1.58320215414e-05
-2.54975505406e-08
3.16104524546e-05
-3.12249471269e-05
-2.84974052314e-08
3.08089049353e-05
-4.49438023097e-05
-2.71642521951e-08
2.83467765257e-05
-5.46170591228e-05
-1.84415033711e-08
2.30382328213e-05
-5.805533203e-05
-8.03225558934e-09
1.52770414339e-05
-5.4143584381e-05
-2.73772866739e-10
6.20243068477e-06
-4.30578843223e-05
1.99932124544e-09
-2.60335312349e-06
-2.70203196012e-05
-6.51558469471e-09
-8.86026997156e-06
-1.04610921938e-05
-2.66378125618e-08
-1.02583294789e-05
-5.50411521239e-08
-4.73313697407e-06
1.04606899888e-05
-5.76462513403e-06
-4.73680304604e-06
2.70178015487e-05
-6.30822765969e-06
-1.02549832982e-05
4.30498367248e-05
-7.16247064053e-06
-8.84872345417e-06
5.41248782908e-05
-8.45656463527e-06
-2.58358263695e-06
5.80232291592e-05
-1.00889999024e-05
6.22702963436e-06
5.4572984e-05
-1.1820691379e-05
1.52987422606e-05
4.48963863024e-05
-1.33622584256e-05
2.30521391622e-05
3.11753406127e-05
-1.46396291493e-05
2.83586734181e-05
1.5779696889e-05
-1.54396452413e-05
3.08248981616e-05
-2.88641557775e-08
-1.58348868032e-05
3.1622967509e-05
-1.5837399429e-05
-1.58378675773e-05
3.16201711185e-05
-3.12265925116e-05
-1.54495983479e-05
3.08108034005e-05
-4.49377392672e-05
-1.46551235804e-05
2.83399396049e-05
-5.46053076395e-05
-1.33830866203e-05
2.30340770407e-05
-5.80438087368e-05
-1.18455439121e-05
1.52762581153e-05
-5.41325478052e-05
-1.01148575812e-05
6.20358703079e-06
-4.30495202129e-05
-8.48097645036e-06
-2.60019463475e-06
-2.70152842535e-05
-7.18367494906e-06
-8.8569933283e-06
-1.04589428511e-05
-6.32645987469e-06
-1.02564384395e-05
-5.780801955e-06
-4.73352699308e-06
9.98930320159e-06
-1.10339102956e-05
-4.72051151741e-06
2.60567040154e-05
-1.21559025792e-05
-1.02200374076e-05
4.16720346359e-05
-1.38816017166e-05
-8.8957821608e-06
5.2477306035e-05
-1.64754287108e-05
-2.78639303689e-06
5.63136473511e-05
-1.97230038171e-05
5.79777079432e-06
5.30001128752e-05
-2.31512275169e-05
1.46449678899e-05
4.3659296106e-05
-2.62336665802e-05
2.22124801247e-05
3.03689007629e-05
-2.87839767074e-05
2.74343192761e-05
1.53831904308e-05
-3.04275213348e-05
2.99733465422e-05
-3.12978953151e-08
-3.12225636992e-05
3.08019330108e-05
-1.54457869492e-05
-3.12238322794e-05
3.08004580228e-05
-3.04264037012e-05
-3.0429377398e-05
2.99598227607e-05
-4.37068591188e-05
-2.87873737161e-05
2.74140477281e-05
-5.30367101505e-05
-2.62407634524e-05
2.21885378762e-05
-5.63353147735e-05
-2.31612651655e-05
1.46152192092e-05
-5.24833756771e-05
-1.97338558378e-05
5.76693294743e-06
-4.16682097915e-05
-1.64867420272e-05
-2.80947554372e-06
-2.60507844462e-05
-1.38930300949e-05
-8.90777324409e-06
-9.98570251054e-06
-1.21685392974e-05
-1.02234342559e-05
-1.10486548896e-05
-4.7179239869e-06
9.05337890135e-06
-1.53261874025e-05
-4.76116265649e-06
2.41452859677e-05
-1.6978417405e-05
-1.0269740938e-05
3.89262116421e-05
-1.94895806568e-05
-9.17311833042e-06
4.91946968962e-05
-2.32702636823e-05
-3.47324786768e-06
5.29047912886e-05
-2.79886400291e-05
4.55573087449e-06
4.98536936024e-05
-3.29627403532e-05
1.28628321693e-05
4.11619424494e-05
-3.74799585266e-05
1.99385650885e-05
2.87262501011e-05
-4.12011818847e-05
2.48531370645e-05
1.4591399389e-05
-4.36843621868e-05
2.73921276365e-05
-3.26137843582e-08
-4.49032056248e-05
2.83042271088e-05
-1.46554269007e-05
-4.49016095091e-05
2.83008959484e-05
-2.87841969536e-05
-4.36794723669e-05
2.7379986082e-05
-4.12121966827e-05
-4.11947241311e-05
2.48355167334e-05
-4.98928557556e-05
-3.74739403536e-05
1.99144831844e-05
-5.29277152835e-05
-3.29572741519e-05
1.28306405092e-05
-4.92001964105e-05
-2.79831878276e-05
4.52177408832e-06
-3.89203995169e-05
-2.32667812584e-05
-3.49884781449e-06
-2.41372679361e-05
-1.94899796618e-05
-9.18640699659e-06
-9.04813698874e-06
-1.69839285726e-05
-1.02735890072e-05
-1.53376985615e-05
-4.75924023566e-06
7.70882762916e-06
-1.80700984269e-05
-4.96482825355e-06
2.13869173436e-05
-2.01119489123e-05
-1.0544765006e-05
3.49439683201e-05
-2.31680302263e-05
-9.87845217307e-06
4.44223601031e-05
-2.77949326124e-05
-4.95373772697e-06
4.79346352313e-05
-3.35798092334e-05
2.07895788387e-06
4.52513147485e-05
-3.9696154181e-05
9.41661025223e-06
3.74377248881e-05
-4.52724424007e-05
1.56062470982e-05
2.61899009294e-05
-4.9853184837e-05
1.99004601143e-05
1.33336886099e-05
-5.29744617672e-05
2.2146695847e-05
-3.09856956825e-08
-5.45266338368e-05
2.29898981998e-05
-1.33944796236e-05
-5.45238664722e-05
2.29860993797e-05
-2.62466046926e-05
-5.29653506106e-05
2.21379354003e-05
-3.74878233116e-05
-4.98396993438e-05
1.98867816369e-05
-4.52909825131e-05
-4.52563103629e-05
1.55850829763e-05
-4.79573034711e-05
-3.96775195981e-05
9.38662138897e-06
-4.4426634183e-05
-3.35606318484e-05
2.04764103222e-06
-3.49376497905e-05
-2.77794096572e-05
-4.97663484992e-06
-2.13782942096e-05
-2.31592508192e-05
-9.88973595064e-06
-7.70343328946e-06
-2.01115700474e-05
-1.05474308993e-05
-1.80783732931e-05
-4.96245767018e-06
6.1741767923e-06
-1.888774792e-05
-5.35646913777e-06
1.81115320097e-05
-2.09702929345e-05
-1.10786132e-05
3.01229189885e-05
-2.41550349532e-05
-1.1024425749e-05
3.85902119898e-05
-2.90685385634e-05
-7.19382326573e-06
4.18618820924e-05
-3.52629086728e-05
-1.58874606795e-06
3.96753729416e-05
-4.18815047534e-05
4.37201102448e-06
3.29367186292e-05
-4.79453751281e-05
9.41158493126e-06
2.31304954772e-05
-5.28912495736e-05
1.28443294151e-05
1.18126747715e-05
-5.62762183067e-05
1.46207417154e-05
-2.9127253342e-08
-5.79695568856e-05
1.52844738907e-05
-1.18690653664e-05
-5.79652563968e-05
1.528135969e-05
-2.31823271497e-05
-5.62650517272e-05
1.46133763208e-05
-3.29830562631e-05
-5.28741466429e-05
1.28345676094e-05
-3.97110756492e-05
-4.79231808955e-05
9.39526912922e-06
-4.1882256291e-05
-4.18558856318e-05
4.34941446818e-06
-3.85949681847e-05
-3.52365747071e-05
-1.61147123144e-06
-3.0117859718e-05
-2.90472742794e-05
-7.2087753159e-06
-1.81042972189e-05
-2.4142399513e-05
-1.10306482807e-05
-6.16953712573e-06
-2.09674605218e-05
-1.10787831528e-05
-1.8894305162e-05
-5.35365615324e-06
4.59570750254e-06
-1.74822924822e-05
-6.00097727891e-06
1.46692939116e-05
-1.92246935559e-05
-1.18193912208e-05
2.4985053804e-05
-2.20321743567e-05
-1.24384175509e-05
3.2305283563e-05
-2.65403188939e-05
-9.84843720155e-06
3.52359387995e-05
-3.23374406098e-05
-5.85658793892e-06
3.35582105934e-05
-3.86122702837e-05
-1.5917175489e-06
2.7971976231e-05
-4.44334461769e-05
2.07438573744e-06
1.97154358899e-05
-4.91877305933e-05
4.55299820609e-06
1.00922835094e-05
-5.24523204499e-05
5.79908018126e-06
-2.58995661939e-08
-5.40861820299e-05
6.23574256418e-06
-1.01427358139e-05
-5.40826410216e-05
6.23465662009e-06
-1.97626645893e-05
-5.2442099227e-05
5.79598634226e-06
-2.80129628793e-05
-4.91711992464e-05
4.54765229461e-06
-3.35896390228e-05
-4.44116721191e-05
2.06487654312e-06
-3.52536644252e-05
-3.85869615006e-05
-1.60472618485e-06
-3.23106272114e-05
-3.23125178125e-05
-5.86714656016e-06
-2.49832784337e-05
-2.65209153053e-05
-9.85379686683e-06
-1.46652426667e-05
-2.20211849355e-05
-1.24391295475e-05
-4.59238241036e-06
-1.92229496241e-05
-1.1817236947e-05
-1.74890079928e-05
-5.99760628927e-06
3.36094377609e-06
-1.40077537442e-05
-6.83551120673e-06
1.16822118864e-05
-1.49785801965e-05
-1.25673634314e-05
2.03316630519e-05
-1.69275040792e-05
-1.37540958113e-05
2.64946492896e-05
-2.03797730564e-05
-1.23234638909e-05
2.90291257044e-05
-2.50206761342e-05
-9.85117919316e-06
2.776389916e-05
-3.0148292242e-05
-7.19930041746e-06
2.32495539085e-05
-3.49589602206e-05
-4.96046647534e-06
1.64667976885e-05
-3.89287356638e-05
-3.47626282736e-06
8.45952520051e-06
-4.16618641463e-05
-2.78323743604e-06
-2.35283851704e-08
-4.30299685549e-05
-2.57352835088e-06
-8.50490578748e-06
-4.30269063221e-05
-2.57405626635e-06
-1.65081859067e-05
-4.16535701912e-05
-2.78485876694e-06
-2.32847519643e-05
-3.89157143764e-05
-3.47893629761e-06
-2.7790021987e-05
-3.4941960361e-05
-4.96456005686e-06
-2.90441747925e-05
-3.01293688624e-05
-7.20361634393e-06
-2.65001233952e-05
-2.50033287061e-05
-9.85290814559e-06
-2.03312783726e-05
-2.03673164614e-05
-1.23226136064e-05
-1.1679611112e-05
-1.69217991443e-05
-1.37512011757e-05
-3.35853176718e-06
-1.49802269823e-05
-1.2563935808e-05
-1.40147688307e-05
-6.83286533571e-06
2.78732453717e-06
-9.12432770124e-06
-7.67072241326e-06
9.69511336219e-06
-8.98189875545e-06
-1.29045292728e-05
1.68626684296e-05
-9.75118611035e-06
-1.43438311061e-05
2.1966631952e-05
-1.17268744069e-05
-1.37568341883e-05
2.40943408889e-05
-1.47048116011e-05
-1.24432222776e-05
2.31160127356e-05
-1.81391236622e-05
-1.10306296342e-05
1.94492708438e-05
-2.14076186984e-05
-9.8847148486e-06
1.38546359769e-05
-2.4157859467e-05
-9.17633589052e-06
7.14905838717e-06
-2.60616778357e-05
-8.89446346044e-06
-2.16454124987e-08
-2.70169429029e-05
-8.84216047651e-06
-7.19110491441e-06
-2.70153262321e-05
-8.84286315443e-06
-1.38918480135e-05
-2.60566074438e-05
-8.89583094832e-06
-1.94793009522e-05
-2.41500704115e-05
-9.17789849683e-06
-2.31374172674e-05
-2.13979734484e-05
-9.88611018068e-06
-2.41061481551e-05
-1.8129355772e-05
-1.10312427454e-05
-2.19707228105e-05
-1.46969653704e-05
-1.24418824836e-05
-1.68615903084e-05
-1.17225192874e-05
-1.37538944946e-05
-9.69204095021e-06
-9.75132432659e-06
-1.43401558804e-05
-2.78448042968e-06
-8.98655550007e-06
-1.29014178967e-05
-9.13077150321e-06
-7.66849279164e-06
2.98647066264e-06
-3.98063221407e-06
-8.13023714694e-06
8.9126728919e-06
-3.02640032376e-06
-1.1881711713e-05
1.48920184622e-05
-2.82247509169e-06
-1.29081475374e-05
1.91310870513e-05
-3.39124307921e-06
-1.25745667568e-05
2.08769972023e-05
-4.62186122029e-06
-1.18290642996e-05
2.00246475359e-05
-6.19629303067e-06
-1.10902139723e-05
1.69019746007e-05
-7.72757953365e-06
-1.05572780394e-05
1.20937173186e-05
-9.06797096044e-06
-1.02818386165e-05
6.26315127293e-06
-1.00003157841e-05
-1.0230975685e-05
-2.04741792918e-08
-1.04694833408e-05
-1.02646121172e-05
-6.30213190394e-06
-1.0468797614e-05
-1.02653203017e-05
-1.21271916771e-05
-9.99835863181e-06
-1.02335054881e-05
-1.69269259813e-05
-9.0651357472e-06
-1.02850041434e-05
-2.00398838003e-05
-7.72467071039e-06
-1.05601472565e-05
-2.08830481959e-05
-6.19419582367e-06
-1.1091943712e-05
-1.91297431014e-05
-4.62104452651e-06
-1.18290943064e-05
-1.48866681965e-05
-3.39251799536e-06
-1.25729686328e-05
-8.90652295518e-06
-2.82575760925e-06
-1.29058180703e-05
-2.98215235567e-06
-3.03141997468e-06
-1.18796695844e-05
-3.98445203841e-06
-8.12863883035e-06
3.93698281119e-06
-7.91767002506e-06
9.04340123616e-06
-8.13287153539e-06
1.39000671594e-05
-7.67910250335e-06
1.73579546071e-05
-6.84928624908e-06
1.87559066452e-05
-6.01975431908e-06
1.79391174008e-05
-5.37980087196e-06
1.52031057856e-05
-4.9913432763e-06
1.09264342658e-05
-4.79107615134e-06
5.67940438548e-06
-4.75345811769e-06
-1.77535727195e-08
-4.772963373e-06
-5.71176566671e-06
-4.77452073473e-06
-1.09511197594e-05
-4.75878706651e-06
-1.52170491856e-05
-4.79884666987e-06
-1.79415263149e-05
-4.99975184125e-06
-1.87485947547e-05
-5.38711176668e-06
-1.73441413035e-05
-6.02562271896e-06
-1.3884126165e-05
-6.85262312267e-06
-9.03023134327e-06
-7.67974853406e-06
-3.9293594512e-06
-8.13235337161e-06
-7.91379737863e-06
5.72573865559e-06
5.74579637931e-06
-1.93872903735e-05
1.14770491938e-05
6.53855561261e-06
-2.04223888423e-05
1.64623349366e-05
7.49708604838e-06
-2.01604149604e-05
1.98078208685e-05
9.01386041286e-06
-1.92058746162e-05
2.09630131195e-05
1.09013312388e-05
-1.80735190999e-05
1.98220461816e-05
1.29097182764e-05
-1.7144978517e-05
1.66449810634e-05
1.47700509008e-05
-1.65816140901e-05
1.18958502145e-05
1.63341902645e-05
-1.63731618542e-05
6.16823377959e-06
1.74228185954e-05
-1.64457552823e-05
-3.57745906174e-09
1.79742447129e-05
-1.65712482649e-05
-6.17605988264e-06
1.7974353182e-05
-1.65705523716e-05
-1.19053220943e-05
1.74228044891e-05
-1.64436552158e-05
-1.66573858372e-05
1.63339363125e-05
-1.6371672579e-05
-1.98366790843e-05
1.47701896883e-05
-1.65824280864e-05
-2.09780919087e-05
1.29090153748e-05
-1.71481003613e-05
-1.98204395559e-05
1.08998802109e-05
-1.80798561209e-05
-1.64710560544e-05
9.01207649463e-06
-1.92148868429e-05
-1.14818127538e-05
7.49678688021e-06
-2.01717921682e-05
-5.7267137906e-06
6.54158463149e-06
-2.04401931288e-05
5.75311866833e-06
-1.94088820221e-05
6.52750271937e-06
1.15048139614e-05
-2.04159407723e-05
1.2671537997e-05
1.26795407897e-05
-2.41746925784e-05
1.77334033625e-05
1.4438165141e-05
-2.492106808e-05
2.10900356083e-05
1.71678332795e-05
-2.40959537591e-05
2.22163632196e-05
2.05640357887e-05
-2.2627749174e-05
2.09662329194e-05
2.41794802305e-05
-2.1119832379e-05
1.75665854314e-05
2.75542995052e-05
-1.99474487557e-05
1.25424225432e-05
3.03488591714e-05
-1.92753170792e-05
6.50411658178e-06
3.22914607363e-05
-1.90620586829e-05
2.61338433695e-09
3.32747238979e-05
-1.90632468094e-05
-6.49961126046e-06
3.32745117578e-05
-1.90616061755e-05
-1.25398670122e-05
3.22902278119e-05
-1.90574278062e-05
-1.75666588771e-05
3.03470319785e-05
-1.92689424664e-05
-2.09694028442e-05
2.75517673858e-05
-1.99412416719e-05
-2.22217045697e-05
2.41762947997e-05
-2.11147050244e-05
-2.10956314395e-05
2.05597262438e-05
-2.26272155354e-05
-1.77372425943e-05
1.71637649705e-05
-2.41002569697e-05
-1.26728005114e-05
1.44364801674e-05
-2.49298769862e-05
-6.52644096164e-06
1.26833778457e-05
-2.41874950948e-05
1.15181134759e-05
-2.04314685277e-05
7.49486507628e-06
1.64857377227e-05
-2.01459189403e-05
1.44447174986e-05
1.77311232782e-05
-2.49164946929e-05
2.00517929057e-05
2.00314891858e-05
-2.55601945592e-05
2.37047477565e-05
2.36255140162e-05
-2.38848724398e-05
2.48681708436e-05
2.80934164539e-05
-2.11543349952e-05
2.33873535396e-05
3.28511127191e-05
-1.82348768628e-05
1.95307079529e-05
3.72847668253e-05
-1.57651806885e-05
1.39016109672e-05
4.09232540021e-05
-1.41194228651e-05
7.19475314113e-06
4.34420989498e-05
-1.3333171672e-05
6.94925371163e-09
4.47176406219e-05
-1.30901410536e-05
-7.18175859955e-06
4.47159144808e-05
-1.30876118976e-05
-1.38907215365e-05
4.34384957246e-05
-1.33243805683e-05
-1.95233922911e-05
4.09175283054e-05
-1.41069207268e-05
-2.33840727582e-05
3.72778371181e-05
-1.57498777043e-05
-2.48688578454e-05
3.28426145686e-05
-1.82209697826e-05
-2.37072091359e-05
2.80847294503e-05
-2.11454686028e-05
-2.005407229e-05
2.36177425787e-05
-2.38834067619e-05
-1.44452273518e-05
2.00271552218e-05
-2.55639774966e-05
-7.49379049993e-06
1.77336583352e-05
-2.49241273819e-05
1.65015812399e-05
-2.01543657521e-05
9.0183446899e-06
1.981871071e-05
-1.91837517361e-05
1.71847758313e-05
2.10742373319e-05
-2.40890181218e-05
2.36588672015e-05
2.36689801175e-05
-2.38847985804e-05
2.77931272004e-05
2.77414473483e-05
-2.05980937031e-05
2.90084275883e-05
3.28014725659e-05
-1.57969950864e-05
2.7146461523e-05
3.81779175137e-05
-1.06774671423e-05
2.25608475342e-05
4.31626402023e-05
-6.24710671105e-06
1.59852826982e-05
4.72187679158e-05
-3.17653158911e-06
8.24745935017e-06
5.00108079234e-05
-1.58550209517e-06
9.0518504552e-09
5.14222273532e-05
-1.007175557e-06
-8.23010756899e-06
5.142039221e-05
-1.00289494163e-06
-1.59701747089e-05
5.00028228927e-05
-1.57414051539e-06
-2.25493669596e-05
4.72082049272e-05
-3.15831807526e-06
-2.7140133013e-05
4.3148259087e-05
-6.22442307552e-06
-2.90068691586e-05
3.81625273304e-05
-1.06545191454e-05
-2.77948213614e-05
3.27857745065e-05
-1.57804729486e-05
-2.36614261136e-05
2.77280739351e-05
-2.05893206865e-05
-1.71863973203e-05
2.3660042215e-05
-2.38833583599e-05
-9.01837608221e-06
2.10735832902e-05
-2.40916559463e-05
1.98338879467e-05
-1.91881947203e-05
1.09094086914e-05
2.09605141946e-05
-1.80485011058e-05
2.0585829643e-05
2.21889611834e-05
-2.26234037157e-05
2.81331199455e-05
2.48202082137e-05
-2.11616417111e-05
3.28622912453e-05
2.89417050508e-05
-1.58081015e-05
3.41295869167e-05
3.40496723379e-05
-8.39953994131e-06
3.17710926897e-05
3.94512809648e-05
-5.14731175752e-07
2.6267470425e-05
4.44613472113e-05
6.29758161123e-06
1.85198153474e-05
4.85290590701e-05
1.10310746396e-05
9.52410190238e-06
5.13323175098e-05
1.35261697744e-05
8.63801988943e-09
5.27596826727e-05
1.44758478851e-05
-9.50753396478e-06
5.27555520076e-05
1.44801958838e-05
-1.85047071526e-05
5.13207250421e-05
1.35386978921e-05
-2.62561419605e-05
4.85107639737e-05
1.10516705305e-05
-3.17645034387e-05
4.44401762112e-05
6.32329639766e-06
-3.41278228802e-05
3.94266063181e-05
-4.88361546016e-07
-3.2864066885e-05
3.40257873656e-05
-8.37688029827e-06
-2.81367459117e-05
2.8920802116e-05
-1.57931492342e-05
-2.05890078562e-05
2.48049603856e-05
-2.11543214416e-05
-1.09110081929e-05
2.21831798343e-05
-2.26215953422e-05
2.09720109781e-05
-1.80482070839e-05
1.29169563068e-05
1.98100445806e-05
-1.71210160988e-05
2.41998089077e-05
2.0934431921e-05
-2.11236026783e-05
3.28886876307e-05
2.33370139367e-05
-1.82595144492e-05
3.82388920067e-05
2.70778178174e-05
-1.07180547357e-05
3.95343482054e-05
3.16888806934e-05
-5.54817202742e-07
3.66567593035e-05
3.65707364126e-05
1.01216098432e-05
3.01795314292e-05
4.11140705745e-05
1.92556107812e-05
2.12099603533e-05
4.4830476398e-05
2.55458742184e-05
1.08905539716e-05
4.73857006399e-05
2.89333150355e-05
5.44224137369e-09
4.86757819627e-05
3.03103787215e-05
-1.0879806587e-05
4.86710189369e-05
3.03120679814e-05
-2.11996752989e-05
4.73704925741e-05
2.89402278543e-05
-3.01712877022e-05
4.48081865994e-05
2.55633165659e-05
-3.66526282185e-05
4.10852877575e-05
1.92791821838e-05
-3.95332635715e-05
3.65378697379e-05
1.01467891799e-05
-3.82412936808e-05
3.16552768391e-05
-5.29717311761e-07
-3.28931963998e-05
2.70479677751e-05
-1.0698156249e-05
-2.4204146163e-05
2.33140323283e-05
-1.82480957834e-05
-1.29194093834e-05
2.09216814063e-05
-2.11167142022e-05
1.98141988461e-05
-1.71158496324e-05
1.47754966878e-05
1.66304205994e-05
-1.65623969403e-05
2.75693069937e-05
1.75416091342e-05
-1.99633276161e-05
3.73156516096e-05
1.94937094454e-05
-1.58152146948e-05
4.32186145978e-05
2.25104222793e-05
-6.33216367488e-06
4.45424337523e-05
2.62076211883e-05
6.19982660713e-06
4.11948922806e-05
3.01195156458e-05
1.92028763018e-05
3.38475790593e-05
3.37965996491e-05
3.02801900048e-05
2.3748995572e-05
3.68336267105e-05
3.80160100672e-05
1.21864223922e-05
3.88824452962e-05
4.2237626444e-05
2.06070012454e-10
3.98796441516e-05
4.40124287546e-05
-1.21857005732e-05
3.9874437508e-05
4.40110812578e-05
-2.37468582645e-05
3.88685207147e-05
4.22352600005e-05
-3.38458348751e-05
3.68088993115e-05
3.80220054536e-05
-4.11947981702e-05
3.37626363529e-05
3.02969290952e-05
-4.45440959121e-05
3.00793665055e-05
1.92211472847e-05
-4.32212901007e-05
2.61659575074e-05
6.21976686775e-06
-3.73201523709e-05
2.24723947616e-05
-6.31368342394e-06
-2.75733167193e-05
1.94632981746e-05
-1.58025266458e-05
-1.47782193994e-05
1.75214808919e-05
-1.99541971126e-05
1.66265132072e-05
-1.65529608787e-05
1.63372050348e-05
1.18845383843e-05
-1.63543956423e-05
3.03587784497e-05
1.25332012203e-05
-1.92994039964e-05
4.09472403475e-05
1.38896672377e-05
-1.41886395696e-05