/*--------------------------------*- C++ -*----------------------------------*\
| =========                 |                                                 |
| \\      /  F ield         | OpenFOAM: The Open Source CFD Toolbox           |
|  \\    /   O peration     | Version:  3.0.1                                 |
|   \\  /    A nd           | Web:      www.OpenFOAM.org                      |
|    \\/     M anipulation  |                                                 |
\*---------------------------------------------------------------------------*/
FoamFile
{
    version     2.0;
    format      ascii;
    class       volScalarField;
    location    "2.1";
    object      k_0;
}
// * * * * * * * * * * * * * * * * * * * * * * * * * * * * * * * * * * * * * //

dimensions      [0 2 -2 0 0 0 0];

internalField   nonuniform List<scalar> 
7968
(
0.00255219759523
0.00274481171011
0.00288054335272
0.00295086411047
0.0029802835394
0.00298733849062
0.00298378395392
0.00297611113518
0.00296822736663
0.00296243297049
0.00296242243746
0.0029682071626
0.00297609765873
0.00298378830161
0.00298736468806
0.00298032877394
0.00295091847975
0.00288059869966
0.00274487572179
0.00255223171385
0.00274479258982
0.00362730938336
0.00418024641843
0.00447237435955
0.00460623714843
0.00464943724418
0.00464754889891
0.00462957333414
0.00461255961066
0.00460312774595
0.00460309734738
0.00461248214124
0.00462947207077
0.00464745155604
0.00464937646857
0.00460624081971
0.00447243101354
0.0041803301047
0.00362742269766
0.00274485755435
0.00288048458747
0.00418016485918
0.00500442689972
0.00545499955824
0.00567446443803
0.00575590000147
0.00576473207878
0.00574585429879
0.0057260675471
0.00571530875724
0.00571525472401
0.00572592298731
0.00574565053445
0.00576450606061
0.0057557140202
0.00567436606791
0.00545499099616
0.00500448009041
0.00418026277027
0.00288055774083
0.00295072607479
0.00447212731389
0.00545485381466
0.00600066042676
0.00626889400294
0.00636661899645
0.00637464352389
0.00634911727571
0.00632409883933
0.006311086108
0.00631101029108
0.00632389155643
0.00634880769818
0.00637428357663
0.0063662794787
0.00626865450066
0.00600053563781
0.00545482368067
0.00447217240435
0.00295079750931
0.0029800411341
0.00460582653573
0.0056742219936
0.00626886132758
0.00655319388325
0.00664730341186
0.00667709033027
0.00667852789313
0.00666578848532
0.00665613675225
0.00665608017112
0.00666562880976
0.00667828837457
0.00667679887684
0.00664686025445
0.00655280977477
0.00626859140058
0.00567406977366
0.00460577937571
0.00298009095109
0.00298700212808
0.00464894812866
0.00575572508159
0.00636684002899
0.00664768061257
0.00679292243939
0.00684943963454
0.00685043122545
0.00683377084254
0.00682128202541
0.00682123149604
0.00683361869624
0.00685018770109
0.00684914071153
0.00679257771421
0.00664720039809
0.00636643038528
0.00575544342884
0.0046487949143
0.0029870146057
0.00298336863487
0.0046470668158
0.00576478580785
0.00637535818256
0.00667742722502
0.00684962001882
0.00690329105796
0.00689410403428
0.00686817349195
0.00685042310886
0.00685037281678
0.00686802911872
0.00689387530554
0.00690299702482
0.00684929178817
0.00667705936292
0.00637488961507
0.0057644189074
0.00464682732289
0.00298334133894
0.00297562486102
0.00462911663522
0.00574613387403
0.0063502976603
0.00667907640621
0.00685072712334
0.00689405967122
0.00687179070878
0.00683461093578
0.00681037858432
0.00681031787571
0.00683446529028
0.00687158486295
0.00689380472412
0.00685043895229
0.0066787520658
0.00634988655293
0.00574575954678
0.00462883255611
0.00297556394671
0.00296767961584
0.0046120873665
0.00572641137042
0.00632545965465
0.00666651876054
0.00683424220744
0.00686820933472
0.00683458040855
0.00678724874969
0.00675662804835
0.00675655700989
0.00678711079508
0.00683443716968
0.00686804842532
0.00683404607613
0.00666628437119
0.00632520851069
0.00572610959815
0.00461181077766
0.00296759487037
0.00296186561942
0.00460262030438
0.00571557349681
0.00631234743868
0.00665697489843
0.00682198133329
0.00685074172523
0.00681055399351
0.0067567222069
0.00672105334689
0.00672103757281
0.0067566884455
0.0068105341739
0.00685071415453
0.0068219178836
0.00665686764488
0.0063122952314
0.00571539829378
0.0046023982263
0.00296177600437
0.00296196917124
0.00460265062103
0.00571550805955
0.00631221616795
0.00665696447019
0.00682200568468
0.0068508163063
0.00681067374956
0.00675685939482
0.0067212313593
0.00672126600269
0.00675695602019
0.00681080112979
0.00685093187481
0.00682208187227
0.00665699782254
0.006312377063
0.00571547518499
0.00460250106485
0.00296189089413
0.00296788644103
0.00461217282953
0.00572623863829
0.0063250837971
0.00666651731874
0.00683436003324
0.00686848331492
0.00683500447707
0.00678777792519
0.00675727599351
0.00675731351664
0.00678790675605
0.00683518716025
0.00686867278638
0.00683452918373
0.00666666449401
0.00632545296867
0.00572633087327
0.00461209016205
0.00296782461946
0.00297587601377
0.00462928895417
0.0057459651689
0.00634986127158
0.00667916367148
0.0068510055145
0.00689456839323
0.00687250472893
0.0068355222008
0.00681148639783
0.00681152583623
0.00683564237684
0.00687268165305
0.00689477193006
0.00685121697551
0.00667936721786
0.00635031733998
0.00574611323628
0.00462924152468
0.00297582732606
0.00298364320139
0.00464736101504
0.00576474591281
0.00637505403372
0.00667764757914
0.0068500801781
0.00690400477763
0.00689504281602
0.00686933043136
0.00685179467179
0.00685182912451
0.00686942188221
0.00689518429119
0.00690418856849
0.00685028476945
0.00667785368377
0.00637544725325
0.00576485276312
0.00464729613755
0.00298359392141
0.00298728139873
0.0046493794807
0.00575589986611
0.0063667883861
0.00664775533917
0.0067935264115
0.00685032083317
0.00685157106991
0.00683515554722
0.00682286706005
0.00682289617493
0.00683522775352
0.00685167708718
0.00685046360999
0.00679370713232
0.00664816560541
0.00636698729673
0.00575587868755
0.00464926591266
0.00298723158033
0.00298030599624
0.0046063670552
0.00567458872373
0.00626902681758
0.00655341639563
0.00664798117942
0.0066780496319
0.00667977858856
0.00666729047552
0.00665780946657
0.00665783044556
0.00666734532406
0.0066798595121
0.00667815861253
0.00664822916374
0.00655355931729
0.00626900016443
0.00567444442574
0.00460621126263
0.00298025825714
0.00295092890259
0.00447267415841
0.00545530970434
0.00600095824615
0.00626917171624
0.00636715940038
0.0063756621858
0.00635062492509
0.00632593173572
0.00631308912408
0.00631311599191
0.00632600295507
0.00635072627444
0.00637578290579
0.00636724845728
0.00626914522117
0.00600081742716
0.00545511417347
0.0044725121774
0.00295089254691
0.00288061199417
0.00418062219861
0.00500486575365
0.00545533984562
0.00567474721653
0.00575625527665
0.00576532025695
0.00574672098646
0.00572714087464
0.00571649970363
0.00571654043381
0.00572723755471
0.00574684139462
0.00576542576353
0.00575630185045
0.00567468983372
0.00545519377141
0.00500468562731
0.00418048835047
0.00288058395788
0.0027448622818
0.00362761824613
0.00418057195592
0.00447266044691
0.00460646640317
0.004649653178
0.00464784149784
0.00462998811713
0.00461308659597
0.00460374074437
0.00460378805566
0.00461320712957
0.00463013995711
0.00464797562481
0.0046497263687
0.00460644939134
0.00447256285247
0.00418044067753
0.00362752063521
0.00274483932268
0.0025522093389
0.00274487100126
0.00288060919437
0.00295091843111
0.00298031938906
0.00298734768475
0.00298378355453
0.00297612088785
0.00296825750852
0.00296249540934
0.0029625206646
0.00296831828906
0.00297619583966
0.00298385007129
0.00298738818187
0.00298032923948
0.00295090133838
0.00288057904518
0.0027448511091
0.00255219860167
0.00272431567714
0.00351355110015
0.00403771182417
0.00433023822446
0.00447727902645
0.00453810688567
0.00455247512316
0.00454631263659
0.00453555799066
0.00452831012634
0.00452829049219
0.0045355079121
0.00454625003088
0.00455241880584
0.00453807004543
0.00447726854925
0.0043302467263
0.00403773026194
0.00351359059091
0.00272434982004
0.00351344994541
0.0066990188766
0.00819968460846
0.00901955831312
0.00944334173641
0.00962955984892
0.00968360800534
0.00967673979418
0.00965416056923
0.00963855275164
0.00963849307124
0.00965400276103
0.00967652380939
0.0096833830299
0.00962938126632
0.00944324724049
0.00901953495339
0.00819968952076
0.00669902953156
0.0035134571188
0.00403754291892
0.00819949789577
0.0101774683607
0.0112988636404
0.011910835289
0.0122053239722
0.0123139255221
0.0123299774912
0.0123150794655
0.0123013431392
0.0123012608788
0.0123148545866
0.0123296544809
0.0123135626883
0.0122049975223
0.0119106041849
0.0112987298433
0.0101774008292
0.00819947347324
0.00403753531193
0.00432995806749
0.00901906762967
0.0112985749087
0.0126221237344
0.0133641482938
0.0137335326352
0.0138788062776
0.0139080515927
0.0138968962189
0.0138838239399
0.0138837261988
0.0138966147197
0.0139076270508
0.0138783017851
0.0137330429894
0.013363741917
0.0126218216622
0.0112983664651
0.00901893943879
0.00432993062026
0.00447686891756
0.00944259553701
0.0119103441585
0.0133640022714
0.0141873690367
0.0145993409501
0.0147659506884
0.014794956642
0.014778738363
0.0147621829472
0.0147620723252
0.0147784144674
0.014794454762
0.0147653484837
0.0145987303731
0.0141867955171
0.0133635082626
0.0119099527174
0.00944231275597
0.0044767964051
0.00453760274138
0.00962873278026
0.0122048688647
0.0137335710168
0.0145996121261
0.0150272242229
0.0151770100751
0.0151899213756
0.0151603426404
0.0151363864939
0.0151362936906
0.0151600435278
0.0151894091644
0.0151763625594
0.0150265278187
0.0145989145494
0.0137329077706
0.0122043009273
0.00962829067502
0.00453746903217
0.00455193161814
0.00968286008497
0.0123137326584
0.0138793273481
0.0147668350824
0.0151775402443
0.0153037107738
0.0152923753961
0.0152445717237
0.0152112276285
0.0152111339973
0.015244297991
0.0152919259502
0.0153031005059
0.0151768487951
0.0147661014898
0.0138785882182
0.0123130622697
0.00968230807268
0.00455174195208
0.00454575293857
0.0096761039377
0.0123300527494
0.0139090155942
0.0147963626103
0.01519070769
0.0152922497126
0.0152568316264
0.0151912412726
0.0151485275895
0.0151484010076
0.0151909437334
0.0152564243889
0.0152917494044
0.0151901358517
0.0147957423115
0.0139083497637
0.0123293983091
0.00967552698464
0.00454553107923
0.00453498198105
0.00965357253768
0.0123152612268
0.013898033875
0.0147804986624
0.0151614500738
0.0152445091648
0.0151910500934
0.0151123687316
0.0150630844562
0.0150629344505
0.0151120724826
0.0151907689195
0.0152442306108
0.0151611248683
0.0147801161635
0.0138975623007
0.0123147328105
0.00965305615528
0.00453475654862
0.00452773534507
0.00963798362361
0.0123015011543
0.0138848926018
0.0147641241276
0.0151379253172
0.01521162342
0.015148622468
0.0150631215902
0.0150101367218
0.0150100987326
0.0150630580121
0.0151486232864
0.0152116525889
0.0151379325528
0.0147640538317
0.0138846645753
0.0123011667417
0.00963759052494
0.00452753757868
0.00452779696199
0.00963805925743
0.0123014926277
0.0138848521567
0.0147640742447
0.0151379413862
0.0152117557173
0.0151488294683
0.0150633242064
0.0150103815661
0.0150104462196
0.0150635406489
0.015149163118
0.0152121208193
0.0151382918135
0.0147643372577
0.0138848930213
0.0123013800198
0.00963781798468
0.00452764290708
0.00453515107888
0.00965381827695
0.012315268532
0.0138979052656
0.0147804219043
0.0151616208635
0.0152450545586
0.0151918929935
0.0151133628502
0.0150642739634
0.0150643601182
0.0151136803942
0.0151923795013
0.0152456232512
0.0151622214369
0.0147809644693
0.0138982331094
0.0123153579139
0.00965371526796
0.00453503817304
0.00454602525236
0.00967659124509
0.0123302080943
0.0139089605152
0.0147964531349
0.0151912368024
0.0152933496089
0.0152583645477
0.0151931534542
0.015150832974
0.0151509341172
0.0151934772884
0.0152588637943
0.0152939742211
0.0151919611654
0.0147971477029
0.01390944335
0.0123304028542
0.00967656599639
0.00454593699316
0.00455230687756
0.0096836694682
0.0123141930757
0.0138795462978
0.0147672514805
0.0151785117277
0.0153053394016
0.0152945123508
0.0152471392626
0.0152142341772
0.0152143322525
0.0152474117986
0.0152949458355
0.015305932636
0.0151792263826
0.0147679272856
0.0138800068197
0.0123143640018
0.00968363812383
0.00455221534578
0.00453807201105
0.00962991413238
0.0122057466897
0.0137342009782
0.0146004077083
0.0150285889016
0.0151791117147
0.0151926373207
0.0151635847368
0.0151400654848
0.0151401575897
0.0151638257158
0.0151929971918
0.0151796074347
0.0150291610739
0.0146008892674
0.0137344772943
0.012205784843
0.00962980991522
0.00453796547394
0.00447739685248
0.00944411056453
0.0119116130369
0.0133650020524
0.0141884194549
0.0146008759134
0.0147682304563
0.0147979191997
0.0147822360782
0.0147660342863
0.0147661021477
0.0147824243484
0.014798209623
0.014768611102
0.0146012630456
0.0141886898534
0.0133650776565
0.0119115161301
0.00944393424088
0.00447728020212
0.00433046923776
0.00902076228022
0.0113001072877
0.0126234057757
0.0133653710479
0.0137350349764
0.0138808584646
0.0139106649237
0.0138999110908
0.013887049538
0.0138871165406
0.0139000951969
0.0139109373062
0.0138811784597
0.0137353174669
0.013365515764
0.0126233815046
0.0112999563536
0.0090205694288
0.00433036133555
0.00403797641965
0.00820117204985
0.0101790916827
0.011300307568
0.0119121724008
0.0122067524032
0.0123156625466
0.012332086372
0.0123174890604
0.0123039552399
0.0123040405988
0.0123177137992
0.0123323986684
0.0123159969984
0.0122070277054
0.0119123121178
0.0113002945247
0.0101789654753
0.00820100992573
0.00403787963726
0.003513743538
0.00670040485269
0.00820114381457
0.0090209382131
0.00944462702554
0.00963084268773
0.00968503797614
0.00967838898612
0.00965601419459
0.00964057548738
0.00964067096307
0.00965626668171
0.00967873695621
0.00968540551193
0.00963115066496
0.00944481026399
0.00902097620045
0.00820106243417
0.00670027142056
0.0035136623872
0.00272433870756
0.00351389348136
0.00403811743174
0.00433060973497
0.00447759938276
0.0045383947745
0.00455278509987
0.00454668510401
0.00453600173102
0.00452882331421
0.0045288658396
0.00453610984395
0.00454682411896
0.00455291781212
0.0045384906959
0.00447764347295
0.00433060449262
0.0040380852019
0.00351386529227
0.00272432334076
0.00284523422594
0.0039752960031
0.00474366759023
0.00519117007902
0.0054316138423
0.00554398176521
0.00558295587164
0.00558645526812
0.00557879911336
0.00557251299703
0.00557248894518
0.00557873886517
0.00558637951027
0.00558288488846
0.00554393346257
0.00543159913746
0.00519117893415
0.00474368692627
0.003975338992
0.00284527570243
0.00397513713473
0.00800726069097
0.00994608880311
0.0110490600114
0.0116545820375
0.011950426429
0.0120638253822
0.0120846145366
0.0120723958966
0.0120595488472
0.0120594926212
0.0120722522881
0.0120844259488
0.0120636399831
0.0119503026386
0.0116545638402
0.0110491246629
0.00994617508226
0.00800732503447
0.00397513619864
0.00474340707164
0.00994577447051
0.0124409734317
0.0139054113097
0.0147500519302
0.0151949205013
0.0153925110409
0.0154553789977
0.0154614092086
0.015454563035
0.0154544890984
0.0154612133652
0.015455098476
0.0153921927053
0.0151946395703
0.0147498683983
0.0139053209759
0.0124409400602
0.00994577353182
0.00474337154675
0.0051907625302
0.0110483292219
0.0139050061784
0.0156176605358
0.0166331789066
0.0171873852907
0.0174465096778
0.0175396458474
0.0175611366026
0.0175597839426
0.0175597113168
0.0175609337995
0.0175393028536
0.0174460734681
0.0171869550211
0.0166328088382
0.0156173702229
0.0139047889617
0.0110481845289
0.00519068826607
0.00543105137704
0.0116535091693
0.0147493435398
0.0166329135094
0.01776648265
0.0183954725944
0.018691198432
0.0187968995442
0.0188158904623
0.0188103888896
0.0188102985883
0.0188156272287
0.0187964876245
0.0186906997511
0.0183950039148
0.0177659574783
0.0166324104448
0.0147489060327
0.0116531648192
0.00543091153673
0.0055433172837
0.0119492450717
0.0151941765623
0.0171871653816
0.0183954648071
0.0190582314935
0.0193698884745
0.0194787762138
0.0194899561164
0.0194770252397
0.0194769439471
0.0194896894907
0.0194783291857
0.0193693279786
0.019057627793
0.018394866777
0.017186480435
0.0151935330114
0.0119487003006
0.00554309604734
0.00558228062226
0.0120627627556
0.0153919922458
0.017446642651
0.0186916827822
0.019370211281
0.0196895521138
0.0197922078072
0.0197890814661
0.0197654553267
0.0197653656232
0.0197888168402
0.0197917794853
0.0196889889893
0.0193695724104
0.0186909830942
0.0174458655533
0.015391234418
0.0120620913213
0.00558199274119
0.00558580184727
0.0120836967694
0.0154550721071
0.0175400190519
0.0187977336867
0.0194792519913
0.0197921625857
0.0198786936112
0.0198577715809
0.0198231814038
0.0198230654485
0.0198574721082
0.0198782714623
0.0197916631512
0.0194786906992
0.0187971184302
0.0175393106171
0.01545434006
0.0120830167889
0.00558548696462
0.00557814546347
0.0120715090599
0.0154611344537
0.0175613094733
0.0188169120514
0.0194905788441
0.0197889348362
0.0198575091126
0.0198220538486
0.0197797922918
0.0197796726755
0.019821775551
0.0198571744378
0.0197885865339
0.0194902182503
0.0188165049298
0.017560776845
0.0154605497391
0.0120709295715
0.00557784624848
0.00557185384253
0.0120586378529
0.0154542638846
0.0175600344587
0.0188115468846
0.0194779019058
0.0197654451389
0.0198230305518
0.0197797882779
0.0197335334015
0.019733480709
0.0197796826385
0.0198229220657
0.0197653434388
0.0194778240282
0.0188114205298
0.0175597250298
0.0154539060744
0.0120582325544
0.00557160514212
0.00557189964181
0.0120586953516
0.015454243967
0.0175600363163
0.0188115054867
0.0194779208685
0.0197655749937
0.0198232354735
0.0197800171676
0.0197338006039
0.0197338404772
0.0197801369531
0.0198234047023
0.0197657599709
0.0194781414245
0.0188116771944
0.0175599648687
0.0154541357736
0.0120584932328
0.00557171718954
0.00557828641745
0.0120717187679
0.0154611287413
0.0175613508774
0.0188168568568
0.019490721804
0.0197894285767
0.0198582792553
0.0198229998723
0.019780923651
0.0197810019267
0.0198232391997
0.0198586180736
0.0197898230888
0.0194911806352
0.0188172756699
0.0175614858435
0.0154612326736
0.012071696089
0.00557816474894
0.00558606579891
0.012084172358
0.0154552129534
0.0175400043974
0.0187977957484
0.0194796628227
0.0197930736832
0.0198800522452
0.0198594798621
0.0198252334418
0.0198253281343
0.0198597547428
0.0198804570992
0.0197935735224
0.0194802607991
0.0187983813046
0.0175404109081
0.0154554473251
0.0120842476004
0.00558597728462
0.00558270055445
0.0120636452342
0.0153924825789
0.0174468718856
0.0186920570676
0.0193709785377
0.0196908705881
0.0197940271632
0.0197913370605
0.0197680816973
0.0197681806224
0.0197916004309
0.0197944303343
0.0196913998202
0.0193716094087
0.0186926485619
0.0174473154629
0.0153927079634
0.0120637081698
0.00558260633631
0.00554391127148
0.0119506525245
0.0151951976494
0.0171878907737
0.0183964093246
0.0190594290532
0.0193716322509
0.0194810470425
0.0194926872503
0.0194801491662
0.0194802496141
0.0194929622694
0.0194814444219
0.0193721362404
0.019059962538
0.0183967583077
0.0171881749905
0.0151952902943
0.0119506149821
0.00554379040319
0.00543178680207
0.0116554288432
0.0147509104138
0.0166341162434
0.017767657014
0.0183970073428
0.0186932707417
0.0187995289219
0.018818971751
0.0188138124434
0.0188139008618
0.0188192208406
0.0187999051206
0.0186937244736
0.0183973935334
0.0177679662119
0.0166342506875
0.0147508771001
0.0116552987242
0.00543165016108
0.00519155014706
0.0110505997769
0.0139070099096
0.015619306249
0.0166346736414
0.0171890739587
0.0174486634721
0.0175422725697
0.0175640006201
0.0175629333785
0.0175630324969
0.0175642745437
0.0175426787162
0.0174491320954
0.0171894932963
0.0166349461245
0.0156193950451
0.0139069477737
0.0110504562367
0.0051914253421
0.00474414339732
0.00994816243442
0.0124432452948
0.0139074125132
0.0147518723887
0.015196789146
0.0153946906677
0.0154579430567
0.0154642883272
0.0154577043177
0.0154578361573
0.0154646390914
0.0154584393016
0.0153952400157
0.0151972852621
0.0147522174563
0.0139075722965
0.0124432457692
0.00994806989057
0.00474404010787
0.00397567208886
0.00800939524145
0.00994832106149
0.0110511670936
0.011656550821
0.0119523889996
0.0120659957632
0.0120870830691
0.0120751333064
0.012062510012
0.0120626619472
0.0120755396013
0.0120876590832
0.0120666367554
0.0119529844422
0.0116570029415
0.0110514308408
0.00994840598971
0.00800935788695
0.00397559440416
0.00284526815691
0.00397590606801
0.00474441623449
0.00519188330578
0.00543225616489
0.00554458804208
0.00558361460367
0.00558722028193
0.00557967166242
0.00557347777327
0.00557353852693
0.00557982912363
0.00558743411583
0.0055838366423
0.00554477596214
0.00543237971525
0.00519193827959
0.00474442607185
0.00397590319391
0.00284525677149
0.00291422001435
0.0042239878414
0.0051355063524
0.00568352613831
0.00599105961557
0.00614514365487
0.00620770830717
0.00622341799318
0.00622166147143
0.00621782827397
0.00621780094745
0.00622159522664
0.00622333597644
0.00620763138314
0.00614509541346
0.00599105852473
0.0056835595551
0.00513555553262
0.00422407184892
0.00291427127626
0.00422377606377
0.00871396897584
0.0109311360052
0.012231764706
0.0129752724238
0.0133622987053
0.0135311296819
0.0135824624787
0.0135849232255
0.0135777385309
0.0135776803985
0.0135847799552
0.0135822793105
0.0135309547984
0.013362202447
0.0129753214465
0.0122319266846
0.010931333645
0.00871413919214
0.00422380105766
0.00513516536251
0.0109307241291
0.013769511624
0.0154822160451
0.0165080585223
0.0170788940897
0.0173573178713
0.0174668266936
0.0174947488526
0.0174958497197
0.0174957817498
0.0174945768773
0.0174665943287
0.0173570511361
0.0170786637832
0.0165079410834
0.0154821998777
0.0137695519767
0.0109307921572
0.00513513733615
0.00568301161388
0.0122308717391
0.0154817342125
0.0174803486724
0.0187091879909
0.0194172267169
0.0197819433514
0.0199406964256
0.0199879684199
0.0199934230389
0.0199933538863
0.0199877795303
0.0199404419791
0.0197815748192
0.0194168493476
0.0187088747513
0.0174801069899
0.0154815498435
0.0122307446091
0.00568292533658
0.00599039995957
0.0129740060371
0.0165072205376
0.0187088483536
0.0200863154962
0.0209029701189
0.0213339952036
0.0215204003842
0.0215712590111
0.0215735329389
0.0215734577821
0.0215710322142
0.0215200495431
0.0213335584136
0.0209025039114
0.0200858321467
0.0187083687553
0.0165067782536
0.0129736290437
0.00599022850579
0.00614439735589
0.0133609662049
0.0170780032077
0.019416862127
0.0209029237581
0.0217923097997
0.0222691440713
0.0224692269131
0.0225119807061
0.0225041842683
0.0225041108294
0.0225117360418
0.0224688129478
0.0222686192271
0.0217917330466
0.0209023057002
0.0194161723102
0.0170773238371
0.0133603465273
0.00614412706148
0.00620699999141
0.0135300374994
0.017356666409
0.0197818193508
0.0213341410255
0.0222692508749
0.0227676724982
0.0229604836483
0.0229820765964
0.0229579873255
0.0229579044106
0.0229818329884
0.0229600385121
0.0227670876411
0.0222686155923
0.0213334574757
0.0197810404499
0.0173558734086
0.0135292877117
0.00620665843021
0.00622277572878
0.0135816038394
0.0174663734318
0.0199404997113
0.0215207381203
0.0224693183312
0.0229598959511
0.0231270041183
0.0231220020589
0.0230834871497
0.0230833967945
0.0231217270191
0.0231265071697
0.0229593061538
0.0224687233483
0.0215201309037
0.0199398368359
0.0174656362593
0.0135808878415
0.00622242020722
0.00622102007594
0.0135840693981
0.0174943243886
0.0199880606133
0.021571711318
0.022512040506
0.0229810152273
0.0231212961429
0.0230979806511
0.0230504353329
0.0230502778898
0.0230976209035
0.0231208853632
0.0229805332112
0.0225115912657
0.0215712809421
0.0199875780318
0.0174937744636
0.013583523487
0.00622070501057
0.00621714509947
0.0135767287821
0.0174952603398
0.0199934542863
0.0215739506624
0.0225042976787
0.0229569836625
0.0230827877652
0.0230502546381
0.0229977725507
0.0229977259285
0.023050083345
0.0230825378814
0.0229566529929
0.0225040584799
0.0215737538692
0.0199932357724
0.0174949872555
0.0135764326093
0.00621690594593
0.00621715371872
0.013576668166
0.017495110524
0.0199932940807
0.0215738263431
0.0225042423238
0.0229570202896
0.0230828633203
0.0230502177142
0.0229978158857
0.0229978355632
0.0230503137531
0.0230828800362
0.0229569067181
0.0225042334705
0.0215738845902
0.0199933540106
0.0174951288186
0.0135766393928
0.00621700300351
0.00622105892737
0.0135839520048
0.0174939581712
0.0199876684303
0.0215713953572
0.0225119405982
0.0229812300912
0.0231217720097
0.0230984610557
0.0230511095603
0.0230511477965
0.0230986343153
0.0231219565742
0.0229813581258
0.022512154693
0.0215716849846
0.0199879520536
0.0174942130499
0.0135841439835
0.00622098566745
0.00622289721983
0.0135816177823
0.0174660411623
0.0199402090835
0.0215204000883
0.0224693006455
0.022960355942
0.0231277750522
0.0231231399068
0.0230849843177
0.0230850734933
0.0231233721374
0.0231280458948
0.0229606566059
0.0224696810366
0.021520837617
0.0199405268063
0.0174663910574
0.0135819031491
0.00622285869388
0.00620728033727
0.0135304319841
0.0173566226761
0.0197814721101
0.0213339242258
0.0222693855796
0.0227683107081
0.0229614638434
0.0229834006817
0.0229597030255
0.0229598103721
0.0229836560092
0.0229618007507
0.0227687195367
0.0222698741841
0.0213344317422
0.0197819404734
0.0173569424571
0.0135306636139
0.00620722435134
0.00614490825155
0.013361998263
0.0170785561269
0.0194170072316
0.0209030779007
0.0217927180061
0.0222699862042
0.0224704876595
0.0225136272637
0.0225061697962
0.0225062770114
0.022513916308
0.022470888247
0.0222704613493
0.0217932265085
0.0209035250954
0.0194173331363
0.0170787099811
0.0133620612701
0.0061448020635
0.00599113574801
0.0129757482259
0.0165084872255
0.018709621769
0.0200869152026
0.0209037429618
0.0213351365183
0.0215219828673
0.0215732522015
0.0215758032169
0.0215759110108
0.0215735592259
0.0215224316637
0.0213356518946
0.0209042334167
0.0200872738673
0.0187097814432
0.0165084919336
0.0129756657731
0.00599099801555
0.00568388569991
0.0122331706112
0.0154836327409
0.017481760819
0.0187103136361
0.0194184135776
0.0197834893059
0.019942590418
0.0199903211015
0.0199960669216
0.0199961960883
0.0199906758383
0.0199430973094
0.0197840617887
0.0194189305469
0.0187106511516
0.0174818998011
0.0154836183708
0.0122330606926
0.00568375511771
0.00513604689514
0.0109333427664
0.0137718970745
0.015484207667
0.0165097615299
0.0170805628471
0.0173592905766
0.0174692058956
0.0174974929985
0.0174988748328
0.0174990488004
0.0174979485914
0.0174698446693
0.0173599941036
0.0170812093319
0.0165102361705
0.0154844750305
0.0137719798377
0.0109333015649
0.00513594592183
0.00422447076533
0.00871648913194
0.0109336942753
0.0122341002359
0.0129773878805
0.0133643848081
0.0135335118083
0.0135852606058
0.0135880791024
0.0135811664828
0.0135813671914
0.0135886091047
0.0135860096997
0.0135343515891
0.013365189
0.0129780321828
0.0122345252037
0.0109339035
0.00871653649955
0.00422440107851
0.00291422788889
0.00422475522339
0.00513642627174
0.00568439273419
0.00599183170427
0.00614587358965
0.00620852937526
0.00622439874006
0.00622278785067
0.00621906431135
0.0062191398037
0.00622298319923
0.00622466850215
0.00620881899784
0.00614613536156
0.00599202189236
0.00568450135691
0.00513647821335
0.00422477946865
0.00291422069797
0.00295747640829
0.00436980484726
0.00537274723512
0.00599046001642
0.00634789902243
0.0065357536719
0.00662008646393
0.00664959046185
0.00665640280061
0.00665686955756
0.00665684213316
0.00665633970881
0.00664951681712
0.00662002049859
0.00653572109163
0.00634792609394
0.00599053366771
0.00537285318328
0.00436994145285
0.00295753609763
0.0043695958051
0.00914077497461
0.0115571734324
0.0130089423975
0.0138629825198
0.0143270620661
0.0145465431248
0.0146290931797
0.0146491612068
0.0146498861882
0.0146498263224
0.0146490225971
0.0146289248817
0.0145463851049
0.0143269891568
0.0138630887881
0.0130091921488
0.0115574767881
0.00914105987459
0.00436966927291
0.00537236651889
0.0115566851504
0.0146642734899
0.016581812719
0.0177606736354
0.0184412538108
0.0187951574889
0.0189504058907
0.0189995930946
0.0190079839349
0.0190079141326
0.018999427956
0.0189501887151
0.0187949162943
0.0184410467231
0.0177606061813
0.0165818663953
0.0146643924309
0.0115568235289
0.00537237756511
0.00598986726751
0.0130079656122
0.0165813134632
0.0188233964673
0.0202412242114
0.0210944824442
0.021559944413
0.0217728428906
0.0218382882332
0.021847080079
0.0218470032125
0.0218380730051
0.0217725254212
0.0215595566029
0.0210940780992
0.0202409333209
0.018823192348
0.0165811661382
0.0130078668601
0.00598979420943
0.00634722426509
0.0138617087075
0.0177598638591
0.0202408840996
0.0218445694699
0.0228382124953
0.023387770877
0.0236292452576
0.0236899689682
0.0236878933312
0.0236878106983
0.0236897176822
0.0236288447698
0.0233872602508
0.0228376693448
0.0218440714317
0.020240405507
0.0177594174566
0.0138613196733
0.00634705509919
0.00653505529153
0.0143258544806
0.0184404629075
0.0210940638318
0.0228380937788
0.0239266509917
0.0245190363035
0.0247532447418
0.0247847385669
0.0247595438456
0.0247594555711
0.0247844750375
0.0247527820098
0.0245184163231
0.0239259751067
0.0228374066235
0.0210933395302
0.0184397476405
0.0143251925752
0.00653477880137
0.00661949929587
0.0145457388711
0.018794659055
0.0215596751213
0.0233877374802
0.0245190464525
0.0251033633819
0.0252945037753
0.0252763594237
0.0252207729306
0.0252207027644
0.025276134336
0.0252940379497
0.0251027038707
0.0245183225678
0.0233869811759
0.0215588746562
0.0187938481405
0.0145449586529
0.0066191527771
0.00664911536295
0.0146286098698
0.0189501106929
0.0217727851721
0.0236293691493
0.0247531742171
0.0252936623001
0.0254225524434
0.0253522480204
0.0252708164998
0.0252707624828
0.025352040884
0.025422108061
0.0252930693761
0.0247525571788
0.0236287009542
0.021772081167
0.0189493918639
0.0146279153734
0.00664876855364
0.00665591533195
0.0146486089412
0.0189991613671
0.0218381575885
0.0236899829953
0.0247844163245
0.0252746895774
0.0253511213727
0.0252465436701
0.0251495505526
0.0251494401422
0.0252462660566
0.0253507739998
0.0252742091631
0.0247839053094
0.0236894847995
0.0218376649654
0.01899867568
0.0146481557989
0.00665562762972
0.00665627673637
0.0146489893522
0.0190071781221
0.021846602062
0.0236875402559