/*--------------------------------*- C++ -*----------------------------------*\
| =========                 |                                                 |
| \\      /  F ield         | OpenFOAM: The Open Source CFD Toolbox           |
|  \\    /   O peration     | Version:  3.0.1                                 |
|   \\  /    A nd           | Web:      www.OpenFOAM.org                      |
|    \\/     M anipulation  |                                                 |
\*---------------------------------------------------------------------------*/
FoamFile
{
    version     2.0;
    format      ascii;
    class       volScalarField;
    location    "2.1";
    object      p;
}
// * * * * * * * * * * * * * * * * * * * * * * * * * * * * * * * * * * * * * //

dimensions      [1 -1 -2 0 0 0 0];

internalField   nonuniform List<scalar> 
7968
(
5116.01247406
5116.08238032
5116.15039735
5116.22995009
5116.31585673
5116.40451583
5116.49379178
5116.57541681
5116.63806844
5116.67220929
5116.67221209
5116.63811323
5116.57557699
5116.49417201
5116.40521354
5116.31695276
5116.23147203
5116.15229674
5116.08449234
5116.0145193
5116.08251499
5116.19887324
5116.28389249
5116.36672462
5116.44424946
5116.51913731
5116.59211986
5116.65996394
5116.71307019
5116.74224315
5116.74216775
5116.71287763
5116.65975257
5116.59202746
5116.51930805
5116.44481941
5116.36776403
5116.28537116
5116.20061076
5116.08420265
5116.15057616
5116.28396716
5116.36054851
5116.41789498
5116.45497344
5116.48208929
5116.5081693
5116.53610178
5116.5607424
5116.57510869
5116.57490946
5116.56019058
5116.53532358
5116.50735232
5116.48144477
5116.45469369
5116.41810264
5116.36124635
5116.28498515
5116.15156994
5116.23026699
5116.36699335
5116.41813825
5116.42627413
5116.3970809
5116.35200042
5116.3109186
5116.28371258
5116.2697777
5116.26429072
5116.26397801
5116.26889158
5116.2823929
5116.30939007
5116.35051919
5116.39589143
5116.42554268
5116.41789938
5116.36709213
5116.23036971
5116.31646184
5116.44491577
5116.45575005
5116.39771873
5116.28776968
5116.16052015
5116.04688705
5115.96236169
5115.90900201
5115.88312555
5115.88272466
5115.9078744
5115.96065967
5116.04483497
5116.15837275
5116.28579008
5116.39610047
5116.45455951
5116.44403663
5116.31560277
5116.40561555
5116.52042465
5116.48371875
5116.35371847
5116.16173652
5115.95548568
5115.77478046
5115.63915786
5115.5518081
5115.50866624
5115.50819526
5115.55050842
5115.63721513
5115.77240258
5115.95291234
5116.15918702
5116.35138419
5116.48168886
5116.51863195
5116.40385197
5116.49554252
5116.59423925
5116.5109129
5116.31403588
5116.04970571
5115.77649842
5115.54084962
5115.36595316
5115.25388789
5115.19844051
5115.19793548
5115.25250221
5115.36388285
5115.53829715
5115.77368618
5116.04681607
5116.31120129
5116.50823167
5116.59169383
5116.49300916
5116.57797593
5116.66306024
5116.5401
5116.28835128
5115.96689018
5115.64271178
5115.36786683
5115.17044021
5115.04770585
5114.98726038
5114.98675428
5115.04626228
5115.16822496
5115.36516411
5115.63973853
5115.96378201
5116.28518118
5116.53694672
5116.65993653
5116.57484893
5116.64163761
5116.71730693
5116.56611423
5116.27599294
5115.91525704
5115.55708141
5115.25738029
5115.04955541
5114.92278048
5114.85991707
5114.85939847
5114.92126039
5115.04719631
5115.25447499
5115.55392946
5115.91195821
5116.27256377
5116.56259977
5116.71373125
5116.63804847
5116.67710146
5116.74787768
5116.58201479
5116.27220364
5115.89120282
5115.51576325
5115.20376736
5114.99104543
5114.86193214
5114.79761286
5114.79703969
5114.86026816
5114.9884775
5115.20060297
5115.51237244
5115.88767343
5116.26851101
5116.57816667
5116.74389772
5116.67310325
5116.67885381
5116.74953899
5116.58359762
5116.27372635
5115.89269413
5115.51723294
5115.20515476
5114.99231014
5114.86309129
5114.79872554
5114.79808273
5114.86125399
5114.98948878
5115.20170101
5115.51354268
5115.88885127
5116.26969107
5116.57936446
5116.74514828
5116.67442559
5116.64699492
5116.72242755
5116.57096643
5116.28063923
5115.91977328
5115.56150086
5115.26159598
5115.05344635
5114.92637046
5114.86330629
5114.86260956
5114.92437243
5115.05039071
5115.25788184
5115.5574621
5115.91551721
5116.27614713
5116.56624899
5116.71752614
5116.64205074
5116.58713722
5116.67184604
5116.54844058
5116.29626251
5115.97446224
5115.64998858
5115.3747699
5115.17682214
5115.05356118
5114.99272124
5114.99197953
5115.05143857
5115.17356432
5115.37078355
5115.64554298
5115.96970699
5116.29121781
5116.54314193
5116.66636702
5116.58160853
5116.50873867
5116.60694388
5116.52299749
5116.32542434
5116.06044589
5115.78663469
5115.55037583
5115.37477103
5115.26193855
5115.20589937
5115.20511532
5115.25970552
5115.37132161
5115.54602955
5115.78171069
5116.05511951
5116.31976427
5116.5170819
5116.60087689
5116.50262286
5116.42297227
5116.53720946
5116.49972389
5116.36875596
5116.17577896
5115.96854581
5115.78687314
5115.65028484
5115.56203519
5115.51819827
5115.51735883
5115.55962415
5115.64655473
5115.78213807
5115.96310849
5116.16985725
5116.36249261
5116.49324401
5116.53063509
5116.41635805
5116.3378677
5116.4656797
5116.47561598
5116.41637423
5116.30506658
5116.17643131
5116.06141703
5115.97557669
5115.92106925
5115.89433009
5115.89344134
5115.91849169
5115.97155431
5116.05627949
5116.17049928
5116.29861781
5116.40961221
5116.4687218
5116.45877071
5116.33093206
5116.25526116
5116.39134361
5116.44149917
5116.44821526
5116.41731912
5116.37042712
5116.32754768
5116.2986434
5116.28322758
5116.27662163
5116.27568302
5116.28049358
5116.29436075
5116.32206717
5116.36410967
5116.41048881
5116.44114763
5116.43440643
5116.3843134
5116.24820529
5116.17844919
5116.31119778
5116.3867217
5116.44248404
5116.47758853
5116.50253375
5116.5264208
5116.55227302
5116.57511902
5116.58812702
5116.58715058
5116.57227723
5116.54782126
5116.52072664
5116.49599646
5116.47058108
5116.43532607
5116.37962525
5116.30421005
5116.1714058
5116.11232376
5116.22802044
5116.31192759
5116.39306249
5116.46842757
5116.54088595
5116.61137204
5116.67683053
5116.72786738
5116.75547474
5116.75448352
5116.72498271
5116.67231231
5116.60559983
5116.53428691
5116.46140375
5116.3859478
5116.30491645
5116.22111158
5116.10527799
5116.04323731
5116.11249169
5116.17935633
5116.25713032
5116.34075781
5116.42683232
5116.513417
5116.59246905
5116.65289083
5116.68534247
5116.68435175
5116.65001198
5116.58795823
5116.50764593
5116.4202262
5116.33373986
5116.25000303
5116.17228792
5116.10543656
5116.03594907
4626.24943015
4626.30529092
4626.37241621
4626.46077589
4626.56670886
4626.68272205
4626.80025038
4626.9076644
4626.98971914
4627.03411402
4627.03403328
4626.98950765
4626.90741212
4626.80008867
4626.68281238
4626.56718466
4626.46169703
4626.37374177
4626.30683964
4626.25091388
4626.30551914
4626.40440642
4626.48289737
4626.57466984
4626.68370558
4626.80191045
4626.91943726
4627.02570782
4627.10611497
4627.14917038
4627.14902498
4627.10572163
4627.02516353
4626.91889962
4626.80156335
4626.68371309
4626.57514215
4626.48382976
4626.40560792
4626.30667257
4626.37286238
4626.48321114
4626.54200823
4626.60199052
4626.67444191
4626.75434811
4626.8353668
4626.90970527
4626.9663053
4626.9964508
4626.99621731
4626.96565011
4626.9087414
4626.83428767
4626.75336549
4626.67376512
4626.60175762
4626.54224439
4626.48374459
4626.37336729
4626.46160385
4626.57549872
4626.60256963
4626.61083205
4626.6236258
4626.64307097
4626.66877078
4626.69647204
4626.71874422
4626.73035454
4626.73004824
4626.71786862
4626.69513661
4626.6671942
4626.64148578
4626.62225633
4626.60983021
4626.60198665
4626.5752002
4626.4612893
4626.56813788
4626.68529357
4626.6759173
4626.62460628
4626.57107594
4626.52674321
4626.49764454
4626.48092446
4626.47181429
4626.46647673
4626.46611847
4626.47080081
4626.47936237
4626.49573453
4626.52471203
4626.56914343
4626.6229122
4626.67453578
4626.68413927
4626.56696144
4626.68497011
4626.80446419
4626.75699636
4626.64539303
4626.52819944
4626.42757237
4626.35088254
4626.2982496
4626.26441593
4626.24541922
4626.24498089
4626.26324403
4626.29650997
4626.34874437
4626.42525039
4626.52584099
4626.64314046
4626.75492562
4626.80253594
4626.68300961
4626.80349891
4626.9231471
4626.83939432
4626.67267332
4626.50080784
4626.35279581
4626.23890436
4626.15938947
4626.10766707
4626.07811003
4626.07761682
4626.10637851
4626.15757596
4626.23662847
4626.35026516
4626.49817466
4626.67002439
4626.83680137
4626.92060439
4626.80090707
4626.91203477
4627.03068447
4626.91521648
4626.70203312
4626.4857462
4626.30206826
4626.16203777
4626.06033146
4625.99059629
4625.95216412
4625.95169081
4625.9892334
4626.05826478
4626.15953226
4626.29930619
4626.48286907
4626.69908481
4626.91223472
4627.02768236
4626.9089828
4626.99535689
4627.11248234
4626.97342123
4626.72612185
4626.47840892
4626.26984601
4626.11110525
4625.99247749
4625.91410962
4625.87205487
4625.87157003
4625.91262926
4625.99008234
4626.10814557
4626.26674018
4626.47523646
4626.7228755
4626.97010231
4627.10911058
4626.99195545
4627.04124742
4627.15711238
4627.00529026
4626.73954994
4626.47502584
4626.25262585
4626.08322978
4625.95599033
4625.87425538
4625.83065894
4625.83001628
4625.87248193
4625.95323305
4626.07981978
4626.24905743
4626.47145613
4626.73595136
4627.00160967
4627.15337748
4627.03750965
4627.04296569
4627.15880931
4627.00695541
4626.74117261
4626.47668112
4626.25426744
4626.0847749
4625.95739065
4625.87559745
4625.83192549
4625.83120093
4625.87352829
4625.95423259
4626.0809135
4626.25021564
4626.47262419
4626.73713053
4627.00282403
4627.15464134
4627.03884148
4627.00066607
4627.11768224
4626.97850749
4626.73108646
4626.48336648
4626.27473074
4626.1157143
4625.99672965
4625.91808894
4625.87582103
4625.87504805
4625.91584823
4625.99326816
4626.11145959
4626.27019498
4626.47875379
4626.72645095
4626.97380598
4627.11297195
4626.99601386
4626.92118618
4627.03962931
4626.92394162
4626.71046706
4626.49392607
4626.30982128
4626.16916249
4626.06709186
4625.9967443
4625.9578668
4625.95703997
4625.99439141
4626.06346805
4626.16467385
4626.30484432
4626.48871835
4626.70515864
4626.91856879
4627.03427592
4626.91589759
4626.81680434
4626.93613572
4626.85202364
4626.68475119
4626.51223651
4626.36339698
4626.2486228
4626.16828564
4626.11562696
4626.0854097
4626.08453835
4626.11316765
4626.16445342
4626.24373531
4626.35793602
4626.50643914
4626.67875565
4626.84595414
4626.93011283
4626.81084173
4626.70264555
4626.82171283
4626.77374554
4626.66131937
4626.54302714
4626.44118083
4626.36320705
4626.30929886
4626.27436597
4626.25446829
4626.25354371
4626.27171557
4626.30522968
4626.35802422
4626.43525247
4626.53667491
4626.65468297
4626.7670407
4626.81508348
4626.69606788
4626.59010313
4626.70674757
4626.69676049
4626.64440336
4626.58946098
4626.54341897
4626.51262644
4626.49421612
4626.48369802
4626.47732394
4626.47636774
4626.48092567
4626.48988136
4626.50707537
4626.53704176
4626.5825357
4626.63722047
4626.68955994
4626.69967041
4626.58306997
4626.48742912
4626.60077791
4626.6271209
4626.63411276
4626.64515285
4626.66253869
4626.68613986
4626.71184652
4626.7324791
4626.74277316
4626.74176166
4626.72953218
4626.70722825
4626.68021863
4626.65571695
4626.63779933
4626.62656508
4626.61963325
4626.59346485
4626.48014437
4626.40177019
4626.51155886
4626.56948962
4626.62798185
4626.6984128
4626.7759832
4626.85458929
4626.92663395
4626.98127919
4627.00996272
4627.00890514
4626.97819674
4626.92180439
4626.8484133
4626.76890067
4626.69084092
4626.62028662
4626.56191738
4626.50418446
4626.39438626
4626.33646614
4626.43474115
4626.51219963
4626.6022798
4626.70908675
4626.82474478
4626.93964561
4627.04341374
4627.12167272
4627.16311916
4627.16205318
4627.11856788
4627.03855008
4626.93343062
4626.81763976
4626.70152553
4626.59463555
4626.50469204
4626.42739859
4626.3290312
4626.28134068
4626.33656293
4626.40253733
4626.48907351
4626.59263228
4626.70595337
4626.82070945
4626.92549932
4627.00531242
4627.04803367
4627.04699581
4627.00228637
4626.92075308
4626.81462882
4626.6989825
4626.58519591
4626.48149912
4626.39501442
4626.3290791
4626.27366518
4136.42401446
4136.49349677
4136.59079807
4136.72461642
4136.88953914
4137.07163119
4137.2542754
4137.41868399
4137.54311721
4137.61000205
4137.60978453
4137.54250531
4137.41780031
4137.25330041
4137.0707995
4136.88905059
4136.72457616
4136.59118953
4136.49414116
4136.4246309
4136.49388272
4136.62617442
4136.74389469
4136.88490364
4137.0600307
4137.25293376
4137.44406026
4137.61348779
4137.73982927
4137.80690368
4137.80665308
4137.73912345
4137.61245328
4137.44288703
4137.25183163
4137.05921032
4136.88451176
4136.74396149
4136.62652862
4136.49423113
4136.59170839
4136.74457774
4136.83865172
4136.93383488
4137.05929966
4137.2034081
4137.34957625
4137.4812349
4137.58102919
4137.6343191
4137.63401838
4137.58018278
4137.47994882
4137.34805159
4137.20188913
4137.05803707
4136.93296513
4136.83820013
4136.74438219
4136.59150214
4136.72633112
4136.8866162
4136.9349769
4136.95202286
4136.99087508
4137.05026643
4137.12090567
4137.19194353
4137.25136281
4137.28416702
4137.28384327
4137.2504537
4137.19045045
4137.11910223
4137.04838947
4136.98919878
4136.95064227
4136.93391603
4136.88574346
4136.72543394
4136.89242472
4137.06312513
4137.06201427
4136.99254152
4136.9332016
4136.89405569
4136.68338377
4136.34147353
4136.2067871
4136.2195093
4136.21922501
4136.20599762
4136.34013016
4136.6816116
4136.89211721
4136.93125934
4136.99070907
4137.06036598
4137.06158762
4136.8908323
4137.07594425
4137.25761116
4137.20800395
4137.05409568
4136.89642307
4136.21137956
4134.47845399
4132.79048156
4132.22133124
4132.21717902
4132.21714081
4132.22121821
4132.79009742
4134.47752414
4136.2096784
4136.89425439
4137.0518532
4137.20585121
4137.2555045
4137.07376252
4137.26018554
4137.45045867
4137.35624688
4137.12730627
4136.68867371
4134.48163812
4130.27584665
4126.9665241
4125.95525742
4125.92781825
4125.9278971
4125.95577889
4126.96672416
4130.275639
4134.4805829
4136.68652996
4137.12479983
4137.35375138
4137.4479423
4137.25759034
4137.4262173
4137.62164061
4137.48991295
4137.20079147
4136.34979572
4132.79627271
4126.96427002
4122.75951828
4121.5069263
4121.48490424
4121.48513256
4121.50740662
4122.75919602
4126.96388418
4132.79539631
4136.34777705
4137.19814833
4137.48718996
4137.61884456
4137.42337303
4137.55228475
4137.74972314
4137.59160349
4137.26231051
4136.2176845
4132.22924578
4125.95371255
4121.50619576
4120.22611482
4120.21782906
4120.21698934
4120.22473754
4121.50603069
4125.95342949
4132.22833901
4136.21549847
4137.25949949
4137.5886574
4137.74669529
4137.54926805
4137.62086484
4137.81856192
4137.64666393
4137.29668945
4136.23198726
4132.227091
4125.9295022
4121.48775498
4120.21977715
4120.20711989
4120.20709717
4120.2189088
4121.48714699
4125.9287382
4132.22606333
4136.22950401
4137.2935839
4137.64341323
4137.81526024
4137.6176455
4137.62250511
4137.82020608
4137.64823751
4137.29818727
4136.23343168
4132.22844363
4125.93075881
4121.48855025
4120.21864702
4120.20676323
4120.20631927
4120.21858119
4121.48824743
4125.9296941
4132.22725675
4136.23059829
4137.29459722
4137.64452927
4137.81649452
4137.61895466
4137.55738275
4137.75477945
4137.59642382
4137.26673718
4136.2220149
4132.23335432
4125.95794145
4121.51070532
4120.22829944
4120.22031093
4120.21947337
4120.22733684
4121.50996941
4125.95723459
4132.23215803
4136.21871383
4137.26257817
4137.59212458
4137.75049863
4137.55331002
4137.435173
4137.63049771
4137.49838448
4137.20848742
4136.35750658
4132.804034
4126.97280313
4122.76693867
4121.51493501
4121.49311831
4121.49255979
4121.51353692
4122.76525782
4126.97173548
4132.80217805
4136.3534149
4137.20362314
4137.49330675
4137.62547203
4137.43039038
4137.27349016
4137.46358759
4137.36884948
4137.13891047
4136.70002522
4134.49332578
4130.2888331
4126.97847165
4125.9662211
4125.93850225
4125.93781649
4125.9641009
4126.97584165
4130.28637108
4134.48986016
4136.69482412
4137.13315317
4137.36289633
4137.45773008
4137.26788381
4137.09402228
4137.2753913
4137.22524821
4137.07030097
4136.91157702
4136.22608628
4134.49376025
4132.8059381
4132.23581489
4132.23064121
4132.22969487
4132.23308809
4132.80216592
4134.4894368
4136.22068665
4136.90525323
4137.06356843
4137.21840179
4137.26871792
4137.08758091
4136.91533704
4137.08562992
4137.08398057
4137.01334601
4136.95249654
4136.9116454
4136.69967154
4136.35669737
4136.22103559
4136.23257188
4136.23154284
4136.21810667
4136.35229744
4136.69414405
4136.9050291
4136.94519235
4137.00566583
4137.07634302
4137.07826101
4136.90817888
4136.75367257
4136.91347246
4136.96122365
4136.97691994
4137.01377821
4137.07085904
4137.13927623
4137.20827625
4137.26599868
4137.29731233
4137.29622579
4137.26284545
4137.20334473
4137.13295182
4137.06347316
4137.00569389
4136.96860882
4136.95305015
4136.90562006
4136.74599972
4136.62259849
4136.77492565
4136.86820343
4136.96182379
4137.08502222
4137.22645681
4137.36991428
4137.49904632
4137.59666037
4137.64832667
4137.64718794
4137.59330359
4137.49376124
4137.36312582
4137.21863076
4137.07658699
4136.95323129
4136.85978085
4136.76682068
4136.6146232
4136.5271164
4136.65877375
4136.77540353
4136.91456806
4137.08721678
4137.27726368
4137.46547899
4137.6321834
4137.75622101
4137.82161802
4137.82046936
4137.75285546
4137.62688663
4137.45867938
4137.26943518
4137.07881526
4136.9060256
4136.76700382
4136.6506138
4136.51898089
4136.45835672
4136.5271934
4136.62323144
4136.75502447
4136.91730832
4137.09642851
4137.27608123
4137.43773758
4137.55986307
4137.62508008
4137.62398605
4137.55665656
4137.43267816
4137.26955359
4137.08889722
4136.90920094
4136.74669841
4136.61491327
4136.51893287
4136.44998869
3646.47162768
3646.5745892
3646.73782546
3646.96504894
3647.24231365
3647.54425815
3647.84251564
3648.10642342
3648.3040694
3648.4096902
3648.40934875
3648.30309055
3648.10497161
3647.84081596
3647.54257986
3647.24089297
3646.9640247
3646.73719773
3646.57419984
3646.47124395
3646.5751836
3646.75948138
3646.9531989
3647.19220896
3647.48424413
3647.8010246
3648.11030765
3648.37975823
3648.578621
3648.68363721
3648.68330537
3648.57767351
3648.37836138
3648.10866664
3647.79932597
3647.48271496
3647.19100468
3646.95237836
3646.7589054
3646.57462625
3646.73933647
3646.95430172
3647.11787858
3647.28888094
3647.50135096
3647.73743443
3647.97236649
3648.18266022
3648.3433167
3648.42971396
3648.42934337
3648.34229272
3648.18114169
3647.97047631
3647.73547254
3647.49963969
3647.2874766
3647.1167777
3646.95334974
3646.73836738
3646.96791444
3647.19493876
3647.29067729
3647.34077748
3647.41277103
3647.15860094
3646.16938685
3645.18427646
3644.93782336
3644.99925882
3644.99902855
3644.9373221
3645.18344528
3646.16771806
3647.15647976
3647.41086762
3647.33913779
3647.28921664
3647.19352053
3646.96643026
3647.24699777
3647.48908326
3647.5054986
3647.4152509
3646.51494734
3643.25261303
3638.01587133
3633.96531973
3632.76461583
3632.79932553
3632.79971853
3632.76597258
3633.96729115
3638.01739869
3643.25264994
3646.5137035
3647.41337104
3647.50368506
3647.48723766
3647.24502303
3647.55106557
3647.80813802
3647.74432057
3647.16438636
3643.25738703
3633.73034528
3621.8253302
3613.65724039
3611.30884406
3611.30990002
3611.31054925
3611.3116878
3613.6617057
3621.83013379
3633.73373736
3643.25764818
3647.1624218
3647.74214946
3647.80595553
3647.5487266
3647.8515588
3648.11971815
3647.98224924
3646.17995008
3638.02687295
3621.83227765
3603.61864982
3591.86003364
3588.56725306
3588.56336844
3588.56472349
3588.57162359
3591.86684539
3603.62629021
3621.8386548
3638.02922197
3646.17851754
3647.97990769
3648.11734669
3647.84904172
3648.11760591
3648.39139374
3648.19516926
3645.19938084
3633.98266122
3613.67147011
3591.86430133
3578.22261381
3574.43264985
3574.41777551
3574.41941637
3574.43780094
3578.231286
3591.87426991
3613.68027954
3633.98648582
3645.19850389
3648.19281131
3648.38892342
3648.11505666
3648.317217
3648.59228721
3648.35786844
3644.9553372
3632.78490142
3611.32808642
3588.57680562
3574.43730983
3570.49695128
3570.4650514
3570.46689057
3570.50254829
3574.44625045
3588.5875097
3611.33690886
3632.78963801
3644.95496034
3648.35547739
3648.58972319
3648.31468512
3648.42465623
3648.69914883
3648.44563375
3645.0174834
3632.81865265
3611.32654134
3588.5744919
3574.4232174
3570.46599536
3570.42781775
3570.42955335
3570.47135006
3574.43215029
3588.58562969
3611.33506895
3632.82415455
3645.01753827
3648.44308829
3648.69642374
3648.42207719
3648.42613857
3648.70063673
3648.44684807
3645.01831718
3632.81933013
3611.32667925
3588.57504335
3574.42423554
3570.46785718
3570.42909981
3570.43049743
3570.47211525
3574.43276336
3588.58639174
3611.33568397
3632.82552359
3645.01855994
3648.44393601
3648.69754563
3648.42331056
3648.32187546
3648.59690374
3648.36166779
3644.9578133
3632.7866515
3611.32871417
3588.57850307
3574.43924826
3570.4995188
3570.46710587
3570.46845053
3570.50369569
3574.44733551
3588.58952752
3611.3388042
3632.79375183
3644.95821119
3648.35832769
3648.59322722
3648.31854189
3648.12612223
3648.39985213
3648.20252744
3645.20515508
3633.98843192
3613.67764869
3591.87049863
3578.22819337
3574.43759177
3574.42172659
3574.42277192
3574.4409819
3578.23509505
3591.88019942
3613.68712522
3633.99463462
3645.20447165
3648.19826743
3648.39533355
3648.12201172
3647.86474391
3648.13279092
3647.9940299
3646.1906098
3638.03878959
3621.84651363
3603.63286115
3591.87237813
3588.57868726
3588.57358815
3588.57400121
3588.58009449
3591.87614782
3603.63923048
3621.85237131
3638.04147849
3646.1874641
3647.98868643
3648.12727827
3647.85965921
3647.56965961
3647.82648814
3647.76157273
3647.18003505
3643.27471747
3633.75100005
3621.84755511
3613.67870636
3611.32924093
3611.32752193
3611.32709116
3611.32778044
3613.67798905
3621.84896359
3633.75193843
3643.27250287
3647.17410394
3647.75495165
3647.81993893
3647.56349692
3647.27128454
3647.51298798
3647.5285465
3647.43628919
3646.53571666
3643.27541114
3638.04142409
3633.9922598
3632.79035501
3632.82216117
3632.8211244
3632.78730849
3633.98851835
3638.03795492
3643.27108643
3646.52917018
3647.42843391
3647.5206827
3647.50544575
3647.26408939
3646.99754619
3647.22405881
3647.31901231
3647.36724714
3647.436411
3647.1798361
3646.19049265
3645.20548283
3644.95744294
3645.01690468
3645.01575248
3644.95385794
3645.20030136
3646.18455723
3647.17260346
3647.42785591
3647.35830836
3647.31028562
3647.2157235
3646.98950859
3646.77333177
3646.98765884
3647.15026045
3647.31930658
3647.52888086
3647.76158159
3647.99332207
3648.20075212
3648.35863537
3648.44298426
3648.44186606
3648.35514378
3648.19516655
3647.98618652
3647.75329469
3647.51978265
3647.30996108
3647.14106991
3646.97880837
3646.76470672
3646.61210753
3646.79561668
3646.9879562
3647.22469361
3647.51369689
3647.82695928
3648.13269629
3648.39893558
3648.59514792
3648.69833211
3648.69715495
3648.59166403
3648.39341076
3648.12554275
3647.81862146
3647.50461056
3647.2153401
3646.97866312
3646.78654418
3646.60313456
3646.50997089
3646.61216
3646.77379501
3646.9985026
3647.2725503
3647.57092233
3647.86566513
3648.12644211
3648.32156285
3648.42546838
3648.42435918
3648.31830187
3648.121248
3647.85889224
3647.56300573
3647.26388386
3646.98945783
3646.76462065
3646.60297868
3646.50073074
3156.32718544
3156.4896495
3156.77378022
3157.16705642
3157.63730953
3158.14009986
3158.62879189
3159.05474066
3159.37089369
3159.5391338
3159.53872334
3159.36966994
3159.05293612
3158.62666947
3158.13788737
3157.6352271
3157.1652631
3156.7723019
3156.48835158
3156.32593423
3156.49045422
3156.73429789
3157.04502567
3157.4450047
3157.92328693
3158.42955718
3158.91395097
3159.33008729
3159.6351368
3159.79593553
3159.79557479
3159.63401902
3159.32847323
3158.91200813
3158.42747571
3157.92128673
3157.44320447
3157.04349336
3156.73291777
3156.48910226
3156.77590419
3157.04657646
3157.29619605
3157.58607241
3157.93782188
3157.97219748
3157.24653797
3156.47577463
3156.3786698
3156.51668493
3156.51653669
3156.37829226
3156.47518641
3157.24511767
3157.97011751
3157.93595596
3157.58434907
3157.29460197
3157.04499234
3156.7742722
3157.17108996
3157.44879071
3157.58848449
3157.67169074
3156.35499492
3151.81594828
3144.99497528
3139.89620721
3138.51287315
3138.62217577
3138.62269008
3138.5144572
3139.8986701
3144.99697792
3151.81621244
3156.35426525
3157.67004449
3157.5867398
3157.44690597
3157.16908023
3157.64373742
3157.92983329
3157.94318807
3156.35758188
3148.50980171
3132.62057921
3114.6305533
3103.0047484
3099.84318834
3099.92385853
3099.9246046
3099.84708448
3103.01103577
3114.63700263
3132.62675688
3148.51409617
3156.35736296
3157.94128877
3157.92769077
3157.64139622
3158.1492158
3158.43899666
3157.980742
3151.82384383
3132.62793586
3102.65385284
3073.49351121
3056.00894672
3051.31232215
3051.37500979
3051.37744536
3051.32023672
3056.02200878
3073.50874415
3102.66707144
3132.63540512
3151.82494406
3157.97886722
3158.43667019
3158.14668641
3158.64058651
3158.92612397
3157.25897035
3145.01082574
3114.65349023
3073.50402291
3036.29530412
3014.67094125
3008.90195834
3008.9553418
3008.95917906
3008.91341902
3014.69049015
3036.31889593
3073.52443984
3114.66499353
3145.01429683
3157.25797201
3158.92378389
3158.63805127
3159.06901092
3159.34467207
3156.49220433
3139.91997417
3103.02840384
3056.02382461
3014.68223487
2990.94569961
2984.6150233
2984.62108654
2984.62548468
2984.62858292
2990.96913751
3014.71070761
3056.04928626
3103.04463339
3139.92605429
3156.49184573
3159.34237325
3159.06659766
3159.38728159
3159.65179294
3156.39700932
3138.53898275
3099.86869929
3051.32948518
3008.91927962
2984.62210338
2978.08071954
2978.03705307
2978.04268524
2978.09658111
2984.6463207
3008.94975142
3051.35767587
3099.88821615
3138.5470237
3156.39702818
3159.64951694
3159.3850482
3159.55726408
3159.8142773
3156.53500914
3138.64296682
3099.95114165
3051.39209254
3008.97224564
2984.62554878
2978.03570305
2977.97562332
2977.98021983
2978.05069499
2984.65063338
3009.00508187
3051.42283699
3099.97441465
3138.65246553
3156.53563885
3159.81202956
3159.55516028
3159.55847663
3159.81548425
3156.53536695
3138.64254519
3099.94947806
3051.39079329
3008.97160279
2984.62686801
2978.03955083
2977.97864298
2977.98324622
2978.05247825
2984.65062037
3009.00545378
3051.42343013
3099.97502672
3138.65349872
3156.53628913
3159.81297022
3159.55623781
3159.3910908
3159.65533689
3156.39828677
3138.53724969
3099.86611882
3051.32709538
3008.91690666
2984.6199157
2978.08167373
2978.03745224
2978.04224004
2978.09484575
2984.64302512
3008.94892655
3051.35947428
3099.89180354
3138.55046625
3156.39911635
3159.65226029
3159.388401
3159.07667032
3159.3520317
3156.49705419
3139.92112907
3103.02833299
3056.02291104
3014.68041509
2990.94486161
2984.61329994
2984.61783637
2984.62175986
2984.62528231
2990.96633514
3014.70931947
3056.05299691
3103.05251217
3139.93302951
3156.49653076
3159.348084
3159.07317473
3158.65339783
3158.93850551
3157.269384
3145.01771225
3114.65972292
3073.50952463
3036.29964812
3014.67653073
3008.90754929
3008.95943295
3008.96227203
3008.91684979
3014.69356318
3036.32303429
3073.5344481
3114.6807224
3145.02509839
3157.26610449
3158.93348844
3158.64882681
3158.16835514
3158.45766827
3157.99782569
3151.83955518
3132.64543745
3102.67038049
3073.51107133
3056.02588637
3051.32921243
3051.39206535
3051.3935345
3051.33402855
3056.03569322
3073.52558116
3102.68534885
3132.65506645
3151.83954501
3157.99184648
3158.45143511
3158.16250528
3157.66981227
3157.95537302
3157.96748829
3156.38113098
3148.53635003
3132.64779763
3114.6637787
3103.03400568
3099.87154808
3099.95512135
3099.95514672
3099.87162385
3103.03594298
3114.66838851
3132.6515705
3148.53418531
3156.37383487
3157.95958097
3157.94784177
3157.66262442
3157.20387986
3157.48088898
3157.61937117
3157.70000654
3156.38090296
3151.84203611
3145.02342093
3139.92633421
3138.54126585
3138.64488196
3138.64426668
3138.53857423
3139.92277584
3145.0195063
3151.83681165
3156.37280313
3157.69040163
3157.61035883
3157.47224223
3157.19550371
3156.81438258
3157.08413882
3157.33223335
3157.6193326
3157.96709752
3157.9965367
3157.26756161
3156.49508863
3156.3952834
3156.53066969
3156.52988532
3156.3923157
3156.49043489
3157.26146793
3157.9887092
3157.95773385
3157.60961141
3157.32254756
3157.0746614
3156.8050867
3156.53290228
3156.77555255
3157.08421122
3157.48097436
3157.955147
3158.4566822
3158.93633813
3159.34842691
3159.65034371
3159.80920775
3159.80814146
3159.64712592
3159.34317923
3158.92929325
3158.44831067
3157.9458085
3157.47114536
3157.07420743
3156.7656058
3156.52300686
3156.37164246
3156.53293332
3156.81464987
3157.20434365
3157.67021645
3158.16827586
3158.65242172
3159.07447771
3159.38768264
3159.55410975
3159.55308312
3159.38465707
3159.06957081
3158.64588781
3158.1604257
3157.6613514
3157.19481293
3156.80470408
3156.52277786
3156.36138575
2665.87527349
2666.14096166
2666.6323464
2667.29718637
2668.07611319
2668.89335536
2669.67451506
2670.34705214
2670.84279125
2671.10566195
2671.1052652
2670.84141103
2670.34508461
2669.67224258
2668.89094143
2668.07371651
2667.29495195
2666.63032446
2666.13906101
2665.87342628
2666.14196721
2666.45527449
2666.93942637
2667.5868606
2668.35108676
2669.14492459
2669.6983648
2669.98508929
2670.29294096
2670.53689663
2670.53673288
2670.2917409
2669.98352378
2669.69639022
2669.14273828
2668.34888231
2667.58472289
2666.93743407
2666.45334093
2666.14005045
2666.63500905
2666.94138797
2667.31142647
2667.78099685
2667.54958623
2664.98071605
2660.35949635
2656.79598177
2655.94277756
2656.16101797
2656.16159233
2655.94409682
2656.79835441
2660.36126276
2664.98036986
2667.54808962
2667.7790156
2667.30943756
2666.93930779
2666.63283233
2667.30220997
2667.59155152
2667.78388448
2666.49902394
2659.03324789
2643.55061821
2625.98021927
2614.69753851
2611.75358372
2611.93177567
2611.93322202
2611.75748561
2614.70422151
2625.98646274
2643.55497489
2659.03713584
2666.49849421
2667.78175456
2667.58917721
2667.29966273
2668.08393015
2668.35890482
2667.55557026
2659.0366343
2635.03393271
2600.08996167
2567.34173334
2548.0731334
2543.06232542
2543.25378029
2543.25639094
2543.06944624
2548.08470303
2567.35642953
2600.10610432
2635.05238747
2659.04087742
2667.55420252