/*--------------------------------*- C++ -*----------------------------------*\
| =========                 |                                                 |
| \\      /  F ield         | OpenFOAM: The Open Source CFD Toolbox           |
|  \\    /   O peration     | Version:  3.0.1                                 |
|   \\  /    A nd           | Web:      www.OpenFOAM.org                      |
|    \\/     M anipulation  |                                                 |
\*---------------------------------------------------------------------------*/
FoamFile
{
    version     2.0;
    format      ascii;
    class       surfaceVectorField;
    location    "2.1";
    object      Uf;
}
// * * * * * * * * * * * * * * * * * * * * * * * * * * * * * * * * * * * * * //

dimensions      [0 1 -1 0 0 0 0];

internalField   nonuniform List<vector> 
22672
(
(0.00157924215089 0.000634689817862 -0.00154587451867)
(0.000628941288625 0.0015875741875 -0.0015456070892)
(0.00105801651879 0.0010641677457 -0.00316682679823)
(0.00362548328842 0.000350679325537 -0.00146019678352)
(0.00232284620101 0.00120725268343 -0.00221881805799)
(0.00294916884685 0.00101414244142 -0.00325350615812)
(0.00557123371517 0.000278018657737 -0.00124351197081)
(0.0047798347098 0.00112593386634 -0.00234023139871)
(0.00518171116016 0.0010547429883 -0.00307169907612)
(0.00695703493109 0.000403870846684 -0.000992810783142)
(0.00670041862303 0.00135350493798 -0.00218357374998)
(0.0069064334497 0.00126692427747 -0.00273932483805)
(0.0075182165964 0.000677183498301 -0.000779466635828)
(0.00783253186626 0.0018458206655 -0.00197331343348)
(0.00788880650836 0.00161764703735 -0.00240702647148)
(0.00719291266913 0.00100215027954 -0.000632318371996)
(0.00795726680717 0.00247639059934 -0.00179408396053)
(0.00792286607026 0.00203697654746 -0.00215111738301)
(0.00609844888248 0.0013153395119 -0.00054462605055)
(0.00719251046504 0.00308995472412 -0.00168082322741)
(0.00713066520161 0.00243147569083 -0.00199552865815)
(0.00438594251688 0.00157478928386 -0.000499903720719)
(0.00564464058135 0.00362740343546 -0.00162052134075)
(0.00558597206705 0.0027849379089 -0.00191494145536)
(0.00228367896489 0.00173700785573 -0.000485862032995)
(0.0035727856425 0.00400161032971 -0.00160813212448)
(0.00353444757906 0.00303288250313 -0.00189939668435)
(-7.40424756349e-10 0.00179189679447 -0.000483666181665)
(0.00121969683073 0.00419024258154 -0.0016132553171)
(0.00120653035779 0.0031587762985 -0.00190661650187)
(-0.00228404916688 0.0017375976379 -0.000486035517649)
(-0.00122082608912 0.00419063507555 -0.00161328404187)
(-0.00120826093807 0.00315897313499 -0.00190664171975)
(-0.00438725919932 0.00157591297489 -0.000500323791133)
(-0.00357453609196 0.00400272479379 -0.00160827839903)
(-0.00353682346415 0.00303341738919 -0.00189956877625)
(-0.00610102148572 0.00131690235567 -0.000545401903348)
(-0.00564746939662 0.00362913513129 -0.00162086299769)
(-0.00558941198436 0.00278575528102 -0.001915423299)
(-0.00719660207928 0.00100394989067 -0.000633510303)
(-0.00719648778689 0.00309211514407 -0.00168148000739)
(-0.00713514272721 0.00243246317874 -0.00199657906957)
(-0.00752260135481 0.000679028095617 -0.000781013209155)
(-0.00796214225413 0.00247864606503 -0.00179508835064)
(-0.00792803461372 0.0020379178625 -0.00215268321703)
(-0.00696139960495 0.000405648548753 -0.000994558852474)
(-0.00783770294273 0.00184793554664 -0.00197485567298)
(-0.00789402018949 0.00161846133168 -0.0024091638194)
(-0.00557501072364 0.000279745236225 -0.00124538195498)
(-0.00670487068695 0.00135542240686 -0.00218548504108)
(-0.00691071120269 0.00126764269646 -0.00274182691181)
(-0.00362847833647 0.000352426727117 -0.00146273621647)
(-0.00478297963306 0.00112799902007 -0.00234243366046)
(-0.00518461962412 0.00105569243611 -0.00307453652117)
(-0.00158061797972 0.000636507956738 -0.00154949818792)
(-0.00232505202687 0.00120988918471 -0.00222200207838)
(-0.0029512822002 0.00101553119825 -0.00325774651779)
(-0.000628613988518 0.00159131938264 -0.00154935642822)
(-0.00105765872494 0.00106587830804 -0.00317193324616)
(0.00120057833465 0.00233274985697 -0.00221855062852)
(0.000345618632941 0.00363935428014 -0.00145895134407)
(0.00100911400852 0.00295991661992 -0.00325236888186)
(0.00357755272522 0.00218636539928 -0.00309885267318)
(0.00217935598323 0.00358660014901 -0.00309840129157)
(0.00301075731529 0.00301732107515 -0.0047563338257)
(0.0059749655235 0.00243309827317 -0.00328029317788)
(0.0051705146348 0.00389644237519 -0.00362254098774)
(0.00553445695458 0.00331293328322 -0.00516793592996)
(0.0076750461736 0.00307144640876 -0.00316407640032)
(0.00750629385764 0.0046878506378 -0.00355427965177)
(0.00748299050136 0.00397996461044 -0.00503444519759)
(0.00837664954444 0.00397431217515 -0.00298793075818)
(0.00887378983812 0.00588019744329 -0.00331044162348)
(0.00857289069221 0.00493375283307 -0.00473600467627)
(0.00803692806317 0.00494388745809 -0.00284258881595)
(0.00906327558065 0.00725596023314 -0.00305649804192)
(0.00863637342792 0.00600713891699 -0.00443987928453)
(0.00678619172114 0.00582476362302 -0.00275671851762)
(0.00816634283989 0.00856587587606 -0.00286807823269)
(0.0077443436132 0.00702196119098 -0.00422522274895)
(0.0048584563182 0.00651059190942 -0.00272874974452)
(0.00638230387142 0.00966854772131 -0.00276712485878)
(0.00605045240637 0.00787581071683 -0.00411345305351)
(0.00251984226122 0.00693167320988 -0.00273552540859)
(0.00401950692631 0.0104323314748 -0.00274613532148)
(0.00381741333199 0.0084680496483 -0.0040921561779)
(-1.12138514156e-06 0.00707262364739 -0.00274287317731)
(0.00136737689948 0.010816164681 -0.00275635019549)
(0.0013011818423 0.00876667083224 -0.00410501055338)
(-0.00252236793573 0.00693262161008 -0.00273552692325)
(-0.0013696358442 0.0108166709617 -0.00275622074136)
(-0.00130138866063 0.00876690257678 -0.00410484216862)
(-0.00486171447973 0.00651237206815 -0.00272881760559)
(-0.00402228780759 0.0104337665104 -0.0027458356633)
(-0.00381819208354 0.00846867097908 -0.00409174633852)
(-0.00679042751985 0.00582717405276 -0.00275694110173)
(-0.00638598576384 0.00967077323986 -0.00276676307141)
(-0.00605217618395 0.0078767253222 -0.00411297221187)
(-0.00804209697133 0.00494660005553 -0.00284305805503)
(-0.0081711175462 0.00856860506151 -0.00286773464965)
(-0.00774716652621 0.00702300676256 -0.004224861333)
(-0.00838242878586 0.00397695237621 -0.00298893081447)
(-0.00906903308052 0.0072587965404 -0.00305648941743)
(-0.00864017313273 0.00600804150384 -0.00443985115372)
(-0.00768042124511 0.00307384046792 -0.00316578186159)
(-0.00887984242528 0.00588289756085 -0.00331124571959)
(-0.00857703497142 0.00493432312425 -0.00473699198215)
(-0.00597903388998 0.00243552310771 -0.00328253674656)
(-0.00751143643483 0.00469046249821 -0.00355592219853)
(-0.00748643623896 0.00398039438232 -0.00503643909017)
(-0.00357989179612 0.00218951763791 -0.00310169952237)
(-0.00517387822882 0.00389958749595 -0.0036247853234)
(-0.00553652367805 0.00331393640677 -0.00517073226728)
(-0.00120108746367 0.00233751644721 -0.00222186031867)
(-0.00218105262105 0.00359122324107 -0.00310131306624)
(-0.00301160725827 0.00301983946088 -0.00476013303029)
(-0.000345302517666 0.00364664777333 -0.00146189209581)
(-0.00100843159582 0.00296489139811 -0.00325641065041)
(0.0011211346704 0.00479235181589 -0.00233880200713)
(0.000273773926784 0.00558673112728 -0.00124056261274)
(0.00105147152928 0.00519521535058 -0.00306851905066)
(0.00389195090125 0.0051767418751 -0.00362208960613)
(0.00242861581449 0.00598254624623 -0.00327882138915)
(0.00331020275754 0.00553995174692 -0.0051667707601)
(0.00676611728812 0.00601493357676 -0.00389652746164)
(0.00601371234441 0.00676662769625 -0.0038962781579)
(0.00624157768449 0.00624074764119 -0.00574436232245)
(0.00881407239432 0.00734080549886 -0.00370064487494)
(0.00883122690096 0.00815017762415 -0.00370059454484)
(0.00849325864584 0.00743981027 -0.005510296262)
(0.0096699437519 0.00897910084576 -0.00337900890722)
(0.0104760696256 0.0100088851493 -0.00322930612865)
(0.00974146524522 0.00901326679262 -0.00498457796339)
(0.0092804500327 0.0106630637478 -0.00308198745866)
(0.0107065930162 0.0120632485749 -0.00272114063092)
(0.00981478981688 0.0107321101449 -0.00441781895021)
(0.00781128250584 0.0121607947955 -0.00287848457385)
(0.00961285716132 0.0139910849677 -0.00230901773953)
(0.00877287898077 0.0123457917304 -0.00395607140336)
(0.00556724168058 0.01331053746 -0.00278451043575)
(0.00747398880588 0.0155820018257 -0.00205444866389)
(0.00682730496465 0.0136811440907 -0.00366944805736)
(0.00287662897085 0.0140164688346 -0.00276696010838)
(0.00468106608464 0.0166778130557 -0.0019575958445)
(0.00429084188027 0.0146058671584 -0.00355490739901)
(-1.13407532877e-06 0.0142527425395 -0.00276969775954)
(0.00158685878402 0.0172273064591 -0.0019429115837)
(0.00145946192571 0.0150722089106 -0.003533419365)
(-0.00287916412963 0.0140173218699 -0.00276652948141)
(-0.00158900594213 0.0172275662645 -0.00194253093136)
(-0.00145785407434 0.0150723202246 -0.00353290611919)
(-0.0055704374677 0.0133121720103 -0.00278378112912)
(-0.00468365246796 0.0166786055537 -0.00195661656391)
(-0.0042898166055 0.0146061597803 -0.00355360493653)
(-0.00781547695316 0.0121630258919 -0.00287755661933)
(-0.00747740583023 0.0155833263044 -0.00205306377374)
(-0.00682727685745 0.0136815888498 -0.00366754934469)
(-0.00928580844433 0.0106655884625 -0.00308116601205)
(-0.0096175209321 0.013992700371 -0.00230734632268)
(-0.00877421797161 0.0123462327121 -0.00395379429405)
(-0.00967608957519 0.00898164904456 -0.00337880432255)
(-0.0107125275164 0.0120649494009 -0.00271973152805)
(-0.00981756729962 0.0107323550104 -0.0044158951152)
(-0.00882004019809 0.00734334457007 -0.00370138605652)
(-0.0104825779374 0.0100106327371 -0.00322887364607)
(-0.00974505910468 0.00901328804525 -0.00498379935305)
(-0.00677081890239 0.00601789016167 -0.00389817077537)
(-0.00883705149787 0.00815222687326 -0.00370132944333)
(-0.00849657306377 0.00743995900099 -0.00551099131154)
(-0.00389474019125 0.0051810169791 -0.00362439886728)
(-0.00601779236875 0.00676975231664 -0.00389792616483)
(-0.0062437411941 0.00624186246082 -0.00574624087323)
(-0.00112196685311 0.00479920347223 -0.00234134484338)
(-0.00243071670074 0.00598796973477 -0.0032810965961)
(-0.00331101035788 0.00554319626224 -0.00516951152371)
(-0.000273970996616 0.00559596241631 -0.00124274183514)
(-0.00105114933854 0.00520227769101 -0.00307127478085)
(0.00135003211827 0.00671109117679 -0.00218058199476)
(0.000400316671 0.00697040042706 -0.000987821898462)
(0.00126505660187 0.00691784266251 -0.00273370482461)
(0.00468642751718 0.00750827453515 -0.00355300994092)
(0.00306831355134 0.00767834007693 -0.00316161940643)
(0.00397998563008 0.00748441336881 -0.00503219283348)
(0.00815451669526 0.00882628596445 -0.0037003452411)
(0.00734230705841 0.00880852398306 -0.00370030631523)
(0.0074449625696 0.00848677984999 -0.00550999043272)
(0.010628152866 0.0107150821997 -0.00322925579854)
(0.010724131841 0.0106159495379 -0.00322976252296)
(0.0101044598218 0.0100922866217 -0.00493941543545)
(0.0116489836427 0.0129502442969 -0.00257143785234)
(0.0126858745577 0.012937851448 -0.0023756528564)
(0.0115600579264 0.0121368117563 -0.00394980766021)
(0.0111457905416 0.0152038798132 -0.00194817091179)
(0.012927853927 0.0154510065399 -0.00145138768221)
(0.0116124263879 0.0143407725719 -0.00288457920894)
(0.00933692322792 0.0171818681578 -0.00148498182957)
(0.0115573524227 0.0177818957894 -0.00067961650168)
(0.0103324409933 0.0163927250047 -0.00198196169122)
(0.0066161052049 0.0186834398595 -0.00122753407264)
(0.00893637732443 0.0196848108575 -0.000171094190568)
(0.00799677352151 0.0180706876292 -0.00138201258201)
(0.00340332871506 0.0196003089156 -0.00113354731982)
(0.00556639672158 0.0209922441806 5.89836902816e-05)
(0.00499938111873 0.0192244777418 -0.00110167866802)
(-1.01779223493e-06 0.0199061800754 -0.00111574475552)
(0.00188080203381 0.0216476237418 0.000123267216778)
(0.00169528523391 0.0198045337682 -0.00101599599845)
(-0.00340558042951 0.0196005048518 -0.00113261801386)
(-0.0018829293878 0.0216473246713 0.000123819977926)
(-0.00169266170468 0.019804259858 -0.00101522089841)
(-0.00661886869466 0.018683868852 -0.00122589920853)
(-0.00556885230024 0.0209915476662 6.05582879837e-05)
(-0.00499725172458 0.0192236954686 -0.00109967769801)
(-0.00934075994778 0.0171824610055 -0.00148285347709)
(-0.00893964276113 0.0196839642878 -0.000168707176964)
(-0.00799561858911 0.018069512593 -0.00137876813611)
(-0.0111510309207 0.0152045011788 -0.00194591183868)
(-0.0115619995456 0.01778086808 -0.000676763172106)
(-0.0103328739568 0.0163911066035 -0.00197791440203)
(-0.0116553707813 0.0129509574743 -0.00256980085157)
(-0.0129338936504 0.015449911749 -0.00144869320507)
(-0.0116146591254 0.014338779239 -0.00288063495837)
(-0.0106346776385 0.0107161753771 -0.00322881703287)
(-0.0126926584796 0.0129371646882 -0.0023739892908)
(-0.0115635288137 0.01213487895 -0.00394723112734)
(-0.00815998240214 0.00882835313449 -0.00370108483278)
(-0.0107305481851 0.0106161464134 -0.00322941870391)
(-0.0101080544383 0.0100909327516 -0.00493861389324)
(-0.00468995557221 0.00751239965764 -0.00355462389365)
(-0.00734714774719 0.00881047124067 -0.00370111916627)
(-0.00744766289589 0.00848690145138 -0.00551073867825)
(-0.00135140815042 0.00671871665321 -0.00218249358786)
(-0.00307103489523 0.00768340610792 -0.0031631412146)
(-0.00398129010642 0.00748734633961 -0.0050339726296)
(-0.00040099907586 0.0069801353611 -0.00098929205893)
(-0.00126523047167 0.00692566996584 -0.0027355729283)
(0.00184292378444 0.00783879318146 -0.00196885931013)
(0.000673727059329 0.00752683857799 -0.000772866446443)
(0.00161672157963 0.00789550487858 -0.00239936109459)
(0.00587981491374 0.00886996236398 -0.00330891578074)
(0.00397090682573 0.00837494637545 -0.00298499112648)
(0.00493491718222 0.00856902607414 -0.00473349611074)
(0.010015166089 0.0104636862854 -0.00322972359709)
(0.00898052997927 0.00965860726435 -0.00337961999907)
(0.00902020877417 0.00972869652623 -0.00498543359427)
(0.012953601453 0.0126674206684 -0.00237615958082)
(0.0129597971866 0.011629438572 -0.00257423849853)
(0.0121516896242 0.0115400147838 -0.00395192465443)
(0.0141349209125 0.0152273855165 -0.00125560268627)
(0.0152481872951 0.0141098720397 -0.00125840186073)
(0.0138408263352 0.0138162255069 -0.00235334204608)
(0.0134674313284 0.017779984203 -0.000182833272095)
(0.0154686964056 0.0167584265238 0.000157529012869)
(0.0138459361881 0.0162500465885 -0.000639934617999)
(0.0112291297804 0.0200028329016 0.00063427113732)
(0.013767938231 0.0191826862872 0.00134905407416)
(0.0122607888614 0.0185012032653 0.000837504433774)
(0.00791838219913 0.0216849699374 0.00111542357235)
(0.0105975893186 0.0211583924376 0.0021507892389)
(0.0094384358154 0.0203304254944 0.00183715725291)
(0.00405850052071 0.0227132874577 0.00131579822688)
(0.00657370924242 0.0225110340881 0.00253758068485)
(0.00587251396104 0.0215874275961 0.00234108165683)
(-1.12443044422e-06 0.0230565716113 0.00136283195023)
(0.00221574298472 0.0231886811235 0.00266321291575)
(0.00198586546553 0.0222212907681 0.00251855695504)
(-0.00406092552071 0.0227121319 0.00131699627977)
(-0.00221887506765 0.023187723277 0.00266347858413)
(-0.00198352136062 0.022220337492 0.00251939210221)
(-0.00792129671036 0.0216830731314 0.00111775031955)
(-0.00657671382828 0.0225083345902 0.00253882458326)
(-0.00587052414027 0.0215848157244 0.00234357466803)
(-0.0112331225253 0.0200004483747 0.000637383128023)
(-0.0106011546605 0.0211545358667 0.00215348240352)
(-0.00943735336183 0.0203266581499 0.00184124601685)
(-0.0134728638303 0.0177772810738 -0.000179544538494)
(-0.0137728636896 0.019178087818 0.00135241673814)
(-0.012261311919 0.0184964244917 0.000842515615522)
(-0.014141422289 0.0152248660403 -0.00125288164429)
(-0.0154748098065 0.0167535394582 0.00016083741477)
(-0.0138481390246 0.0162447054137 -0.000635071835415)
(-0.012960433941 0.012665762122 -0.00237459096183)
(-0.0152549753024 0.0141055730978 -0.00125571337985)
(-0.0138442576254 0.0138112342165 -0.002349394928)
(-0.0100212193957 0.0104636744198 -0.00322945303739)
(-0.0129664637671 0.0116266197905 -0.00257281836466)
(-0.0121555967585 0.01153615776 -0.00394968133985)
(-0.00588401662196 0.00887274208914 -0.00330963648722)
(-0.00898584747575 0.0096582335064 -0.00337951273408)
(-0.00902350818068 0.00972688496495 -0.00498495428904)
(-0.00184482720518 0.00784582147043 -0.00196993968567)
(-0.00397406585777 0.00837834714465 -0.00298562137567)
(-0.00493683020865 0.00857064169248 -0.00473411703798)
(-0.000674723355761 0.00753542095372 -0.00077352806266)
(-0.00161739257797 0.00790276084345 -0.00240010350461)
(0.0024726953187 0.00795851119052 -0.00178899826279)
(0.000998585053284 0.00719681385837 -0.000624592683042)
(0.00203573594862 0.00792452324111 -0.00214266598654)
(0.00725413402459 0.00905459206392 -0.00305569534481)
(0.00493911934998 0.00803175961636 -0.00283976058226)
(0.00600747402268 0.0086282363508 -0.00443824628672)
(0.0120679551876 0.010688788727 -0.00272413490052)
(0.0106623341703 0.00926665255835 -0.00308464514984)
(0.0107377924782 0.00979772027725 -0.00442186043853)
(0.0154660859411 0.012902599375 -0.00145648077845)
(0.0152111145353 0.0111239329815 -0.00195555826924)
(0.0143545038513 0.0115870904853 -0.00289261920626)
(0.0167843211319 0.0154395602656 0.000154729838407)
(0.0178002812899 0.0134397195013 -0.00019255756205)
(0.0162750606688 0.0138145495892 -0.000648077314044)
(0.0159125323933 0.0179339994404 0.00168941635913)
(0.0179643499415 0.0158842697617 0.00168569241902)
(0.016208639196 0.0161754252529 0.00174594962182)
(0.0132126598333 0.0200899534507 0.00286557217574)
(0.0159308863705 0.0181102368791 0.00326110364043)
(0.0142908362784 0.0183406290858 0.0037723244986)
(0.00928262780487 0.0217177931855 0.0035729463514)
(0.012215480525 0.0199367515151 0.00433675586789)
(0.0109575193417 0.0201035007628 0.00515167411647)
(0.00474624496589 0.0227071724139 0.00388499537372)
(0.00754807481656 0.0211807207934 0.00486204721357)
(0.0067969869802 0.0213127654851 0.00586669648814)
(-2.01688797673e-06 0.0230359836234 0.00396385954965)
(0.00253857013575 0.0218001049552 0.00502958021722)
(0.00229441964775 0.021922402585 0.00613683821285)
(-0.00475010493304 0.0227047494422 0.00388530688761)
(-0.00254393349236 0.0217988909779 0.00502961384292)
(-0.00229427976504 0.0219208938042 0.00613692072256)
(-0.00928627576426 0.0217132311957 0.00357455666722)
(-0.00755295218567 0.0211766963306 0.0048624851261)
(-0.00679652771965 0.0213082644387 0.00586780980472)
(-0.0132170559898 0.0200839800524 0.00286851601364)
(-0.0122202314676 0.0199301862869 0.00433842816755)
(-0.0109574204619 0.0200967390932 0.00515513113708)
(-0.0159181151343 0.0179273058182 0.00169279869141)
(-0.015936520097 0.0181020704711 0.00326405521737)
(-0.0142920893995 0.0183323744775 0.00377707903628)
(-0.0167907687256 0.0154329497255 0.000158005679214)
(-0.0179707258935 0.0158752653237 0.00168880055218)
(-0.016211098214 0.0161662445695 0.0017509324453)
(-0.0154728252897 0.0128971369089 -0.00145394078268)
(-0.0178069190979 0.0134311517178 -0.000189546641483)
(-0.0162784587629 0.0138057153996 -0.000643514401445)
(-0.0120741315717 0.0106855387718 -0.00272287806135)
(-0.0152175843327 0.0111171702613 -0.00195346111479)
(-0.0143584997019 0.0115797862982 -0.00288923343228)
(-0.00725858163113 0.00905474169548 -0.00305549762254)
(-0.0106676172336 0.0092629673455 -0.00308380737907)
(-0.0107414055708 0.00979302330425 -0.00442027044184)
(-0.00247481594803 0.00796335148597 -0.00178920975266)
(-0.00494230357166 0.00803233581083 -0.00283959043457)
(-0.0060097034491 0.00862743544844 -0.00443773942214)
(-0.00099972344441 0.00720281400715 -0.000624512199736)
(-0.00203665112557 0.0079296579879 -0.00214219893095)
(0.00308557615184 0.00719051199946 -0.00167535500251)
(0.00131177988597 0.00609794978557 -0.000535839783685)
(0.00243031903917 0.00712885945849 -0.00198670444912)
(0.00856187340592 0.00815676676796 -0.00286871038729)
(0.00581861877163 0.00678074038228 -0.00275412081586)
(0.007020782201 0.00773541350493 -0.00422526890281)
(0.0139928515758 0.00959584305174 -0.00231606851856)
(0.0121576117812 0.00780049302524 -0.00288335406347)
(0.0123487315523 0.0087568260516 -0.00396480853752)
(0.0177949115739 0.0115340939158 -0.00069163505284)
(0.017186496674 0.0093206218757 -0.0014975157233)
(0.0164034427541 0.0103093097937 -0.00199873813683)
(0.0192084460881 0.0137424763812 0.00133840501856)
(0.0200232811936 0.0112087157057 0.000617339484616)
(0.0185250265808 0.0122326590784 0.000817480036634)
(0.0181374000278 0.0159074114726 0.00325737970032)
(0.0201245616048 0.0131937360867 0.00285769047897)
(0.0183745485195 0.0142628461544 0.00376158962563)
(0.0150074778467 0.0177883030281 0.00473228733258)
(0.0178132120478 0.0149932303014 0.00473630768114)
(0.016159146818 0.016134351876 0.00624693729918)
(0.0105020056312 0.0192144502794 0.00562585673006)
(0.0136239306604 0.0164738622717 0.00598202846535)
(0.0123551415215 0.0176772834892 0.00796836867832)
(0.00535284470206 0.0200797018478 0.00600663205706)
(0.00838539383091 0.0174606616163 0.00656242676144)
(0.00764169520782 0.0187313250926 0.00886922660856)
(-3.3229903014e-06 0.0203671171051 0.00609533451048)
(0.00281116018668 0.0179445327718 0.00674234541121)
(0.00257522129187 0.0192559760427 0.0092117461844)
(-0.00535944195331 0.0200768396793 0.0060067920814)
(-0.00281937346004 0.0179433483634 0.00674273945723)
(-0.00257848196849 0.019254335715 0.00921166791876)
(-0.0105080888016 0.0192085737988 0.00562635662642)
(-0.00839337534595 0.0174563835419 0.00656297226684)
(-0.00764447315588 0.0187261602982 0.00886896604388)
(-0.0150133484101 0.0177798113548 0.00473396737128)
(-0.0136313468329 0.0164658776624 0.00598331347027)
(-0.0123573817992 0.017668894408 0.0079695748778)
(-0.0181438118726 0.0158971502191 0.00326005707814)
(-0.0178207956761 0.0149821744646 0.00473831853352)
(-0.0161620105765 0.0161232685229 0.00625036697694)
(-0.0192150776187 0.0137316656549 0.00134124823148)
(-0.0201319883065 0.0131811405745 0.00285986155656)
(-0.0183779705239 0.014250060281 0.00376539962256)
(-0.0178013456273 0.0115243250713 -0.000689066973595)
(-0.0200299233435 0.0111960040641 0.000619478350342)
(-0.0185285423755 0.0122197197929 0.000821426967992)
(-0.0139986225133 0.00958871611549 -0.00231439043251)
(-0.0171923420417 0.00930985044297 -0.00149558463668)
(-0.0164071988499 0.0102981023618 -0.00199538991051)
(-0.00856605308112 0.00815354913098 -0.00286790019111)
(-0.0121622785358 0.00779322205828 -0.00288225041146)
(-0.0123521414518 0.00874872987474 -0.00396280921741)
(-0.00308764587166 0.0071922462947 -0.00167489288165)
(-0.00582140917989 0.00677795740873 -0.00275340176537)
(-0.00702290464726 0.00773154701141 -0.00422401295451)
(-0.00131289971618 0.00610044879918 -0.000535193933756)
(-0.00243136144538 0.00713087454821 -0.00198527005426)
(0.00362232133692 0.00564098940607 -0.00161460559704)
(0.00157104954167 0.00438122570023 -0.000490184533766)
(0.00278354182816 0.00558237892988 -0.00190558740383)
(0.00966278128004 0.00637590642751 -0.00276876449204)
(0.00650351781584 0.00485488531581 -0.00272585588399)
(0.00787340419382 0.00604448703711 -0.0041145932238)
(0.0155816458621 0.00746403470345 -0.0020648012682)
(0.0133054268562 0.00556336749482 -0.0027901786204)
(0.0136817468553 0.00681808989813 -0.00368172598362)
(0.0196976142705 0.00892270349675 -0.000188541185841)
(0.0186856893412 0.00661037122016 -0.00124290447504)
(0.0180791963861 0.00798354178578 -0.00140570361438)
(0.0211887479457 0.0105832366401 0.00213662494503)
(0.0217053744025 0.00790954607558 0.00109390031456)
(0.0203551802373 0.00942193749882 0.00180805026718)
(0.0199706453685 0.0122053682446 0.0043366184598)
(0.021757368259 0.00927407830653 0.00356358362526)
(0.0201439956495 0.0109424932071 0.00513777374352)
(0.0164904544496 0.0136172589303 0.00598604881392)
(0.0192444322396 0.0104966242486 0.00563498073655)
(0.0177073127901 0.012346631012 0.00797680864073)
(0.0115116539765 0.0146804510694 0.00691859849673)
(0.0146876312088 0.0115066799952 0.0069217310457)
(0.0135172114622 0.0135090259057 0.00994599283642)
(0.00585251386406 0.0153040993012 0.00729814011558)
(0.0089998953206 0.0121537345033 0.00749856917101)
(0.00832703199894 0.0142672055496 0.0109660762757)
(-4.9189020446e-06 0.0155057113263 0.00738975035796)
(0.00300796572692 0.0124652508537 0.00767047622055)
(0.00279425044956 0.0146287071292 0.0113367233213)
(-0.00586232380984 0.0153015507954 0.00729891964267)
(-0.00301883368131 0.0124636219486 0.00767192292467)
(-0.00280107153156 0.0146274497159 0.0113371398283)
(-0.0115210205492 0.0146739018134 0.0069199291107)
(-0.009012084354 0.012148470742 0.00750053177141)
(-0.00833352750197 0.0142624054572 0.0109666180144)
(-0.0164995918585 0.0136065656283 0.00598766463251)
(-0.0146992948154 0.0114966379314 0.00692293675172)
(-0.0135232456492 0.0134993229965 0.00994781981262)
(-0.019979278639 0.0121920243284 0.00433812301194)
(-0.0192548161001 0.0104832679997 0.00563547351322)
(-0.0177134052938 0.0123332177272 0.0079786029284)
(-0.021196305012 0.0105688545572 0.00213809167542)
(-0.0217663170583 0.00925882005007 0.00356409484822)
(-0.0201493696762 0.0109269123953 0.00513935824505)
(-0.0197036997887 0.00890915284056 -0.000187039312746)
(-0.0217121635588 0.0078939281938 0.00109424597555)
(-0.0203591538313 0.00940576278975 0.00180948390702)
(-0.0155864953031 0.00745329123997 -0.00206344461563)
(-0.0186905416989 0.00659660591293 -0.00124198659526)
(-0.0180823284086 0.00796905688856 -0.00140394512713)
(-0.00966617425826 0.00636923707858 -0.00276775198572)
(-0.013308925667 0.00555315816472 -0.00278936095956)
(-0.0136843444458 0.00680694445744 -0.00368024135578)
(-0.00362402803623 0.00563912616088 -0.00161370281748)
(-0.0065055179787 0.00484895452657 -0.00272493406329)
(-0.00787497659987 0.00603753667424 -0.00411312692915)
(-0.0015719120746 0.00438002975945 -0.000489155559437)
(-0.00278445127373 0.00558076991923 -0.00190359798867)
(0.00399614687563 0.00356808019531 -0.00160143482072)
(0.00173315195524 0.00227420953947 -0.000475371333955)
(0.0030313372762 0.00352967346289 -0.00188911938718)
(0.0104253088087 0.0040183150144 -0.00274727001235)
(0.00692405502026 0.00251844946343 -0.00273159760364)
(0.00846502274264 0.00381638167726 -0.00409271272892)
(0.0166752971405 0.00468111593223 -0.00196828182724)
(0.0140098065539 0.00288058497735 -0.00277133636541)
(0.0146047943168 0.00429151158248 -0.00356719074577)
(0.0210028933403 0.00556500027577 3.95370253537e-05)
(0.0195996354783 0.00340911845279 -0.00114793130132)
(0.0192304914048 0.00499967742185 -0.00112632708662)
(0.0225420013472 0.00656989144094 0.00252085899479)
(0.0227304511947 0.00406249053773 0.00129310109653)
(0.0216108270508 0.00587025582402 0.00230796403673)
(0.0212182011108 0.00754320904508 0.00486194590201)
(0.0227453717261 0.00474776200759 0.0038725115489)
(0.0213558995479 0.0067929008828 0.00585013175238)
(0.0174791560368 0.00838093691267 0.00657066296833)
(0.0201107314142 0.00535245207974 0.00601353322188)
(0.0187650004198 0.00763824322789 0.00888323038065)
(0.0121588071522 0.00899665922206 0.00750170171997)
(0.0153131524854 0.00585127750305 0.00730262268987)
(0.01427623485 0.0083238387668 0.010975762412)
(0.0061624886142 0.00934691049841 0.00787090527597)
(0.00935060352405 0.00616193661211 0.00787223724239)
(0.00874595564964 0.00874397792829 0.0119881260922)
(-6.0975933215e-06 0.00946001189725 0.00795264878726)
(0.00312086605433 0.00631237627028 0.00802995462836)
(0.00292710829225 0.00894579432729 0.0123214697671)
(-0.00617590262682 0.00934262351006 0.00787353505341)
(-0.00313615097029 0.00630954371552 0.00803092071616)
(-0.00293679501028 0.00894347095716 0.0123238919747)
(-0.0121731852773 0.00898802696107 0.00750353941244)
(-0.00936715407915 0.00615435028558 0.00787368299796)
(-0.0087576385599 0.00873737429269 0.0119914118363)
(-0.0174921258011 0.00836829370841 0.00657074563242)
(-0.0153287491788 0.00583986463032 0.0073021345511)
(-0.0142873914176 0.00831240915013 0.0109757230346)
(-0.0212291299713 0.00752795885631 0.00486144534949)
(-0.0201236026142 0.00533825168164 0.00601233925754)
(-0.0187741408059 0.00762355171947 0.00888203096552)
(-0.0225503889566 0.0065535250191 0.00252024914834)
(-0.0227557261416 0.00473165729283 0.00387070587756)
(-0.0213630823701 0.00677607320459 0.00584843404578)
(-0.0210084637247 0.00554938327843 3.92986930306e-05)
(-0.022737192946 0.00404601890328 0.00129113685082)
(-0.0216152069473 0.0058527810276 0.0023059982491)
(-0.016678790568 0.00466812825192 -0.00196790293919)
(-0.0196032237884 0.00339431880324 -0.00114863647621)
(-0.0192326965608 0.00498369003042 -0.00112737054913)
(-0.010427442461 0.00400906891333 -0.00274654303712)
(-0.0140117648116 0.00286888811048 -0.00277129589733)
(-0.0146060604517 0.00427863154648 -0.00356706186045)
(-0.00399718063806 0.00356302071765 -0.00160038680525)
(-0.00692498925522 0.0025103502064 -0.00273089183272)
(-0.00846563861688 0.00380721795456 -0.00409164078297)
(-0.00173358126336 0.00226980072762 -0.00047425225082)
(-0.0030318922389 0.0035248590632 -0.00188694032913)
(0.0041845450888 0.00121312857115 -0.00160553411688)
(0.00178795495428 -1.52015636741e-05 -0.000472857028876)
(0.0031571275112 0.00119973333722 -0.00189512185106)
(0.0108082310643 0.00137070698136 -0.00275566395669)
(0.00706446925133 -1.6256625021e-06 -0.0027378858024)
(0.00876338696748 0.00130450132804 -0.00410359656359)
(0.0172223944598 0.00159619207431 -0.00195098583948)
(0.0142446085212 8.98426953939e-06 -0.00277218302656)
(0.0150700213579 0.00146928883951 -0.00354254647301)
(0.0216541879652 0.00189161241026 0.000105632769859)
(0.0199025347984 1.47533995346e-05 -0.00112762858681)
(0.0198077636144 0.00170820134899 -0.00103741081235)
(0.0232147187434 0.0022243712587 0.00264475365064)
(0.0230694021759 1.51140242097e-05 0.00134152215007)
(0.0222402838472 0.00199793982717 0.00248686346228)
(0.0218346381915 0.00254317751518 0.00502409886877)
(0.0230695839313 1.14986616855e-05 0.00395047997176)