/*--------------------------------*- C++ -*----------------------------------*\
| =========                 |                                                 |
| \\      /  F ield         | OpenFOAM: The Open Source CFD Toolbox           |
|  \\    /   O peration     | Version:  3.0.1                                 |
|   \\  /    A nd           | Web:      www.OpenFOAM.org                      |
|    \\/     M anipulation  |                                                 |
\*---------------------------------------------------------------------------*/
FoamFile
{
    version     2.0;
    format      ascii;
    class       surfaceScalarField;
    location    "1.3";
    object      phi;
}
// * * * * * * * * * * * * * * * * * * * * * * * * * * * * * * * * * * * * * //

dimensions      [0 3 -1 0 0 0 0];

internalField   nonuniform List<scalar> 
45932
(
2.97106552392e-06
2.51140957861e-06
-5.48272730827e-06
5.47892081748e-06
3.12097573355e-06
-5.6291071572e-06
5.55201618606e-06
5.81249978511e-06
-5.88584374931e-06
2.89985229225e-06
8.81451606565e-06
-6.1625692404e-06
-1.06781504394e-06
1.03705821454e-05
-6.40309798884e-06
-5.21650620215e-06
1.04132309114e-05
-6.26469469105e-06
-8.35591900366e-06
8.89128274393e-06
-5.75201589537e-06
-9.27457441321e-06
5.91669481886e-06
-4.99819814274e-06
-8.056520409e-06
2.84476660319e-06
-4.06300204279e-06
-5.98096139927e-06
9.59433726255e-07
-3.03519309995e-06
-4.02478847021e-06
1.25700773641e-07
-2.08208303162e-06
-2.49996854001e-06
-1.91039107339e-07
-1.33398837293e-06
-1.44721342164e-06
-2.65950155606e-07
-7.87000591732e-07
-7.68033843871e-07
-2.46870630538e-07
-4.32484832893e-07
-3.38252032209e-07
-2.07610041888e-07
-2.22324428132e-07
-5.28423075776e-08
-1.70747699598e-07
-1.14792134248e-07
1.59351299134e-07
-1.41893066773e-07
-7.04115295927e-08
3.4031798697e-07
-1.20504853582e-07
-6.05591970497e-08
5.08407222353e-07
-1.04084020144e-07
-6.40957815947e-08
6.66714892665e-07
-9.13238269235e-08
-6.70739208828e-08
8.1030075477e-07
-8.16897023794e-08
-6.19896999469e-08
9.32861381634e-07
-7.42910413009e-08
-4.83678822032e-08
1.02825617073e-06
-6.92711279036e-08
-2.62263173331e-08
1.09392715984e-06
-6.5207807775e-08
-5.69246490066e-10
1.12991505655e-06
-6.26544270638e-08
2.65576529564e-08
1.13771998924e-06
-6.13146347553e-08
5.33974756086e-08
1.12041249246e-06
-6.08824695583e-08
7.80724200259e-08
1.08156370607e-06
-6.11041988305e-08
9.98274772137e-08
1.02494070987e-06
-6.18001167253e-08
1.18287750502e-07
9.54326492026e-07
-6.28436559816e-08
1.33312353616e-07
8.73362148409e-07
-6.41132878703e-08
1.44923005177e-07
7.85358566486e-07
-6.55070534853e-08
1.53348592309e-07
6.93386021001e-07
-6.7029821775e-08
1.5883472945e-07
5.99693586982e-07
-6.85120047622e-08
1.62033071723e-07
5.07394001654e-07
-7.02338898461e-08
1.62360423845e-07
4.1561086142e-07
-7.14550455112e-08
1.63065283074e-07
3.29172361916e-07
-7.25490410984e-08
1.58814024221e-07
2.37720069434e-07
-7.23030441863e-08
1.63573362664e-07
1.39939015045e-07
-7.36448793801e-08
1.71218711813e-07
-8.16283838505e-08
2.21347588002e-07
3.0364946443e-06
6.1981305473e-06
-6.72350934893e-06
5.98790003348e-06
8.53534918249e-06
-8.36608304535e-06
6.15887105426e-06
1.48717736941e-05
-9.23051260251e-06
3.27173672608e-06
2.14466476205e-05
-9.74522185942e-06
-1.02726337753e-06
2.47933854072e-05
-1.0123981606e-05
-5.51077509843e-06
2.48369850748e-05
-9.94038556706e-06
-8.90580450301e-06
2.14755287025e-05
-9.18935341976e-06
-9.82691654081e-06
1.4900469929e-05
-8.06282355312e-06
-8.38949121889e-06
7.93420443771e-06
-6.52705869649e-06
-6.09161963123e-06
3.40123954495e-06
-4.73989987042e-06
-4.00878772925e-06
1.17215428013e-06
-3.12951874914e-06
-2.44166933759e-06
1.99716523618e-07
-1.95810315791e-06
-1.38267160226e-06
-1.55604748073e-07
-1.16955628681e-06
-7.06866987836e-07
-2.62579270392e-07
-6.60285651076e-07
-2.84406481714e-07
-2.66478373949e-07
-3.63755956671e-07
-5.05262618965e-09
-2.41384738821e-07
-2.08856197187e-07
2.0301476719e-07
-2.13027273613e-07
-1.37052123272e-07
3.80910332432e-07
-1.87631744826e-07
-1.10873315808e-07
5.46446777947e-07
-1.66285349877e-07
-1.03433114777e-07
7.02277822888e-07
-1.48986056914e-07
-9.82671184795e-08
8.43425175623e-07
-1.35718672925e-07
-8.72211777547e-08
9.63261583267e-07
-1.25874486224e-07
-6.83614331169e-08
1.05612070356e-06
-1.1914206388e-07
-4.31016137691e-08
1.11901065397e-06
-1.14617467319e-07
-1.35973144867e-08
1.15226697272e-06
-1.10839125021e-07
1.48086949358e-08
1.15743002308e-06
-1.09398707148e-07
4.27981611456e-08
1.13761057523e-06
-1.09209504087e-07
6.80180888105e-08
1.09638569851e-06
-1.09793837378e-07
8.97773776368e-08
1.03752790918e-06
-1.1091059057e-07
1.07820064334e-07
9.64824197782e-07
-1.12404442031e-07
1.2210480295e-07
8.81903737304e-07
-1.14104666829e-07
1.32741806565e-07
7.9206256583e-07
-1.15873669743e-07
1.40029328913e-07
6.98324802939e-07
-1.17693218077e-07
1.44216358185e-07
6.0299814589e-07
-1.19371534946e-07
1.45997192913e-07
5.08939733555e-07
-1.21056227187e-07
1.44689914e-07
4.15963320685e-07
-1.22254275329e-07
1.43584970432e-07
3.27930239038e-07
-1.22615909913e-07
1.37908169106e-07
2.35847868731e-07
-1.22180569117e-07
1.41757343441e-07
1.34754270371e-07
-1.22734680337e-07
1.49951850072e-07
-1.29081333209e-07
1.81965727525e-07
3.63207554214e-06
9.63260114175e-06
-7.06684855325e-06
7.28312171954e-06
1.40785359472e-05
-9.19453545881e-06
7.51245124077e-06
2.39322009565e-05
-9.2900099248e-06
4.046668443e-06
3.37080070876e-05
-8.79576844977e-06
-1.00308016995e-06
3.85870314257e-05
-8.74402514405e-06
-6.24122867836e-06
3.86148071755e-05
-8.53975840542e-06
-1.02340820102e-05
3.36424159824e-05
-8.17412080414e-06
-1.12291217484e-05
2.38276167305e-05
-7.9322374207e-06
-9.35742048518e-06
1.32091157397e-05
-7.14679864911e-06
-6.56809826451e-06
6.08963859642e-06
-5.4779470155e-06
-4.19451219238e-06
2.45825902142e-06
-3.65993071169e-06
-2.4916003e-06
7.76127968687e-07
-2.27955682708e-06
-1.37979682966e-06
9.29519980865e-08
-1.36057452434e-06
-6.88745324758e-07
-1.67440685322e-07
-7.86378905623e-07
-2.64239532632e-07
-2.43731955605e-07
-4.47414284118e-07
1.18093555183e-08
-2.47531986762e-07
-2.70038926437e-07
2.16182991817e-07
-2.30487117468e-07
-1.87030373366e-07
3.91133562681e-07
-2.08630023117e-07
-1.5405459799e-07
5.54337949627e-07
-1.87767363674e-07
-1.41818493317e-07
7.08222201069e-07
-1.69844632614e-07
-1.33122874583e-07
8.47823947649e-07
-1.55740647815e-07
-1.19682300402e-07
9.66308082683e-07
-1.45403313794e-07
-9.90642229611e-08
1.0581269455e-06
-1.38311694927e-07
-7.27635640737e-08
1.12040781643e-06
-1.33657688121e-07
-4.33586698703e-08
1.15273704099e-06
-1.30759958521e-07
-1.25287695327e-08
1.15729937328e-06
-1.28787144984e-07
1.4703093409e-08
1.13704316285e-06
-1.28896838445e-07
3.98155103069e-08
1.09547445105e-06
-1.29693034341e-07
6.13314259285e-08
1.03633219928e-06
-1.30931892384e-07
7.90161155519e-08
9.63383154178e-07
-1.32468650761e-07
9.28543711662e-08
8.80222954343e-07
-1.34122666021e-07
1.03009075756e-07
7.90102034638e-07
-1.35757038044e-07
1.09826907296e-07
6.96006214864e-07
-1.37306540375e-07
1.13525641786e-07
6.00215688734e-07
-1.38627466566e-07
1.14859040367e-07
5.05533487913e-07
-1.39699306054e-07
1.13136391654e-07
4.11985233942e-07
-1.40377552029e-07
1.11483253452e-07
3.23159278371e-07
-1.39841590653e-07
1.05862393196e-07
2.30435896249e-07
-1.3874332551e-07
1.09085020273e-07
1.29614310686e-07
-1.37938226907e-07
1.15792005153e-07
-1.35768623219e-07
1.3605642144e-07
4.78087539341e-06
1.20969538552e-05
-7.24552429164e-06
9.45046894925e-06
1.82306265565e-05
-8.82196984586e-06
9.66638342935e-06
3.05520073444e-05
-6.83593746904e-06
5.24706565597e-06
4.23562108066e-05
-4.22901353233e-06
-9.94027769237e-07
4.8112555396e-05
-3.28446931713e-06
-7.42969527109e-06
4.81250589255e-05
-3.07457162628e-06
-1.23926031628e-05
4.21809921765e-05
-3.57567174578e-06
-1.35571080624e-05
3.02963313095e-05
-5.30428598453e-06
-1.10405486083e-05
1.71611232679e-05
-6.46872877679e-06
-7.47368145749e-06
8.17192788755e-06
-5.64937635205e-06
-4.60840120632e-06
3.51411895475e-06
-3.92137960205e-06
-2.65785363628e-06
1.29145921356e-06
-2.46610988908e-06
-1.43622278432e-06
3.43890753566e-07
-1.47277852018e-06
-7.01343347242e-07
-4.08224989584e-08
-8.61679678095e-07
-2.61192922567e-07
-1.80091023364e-07
-5.03946621481e-07
1.88340990292e-08
-2.14907882398e-07
-3.1278185553e-07
2.23176718471e-07
-2.11699411654e-07
-2.23240542934e-07
3.97061293976e-07
-1.95939991806e-07
-1.86670912153e-07
5.59017929018e-07
-1.77979062132e-07
-1.71835753426e-07
7.116170397e-07
-1.61351400387e-07
-1.61185128827e-07
8.50027071573e-07
-1.47839015165e-07
-1.46410641509e-07
9.67536460036e-07
-1.37839066637e-07
-1.25179688273e-07
1.05861624581e-06
-1.31062897318e-07
-9.8440468618e-08
1.12036470384e-06
-1.26769722801e-07
-6.87520097759e-08
1.15240150997e-06
-1.24232755759e-07
-3.86814990071e-08
1.15640182115e-06
-1.22887855206e-07
-1.00189211753e-08
1.13595483978e-06
-1.2255047683e-07
1.39771554482e-08
1.0942648092e-06
-1.23381073133e-07
3.52469049148e-08
1.03504179846e-06
-1.24556300994e-07
5.27059053907e-08
9.62047113365e-07
-1.25938415508e-07
6.63120484051e-08
8.78855025422e-07
-1.27368175685e-07
7.62755286746e-08
7.88690183126e-07
-1.28708977512e-07
8.294703899e-08
6.945179002e-07
-1.29861209345e-07
8.65516488406e-08
5.98604771223e-07
-1.30740757531e-07
8.78477276069e-08
5.03728841266e-07
-1.31237528409e-07
8.62345287692e-08
4.10099174483e-07
-1.31463604989e-07
8.45372646257e-08
3.21098668257e-07
-1.30470118641e-07
7.94499057947e-08
2.28571091843e-07
-1.28928303424e-07
8.25208315612e-08
1.28332499559e-07
-1.27255699252e-07
8.93299953055e-08
-1.19319849666e-07
1.11642288311e-07
6.35768740122e-06
1.31972187728e-05
-7.45823781506e-06
1.22495803476e-05
2.01270614795e-05
-7.78858879994e-06
1.23634174187e-05
3.32973130159e-05
-2.859306364e-06
6.72018130534e-06
4.54972972995e-05
2.50211227059e-06
-9.96321529615e-07
5.12951815368e-05
4.53395865134e-06
-8.91895170039e-06
5.12974925658e-05
4.75033797073e-06
-1.51120123147e-05
4.52377091367e-05
3.13644947661e-06
-1.65390313898e-05
3.29052071447e-05
-1.18186124158e-06
-1.3250474102e-05
1.89410266402e-05
-5.06858840393e-06
-8.70167185537e-06
9.19938023246e-06
-5.57646448189e-06
-5.19650539045e-06
4.09607001478e-06
-4.0873547896e-06
-2.91347419347e-06
1.61362031781e-06
-2.60541994487e-06
-1.53869606909e-06
5.26439611444e-07
-1.55752964242e-06
-7.37865305965e-07
6.73287740225e-08
-9.09156672848e-07
-2.71040920936e-07
-1.07102481441e-07
-5.39960925344e-07
2.00369482142e-08
-1.66816973086e-07
-3.39292619576e-07
2.27412938181e-07
-1.7504429401e-07
-2.44134745621e-07
4.01670669402e-07
-1.65387297971e-07
-2.04900671849e-07
5.63120454765e-07
-1.51117631518e-07
-1.88396830755e-07
7.14822816897e-07
-1.36914892387e-07
-1.76227450954e-07
8.52260625851e-07
-1.24744484117e-07
-1.60628011658e-07
9.68884517145e-07
-1.1563277901e-07
-1.38933611073e-07
1.05928335187e-06
-1.09419911686e-07
-1.12151463743e-07
1.1205539916e-06
-1.0545914959e-07
-8.2694512719e-08
1.15226628426e-06
-1.0331013033e-07
-5.27495931581e-08
1.15599769169e-06
-1.02510294237e-07
-2.42246046043e-08
1.13525291528e-06
-1.01960109719e-07
3.55472305123e-11
1.09348032723e-06
-1.02684540947e-07
2.0950249607e-08
1.03421010901e-06
-1.03673247453e-07
3.82515983159e-08
9.61206372461e-07
-1.0482363184e-07
5.17430269953e-08
8.780324589e-07
-1.05976491175e-07
6.16271756008e-08
7.8789876975e-07
-1.07012547021e-07
6.82750824581e-08
6.93753031215e-07
-1.07808366417e-07
7.19256888896e-08
5.97863347681e-07
-1.08339155979e-07
7.33179883644e-08
5.02981575155e-07
-1.08478101674e-07
7.19518363701e-08
4.09495052357e-07
-1.08467327848e-07
7.0321433773e-08
3.2066323627e-07
-1.07485687838e-07
6.56781832224e-08
2.28752724664e-07
-1.05996831567e-07
6.87966636892e-08
1.29131072587e-07
-1.04398774359e-07
7.65461985778e-08
-9.5715117346e-08
1.05289699987e-07
8.12468979529e-06
1.27564545473e-05
-7.68419810897e-06
1.52754279536e-05
1.94163254689e-05
-6.44023152456e-06
1.52067516194e-05
3.16453007378e-05
1.72059279599e-06
8.23926771248e-06
4.26060385049e-05
9.85881736803e-06
-1.00710498193e-06
4.76688407339e-05
1.28729396598e-05
-1.0474509809e-05
4.7673253915e-05
1.309193394e-05
-1.79915122735e-05
4.23117287921e-05
1.04432140258e-05
-1.97536412061e-05
3.11919137564e-05
3.47550180983e-06
-1.56834118949e-05
1.82345108421e-05
-3.3638000418e-06
-1.00798491035e-05
9.00769659957e-06
-5.41207590066e-06
-5.87235385381e-06
4.10700741254e-06
-4.21866695782e-06
-3.21795489895e-06
1.68552775742e-06
-2.72653087186e-06
-1.66679283979e-06
6.03573253824e-07
-1.62849284612e-06
-7.89451539228e-07
1.36169403072e-07
-9.46350094722e-07
-2.87799718563e-07
-4.92983517017e-08
-5.59597670942e-07
1.72425231777e-08
-1.16553049568e-07
-3.55424086112e-07
2.29627736318e-07
-1.33276466884e-07
-2.54251099565e-07
4.05198420143e-07
-1.28452176568e-07
-2.12591090443e-07
5.66636105922e-07
-1.17611413309e-07
-1.95025498784e-07
7.17801737226e-07
-1.06355616746e-07
-1.81810484505e-07
8.54445597047e-07
-9.61543303007e-08
-1.65327543891e-07
9.70308135433e-07
-8.82707049616e-08
-1.43326515908e-07
1.06010758507e-06
-8.29350835171e-08
-1.16392701636e-07
1.12089733131e-06
-7.96293604463e-08
-8.67315282017e-08
1.15225475414e-06
-7.7684924972e-08
-5.70954775657e-08
1.15591627983e-06
-7.66644885524e-08
-2.96203466718e-08
1.13484354932e-06
-7.67457257985e-08
-4.25710878271e-09
1.09300788864e-06
-7.71511502323e-08
1.61804583989e-08
1.03369771936e-06
-7.79114842984e-08
3.34172423825e-08
9.6069349748e-07
-7.88160567046e-08
4.68554718839e-08
8.7754950636e-07
-7.97146459938e-08
5.67322163865e-08
7.87468747398e-07
-8.04824726978e-08
6.33940369931e-08
6.93379652814e-07
-8.10253076902e-08
6.71447673066e-08
5.97550251466e-07
-8.13256914763e-08
6.86521919576e-08
5.02708948029e-07
-8.13073724304e-08
6.75068628597e-08
4.09396995848e-07
-8.12324977891e-08
6.59155958076e-08
3.20798963086e-07
-8.05092474154e-08
6.14599699085e-08
2.2944586377e-07
-7.94110377498e-08
6.45921008858e-08
1.30351972961e-07
-7.83358332733e-08
7.28182769498e-08
-7.12600527581e-08
1.05664209241e-07
9.804586789e-06
1.08505077671e-05
-7.89889761305e-06
1.80693831294e-05
1.63149846476e-05
-5.16364745465e-06
1.77741587759e-05
2.61451182664e-05
5.79538997706e-06
9.57133763263e-06
3.46407108808e-05
1.61683483059e-05
-1.02188161889e-06
3.84548901852e-05
1.98075484625e-05
-1.18548266922e-05
3.84640942812e-05
2.00425490091e-05
-2.06030549856e-05
3.43713765888e-05
1.66889414413e-05
-2.27337704413e-05
2.57226512711e-05
7.6001450587e-06
-1.79926942739e-05
1.52866256743e-05
-1.79323303328e-06
-1.14127650865e-05
7.68570226316e-06
-5.25811634955e-06
-6.53851000444e-06
3.57154123574e-06
-4.3390194629e-06
-3.52506618827e-06
1.50701824917e-06
-2.83515593104e-06
-1.79949881635e-06
5.68561780379e-07
-1.69074856685e-06
-8.43062049018e-07
1.56581515242e-07
-9.77011910331e-07
-3.07691172378e-07
-1.15644451269e-08
-5.73241571651e-07
1.19668685764e-08
-7.26656576738e-08
-3.63658726393e-07
2.30367160997e-07
-9.30252614574e-08
-2.58745286678e-07
4.07795091875e-07
-9.12971495675e-08
-2.14664639633e-07
5.6943009576e-07
-8.37654536659e-08
-1.95559896387e-07
7.20324778755e-07
-7.51834889504e-08
-1.82150667933e-07
8.56397810176e-07
-6.73581816606e-08
-1.64961729356e-07
9.71615790804e-07
-6.10330637854e-08
-1.42557030902e-07
1.0608852539e-06
-5.67213339847e-08
-1.15591361332e-07
1.12131607442e-06
-5.40530863453e-08
-8.61187057707e-08
1.15243053014e-06
-5.27126085988e-08
-5.61987955688e-08
1.15581168978e-06
-5.18504939048e-08
-2.83067083475e-08
1.13465170312e-06
-5.20064801816e-08
-3.69267637616e-09
1.09272618926e-06
-5.22222250292e-08
1.68771855671e-08
1.0333789108e-06
-5.27708109757e-08
3.40780530669e-08
9.60375159499e-07
-5.34583567959e-08
4.75076484869e-08
8.77263740338e-07
-5.41359909184e-08
5.73858082031e-08
7.87234798372e-07
-5.46982626016e-08
6.40913124636e-08
6.93203564327e-07
-5.50729964982e-08
6.79211683686e-08
5.97430574064e-07
-5.52606355487e-08
6.95480179213e-08
5.02626702933e-07
-5.52105633615e-08
6.85475571294e-08
4.09448487517e-07
-5.51685550753e-08
6.69573989229e-08
3.21025009662e-07
-5.47550387931e-08
6.25126264245e-08
2.30018437386e-07
-5.41025060175e-08
6.55276182047e-08
1.31283130393e-07
-5.34632900542e-08
7.36540179226e-08
-4.79046140015e-08
1.07697708521e-07
1.11683732706e-05
7.7980242195e-06
-8.11613126934e-06
2.02778760929e-05
1.15303421416e-05
-4.32501180825e-06
1.97774541693e-05
1.81446214688e-05
8.5009843809e-06
1.05893706769e-05
2.36835068022e-05
2.01456098952e-05
-1.03494666996e-06
2.60936005954e-05
2.39861308061e-05
-1.29198187518e-05
2.61026236238e-05
2.42469287803e-05
-2.26446644228e-05
2.3480928503e-05
2.06157717213e-05
-2.51029096934e-05
1.78465787075e-05
1.03345660503e-05
-1.98789593291e-05
1.07798977502e-05
-7.17222301983e-07
-1.25262080142e-05
5.51655440844e-06
-5.18376962284e-06
-7.1065409265e-06
2.60409106956e-06
-4.45244322415e-06
-3.79198437461e-06
1.12091688921e-06
-2.92867419144e-06
-1.91751862533e-06
4.36860341343e-07
-1.74295351524e-06
-8.92731248851e-07
1.33326092589e-07
-1.00169119932e-06
-3.26799033064e-07
6.47187289984e-09
-5.84101738653e-07
5.8003593402e-09
-3.87793214037e-08
-3.66595688164e-07
2.30217653474e-07
-5.57890686108e-08
-2.61744298706e-07
4.0954020708e-07
-5.61529737994e-08
-2.14546090127e-07
5.71554430905e-07
-5.14482251079e-08
-1.94408915318e-07
7.22270525467e-07
-4.5685707359e-08
-1.80297048586e-07
8.57980278459e-07
-4.03867183183e-08
-1.62773648834e-07
9.72704040668e-07
-3.60336951073e-08
-1.39824766239e-07
1.06154943936e-06
-3.30445257977e-08
-1.12630717614e-07
1.12163965979e-06
-3.11234579619e-08
-8.3131722572e-08
1.15262037992e-06
-3.0025169199e-08
-5.37801123579e-08
1.15574436721e-06
-2.98031709296e-08
-2.52823505705e-08
1.13456741612e-06
-2.97925162314e-08
-1.1495586569e-09
1.09255691562e-06
-2.99472373603e-08
1.96171531609e-08
1.03317451925e-06
-3.03489713586e-08
3.68330853228e-08
9.60171979717e-07
-3.08402839776e-08
5.02471605959e-08
8.7708825402e-07
-3.13347979732e-08
6.01367424029e-08
7.8710250801e-07
-3.17492640617e-08
6.68846262371e-08
6.93117972777e-07
-3.20235031759e-08
7.07787652586e-08
5.97388905675e-07
-3.21738101203e-08
7.24840277384e-08
5.02605965719e-07
-3.21612270487e-08
7.15761012517e-08
4.09506457681e-07
-3.21888465232e-08
6.99653146905e-08
3.21182025941e-07
-3.20303796069e-08
6.54458546975e-08
2.30331682707e-07
-3.17192921511e-08
6.82994131161e-08
1.31789381624e-07
-3.11510033306e-08
7.60235030814e-08
-2.60612969497e-08
1.09717650089e-07
1.20889134497e-05
4.03006076291e-06
-8.32117619058e-06
2.17434828305e-05
5.87630259644e-06
-4.00064279147e-06
2.10823509591e-05
9.11979556054e-06
9.68609864602e-06
1.12245084603e-05
1.17824827965e-05
2.17592962602e-05
-1.04491970674e-06
1.28965918967e-05
2.54670779546e-05
-1.36002284291e-05
1.29075798342e-05
2.57510479966e-05
-2.39729904453e-05
1.16770791283e-05
2.21771819965e-05
-2.66721210517e-05
8.97484638923e-06
1.15711751972e-05
-2.11655126385e-05
5.48985926797e-06
-2.16536159863e-07
-1.33051810462e-05
2.84650001561e-06
-5.19043048779e-06
-7.51251655044e-06
1.35870580795e-06
-4.5475013855e-06
-3.98590805765e-06
5.92947493752e-07
-2.99885568391e-06
-2.00468370233e-06
2.36631188954e-07
-1.78118182903e-06
-9.29660557548e-07
7.7537253519e-08
-1.01939096862e-06
-3.42818995005e-07
1.08569569426e-08
-5.91357468607e-07
7.61741204564e-10
-1.35958702722e-08
-3.68871964359e-07
2.2968561489e-07
-2.24501225971e-08
-2.6235178054e-07
4.10584959188e-07
-2.31804952491e-08
-2.13949904809e-07
5.72972238726e-07
-2.09610819374e-08
-1.92951281533e-07
7.23588001933e-07
-1.80882329525e-08
-1.78296376932e-07
8.59069213245e-07
-1.54144915634e-08
-1.60546217055e-07
9.73465972461e-07
-1.32229795272e-08
-1.37309669431e-07
1.06203575954e-06
-1.17338687342e-08
-1.09989591545e-07
1.12191530699e-06
-1.07188036735e-08
-8.03966437079e-08
1.15267037211e-06
-1.01882923084e-08
-5.07042540647e-08
1.15574010579e-06
-1.00286992154e-08
-2.29553464131e-08
1.13452086698e-06
-1.01536778255e-08
1.4679276391e-09
1.09244783384e-06
-1.03090681141e-08
2.23166094187e-08
1.0330424189e-06
-1.05910654141e-08
3.95200859153e-08
9.60038408106e-07
-1.09308475613e-08
5.29572588836e-08
8.76973374306e-07
-1.12681935349e-08
6.28526240886e-08
7.87020256462e-07
-1.15676781636e-08
6.96194495461e-08
6.9306736038e-07
-1.1784121277e-08
7.35573765896e-08
5.97368338132e-07
-1.19372132814e-08
7.5304495519e-08
5.02592537744e-07
-1.1998602654e-08
7.44561717056e-08
4.09528897992e-07
-1.21124798596e-08
7.28335840025e-08
3.21245599271e-07
-1.21393021722e-08
6.82393900011e-08
2.30437343987e-07
-1.20512940957e-08
7.09737006281e-08
1.31977151759e-07
-1.1218136556e-08
7.83217611422e-08
-5.53954726008e-09
1.11227649941e-07
1.25411852193e-05
-5.96549692458e-08
-8.45168353981e-06
2.24545899939e-05
-8.06579819392e-08
-3.95652643525e-06
2.17035731603e-05
-1.13368672687e-07
9.98438002037e-06
1.15191126493e-05
-1.41541075205e-07
2.21089902002e-05
-1.04880564085e-06
-1.56943194144e-07
2.56221730348e-05
-1.39136939774e-05
-1.53738337867e-07
2.59269728574e-05
-2.46068939748e-05
-1.37143471253e-07
2.25080506739e-05
-2.74376569642e-05
-1.04178862052e-07
1.19101390043e-05
-2.18038914565e-05
-6.8103877194e-08
-7.57487640276e-08
-1.3699039396e-05
-3.6693230659e-08
-5.22180395544e-06
-7.72101730093e-06
-1.66403869833e-08
-4.60289462894e-06
-4.08660584897e-06
-4.92235348626e-09
-3.03675600911e-06
-2.05028286396e-06
1.5522074037e-09
-1.80142878431e-06
-9.49602752776e-07
5.08361341553e-09
-1.02838155937e-06
-3.5055875466e-07
6.91155351562e-09
-5.95228043909e-07
-1.89774254389e-09
7.85928026049e-09
-3.70222725769e-07
2.29269046629e-07
8.18512367361e-09
-2.61890055627e-07
4.11054871515e-07
8.35898349415e-09
-2.13402860605e-07
5.73674048771e-07
8.38265659593e-09
-1.92039676981e-07
7.24252469278e-07
8.36034581262e-09
-1.77110361398e-07
8.59618845315e-07
8.32430988609e-09
-1.59198373479e-07
9.73844651711e-07
8.33516494655e-09
-1.35886671062e-07
1.06229345126e-06
8.29290533067e-09
-1.08585295888e-07
1.12205320892e-06
8.23681177481e-09
-7.8828371946e-08
1.15270783866e-06
8.15651714271e-09
-4.91122229886e-08
1.15570813171e-06
8.06693202111e-09
-2.12074380512e-08
1.13448465192e-06
7.91702738967e-09
3.0399690656e-09
1.09237260784e-06
7.75866850653e-09
2.39256830643e-08
1.03295442178e-06
7.57166476747e-09
4.11275909822e-08
9.59951648891e-07
7.37270964765e-09
5.45614027398e-08
8.76895752828e-07
7.17003096608e-09
6.44713533928e-08
7.86961663989e-07
6.97391408955e-09
7.12399247429e-08
6.93026693152e-07
6.79782972511e-09
7.51964450342e-08
5.97340839769e-07
6.62940854417e-09
7.69609437461e-08
5.02563715689e-07
6.47238262151e-09
7.61489002994e-08
4.09507406372e-07
6.26429822497e-09
7.45257907816e-08
3.21225184989e-07
6.07736354847e-09
6.99128632115e-08
2.30408052341e-07
6.00523961664e-09
7.25942486926e-08
1.31968106854e-07
7.27869054333e-09
7.97376693013e-08
1.41354049951e-08
1.12065446186e-07
1.25368564846e-05
-4.14377551557e-06
-8.45294351596e-06
2.24473373827e-05
-6.0298586698e-06
-3.9613447024e-06
2.16965847261e-05
-9.33720079147e-06
9.97481562727e-06
1.15150310265e-05
-1.20539931734e-05
2.20945496516e-05
-1.04818950898e-06
-1.31954599291e-05
2.56024917239e-05
-1.39094470164e-05
-1.32034412252e-05
2.59117518558e-05
-2.45988577964e-05
-1.19358995792e-05
2.2488810934e-05
-2.74287781499e-05
-9.17186339861e-06
1.18979638005e-05
-2.17960896194e-05
-5.61871006569e-06
-8.20256487222e-08
-1.36938268967e-05
-2.91587874723e-06
-5.22322018298e-06
-7.71790576853e-06
-1.38999379386e-06
-4.60278415034e-06
-4.08486163261e-06
-6.0186601974e-07
-3.0363129698e-06
-2.04933254915e-06
-2.33122086672e-07
-1.80103836974e-06
-9.49090764211e-07
-6.7234155353e-08
-1.02807840632e-06
-3.50296053554e-07
2.94529458929e-09
-5.94957413597e-07
-1.80433127845e-09
2.92731860447e-08
-3.70011825108e-07
2.29314333196e-07
3.87887258452e-08
-2.61810101536e-07
4.11065387585e-07
3.98609467729e-08
-2.13330590581e-07
5.73668458779e-07
3.76366542621e-08
-1.91933978645e-07
7.24244864865e-07
3.47147973451e-08
-1.77014420073e-07
8.59618928639e-07
3.1993798802e-08
-1.59136966507e-07
9.73835252095e-07
2.97786444803e-08
-1.35762767568e-07
1.06227957944e-06
2.82038109119e-08
-1.08465244131e-07
1.12203359513e-06
2.7070029517e-08
-7.87005662617e-08
1.15268528856e-06
2.6364582332e-08
-4.89729114201e-08
1.15567067909e-06
2.60072332715e-08
-2.10376128861e-08
1.13444459227e-06
2.58507996746e-08
3.17904751398e-09
1.09232704254e-06
2.56890159335e-08
2.40680622741e-08
1.03290514093e-06
2.56026942185e-08
4.12624632697e-08
9.59901191576e-07
2.55436296748e-08
5.46946763358e-08
8.76846774922e-07
2.54772322194e-08
6.46003824534e-08
7.86916952419e-07
2.53893289003e-08
7.13613542164e-08
6.92984119162e-07
2.52576646301e-08
7.53159734067e-08
5.97298334794e-07
2.5074388608e-08
7.70820938569e-08
5.0251083418e-07
2.48231598334e-08
7.62790963007e-08
4.09440657803e-07
2.45176615158e-08
7.46627377389e-08
3.2113462578e-07
2.4159595851e-08
7.00708242603e-08
2.30295505821e-07
2.39038299695e-08
7.2773883494e-08
1.31853082388e-07
2.55759012556e-08
7.99393844897e-08
3.36807748854e-08
1.12079613468e-07
1.20761191637e-05
-7.89582501102e-06
-8.32427814683e-06
2.17222177868e-05
-1.16624118094e-05
-4.01360868619e-06
2.10626666503e-05
-1.83335255992e-05
9.6561082043e-06
1.12136684747e-05
-2.39217561005e-05
2.17173017516e-05
-1.04349239177e-06
-2.63520143601e-05
2.54144563746e-05
-1.35868160209e-05
-2.63562222902e-05
2.56968735475e-05
-2.39499946029e-05
-2.37019878026e-05
2.21298856978e-05
-2.66469004864e-05
-1.80133591108e-05
1.15387372798e-05
-2.11430353396e-05
-1.08882442996e-05
-2.3428793265e-07
-1.32901028722e-05
-5.57456992943e-06
-5.1943880638e-06
-7.50353723021e-06
-2.62969658254e-06
-4.54707822834e-06
-3.98085276114e-06
-1.12721418369e-06
-2.99754732784e-06
-2.00192403655e-06
-4.3226645619e-07
-1.77996747325e-06
-9.28161360028e-07
-1.22711160143e-07
-1.01844029902e-06
-3.42078192609e-07
7.24146841911e-09
-5.90508758672e-07
1.06245791432e-09
5.41800763853e-08
-3.68154269136e-07
2.29802157821e-07
7.1877801446e-08
-2.61917198086e-07
4.10603838182e-07
7.26281587014e-08
-2.13647003891e-07
5.72954161461e-07
6.78478369585e-08
-1.92638772185e-07
7.23566929301e-07
6.20200452241e-08
-1.78001713913e-07
8.5906325541e-07
5.67070780091e-08
-1.60303001017e-07
9.73435604085e-07
5.22671244598e-08
-1.36963729594e-07
1.061992676e-06
4.91637642621e-08
-1.09627020817e-07
1.12185452635e-06
4.70979799159e-08
-8.00032298277e-08
1.15259712752e-06
4.58233672396e-08
-5.0314788673e-08
1.15563303106e-06
4.54077618862e-08
-2.25487715734e-08
1.13440501498e-06
4.50679167409e-08
1.89707646442e-09
1.09230798741e-06
4.49113108394e-08
2.2754979766e-08
1.03289331362e-06
4.4943866968e-08
3.99445095094e-08
9.5988726209e-07
4.50420656861e-08
5.33687590928e-08
8.76827307045e-07
4.51375261229e-08
6.3252406143e-08
7.86887140074e-07
4.51820720453e-08
6.99940046235e-08
6.92941859001e-07
4.51189692486e-08
7.39266062501e-08
5.97239345593e-07
4.4942965276e-08
7.56748619844e-08
5.024337768e-07
4.46178306746e-08
7.48528522868e-08
4.09325168647e-07
4.42162668144e-08
7.3255430814e-08
3.20964750639e-07
4.3636450675e-08
6.87299915459e-08
2.30087712324e-07
4.30903444259e-08
7.1523150787e-08
1.31620252265e-07
4.48895402907e-08
7.89471183729e-08
5.37464102505e-08
1.1132558184e-07
1.1148521228e-05
-1.09250723352e-05
-8.11949119028e-06
2.02441798662e-05
-1.6414611124e-05
-4.34353864386e-06
1.97462318773e-05
-2.62888098187e-05
8.4534350712e-06
1.05729113903e-05
-3.4824596036e-05
2.00766547788e-05
-1.03202059444e-06
-3.86535552181e-05
2.39071554096e-05
-1.2898359727e-05
-3.86571555642e-05
2.4167975352e-05
-2.26085872182e-05
-3.45367965617e-05
2.05455893044e-05
-2.50633897953e-05
-2.58461865067e-05
1.02879144615e-05
-1.98440250204e-05
-1.53643767928e-05
-7.43217294572e-07
-1.25027394481e-05
-7.72716075351e-06
-5.18885032878e-06
-7.09248459355e-06
-3.58879958095e-06
-4.45136751555e-06
-3.78404179429e-06
-1.50950242144e-06
-2.92636496815e-06
-1.91317461449e-06
-5.62457668317e-07
-1.74085979442e-06
-8.9040428646e-07
-1.45548512581e-07
-1.00008915826e-06
-3.25586731829e-07
2.51266337368e-08
-5.82833887991e-07
6.30186213057e-09
8.73715669441e-08
-3.65188560341e-07
2.30414468833e-07
1.08498932006e-07
-2.60823805953e-07
4.09554784568e-07
1.07230011994e-07
-2.13821612777e-07
5.71519506829e-07
9.96698366696e-08
-1.93864827336e-07
7.22244006721e-07
9.10267403341e-08
-1.79815246798e-07
8.57953710045e-07
8.31147618689e-08
-1.62210813047e-07
9.72644647211e-07
7.6639675171e-08
-1.39166294786e-07
1.06147019467e-06
7.21794138318e-08
-1.11951142665e-07
1.121535976e-06
6.93070695003e-08
-8.23884253614e-08
1.15249829035e-06
6.78038334456e-08
-5.30565818067e-08
1.15555501335e-06
6.67826575536e-08
-2.45446654997e-08
1.13437406096e-06
6.6540700355e-08
-4.06603170985e-10
1.09232628077e-06
6.64587094634e-08
2.03795847349e-08
1.03292815261e-06
6.66462451366e-08
3.75657610689e-08
9.59921633882e-07
6.69435693748e-08
5.09652720617e-08
8.76849441781e-07
6.72393305678e-08
6.08223450124e-08
7.86883967007e-07
6.74557046252e-08
6.75376840358e-08
6.92911189817e-07
6.75151906572e-08
7.1418433151e-08
5.97175870691e-07
6.73920307571e-08
7.31263456183e-08
5.02338939283e-07
6.70303238146e-08
7.22654104603e-08
4.09158515167e-07
6.65442680136e-08
7.0696661994e-08
3.20691758284e-07
6.56598172117e-08
6.62883867271e-08
2.29715952504e-07
6.46578064839e-08
6.92392878966e-08
1.31180748855e-07
6.61506010678e-08
7.7065515838e-08
7.47557729593e-08
1.09940274552e-07
9.77955579343e-06
-1.28045424728e-05
-7.90031908538e-06
1.80258210987e-05
-1.94792315742e-05
-5.18175635899e-06
1.77340252639e-05
-3.17340532892e-05
5.73718391209e-06
9.55112865858e-06
-4.27201471008e-05
1.6078858359e-05
-1.01706282805e-06
-4.77937562272e-05
1.97089734669e-05
-1.18265905704e-05
-4.77939368978e-05
1.99469039828e-05
-2.05569294066e-05
-4.2412566795e-05
1.66065632012e-05
-2.26832104015e-05
-3.12663131291e-05
7.54661931434e-06
-1.79487913917e-05
-1.82780122626e-05
-1.82080681078e-06
-1.13830964576e-05
-9.03053764101e-06
-5.26248628067e-06
-6.52064157653e-06
-4.11497811558e-06
-4.33649411364e-06
-3.51486694522e-06
-1.68393778746e-06
-2.8315508648e-06
-1.79385265207e-06
-5.95843168426e-07