/*--------------------------------*- C++ -*----------------------------------*\
| =========                 |                                                 |
| \\      /  F ield         | OpenFOAM: The Open Source CFD Toolbox           |
|  \\    /   O peration     | Version:  3.0.1                                 |
|   \\  /    A nd           | Web:      www.OpenFOAM.org                      |
|    \\/     M anipulation  |                                                 |
\*---------------------------------------------------------------------------*/
FoamFile
{
    version     2.0;
    format      ascii;
    class       volScalarField;
    location    "5.4";
    object      p;
}
// * * * * * * * * * * * * * * * * * * * * * * * * * * * * * * * * * * * * * //

dimensions      [1 -1 -2 0 0 0 0];

internalField   nonuniform List<scalar> 
7968
(
4646.68418686
4646.69026018
4646.66691924
4646.62945442
4646.58525867
4646.54175986
4646.50841275
4646.48614008
4646.47212352
4646.46333397
4646.45790692
4646.45580972
4646.45892233
4646.47037561
4646.49326915
4646.52688794
4646.56263137
4646.59345035
4646.61251419
4646.60462851
4646.69136426
4646.72222161
4646.71116055
4646.6802325
4646.63713673
4646.59438568
4646.55941538
4646.53644628
4646.52258965
4646.51400151
4646.50857516
4646.5062794
4646.50923083
4646.52134481
4646.54574982
4646.57874959
4646.61326459
4646.63747137
4646.64430431
4646.61175403
4646.67059041
4646.71366887
4646.70516331
4646.66923476
4646.61487938
4646.55900859
4646.51246724
4646.48009973
4646.45980218
4646.44796963
4646.4425026
4646.44339927
4646.45281694
4646.47440275
4646.51043941
4646.55648041
4646.60210359
4646.63113086
4646.63534456
4646.59069107
4646.63677047
4646.68648825
4646.67300767
4646.62368995
4646.55238206
4646.48161609
4646.42504565
4646.38643856
4646.36259368
4646.34908395
4646.34362562
4646.34622523
4646.35929432
4646.3872779
4646.4334404
4646.4942895
4646.55663452
4646.59875816
4646.60778064
4646.55656185
4646.59714439
4646.64799963
4646.62327804
4646.55698386
4646.47117584
4646.3935064
4646.33662852
4646.30120044
4646.28105684
4646.26961747
4646.2642327
4646.26489509
4646.27439698
4646.29938723
4646.34606353
4646.41380803
4646.4904268
4646.54916515
4646.56917433
4646.51683958
4646.55890634
4646.61052922
4646.57264065
4646.49139175
4646.39868982
4646.32326015
4646.27494629
4646.25138851
4646.24143769
4646.23534223
4646.23008789
4646.22555861
4646.2249148
4646.2381809
4646.27649464
4646.34223061
4646.42563791
4646.49898035
4646.53187582
4646.47878633
4646.53118889
4646.5812515
4646.53174924
4646.44045137
4646.3475185
4646.28072054
4646.24750908
4646.24234042
4646.24747118
4646.24917782
4646.24411125
4646.2319256
4646.21612722
4646.21098148
4646.23440387
4646.29171123
4646.375472
4646.45864781
4646.50293795
4646.45137903
4646.51472151
4646.56416931
4646.50528164
4646.40779121
4646.31813236
4646.26337136
4646.24867227
4646.26544277
4646.28980543
4646.30491381
4646.30031283
4646.27515887
4646.23936671
4646.21211782
4646.21719213
4646.26276034
4646.34335685
4646.43266464
4646.48621702
4646.43528829
4646.5065173
4646.55622146
4646.49097722
4646.39006373
4646.30422989
4646.25981503
4646.26031404
4646.29633012
4646.3441179
4646.37206072
4646.36768114
4646.33024551
4646.27098619
4646.22364954
4646.21361477
4646.24905467
4646.32592464
4646.41867874
4646.47855241
4646.42739959
4646.50340617
4646.55339841
4646.48505066
4646.3826216
4646.29893737
4646.25992081
4646.26821705
4646.31745715
4646.37803386
4646.41106942
4646.40671425
4646.36421621
4646.29243453
4646.231718
4646.21384107
4646.24393901
4646.31866368
4646.41295774
4646.47593648
4646.42451648
4646.50342688
4646.55349022
4646.48524006
4646.38295873
4646.29945236
4646.26062704
4646.26911463
4646.31858215
4646.37936313
4646.41251848
4646.40819876
4646.36564131
4646.29369962
4646.23278424
4646.21473432
4646.2446458
4646.31918333
4646.41330705
4646.47617072
4646.42468527
4646.5065062
4646.55641709
4646.49144805
4646.39096082
4646.30565341
4646.26181558
4646.2628944
4646.29957611
4646.34801313
4646.37628474
4646.37199818
4646.33439543
4646.27460948
4646.22669906
4646.21614499
4646.25102792
4646.32734625
4646.41962092
4646.47917758
4646.42783369
4646.51449089
4646.56424976
4646.50576566
4646.40892141
4646.3200894
4646.26626626
4646.25252624
4646.27023322
4646.29557808
4646.3112572
4646.30679002
4646.28130348
4646.24471673
4646.21668441
4646.22090228
4646.26557187
4646.34530813
4646.43390387
4646.48700186
4646.43578766
4646.53048539
4646.58089718
4646.53186515
4646.44132987
4646.34940544
4646.28376731
4646.2517737
4646.24778929
4646.25386476
4646.25618588
4646.25128134
4646.23878018
4646.22227811
4646.21613903
4646.23848511
4646.29468525
4646.37740493
4646.45975728
4646.50353172
4646.45167546
4646.55752196
4646.60944883
4646.57204306
4646.49155478
4646.39989581
4646.32568941
4646.27867015
4646.25635465
4646.24740852
4646.24194356
4646.23686526
4646.23203739
4646.23066878
4646.24291929
4646.28011805
4646.34469928
4646.42702723
4646.49956152
4646.53194914
4646.47864704
4646.59484529
4646.64608986
4646.62178557
4646.55615252
4646.47127543
4646.39476258
4646.33911689
4646.30485896
4646.28568735
4646.27485611
4646.26964728
4646.27004191
4646.27886448
4646.30292232
4646.34858271
4646.41521726
4646.49091012
4646.54898541
4646.56860616
4646.5159815
4646.63365352
4646.68371272
4646.6705816
4646.6218026
4646.55127094
4646.4814796
4646.42599489
4646.3884411
4646.36548041
4646.35253847
4646.34723296
4646.34958552
4646.36204775
4646.38920521
4646.4344675
4646.49444569
4646.55607656
4646.59772462
4646.60647813
4646.55506846
4646.66680381
4646.71020974
4646.70198572
4646.6664733
4646.61273294
4646.55765713
4646.51200095
4646.48050001
4646.46092391
4646.44955252
4646.44422232
4646.44492873
4646.45387389
4646.47481574
4646.51015892
4646.55555284
4646.60068557
4646.62941692
4646.63346586
4646.5886666
4646.68722495
4646.71836975
4646.70755915
4646.67697917
4646.63437963
4646.59231585
4646.55813659
4646.53594988
4646.52273607
4646.51455559
4646.50924991
4646.5067882
4646.50933149
4646.52089167
4646.54471873
4646.57723096
4646.61141522
4646.63541965
4646.64214957
4646.60949056
4646.67996118
4646.686372
4646.66329302
4646.62621016
4646.58254689
4646.53971064
4646.50712849
4646.48559865
4646.47218217
4646.46377233
4646.45846291
4646.45622088
4646.45896876
4646.46992432
4646.49230095
4646.52545505
4646.56085854
4646.59144136
4646.61034429
4646.60223228
4157.03898555
4157.03214223
4156.99829726
4156.95262442
4156.90515422
4156.86225194
4156.82956679
4156.80889725
4156.79657079
4156.78871475
4156.78328833
4156.78023874
4156.78157123
4156.79121657
4156.81310955
4156.84591111
4156.88461347
4156.92335164
4156.95272099
4156.95779228
4157.03314501
4157.0452397
4157.01710906
4156.97609628
4156.93567753
4156.90189134
4156.87694559
4156.86244221
4156.85429706
4156.84843893
4156.84306079
4156.83810959
4156.83534964
4156.83888621
4156.85307763
4156.87687072
4156.90838698
4156.94228241
4156.96594622
4156.95219499
4157.00173763
4157.01953865
4156.9844392
4156.93474093
4156.88654135
4156.84656148
4156.81750803
4156.79955884
4156.78879708
4156.78146751
4156.7760968
4156.77266453
4156.77264271
4156.77979336
4156.79822145
4156.82812809
4156.86725229
4156.90959967
4156.94009909
4156.92064639
4156.95989543
4156.98235044
4156.93856468
4156.87741572
4156.82111238
4156.7777252
4156.74856989
4156.73139288
4156.7215791
4156.71426824
4156.70891711
4156.70555128
4156.70476714
4156.71129979
4156.73001908
4156.7633729
4156.81043903
4156.86390053
4156.90283123
4156.87866232
4156.91716781
4156.94672121
4156.89510247
4156.82582109
4156.76944186
4156.73475617
4156.72019744
4156.71794355
4156.71844121
4156.71638273
4156.71119879
4156.70280028
4156.69183043
4156.68361882
4156.68780252
4156.71258457
4156.75969682
4156.82100303
4156.86745485
4156.83602766
4156.87964452
4156.91830523
4156.86048484
4156.78778524
4156.7401865
4156.72536934
4156.73559956
4156.75770644
4156.77590131
4156.78269308
4156.77783449
4156.76102114
4156.73244287
4156.69995387
4156.67935402
4156.68415621
4156.72257355
4156.78708051
4156.8394285
4156.79887961
4156.85272554
4156.8991476
4156.83724094
4156.76448389
4156.73168224
4156.7417422
4156.78247636
4156.83425894
4156.87388259
4156.89103385
4156.88660351
4156.86006452
4156.81016616
4156.74770022
4156.69640848
4156.67629102
4156.70000803
4156.76449665
4156.8208194
4156.77246193
4156.83797605
4156.8906351
4156.82535457
4156.75351072
4156.73572953
4156.77027612
4156.84072284
4156.92166532
4156.97914992
4157.00024605
4156.99577066
4156.96516946
4156.89818104
4156.80633019
4156.72514209
4156.68070366
4156.68949365
4156.75307989
4156.81278731
4156.75822017
4156.83154589
4156.88846011
4156.82068958
4156.74996037
4156.74265418
4156.79493962
4156.88669266
4156.98544039
4157.04684988
4157.07338447
4157.06904791
4157.0329906
4156.96110153
4156.85216866
4156.74959573
4156.68761582
4156.68603853
4156.74866422
4156.8109325
4156.75218236
4156.82941771
4156.88838697
4156.81928312
4156.74869309
4156.74679752
4156.80779013
4156.90957427
4157.01228091
4157.07915508
4157.1105278
4157.10628113
4157.06556907
4156.98811654
4156.87505355
4156.76239241
4156.691783
4156.68495809
4156.74745458
4156.81107015
4156.75031691
4156.82947646
4156.88853393
4156.81956608
4156.74914911
4156.74745878
4156.80865129
4156.91060153
4157.01343402
4157.08050094
4157.11202564
4157.10781515
4157.06701343
4156.9894206
4156.87627839
4156.76347122
4156.69267672
4156.68564297
4156.74794236
4156.81139014
4156.75053804
4156.83164113
4156.88881789
4156.82144329
4156.75123641
4156.7445524
4156.79746341
4156.88976215
4156.98890528
4157.05075962
4157.0776929
4157.07345137
4157.03717032
4156.96497151
4156.85576795
4156.75272359
4156.69016402
4156.68796655
4156.75001097
4156.81180674
4156.75276974
4156.83789907
4156.89097886
4156.82630412
4156.75529354
4156.73851838
4156.77412545
4156.8455573
4156.92739257
4156.98532358
4157.00695322
4157.00262548
4156.97175523
4156.90451782
4156.8119436
4156.72990331
4156.68448466
4156.69227604
4156.75495851
4156.81396512
4156.75895351
4156.85217617
4156.89912147
4156.8379452
4156.76620268
4156.73471201
4156.74617142
4156.78829338
4156.84136517
4156.88203951
4156.89985282
4156.89560988
4156.86874231
4156.81804668
4156.75448557
4156.70198552
4156.68057484
4156.70300002
4156.76641125
4156.82191814
4156.77301338
4156.8783548
4156.91758181
4156.8605267
4156.78890603
4156.74271203
4156.72940849
4156.7412309
4156.76478779
4156.78417328
4156.79170512
4156.78705502
4156.76988257
4156.74041892
4156.70672269
4156.6847727
4156.6881368
4156.72518738
4156.78856749
4156.84008152
4156.79893718
4156.91498415
4156.94517558
4156.89420762
4156.82591414
4156.77086027
4156.7377236
4156.72472776
4156.72390945
4156.72557864
4156.7242734
4156.71930887
4156.71055973
4156.69875377
4156.68937956
4156.69218742
4156.71560135
4156.76143074
4156.82172313
4156.86747322
4156.83538117
4156.95688057
4156.97986502
4156.93659202
4156.87626692
4156.82112165
4156.77907634
4156.75127896
4156.73551673
4156.72670284
4156.71998187
4156.71485264
4156.71128095
4156.70983712
4156.71524145
4156.73281962
4156.76500581
4156.81099096
4156.86363475
4156.90202862
4156.87732752
4156.9980669
4157.01626028
4156.9815168
4156.93243393
4156.88517116
4156.84629713
4156.8183862
4156.80153872
4156.79165099
4156.78487682
4156.77969377
4156.77606204
4156.77548294
4156.78180771
4156.79933027
4156.82833499
4156.86663313
4156.90840699
4156.93857571
4156.91874639
4157.02906583
4157.04149737
4157.01362538
4156.97307542
4156.93340705
4156.90050171
4156.8764999
4156.86291796
4156.85551011
4156.85011741
4156.84489801
4156.83979373
4156.83658438
4156.8394756
4156.85296945
4156.87609684
4156.90700116
4156.94053576
4156.96399687
4156.94996683
4157.0348467
4157.02838251
4156.99481678
4156.94955894
4156.90270862
4156.86058871
4156.82876142
4156.80892889
4156.79727862
4156.78985465
4156.78457601
4156.78138618
4156.78232023
4156.79140459
4156.81269834
4156.84493399
4156.88318558
4156.92161634
4156.95077716
4156.95553233
3667.41108567
3667.39730639
3667.35768519
3667.3068082
3667.25633206
3667.21198327
3667.1782331
3667.15630078
3667.14283742
3667.13426104
3667.1287972
3667.12635924
3667.12862723
3667.13920389
3667.16170718
3667.19546731
3667.23662382
3667.28007431
3667.31486967
3667.32673387
3667.39833501
3667.41032996
3667.38245246
3667.34081171
3667.30492478
3667.27782134
3667.25943958
3667.24899007
3667.24275135
3667.2375775
3667.23219637
3667.22651477
3667.22172873
3667.22098904
3667.22829955
3667.24498892
3667.27141782
3667.30535552
3667.32830071
3667.31443276
3667.36131116
3667.38502727
3667.3470431
3667.28933365
3667.23920038
3667.20163274
3667.17727778
3667.16399037
3667.15642416
3667.15063434
3667.14519535
3667.14006912
3667.13676064
3667.13919684
3667.15268761
3667.17975597
3667.22025606
3667.27004828
3667.30296107
3667.27729673
3667.31445517
3667.34743753
3667.29339498
3667.21381715
3667.14797034
3667.10360373
3667.07930574
3667.06998452
3667.06502083
3667.06075245
3667.0552457
3667.04856184
3667.04304603
3667.0421313
3667.05567457
3667.08932862
3667.14530172
3667.21668839
3667.2654605
3667.23041135
3667.26894816
3667.31657425
3667.24829323
3667.15294235
3667.08117611
3667.0426836
3666.98264917
3667.0044918
3667.05642961
3667.0585292
3667.05338263
3667.04126128
3667.06371418
3667.05354414
3666.99768014
3667.02445492
3667.08556606
3667.17228484
3667.23504384
3667.18521908
3667.23020189
3667.29515589
3667.21638184
3667.11390634
3667.0476503
3666.88953001
3666.77408723
3666.95437578
3667.13073036
3667.14330045
3667.13959041
3667.1199432
3667.23800288
3667.33876831
3667.14742033
3666.99486895
3667.0485219
3667.14126978
3667.21414231
3667.14711725
3667.20242202
3667.28284669
3667.19804062
3667.09504753
3666.9924964
3666.56343595
3666.45863279
3666.83533419
3667.13618925
3667.16206234
3667.16091162
3667.13282909
3667.35328298
3667.67094705
3667.50784405
3667.04883714
3667.03197852
3667.12383292
3667.20245928
3667.12014015
3667.1865937
3667.27862909
3667.19107769
3667.09154365
3666.90092436
3666.29798833
3666.25547885
3666.74187412
3667.11785009
3667.15721947
3667.15775393
3667.11932964
3667.38597354
3667.81753405
3667.76341916
3667.14913934
3667.02968947
3667.11732133
3667.19876765
3667.10506835
3667.17916442
3667.27854077
3667.18995648
3667.09305361
3666.8648176
3666.23507613
3666.21506871
3666.73998541
3667.14717915
3667.19517181
3667.1957267
3667.14880342
3667.41514135
3667.86533925
3667.83486526
3667.19674561
3667.03129592
3667.11625565
3667.19902429
3667.09819415
3667.1764043
3667.27925393
3667.19041246
3667.09534325
3666.8733155
3666.25281639
3666.24360604
3666.77998802
3667.19536684
3667.24744087
3667.24758831
3667.19596991
3667.45349501
3667.89175699
3667.85103104
3667.20481945
3667.0334639
3667.11671409
3667.1999561
3667.09576593
3667.17649675
3667.27946523
3667.19083859
3667.09600422
3666.87426837
3666.25411632
3666.24482042
3666.78102495
3667.1964879
3667.24878272
3667.24894376
3667.19716973
3667.45435453
3667.89234363
3667.85174017
3667.20587153
3667.03438424
3667.11735964
3667.20033529
3667.09601748
3667.17934126
3667.27906637
3667.19111162
3667.09490914
3666.86755409
3666.2388619
3666.21865364
3666.74307258
3667.15044687
3667.1990085
3667.19960133
3667.1523099
3667.41765087
3667.86697564
3667.83681944
3667.19967252
3667.03387283
3667.11805686
3667.20007444
3667.09886634
3667.1866221
3667.27923859
3667.19263795
3667.09417459
3666.89394974
3666.26489309
3666.19373341
3666.66356678
3667.03561079
3667.07612066
3667.07714776
3667.0386282
3667.30748766
3667.75267489
3667.72788643
3667.14297304
3667.03340716
3667.11988707
3667.20022501
3667.1059118
3667.20196532
3667.28316204
3667.19946645
3667.0978168
3666.98291236
3666.49317913
3666.30755523
3666.63881538
3666.92826651
3666.9559457
3666.95588271
3666.92817805
3667.15803134
3667.51748317
3667.43688468
3667.04089199
3667.03613114
3667.12655767
3667.20391051
3667.12077981
3667.22894888
3667.29481031
3667.21710732
3667.11600667
3667.05114318
3666.85601441
3666.65445379
3666.76837841
3666.92814396
3666.94254269
3666.93996512
3666.92066732
3667.05451162
3667.21995048
3667.1154666
3667.00010399
3667.05228551
3667.14353952
3667.21517964
3667.1471927
3667.26674594
3667.31535998
3667.24792293
3667.15383858
3667.0835616
3667.0465694
3666.97459461
3666.97312718
3667.0154012
3667.01860117
3667.01395401
3667.00166352
3667.03367278
3667.046662
3667.00330048
3667.02873408
3667.08829065
3667.1736239
3667.23540424
3667.18452246
3667.31134509
3667.34516743
3667.29175689
3667.21321714
3667.14881077
3667.10606185
3667.08333782
3667.07516748
3667.07142287
3667.06795462
3667.06271391
3667.05570066
3667.04931099
3667.04753458
3667.05974665
3667.09196503
3667.1465257
3667.21681478
3667.26487273
3667.22892189
3667.35749473
3667.3818177
3667.34425216
3667.28729034
3667.238327
3667.20218179
3667.17925748
3667.16725961
3667.16071992
3667.15557858
3667.15036193
3667.14500269
3667.14099469
3667.14242134
3667.15471007
3667.18053946
3667.21995767
3667.26901606
3667.30148756
3667.27516665
3667.39412345
3667.40652551
3667.37892362
3667.33781607
3667.30284096
3667.27684239
3667.25960918
3667.250227
3667.24481523
3667.24017305
3667.23496909
3667.22910376
3667.22377513
3667.22224017
3667.22865066
3667.2444461
3667.27009056
3667.30356327
3667.32626482
3667.31196902
3667.40686664
3667.39341656
3667.35403576
3667.30358652
3667.25382281
3667.21040814
3667.17768058
3667.1567377
3667.14406158
3667.13598481
3667.13068515
3667.12807478
3667.12984821
3667.13971122
3667.16143604
3667.19446546
3667.23505198
3667.27816153
3667.31279331
3667.32439155
3177.78183584
3177.76046219
3177.71734019
3177.66364219
3177.61075545
3177.56442687
3177.52864504
3177.50370724
3177.48723031
3177.47672936
3177.47108124
3177.47018767
3177.47504993
3177.48810723
3177.51197178
3177.54688298
3177.58956596
3177.63513394
3177.672856
3177.69213489
3177.76162149
3177.77122451
3177.74539535
3177.70352431
3177.66563755
3177.63506941
3177.61313389
3177.5983579
3177.58799086
3177.58027101
3177.57476329
3177.57136392
3177.57043477
3177.57364148
3177.58396189
3177.60328977
3177.63080604
3177.6641342
3177.68429472
3177.67226389
3177.72140143
3177.74827524
3177.70905399
3177.64455094
3177.58365892
3177.53421045
3177.50051505
3177.48069561
3177.46993261
3177.46300846
3177.45736914
3177.45304847
3177.45294448
3177.46187375
3177.48395313
3177.52177855
3177.57198954
3177.62781041
3177.66131736
3177.63190871
3177.67203097
3177.71077479
3177.6490629
3177.54867793
3177.4553574
3177.2979063
3177.16834678
3177.27959819
3177.37750636
3177.37592578
3177.37091594
3177.3629208
3177.44630474
3177.54206361
3177.44070837
3177.39545324
3177.47665107
3177.56805027
3177.62416363
3177.58268245
3177.62445554
3177.67825496
3177.5938087
3177.46083374
3177.14295933
3176.6805645
3176.6400324
3177.01888745
3177.27596945
3177.28623772
3177.28531769
3177.27376847
3177.52549507
3177.94629408
3177.93301437
3177.52384694
3177.39147699
3177.51361627
3177.59253306
3177.53583485
3177.5840745
3177.65375056
3177.55052007
3177.30791641
3176.41351917
3175.86951777
3176.06100394
3176.58953792
3176.93329166
3176.96296877
3176.9700741
3176.95527293
3177.30209374
3178.03481927
3178.5248144
3178.15127729
3177.43444171
3177.47190953
3177.56901921
3177.49660208
3177.55455444
3177.63820998
3177.52272831
3176.96986189
3175.62604244
3175.36864027
3175.65710966
3176.21184452
3176.59643169
3176.64562792
3176.66048409
3176.64157176
3177.01763343
3177.85364988
3178.64633845
3178.79330202
3177.70174247
3177.44641405
3177.55447383
3177.46838011
3177.53597322
3177.63007279
3177.50920065
3176.63170611
3175.21717596
3175.12977701
3175.41110123
3175.98620232
3176.3988452
3176.46303072
3176.48144242
3176.45423354
3176.83237357
3177.70852902
3178.57688777
3179.03373604
3177.96490443
3177.43405796
3177.54699981
3177.45093588
3177.52573885
3177.62634435
3177.50525313
3176.52374997
3175.12345638
3175.07314961
3175.36546422
3175.95755239
3176.38889619
3176.46165303
3176.47911396
3176.44197833
3176.80635711
3177.67780613
3178.55404092
3179.07046281
3178.04611618
3177.42992872
3177.54349859
3177.44149118
3177.52122773
3177.62490453
3177.50508516
3176.52893746
3175.13688969
3175.09695923
3175.40062143
3176.00289726
3176.44237624
3176.51807276
3176.5337725
3176.49126266
3176.84631403
3177.70647152
3178.57229776
3179.08015009
3178.04941293
3177.42935788
3177.54205622
3177.43740287
3177.52129258
3177.62525114
3177.50568898
3176.53009857
3175.13826526
3175.09745811
3175.40008691
3176.00183976
3176.44161527
3176.5177602
3176.53334522
3176.49036235
3176.84493107
3177.70501965
3178.57135843
3179.07986057
3178.05008271
3177.43017565
3177.54256009
3177.43762109
3177.52580998
3177.62719623
3177.50685858
3176.52708838
3175.12741822
3175.07449847
3175.36393366
3175.95465454
3176.38668569
3176.46050317
3176.47761979
3176.4394915
3176.80250931
3177.67347862
3178.5510295
3179.06929824
3178.04786352
3177.43222551
3177.54491395
3177.44206351
3177.53581411
3177.63114714
3177.51138034
3176.61185391
3175.15950704
3175.04881201
3175.3181299
3175.8851876
3176.29615322
3176.36205295
3176.38079245
3176.35297336
3176.72852896
3177.60468829
3178.48181863
3178.9651917
3177.94334229
3177.43732543
3177.54899148
3177.45159946
3177.55381353
3177.63900582
3177.52477857
3176.92138459
3175.46681847
3175.1315257
3175.39241141
3175.92781092
3176.30668395
3176.35854269
3176.37469575
3176.35593083
3176.72873494
3177.56811655
3178.38511949
3178.62082509
3177.65392874
3177.44986943
3177.55648625
3177.4687472
3177.5824249
3177.65376131
3177.55176456
3177.28633934
3176.25483572
3175.53926405
3175.65502678
3176.15587294
3176.49152663
3176.52443239
3176.53357501
3176.51960123
3176.8652476
3177.60994905
3178.17790808
3177.98836372
3177.41501536
3177.47483414
3177.57046413
3177.49628503
3177.62172281
3177.67712335
3177.59368505
3177.46227049
3177.08995458
3176.45809074
3176.23794228
3176.53038103
3176.76959004
3176.78317094
3176.78474025
3176.77468035
3177.04010873
3177.53896786
3177.70819002
3177.47285156
3177.39497575
3177.5153062
3177.59298195
3177.53458927
3177.66825141
3177.70832115
3177.64736373
3177.54832962
3177.45678459
3177.27694916
3177.07179404
3177.10643624
3177.18083945
3177.1810234
3177.17723028
3177.16966398
3177.27605987
3177.44625767
3177.42092973
3177.39883012
3177.47820418
3177.5681161
3177.62334709
3177.58046648
3177.71685806
3177.74467225
3177.7059378
3177.64241343
3177.58311075
3177.5355719
3177.50356593
3177.48528566
3177.47569657
3177.46951941
3177.46414489
3177.45953507
3177.45852775
3177.46618417
3177.48678315
3177.52288432
3177.57156689
3177.62637013
3177.6593324
3177.62894724
3177.75667349
3177.76683635
3177.74130255
3177.70012315
3177.66345057
3177.6344042
3177.61400803
3177.60065536
3177.59131791
3177.58424806
3177.57895074
3177.57532814
3177.57363755
3177.57568914
3177.58467543
3177.60264835
3177.62902013
3177.6616504
3177.68154725
3177.66893073
3177.7769783
3177.75580375
3177.71291052
3177.65970792
3177.60768788
3177.56256273
3177.52807637
3177.50433463
3177.4887638
3177.47882393
3177.47335049
3177.47224717
3177.47649938
3177.48863365
3177.51143805
3177.54532576
3177.58720762
3177.63230281
3177.66987341
3177.68901118
2688.17568104
2688.15095544
2688.11349242
2688.06378386
2688.01373084
2687.96867685
2687.93303203
2687.90693201
2687.88875916
2687.87683473
2687.87076502
2687.87051986
2687.87639716
2687.88987594
2687.91268599
2687.94511648
2687.98364498
2688.02428542
2688.05529596
2688.07774369
2688.15238349
2688.14754893
2688.11690697
2688.06785036
2688.01838642
2687.97306018
2687.93656747
2687.90817107
2687.88809791
2687.87532394
2687.86932384
2687.87001375
2687.87817141
2687.89433351
2687.91851839
2687.95147296
2687.98931198
2688.02881229
2688.05281759
2688.05426556
2688.1182608
2688.12007941
2688.07373039
2687.99464679
2687.91110756
2687.74419625
2687.59870215
2687.69357926
2687.77911083
2687.77106006
2687.76597298
2687.7639671
2687.85853513
2687.96853113
2687.88155224
2687.84524945
2687.91620031
2687.98564888
2688.02568045
2688.02015188
2688.07319322
2688.07581584
2687.99983716
2687.86090155
2687.36881635
2686.98669423
2686.9736268
2687.25341432
2687.46852116
2687.47397235
2687.47544502
2687.473182
2687.73219345
2688.18436056
2688.34689101
2688.0826162
2687.79423706
2687.91175674
2687.9821388
2687.97575253
2688.02894079
2688.03231405
2687.92328851
2687.36318232
2686.32920154
2685.95743666
2686.05168798
2686.41935776
2686.71023282
2686.7482125
2686.76524847
2686.76258305
2687.11187714
2687.88996721
2688.64879
2688.81456178
2688.08815122
2687.83596742
2687.94001255
2687.93281684
2687.99033455
2687.9937473
2687.76414582
2686.34199224
2685.39874353
2685.14023194
2685.15521515
2685.53692773
2685.88137276
2685.95626083
2685.99174105
2685.98728378
2686.37475343
2687.30863722
2688.35041016
2689.17041345
2688.8829631
2687.86801347
2687.90284856
2687.89600833
2687.96140059
2687.96432504
2687.4129208
2685.47698943
2684.83676064
2684.48640781
2684.4630829
2684.84695285
2685.21898441
2685.3212931
2685.36778486
2685.3602006
2685.76550194
2686.79158029
2688.00060621
2689.07387358
2689.47736817
2688.11859547
2687.87447001
2687.86886655
2687.94210355
2687.94335857
2687.0591017
2685.10061668
2684.51456782
2684.12984187
2684.08931671
2684.48732995
2684.87551236
2684.99139995
2685.04364055
2685.02558282
2685.41514421
2686.46958788
2687.76826615
2688.95245107
2689.61650396
2688.36662939
2687.85398001
2687.85093335
2687.93056204
2687.93073328
2686.93875467
2685.00964971
2684.43950568
2684.06332728
2684.04071753
2684.45211349
2684.8603845
2684.98337438
2685.03107465
2685.0000132
2685.36795591
2686.40833714
2687.71194982
2688.90904523
2689.6155204
2688.43598835
2687.84104775
2687.84019406
2687.92498608
2687.92500344
2686.93738895
2685.01618552
2684.46194427
2684.10180987
2684.09411201
2684.51179704
2684.92621644
2685.04688448
2685.09154615
2685.05895672
2685.41907546
2686.44797745
2687.73790269
2688.92079898
2689.61616225
2688.43271083
2687.83488737
2687.83496532
2687.92490606
2687.92538986
2686.93840245
2685.01726277
2684.46105726
2684.09909688
2684.08923768
2684.50601551
2684.92163965
2685.04333454
2685.08755114
2685.05290536
2685.41284782
2686.44236027
2687.73355196
2688.91836882
2689.61517583
2688.43309388
2687.83536796
2687.83503527
2687.93020126
2687.93147674
2686.9412387
2685.01250725
2684.43677169
2684.05454112
2684.02804032
2684.4381466
2684.84931158
2684.97416181
2685.01903037
2684.98622349
2685.3521615
2686.39193377
2687.69861368
2688.90111907
2689.61224635
2688.43691947
2687.84244787
2687.84034818
2687.9412827
2687.944231
2687.03771038
2685.04771855
2684.44017229
2684.03952859
2683.98727729
2684.37897478
2684.7665215
2684.88447525
2684.93617872
2684.9168427
2685.30141339
2686.3505377
2687.65396462
2688.85410583
2689.54766787
2688.34396767
2687.85592052
2687.85094335
2687.95981097
2687.9647952
2687.3625919
2685.33255759
2684.62584789
2684.24402007
2684.19611975
2684.56249498
2684.92901804
2685.03461489
2685.0819017
2685.07346372
2685.4692418
2686.48534979
2687.70437217
2688.81790316
2689.31108979
2688.06969431
2687.87633782
2687.86838088
2687.98765632
2687.99328016
2687.74074817
2686.1708533
2685.07635194
2684.76401986
2684.73908699
2685.09176352
2685.42611859
2685.50488216
2685.54193819
2685.53680828
2685.91472632
2686.84363608
2687.91383823
2688.80420658
2688.7014302
2687.84712426
2687.90394861
2687.89465241
2688.02499494
2688.03042878
2687.92275541
2687.26505868
2686.01601752
2685.49509388
2685.53187913
2685.86352325
2686.14244101
2686.18475296
2686.20492136
2686.20296476
2686.54716656
2687.3345556
2688.14675865
2688.4845918
2687.9917751
2687.83744547
2687.93976718
2687.93032321
2688.06803067
2688.07235708
2687.99736167
2687.85863131
2687.26868382
2686.66009357
2686.46409589
2686.67475757
2686.87572429
2686.88484627
2686.88918637
2686.88854973
2687.15466041
2687.66534704
2688.01453933
2687.98255496
2687.79400468
2687.91108076
2687.98028962
2687.97206487
2688.11224184
2688.11528042
2688.0695927
2687.99173076
2687.91046711
2687.72225231
2687.5018576
2687.51994485
2687.58176276
2687.57539344
2687.57141814
2687.56996027
2687.68748936
2687.87193457
2687.8603548
2687.84624759
2687.91497942
2687.98310906
2688.02238829
2688.01555885
2688.14582882
2688.14173973
2688.11155809
2688.06342208
2688.0154936
2687.97217782
2687.9375852
2687.91090775
2687.89192242
2687.87992318
2687.87418353
2687.87465483
2687.88194625
2687.89666522
2687.91907843
2687.95015196
2687.98642822
2688.02491367
2688.04844482
2688.04908898
2688.16943739
2688.14460874
2688.1074296
2688.0583548
2688.00917768
2687.96560529
2687.93149085
2687.90671904
2687.88950057
2687.87814653
2687.87225443
2687.87179195
2687.87701588
2687.88943637
2687.91096217
2687.94211388
2687.97964747
2688.01953982
2688.05031541
2688.07280235
2198.61729091
2198.59133087
2198.56658085
2198.52869646
2198.49451115
2198.46578465
2198.44589734
2198.43397958
2198.4272033
2198.42171367
2198.41544394
2198.40820625
2198.40175789
2198.3996716
2198.40511969
2198.41942705
2198.44005513
2198.46853356
2198.48511185
2198.5075283
2198.5932398
2198.55894039
2198.52052807
2198.46306169
2198.40458061
2198.34852188
2198.25448069
2198.23820757
2198.26194144
2198.24895448
2198.24233069
2198.24216074
2198.28927683
2198.31311806
2198.2881194
2198.3302391
2198.37557252
2198.42252058
2198.45353054
2198.48315852
2198.57267066
2198.52399628
2198.46388724
2198.37705382
2198.08157644
2197.78382348
2197.806913
2197.9436374
2198.06392873
2198.05882457
2198.05811461
2198.06188449
2198.23732014
2198.50555798
2198.6443396
2198.44326508
2198.28909821
2198.36567486
2198.41893744
2198.46212489
2198.53946846
2198.47176943
2198.38297545
2197.88412783
2197.19920401
2196.76424325
2196.72882959
2196.93650053
2197.12641076
2197.14784402
2197.16880735
2197.18972567
2197.5057708
2198.18241031
2198.86067478
2198.98575594
2198.572432
2198.284019
2198.36763787
2198.43033819
2198.51191089
2198.42015131
2198.09675517
2196.83868867
2196.09622993
2195.64960566
2195.50268466
2195.71188776
2195.95645239
2196.02303138
2196.07393734
2196.10945156
2196.47676004
2197.31896589
2198.32114286
2199.20748688
2199.29312189