/*--------------------------------*- C++ -*----------------------------------*\
| =========                 |                                                 |
| \\      /  F ield         | OpenFOAM: The Open Source CFD Toolbox           |
|  \\    /   O peration     | Version:  3.0.1                                 |
|   \\  /    A nd           | Web:      www.OpenFOAM.org                      |
|    \\/     M anipulation  |                                                 |
\*---------------------------------------------------------------------------*/
FoamFile
{
    version     2.0;
    format      ascii;
    class       surfaceScalarField;
    location    "5.4";
    object      phi;
}
// * * * * * * * * * * * * * * * * * * * * * * * * * * * * * * * * * * * * * //

dimensions      [0 3 -1 0 0 0 0];

internalField   nonuniform List<scalar> 
22672
(
7.76135828502e-07
6.88823656745e-07
-1.46494080893e-06
2.32479193349e-06
2.69804102763e-07
-1.81843964491e-06
4.01958206888e-06
1.11048742217e-07
-1.80581858813e-06
5.3765861367e-06
1.34642171137e-07
-1.49162703441e-06
6.11054743108e-06
3.33198276864e-07
-1.06714166417e-06
6.102247421e-06
6.33453281784e-07
-6.25136631362e-07
5.42001668884e-06
9.23760607432e-07
-2.41514407734e-07
4.16992204153e-06
1.17577288111e-06
7.43361463316e-08
2.53123413377e-06
1.34285982584e-06
2.9584147076e-07
7.25362726798e-07
1.41668034924e-06
3.89203615715e-07
-1.04054121877e-06
1.39669015524e-06
3.69225746688e-07
-2.57569572365e-06
1.28823975804e-06
2.46926344945e-07
-3.70388653628e-06
1.10288494646e-06
2.53172833934e-08
-4.32032517536e-06
8.58097009298e-07
-2.41647077612e-07
-4.36203918113e-06
5.96434785539e-07
-5.54709672197e-07
-3.8062008128e-06
3.49300727854e-07
-9.05128289333e-07
-2.7756293301e-06
2.02728061201e-07
-1.23328910979e-06
-1.51332704459e-06
2.09210684987e-07
-1.47150267488e-06
-4.131266701e-07
3.58951867508e-07
-1.4591414094e-06
7.21875723746e-07
-1.13499495114e-06
3.79218809605e-07
2.10077237697e-06
-1.79114720952e-06
2.24913970552e-06
1.97816560583e-06
-3.57826087821e-06
4.37838625402e-06
2.06440116145e-06
-4.08257797362e-06
6.02543370978e-06
2.37479310682e-06
-3.88717854076e-06
6.88593934236e-06
2.87367199549e-06
-3.40096076834e-06
6.87679357507e-06
3.44679912607e-06
-2.80418269988e-06
6.07422904296e-06
3.95069677551e-06
-2.22435537319e-06
4.62841453058e-06
4.34681547309e-06
-1.72521285266e-06
2.75594129909e-06
4.59062339608e-06
-1.37527604698e-06
7.01448336722e-07
4.6802667036e-06
-1.20907987124e-06
-1.29919166649e-06
4.62749762185e-06
-1.2301545036e-06
-3.02988257455e-06
4.44023607334e-06
-1.42129281938e-06
-4.3061838688e-06
4.12910075553e-06
-1.74990219596e-06
-4.99234993957e-06
3.71517777771e-06
-2.17090264797e-06
-5.00522534092e-06
3.23962820511e-06
-2.63030629779e-06
-4.32352723144e-06
2.74581127502e-06
-3.07819730478e-06
-3.0428333042e-06
2.34326683316e-06
-3.42122165701e-06
-1.41808072001e-06
2.10840037967e-06
-3.52393125059e-06
-6.1202340001e-08
2.04694326612e-06
-3.04485826535e-06
2.13126862347e-06
-1.47058742017e-06
2.29892790127e-07
3.6620627001e-06
-1.79116374259e-06
2.3610136241e-06
3.95910644899e-06
-4.11204145611e-06
4.77263458153e-06
4.3226641601e-06
-4.66986423844e-06
6.57985972597e-06
4.89031023602e-06
-4.32272349162e-06
7.47625553471e-06
5.60905237767e-06
-3.63175839304e-06
7.41146833938e-06
6.35431731399e-06
-2.84271410632e-06
6.49078473038e-06
6.98054251152e-06
-2.10914608742e-06
4.89853312047e-06
7.44944811153e-06
-1.5103657956e-06
2.86892482994e-06
7.72780998417e-06
-1.10756381495e-06
6.59227320748e-07
7.81628537122e-06
-9.26307328317e-07
-1.48335631052e-06
7.73320921762e-06
-9.63114679402e-07
-3.33940173346e-06
7.49479987734e-06
-1.19850557856e-06
-4.71674600364e-06
7.10738261057e-06
-1.60092526739e-06
-5.47077161526e-06
6.59812495805e-06
-2.1289097654e-06
-5.49946238139e-06
5.99518748906e-06
-2.7268572107e-06
-4.7646952536e-06
5.34147078282e-06
-3.330415693e-06
-3.33957490473e-06
4.74683880839e-06
-3.82868148634e-06
-1.48038368512e-06
4.28893362315e-06
-4.03971330177e-06
8.60518689424e-08
3.98462298095e-06
-3.50410334179e-06
3.68935013118e-06
-1.47202152103e-06
2.51787269355e-07
4.92653134652e-06
-1.51623855222e-06
2.67841154148e-06
5.51402604749e-06
-3.98152581935e-06
5.35205837313e-06
6.04189415108e-06
-4.39285909152e-06
7.28358578087e-06
6.73575490432e-06
-3.7769549277e-06
8.16738752372e-06
7.53793109349e-06
-2.81266387866e-06
7.99481058274e-06
8.32701002296e-06
-1.80009968965e-06
6.91498542974e-06
8.97416360251e-06
-9.13780340721e-07
5.15184898663e-06
9.44313888959e-06
-2.30539242292e-07
2.95708958781e-06
9.70543265625e-06
2.17151285158e-07
6.00672435669e-07
9.77710973969e-06
3.95606779774e-07
-1.67753528123e-06
9.67948643766e-06
3.31943869987e-07
-3.6645405975e-06
9.42996873611e-06
5.18490967943e-08
-5.1572519307e-06
9.04069968065e-06
-4.40593944439e-07
-6.00818324227e-06
8.52171320482e-06
-1.0726460059e-06
-6.08939706056e-06
7.89993371594e-06
-1.82352217363e-06
-5.33495366044e-06
7.20845761572e-06
-2.6214203156e-06
-3.79170898553e-06
6.54558923966e-06
-3.34198499439e-06
-1.71736723287e-06
5.97990822313e-06
-3.76530547239e-06
8.06999379519e-08
5.53109957102e-06
-3.34453174727e-06
4.97049739275e-06
-1.20043913528e-06
4.43518199631e-07
5.62626052131e-06
-1.14323225695e-06
3.17584291305e-06
6.35430958837e-06
-3.57259249274e-06
6.07435893115e-06
6.92713223776e-06
-3.78373840489e-06
8.08877759029e-06
7.61487776663e-06
-2.8935259987e-06
8.9207559086e-06
8.37079751569e-06
-1.66482933336e-06
8.61018258442e-06
9.09192175527e-06
-4.54323068727e-07
7.34370873162e-06
9.66225599764e-06
5.78396691596e-07
5.38970503334e-06
1.00659563014e-05
1.33120130578e-06
3.028826589e-06
1.0281133218e-05
1.78519253577e-06
5.27482633581e-07
1.03266554801e-05
1.9518123033e-06
-1.88081303759e-06
1.02292108743e-05
1.85858449378e-06
-3.99101305327e-06
1.00077304461e-05
1.53245044359e-06
-5.61309932813e-06
9.6701214893e-06
9.92675283197e-07
-6.57584478826e-06
9.22310723565e-06
2.61360964467e-07
-6.73281651285e-06
8.68331878942e-06
-6.2640473387e-07
-5.98874214391e-06
8.0671514436e-06
-1.60275984711e-06
-4.3620815532e-06
7.45550660057e-06
-2.5365690883e-06
-2.1068715263e-06
6.90043891229e-06
-3.17573062474e-06
-7.54506238123e-08
6.41438380337e-06
-2.91469355508e-06
5.71641343883e-06
-8.21358779639e-07
7.35326080751e-07
5.63757185641e-06
-7.46624354153e-07
3.7486849333e-06
6.38756423459e-06
-3.04659976659e-06
6.8274862085e-06
6.91669245489e-06
-3.06834754973e-06
8.88829739732e-06
7.50511313759e-06
-1.95103240271e-06
9.64873536153e-06
8.13126404113e-06
-5.20890024023e-07
9.17887529719e-06
8.69989111587e-06
8.61905495512e-07
7.72994700162e-06
9.14384016616e-06
1.96735913397e-06
5.59616071951e-06
9.44690380535e-06
2.75285378065e-06
3.08350026553e-06
9.59461924252e-06
3.19918912173e-06
4.58477383515e-07
9.61095307473e-06
3.34073927796e-06
-2.05867610072e-06
9.52558979455e-06
3.22078739179e-06
-4.27790678737e-06
9.35685664796e-06
2.87011571445e-06
-6.01577150165e-06
9.11044315696e-06
2.29755244115e-06
-7.09047705028e-06
8.7853623068e-06
1.51245816157e-06
-7.33740711238e-06
8.38762864002e-06
5.42626745944e-07
-6.6267994515e-06
7.92135495987e-06
-5.64804876289e-07
-4.95147086548e-06
7.44072884973e-06
-1.66054374144e-06
-2.55657689778e-06
6.9792819815e-06
-2.47372831174e-06
-3.08972387966e-07
6.53266696332e-06
-2.36587716331e-06
5.81480189472e-06
-4.07353676062e-07
1.02098544196e-06
5.01430705828e-06
-3.97709276064e-07
4.25857070985e-06
5.67083977257e-06
-2.52084871582e-06
7.46991585748e-06
6.09392887077e-06
-2.38856901724e-06
9.55531693225e-06
6.53120181256e-06
-1.11147664678e-06
1.02353262201e-05
6.97882527965e-06
4.72443247834e-07
9.63162579195e-06
7.37356768772e-06
1.93003827553e-06
8.0277746699e-06
7.6711379505e-06
3.07656819489e-06
5.74706724421e-06
7.86334897247e-06
3.86427719047e-06
3.11560072927e-06
7.94082399878e-06
4.28527628048e-06
4.01317155587e-07
7.9319410478e-06
4.39330913592e-06
-2.18820797391e-06
7.86563996347e-06
4.24948690303e-06
-4.48265802043e-06
7.76239979943e-06
3.88891674288e-06
-6.30607216902e-06
7.6231701444e-06
3.3106947008e-06
-7.47107149628e-06
7.43969426379e-06
2.51067283113e-06
-7.79666848499e-06
7.20781182071e-06
1.50541791802e-06
-7.12938990709e-06
6.92151374378e-06
3.32566529885e-07
-5.43484592891e-06
6.6102511125e-06
-8.64061337039e-07
-2.94938860562e-06
6.28799430915e-06
-1.79416279953e-06
-5.4164920228e-07
5.93675225047e-06
-1.81181582775e-06
5.3128178719e-06
-3.96590842388e-08
1.27427326654e-06
3.84666889913e-06
-1.06625072568e-07
4.66743659485e-06
4.33171947093e-06
-2.05403221586e-06
7.96197157574e-06
4.61845927322e-06
-1.8190539085e-06
1.00535733726e-05
4.89335094511e-06
-4.53738611917e-07
1.0665966311e-05
5.15154946864e-06
1.21489615296e-06
9.95423920836e-06
5.3732395544e-06
2.71206938587e-06
8.2295105595e-06
5.53111282493e-06
3.86476845362e-06
5.83741341442e-06
5.62274898193e-06
4.63271180175e-06
3.12534716187e-06
5.64541993618e-06
5.00748429785e-06
3.57025330686e-07
5.6233439814e-06
5.07693147868e-06
-2.26799420167e-06
5.58229456315e-06
4.90837544873e-06
-4.59953671292e-06
5.54264029949e-06
4.55130999013e-06
-6.47520619473e-06
5.50660313706e-06
3.99224180458e-06
-7.70358554879e-06
5.45960748418e-06
3.20846911856e-06
-8.0920736271e-06
5.38737346612e-06
2.20892794302e-06
-7.46852055475e-06
5.28050222743e-06
1.01745976392e-06
-5.77713149313e-06
5.14545441861e-06
-2.26589859213e-07
-3.24839509394e-06
4.97354720075e-06
-1.21428458199e-06
-7.3963041451e-07
4.74530627736e-06
-1.31731179656e-06
4.27588233052e-06
2.97309999345e-07
1.45142701898e-06
2.29443959862e-06
1.00811279407e-07
4.9340951476e-06
2.55776113523e-06
-1.70869996383e-06
8.27661520546e-06
2.69246324711e-06
-1.41651336242e-06
1.0353960912e-05
2.80020424412e-06
1.5812739201e-08
1.0919520712e-05
2.89447681634e-06
1.69152577148e-06
1.01339706621e-05
2.96628384085e-06
3.19251965765e-06
8.32909303982e-06
3.00751053403e-06
4.32849426536e-06
5.87037990972e-06
3.02449880992e-06
5.05697736918e-06
3.11458669096e-06
3.0129351195e-06
5.38829098606e-06
3.31765609271e-07
2.99488921506e-06
5.41128690408e-06
-2.29211292387e-06
2.99022284461e-06
5.21595880344e-06
-4.62102141758e-06
3.01268875753e-06
4.85886573661e-06
-6.51284637167e-06
3.06303991428e-06
4.33539103102e-06
-7.77520555197e-06
3.1300697551e-06
3.59189734698e-06
-8.20711366519e-06
3.19218998521e-06
2.62709055097e-06
-7.62278382508e-06
3.24171713257e-06
1.45445410569e-06
-5.9566370401e-06
3.26119317858e-06
2.18114678854e-07
-3.42267792057e-06
3.23573640362e-06
-7.96145665376e-07
-8.73558572376e-07
3.14225458064e-06
-9.46062598761e-07
2.87291962258e-06
5.29407916537e-07
1.53862854263e-06
5.47974970242e-07
2.07844301298e-07
5.05042679106e-06
5.68882415222e-07
-1.52291041754e-06
8.40159730244e-06
5.4920608233e-07
-1.2079032474e-06
1.04684301956e-05
5.05850966578e-07
2.2753172857e-07
1.10055577492e-05
4.47739105412e-07
1.90962278068e-06
1.01844997106e-05
3.90482548093e-07
3.39687287925e-06
8.34547274482e-06
3.39270087611e-07
4.50728116032e-06
5.86367723635e-06
2.98588425707e-07
5.20771891072e-06
3.10212054195e-06
2.7600653721e-07
5.49849664363e-06
3.35062485096e-07
2.80098797788e-07
5.48185746113e-06
-2.26170871037e-06
3.21412399983e-07
5.26558779734e-06
-4.56443659769e-06
4.02498989297e-07
4.91292083295e-06
-6.44170331049e-06
5.27556364725e-07
4.41275061509e-06
-7.70721637481e-06
6.84744022774e-07
3.7108368322e-06
-8.15841144353e-06
8.5833505886e-07
2.78504668885e-06
-7.60398126118e-06
1.04067248397e-06
1.64661123775e-06
-5.97174997889e-06
1.19666238773e-06
4.32297895837e-07
-3.46760417245e-06
1.30385818434e-06
-5.72266498482e-07
-9.31682186919e-07
1.34508466551e-06
-7.38748347026e-07
1.29339330928e-06
6.47847222786e-07
1.5350049477e-06
-1.19110276558e-06
2.04080477238e-07
5.02395540545e-06
-1.40936808239e-06
-1.51069130146e-06
8.35350729629e-06
-1.57923703212e-06
-1.20109902215e-06
1.04069965138e-05
-1.7672364304e-06
2.19609254945e-07
1.09405702786e-05
-1.9705068819e-06
1.88468453281e-06
1.0124749178e-05
-2.14916671446e-06
3.35548335976e-06
8.29826536654e-06
-2.28424027656e-06
4.45000693049e-06
5.83589226751e-06
-2.3729337408e-06
5.13390672364e-06
3.10265888492e-06
-2.39705160312e-06
5.4063007825e-06
3.70978328895e-07
-2.36143186632e-06
5.37321771174e-06
-2.18090747856e-06
-2.27279597159e-06
5.14609769258e-06
-4.44070796296e-06
-2.13054982991e-06
4.79284991392e-06
-6.28099983792e-06
-1.93610246434e-06
4.30394871009e-06
-7.52219055227e-06
-1.69499131819e-06
3.62092202011e-06
-7.96772895301e-06
-1.41789113834e-06
2.72175951111e-06
-7.42980172575e-06
-1.1130273265e-06
1.61576788374e-06
-5.83719376107e-06
-8.29812036245e-07
4.33863714271e-07
-3.3907363583e-06
-5.97771121893e-07
-5.44827801532e-07
-9.11561004085e-07
-4.28984111995e-07
-7.05103351216e-07
-2.72972294483e-07
6.54807581061e-07
1.44163253568e-06
-2.72876484586e-06
9.60369839565e-08
4.85765267727e-06
-3.15968505169e-06
-1.66569469117e-06
8.13760013158e-06
-3.46945031949e-06
-1.38972454968e-06
1.01763460672e-05
-3.80773371526e-06
1.76223526368e-09
1.0732740462e-05
-4.15265011689e-06
1.62576073986e-06
9.96337687741e-06
-4.45893484672e-06
3.07914387823e-06
8.19668288557e-06
-4.6865663715e-06
4.16903142686e-06
5.79627092383e-06
-4.82476251135e-06
4.85225017126e-06
3.12415463766e-06
-4.85782082503e-06
5.13289227572e-06
4.50311882776e-07
-4.79804103007e-06
5.11045568992e-06
-2.04931660985e-06
-4.66042015978e-06
4.8872535138e-06
-4.25404425121e-06
-4.45598872039e-06
4.53016472028e-06
-6.03776140412e-06
-4.1875391866e-06
4.03514983486e-06
-7.22975320724e-06
-3.85232942587e-06
3.34932424731e-06
-7.64579328952e-06
-3.46422274929e-06
2.46236540773e-06
-7.11036346059e-06
-3.03347840836e-06
1.3850157937e-06
-5.5610512917e-06
-2.62274788509e-06
2.43620614634e-07
-3.19621976069e-06
-2.26842121409e-06
-6.94181061323e-07
-8.15172677322e-07
-1.98405454223e-06
-8.25973023379e-07
-1.65303083429e-06
5.64889290637e-07
1.26255867263e-06
-3.89108938418e-06
-1.00226660555e-07
4.5529621666e-06
-4.48383028565e-06
-1.96624969131e-06
7.74952085345e-06
-4.91162441802e-06
-1.75437492965e-06
9.78273683066e-06
-5.38558691892e-06
-4.55352037356e-07
1.03825132343e-05
-5.88710964722e-06
1.1346944972e-06
9.69876995955e-06
-6.33257498674e-06
2.55739449576e-06
8.03719269523e-06
-6.66517766929e-06
3.64019819819e-06
5.74136466913e-06
-6.86938036809e-06
4.34045307162e-06
3.16284242273e-06
-6.92556455017e-06
4.64627015509e-06
5.65454086352e-07
-6.8540914074e-06
4.65343984127e-06
-1.86544029299e-06
-6.67876916608e-06
4.44924177308e-06
-4.00144141194e-06
-6.41225851149e-06
4.09226703186e-06
-5.70762283931e-06
-6.05874756573e-06
3.57738417379e-06
-6.82660557856e-06
-5.61932869034e-06
2.88597526761e-06
-7.19159930081e-06
-5.10962317192e-06
2.01038732471e-06
-6.64768462763e-06
-4.54769185378e-06
9.70293313989e-07
-5.14598000484e-06
-4.00595115697e-06
-1.18503922789e-07
-2.88841405901e-06
-3.53610025412e-06
-9.89885633786e-07
-6.49165267417e-07
-3.1553773698e-06
-1.06792116858e-06
-2.69874435431e-06
3.96552555252e-07
1.01375017823e-06
-4.54007143422e-06
-3.64760351237e-07
4.12357394962e-06
-5.22102353649e-06
-2.37262162065e-06
7.21145602402e-06
-5.73532264828e-06
-2.26417397992e-06
9.22521031778e-06
-6.32980197849e-06
-1.0695285855e-06
9.89245349969e-06
-6.97062433607e-06
4.16282330885e-07
9.32926628541e-06
-7.55008237704e-06
1.7807045763e-06
7.81193477728e-06
-7.99009047739e-06
2.8422522988e-06
5.66104652744e-06
-8.26833818104e-06
3.54985120376e-06
3.2050891228e-06
-8.36330043584e-06
3.89369527106e-06
7.09083972259e-07
-8.29577044552e-06
3.93768320986e-06
-1.63322023943e-06
-8.09249683774e-06
3.75602847175e-06
-3.67566948458e-06
-7.77057861922e-06
3.40076412e-06
-5.28262881663e-06
-7.33742395695e-06
2.88562926192e-06
-6.30827871973e-06
-6.79873386818e-06
2.20504809265e-06
-6.60633177881e-06
-6.17346685827e-06
1.36189026755e-06
-6.04817083792e-06
-5.4913255489e-06
3.85468190281e-07
-4.60549183309e-06
-4.83467036816e-06
-6.13961035775e-07
-2.48140473474e-06
-4.26869712231e-06
-1.39148735292e-06
-4.29329532504e-07
-3.82054530872e-06
-1.38690073938e-06
-3.29424316596e-06
1.6617474738e-07
7.38662761855e-07
-4.60241306498e-06
-6.76312803326e-07
3.61335314548e-06
-5.26730605016e-06
-2.82839840474e-06
6.55471310013e-06
-5.81106333731e-06
-2.86560900102e-06
8.53702542581e-06
-6.47664916019e-06
-1.83545440915e-06
9.2863354838e-06
-7.21082481997e-06
-5.09099083268e-07
8.86840688467e-06
-7.90246198551e-06
7.70317410942e-07
7.52513891442e-06
-8.43229585678e-06
1.78548022063e-06
5.54659486814e-06
-8.77869899658e-06
2.48890873102e-06
3.24010557471e-06
-8.91704836638e-06
2.86023798117e-06
8.68884848002e-07
-8.86579929549e-06
2.94124761903e-06
-1.36089355796e-06
-8.65278814e-06
2.79006570591e-06
-3.29005611651e-06
-8.296169448e-06
2.45474804679e-06
-4.77898253172e-06
-7.80753122356e-06
1.95902766542e-06
-5.69462203632e-06
-7.19745589501e-06
1.31435558424e-06
-5.91463079198e-06
-6.4893827895e-06
5.35919823588e-07
-5.34099925958e-06
-5.72421761258e-06
-3.40741973323e-07
-3.97079715244e-06
-4.99455402636e-06
-1.21031739945e-06
-2.01086658646e-06
-4.37668503625e-06
-1.85193747708e-06
-1.89785960517e-07
-3.90635224409e-06
-1.73526496846e-06
-3.38881525556e-06
-9.52069688256e-08
4.65493422507e-07
-4.03898225241e-06
-1.02891513037e-06
3.06347224952e-06
-4.58157394106e-06
-3.28370067326e-06
5.82252414432e-06
-5.07695336467e-06
-3.49315095185e-06
7.75714127171e-06
-5.73068962278e-06
-2.68056552078e-06
8.58097669939e-06
-6.48391654949e-06
-1.55073306071e-06
8.32772319807e-06
-7.21438330641e-06
-4.34816023986e-07
7.17972335008e-06
-7.79331300795e-06
5.09023763211e-07
5.3987281289e-06
-8.18294942766e-06
1.18524952374e-06
3.26617708691e-06
-8.35652883189e-06
1.57203253047e-06
1.04297413986e-06
-8.33083266119e-06
1.68823500336e-06
-1.05427924443e-06
-8.13068284165e-06
1.57514519719e-06
-2.85409711052e-06
-7.77367185284e-06
1.27731657375e-06
-4.2129975115e-06
-7.27657803267e-06
8.27943411747e-07
-5.01228811548e-06
-6.65118241202e-06
2.53013961535e-07
-5.15292956671e-06
-5.92580092076e-06
-4.22942032275e-07
-4.57102999771e-06
-5.15040923352e-06
-1.15570698111e-06
-3.2897195881e-06
-4.42358887035e-06
-1.85227115467e-06
-1.5193736487e-06
-3.82793526932e-06
-2.31908750269e-06
4.30592688739e-08
-3.39589888114e-06
-2.0728748507e-06
-2.97882597313e-06
-3.66921343798e-07
2.90421329862e-07
-2.9667235221e-06
-1.36267000591e-06
2.59851068795e-06
-3.25100952982e-06
-3.63864252392e-06
5.1414580178e-06
-3.59411831738e-06
-4.02577056289e-06
6.99839715387e-06
-4.12190808183e-06
-3.46570873931e-06
7.87827912378e-06
-4.78331119505e-06
-2.58047594049e-06
7.76876416683e-06
-5.45842813179e-06
-1.64643024358e-06
6.81275496052e-06
-6.0082728575e-06
-8.29023138155e-07
5.22995224376e-06
-6.3935837133e-06
-2.06557735267e-07
3.27230382861e-06
-6.58620138955e-06
1.87323827269e-07
1.2019610601e-06
-6.59084350134e-06
3.30354628418e-07
-7.57464444051e-07
-6.43072956319e-06
2.59472210401e-07
-2.42847942798e-06
-6.12142816808e-06
1.87710495366e-08
-3.65745165679e-06
-5.67399960969e-06
-3.73605967585e-07
-4.3474537201e-06
-5.11226736093e-06
-8.4891162343e-07
-4.42078067835e-06
-4.4631067089e-06
-1.38936406968e-06
-3.84505414907e-06
-3.77947486131e-06
-1.94665522621e-06
-2.66975928917e-06
-3.1600232746e-06
-2.43885177317e-06
-1.10551233567e-06
-2.68656906292e-06
-2.70560130762e-06
2.09475032762e-07
-2.38235501863e-06
-2.32851659619e-06
-2.1510283876e-06
-6.18311775721e-07
2.76716221548e-07
-1.63811446097e-06
-1.60531401038e-06
2.31151724848e-06
-1.54069671202e-06
-3.74510143977e-06
4.60880771778e-06
-1.62952871249e-06
-4.26186712462e-06
6.35066600363e-06
-1.91878811326e-06
-3.94496514866e-06
7.24698286776e-06
-2.37275841182e-06
-3.30685695747e-06
7.24664081766e-06
-2.88562235315e-06
-2.57245218196e-06
6.45055364303e-06
-3.32477963517e-06
-1.88739628784e-06
5.0395628614e-06
-3.65184329615e-06
-1.3307419586e-06
3.24628777523e-06
-3.83094695513e-06
-9.61973573574e-07
1.32117216855e-06
-3.86466448825e-06
-8.01058925893e-07
-5.08339459639e-07
-3.76654649588e-06
-8.34667429161e-07
-2.05575958259e-06
-3.54707698865e-06
-1.0269267028e-06
-3.17670217804e-06
-3.21874823081e-06
-1.33430341701e-06
-3.77855695278e-06
-2.80064397807e-06
-1.70976173004e-06
-3.80738135112e-06
-2.32407533441e-06
-2.11019820682e-06
-3.25789253175e-06
-1.83777320361e-06
-2.49117951432e-06
-2.20358693807e-06
-1.43068324579e-06
-2.78363226996e-06
-8.51967815481e-07
-1.17648332472e-06
-2.86168900753e-06
2.3481157007e-07
-1.0823526281e-06
-2.38676354072e-06
-1.13009401497e-06
-7.8610939745e-07
4.19427250693e-07
-4.66751591051e-07
-1.59077726338e-06
2.21744739486e-06
-9.62092063837e-08
-3.24249403494e-06
4.25418988141e-06
4.34247992702e-08
-3.7096818714e-06
5.84963658041e-06
1.41256165943e-08
-3.52834604642e-06
6.71282613595e-06
-1.61546144587e-07
-3.0743876687e-06
6.76622811353e-06
-4.27608590516e-07
-2.51140247027e-06
6.0842692737e-06
-6.81454233017e-07
-1.96135475976e-06
4.81420329713e-06
-8.92381064654e-07
-1.48938616716e-06
3.16973016287e-06
-1.02552474575e-06
-1.1609404718e-06
1.38625948482e-06
-1.07390745795e-06
-1.00727858073e-06
-3.16630264157e-07
-1.04039513963e-06
-1.02325380849e-06
-1.75571572332e-06
-9.31119185926e-07
-1.17686371222e-06
-2.79205563126e-06
-7.57970399101e-07
-1.42442787291e-06
-3.33912599125e-06
-5.382291951e-07
-1.71533263325e-06
-3.35716450841e-06
-2.98895055424e-07
-2.00712812051e-06
-2.85371309431e-06
-7.70749840352e-08
-2.26413410274e-06
-1.9241448981e-06
7.17777861022e-08
-2.43201176035e-06
-7.7369820848e-07
9.19198248502e-08
-2.41883029085e-06
1.32117137533e-07
-1.01632631505e-08
-1.97798257536e-06
-2.63377860591e-07
-7.34583952539e-07
7.95905971153e-07
-1.26264866308e-06
2.30050624453e-06
-1.60080028331e-06
3.93776066977e-06
-1.59382011783e-06
5.25515956121e-06
-1.30326359941e-06
5.99631124862e-06
-9.02688326819e-07
6.04891325228e-06
-4.80201692117e-07
5.48057691753e-06
-1.13109938001e-07
4.38620209307e-06
2.02000701231e-07
2.95351817816e-06
4.07165337398e-07
1.38827194924e-06
4.91344662354e-07
-1.18930893384e-07
4.66813893684e-07
-1.40424762037e-06
3.54204522429e-07
-2.33961831839e-06
1.77408373046e-07
-2.83851313408e-06
-3.93251044718e-08
-2.88711236517e-06
-2.50285352893e-07
-2.48977718019e-06
-4.74398504716e-07
-1.74758523823e-06
-6.7040126564e-07
-8.63258653638e-07
-7.92392254171e-07
-1.52227264695e-07
-7.21179289612e-07
-4.15597748016e-07
1.62048677244e-06
1.53488388488e-06
-4.62029296045e-06
3.45075818967e-06
1.81705729346e-06
-5.46574954398e-06
5.1057604726e-06
2.09788291763e-06
-5.55868579303e-06
6.27927953282e-06
2.40870328294e-06
-5.07383262032e-06
6.7929713582e-06
2.70689084687e-06
-4.28770888552e-06
6.59199880292e-06
2.95988135697e-06
-3.38403119522e-06
5.71986658098e-06
3.14183425802e-06
-2.51120330173e-06
4.31156392931e-06
3.25429711311e-06
-1.77164616912e-06
2.56357797008e-06
3.30675239479e-06
-1.26291369717e-06
6.69743352079e-07
3.3150485526e-06
-1.03199975311e-06
-1.17533249749e-06
3.29033384439e-06
-1.0760221654e-06
-2.79313494084e-06
3.2336283755e-06
-1.36888979596e-06
-4.04293443436e-06
3.13787998717e-06
-1.8627536172e-06
-4.79004235108e-06
2.99529725695e-06
-2.48982704863e-06
-4.97261837576e-06
2.80303440806e-06
-3.17515900553e-06
-4.59226899231e-06
2.56364513604e-06
-3.84911414244e-06
-3.72206110853e-06
2.29950622089e-06
-4.40299486492e-06
-2.50922216951e-06
2.02722025775e-06
-4.71155348852e-06
-1.17412061738e-06
1.76380076932e-06
-4.55803487522e-06
1.47005402331e-06
-3.77916382299e-06
1.96666311845e-06
3.21329681588e-06
-5.43620481432e-06
3.84302499141e-06
3.53845581335e-06
-7.17600296372e-06
5.39866141334e-06
3.8945713867e-06
-7.4348854944e-06
6.45658144819e-06
4.33471527162e-06
-6.87109438231e-06
6.87690683646e-06
4.79705762997e-06
-5.91143792934e-06
6.61947549568e-06
5.22197772667e-06
-4.80883377175e-06
5.72532400581e-06
5.56076124687e-06
-3.74911786158e-06
4.32186978292e-06
5.79686943227e-06
-2.86431880431e-06
2.58035015441e-06
5.9284389252e-06
-2.25543157111e-06
6.93166177119e-07
5.96821867038e-06
-1.9750552579e-06
-1.14678344549e-06
5.92786271266e-06
-2.0277234681e-06
-2.7636952216e-06
5.81182868601e-06
-2.38257145124e-06
-4.01208336811e-06
5.6182414462e-06
-2.98186598241e-06
-4.78235582708e-06
5.34347958269e-06
-3.74880342397e-06
-5.01275855993e-06
4.99693205188e-06
-4.59379258711e-06
-4.70809693537e-06
4.59709159037e-06
-5.41629714066e-06
-3.92956599958e-06
4.18345413091e-06
-6.0836923749e-06
-2.80114746203e-06
3.79477743406e-06
-6.41989850718e-06
-1.44576527939e-06
3.46391213966e-06
-6.10034269519e-06
3.12474952798e-06
-4.57104219358e-06
2.28065201482e-06
4.72932563623e-06
-5.58782774987e-06
4.22900844633e-06
4.97668407743e-06
-7.49860965794e-06
5.73997844087e-06
5.30039734587e-06
-7.58664450883e-06
6.71139560667e-06
5.75569790024e-06
-6.71510849552e-06
7.04089903735e-06
6.27204130273e-06
-5.43623151468e-06
6.70794058551e-06
6.77474165045e-06
-4.0625062894e-06
5.76401791904e-06
7.19975925602e-06
-2.80420876911e-06
4.33570867193e-06
7.51299261268e-06
-1.79816767379e-06
2.58887601219e-06
7.69873359454e-06
-1.13101435246e-06
7.04594411946e-07
7.76580107596e-06
-8.39597213788e-07
-1.13389386941e-06
7.72171262824e-06
-9.18465948248e-07
-2.75927497221e-06
7.57278876703e-06
-1.33407481327e-06
-4.03475129691e-06
7.32790325086e-06
-2.03510172706e-06
-4.84999712312e-06
6.98021373912e-06
-2.95038984157e-06
-5.14310107486e-06
6.55811256269e-06
-3.99492616395e-06
-4.90896337555e-06
6.09098372635e-06
-5.05843823404e-06
-4.194724619e-06
5.62899628708e-06
-5.98845490054e-06
-3.10058027259e-06
5.22413676478e-06
-6.56320869732e-06
-1.69575275273e-06
4.91961281312e-06
-6.36462221691e-06
4.64486659843e-06
-4.6878851456e-06
2.60904515023e-06
5.81796639009e-06
-5.21390988493e-06
4.68344197644e-06
5.96955890604e-06
-7.04878326236e-06
6.20319274707e-06
6.21512999998e-06
-6.82732883741e-06
7.12047745137e-06
6.61902488866e-06
-5.55755340483e-06
7.36649255584e-06
7.11245864227e-06
-3.89908343904e-06
6.94237014975e-06
7.61786495726e-06
-2.21908794779e-06
5.91684226703e-06
8.05795336271e-06
-7.46434164707e-07
4.42287398807e-06
8.39921882165e-06
3.77214916191e-07
2.63277263643e-06
8.61661703242e-06
1.08938087369e-06
7.13244373188e-07
8.7012700804e-06
1.37967715283e-06
-1.15976093463e-06
8.66089169749e-06
1.26578044527e-06
-2.82495364935e-06
8.5046538718e-06
7.8518600847e-07
-4.16649839691e-06
8.23718601096e-06
-8.3238729447e-09
-5.05027823382e-06
7.884233144e-06
-1.09287866942e-06
-5.41787760117e-06
7.46191360165e-06
-2.35971776784e-06
-5.24780939547e-06
7.00490040011e-06
-3.70539929626e-06
-4.56989824287e-06
6.56930506584e-06
-4.96019840818e-06
-3.46189837289e-06
6.21026861627e-06
-5.85942935155e-06
-1.95517986742e-06
5.97154238012e-06
-5.9031705264e-06
5.77186080952e-06
-4.28260699355e-06
2.92079019291e-06
6.30876442117e-06
-4.55480821056e-06
5.15699195035e-06
6.37823937554e-06
-6.21746272022e-06
6.72684219489e-06
6.53460613054e-06
-5.67305297032e-06
7.6203112058e-06
6.85320155331e-06
-4.02115986205e-06
7.79800260729e-06
7.2757958977e-06
-2.00584601759e-06
7.2772125148e-06
7.72400243266e-06
-3.96582725865e-08
6.1613154835e-06
8.14135405897e-06
1.61090532504e-06
4.58201959922e-06
8.47042612254e-06
2.83930212478e-06
2.71202049071e-06
8.68371624238e-06
3.58810434079e-06
7.23851566779e-07
8.77242584451e-06
3.86883667495e-06
-1.21581981959e-06
8.74090351155e-06
3.71825413478e-06
-2.95563923571e-06
8.59904808309e-06
3.17788414883e-06
-4.36557601864e-06
8.35987772754e-06
2.27992707126e-06
-5.33015237956e-06
8.0408677553e-06
1.069307831e-06
-5.77439772113e-06
7.66577576272e-06
-3.86017420923e-07
-5.6576622682e-06
7.27590234166e-06
-1.99049312174e-06
-4.99197782661e-06
6.91630603446e-06
-3.54924931746e-06
-3.83460268301e-06
6.63796543643e-06
-4.76079554385e-06
-2.19314608322e-06
6.47681148503e-06
-5.06141038413e-06
6.33922325678e-06
-3.58186133787e-06
3.18640072666e-06
6.13807342825e-06
-3.76232380844e-06
5.59422524854e-06
6.15495450313e-06
-5.23112926122e-06
7.23996129544e-06
6.23224158264e-06
-4.41170874338e-06
8.13584881964e-06
6.45513289434e-06
-2.44884052809e-06
8.25834075569e-06
6.77828134753e-06
-1.45856071498e-07
7.66496641768e-06
7.15206385597e-06
2.02723032995e-06
6.45036103202e-06
7.50261877026e-06
3.82071212556e-06
4.77391593948e-06
7.78761748439e-06
5.11211990403e-06
2.81160205474e-06
7.97545850452e-06
5.86977274967e-06
7.38336259751e-07
8.05736940186e-06
6.12907254237e-06
-1.28033490281e-06
8.03607626001e-06
5.94429521209e-06
-3.09952149783e-06
7.92490118347e-06
5.3634564745e-06
-4.58888692025e-06
7.73716365418e-06
4.40963689279e-06
-5.63282201454e-06
7.48891362577e-06
3.10835037292e-06
-6.13875026291e-06
7.20192855829e-06
1.51240407764e-06
-6.06345074063e-06
6.90715185383e-06
-2.71351876618e-07
-5.39256516753e-06
6.65165128254e-06
-2.06677106847e-06
-4.16788116884e-06
6.46700450501e-06
-3.52744556658e-06
-2.38717686693e-06
6.37710250134e-06
-4.04686452287e-06
6.27862184017e-06
-2.73392373296e-06
3.37927478833e-06
5.33575665227e-06
-2.97465856858e-06
5.94683823013e-06
5.32684703098e-06
-4.26029593468e-06
7.67947567444e-06
5.34827987849e-06
-3.23723555795e-06
8.59126627571e-06
5.48574685045e-06
-1.05387120487e-06
8.69184046858e-06
5.71200944111e-06
1.43815191256e-06
8.03208026711e-06
5.98506596429e-06
3.75680817904e-06
6.7332020034e-06
6.25100973095e-06
5.6270678616e-06
4.96586151245e-06
6.47411766164e-06
6.94512991874e-06
2.91464120564e-06
6.62395435332e-06
7.68801252596e-06
7.59904821957e-07
6.69203822112e-06
7.91338707779e-06
-1.33404563839e-06
6.68389316315e-06
7.69562867846e-06
-3.22403352455e-06
6.61232507449e-06
7.09148628327e-06
-4.78278592472e-06
6.49094375731e-06
6.11566981263e-06
-5.89219142434e-06
6.33227909154e-06
4.77671344388e-06
-6.44992837735e-06
6.15172939525e-06
3.1133534479e-06
-6.39657363761e-06
5.9714525273e-06
1.21491083694e-06
-5.71280379588e-06
5.82224252163e-06
-7.1842092263e-07
-4.41875555596e-06
5.72702931872e-06
-2.34823167799e-06
-2.51598316652e-06
5.69075813747e-06
-3.02823729816e-06
5.6045377051e-06
-1.8815536009e-06
3.50054338272e-06
4.01334316681e-06
-2.28474741515e-06
6.19788858903e-06
4.00204318733e-06
-3.42656585249e-06
8.01222081424e-06
3.99099107047e-06
-2.27608890265e-06
8.94918883688e-06
4.05189724024e-06
4.3152494545e-08
9.03977066397e-06
4.19402687757e-06