/*--------------------------------*- C++ -*----------------------------------*\
| =========                 |                                                 |
| \\      /  F ield         | OpenFOAM: The Open Source CFD Toolbox           |
|  \\    /   O peration     | Version:  3.0.1                                 |
|   \\  /    A nd           | Web:      www.OpenFOAM.org                      |
|    \\/     M anipulation  |                                                 |
\*---------------------------------------------------------------------------*/
FoamFile
{
    version     2.0;
    format      ascii;
    class       surfaceVectorField;
    location    "5.4";
    object      Uf;
}
// * * * * * * * * * * * * * * * * * * * * * * * * * * * * * * * * * * * * * //

dimensions      [0 1 -1 0 0 0 0];

internalField   nonuniform List<vector> 
22672
(
(0.000310454331401 -7.692400877e-06 -0.000208339349681)
(6.28376563938e-06 0.000275529462698 -0.000204247248475)
(0.000211657121413 0.000201816864631 -0.000585976323571)
(0.000929916773397 -0.00014544565744 -0.0002243343394)
(0.000478661936416 0.000107921641105 -0.000551424791008)
(0.000770244341827 0.000165973812712 -0.000727375857963)
(0.00160783282755 -0.000210193080567 -0.000164822374666)
(0.00133141797744 4.44194968866e-05 -0.000646234023467)
(0.00152154687594 0.000167612647547 -0.000722327435252)
(0.00215063445468 -0.000214117996434 -6.51291315319e-05)
(0.00203253906101 5.38568684547e-05 -0.000588068105467)
(0.00212704982263 0.000197921692117 -0.000596650813765)
(0.00244421897243 -0.000166138726453 3.99518930353e-05)
(0.00251257557931 0.000133279310746 -0.000477522092683)
(0.00252328359461 0.000253941832442 -0.000426856665669)
(0.0024408989684 -9.56456242638e-05 0.00013120696926)
(0.00266792820104 0.000253381312714 -0.000349373277172)
(0.00262509122714 0.000321104516422 -0.000250054652545)
(0.00216800667554 -2.38398291045e-05 0.000202470980722)
(0.0025118076465 0.000369504242973 -0.000235439401604)
(0.00244371069729 0.000378423017116 -9.66057630937e-05)
(0.00166796881661 3.72183771481e-05 0.000251280732281)
(0.0020778665399 0.000470309152444 -0.000136393701817)
(0.0020072027237 0.000424806759087 2.97344585327e-05)
(0.00101249365351 7.55810187334e-05 0.000274577438654)
(0.00143523724056 0.000537143930335 -7.11479781963e-05)
(0.00138211675803 0.000453754388215 0.000118336588304)
(0.000290145090719 8.67108449009e-05 0.000278694393704)
(0.000675760323112 0.000566672139698 -4.15769522827e-05)
(0.000652726863853 0.000465406279813 0.000155681446286)
(-0.000416216487507 7.01241734076e-05 0.000267057267763)
(-0.000109025122453 0.000558676062097 -4.59370381805e-05)
(-9.87734571271e-05 0.000460309554759 0.000147690298675)
(-0.00103027828946 2.96948824851e-05 0.000239600750019)
(-0.000831402290571 0.000515295903218 -8.08608803756e-05)
(-0.000793082240755 0.000439408215196 9.87705379778e-05)
(-0.00148155461451 -2.83000746466e-05 0.000192787734361)
(-0.00141277766804 0.000441153978583 -0.000142748610891)
(-0.0013596472685 0.000403892882434 1.01269133574e-05)
(-0.00172813007014 -9.22475120913e-05 0.000129933406065)
(-0.00178965864988 0.000343238803719 -0.000227259166784)
(-0.00173977838468 0.000355618446746 -9.66588310449e-05)
(-0.00174481567245 -0.000150287185649 5.26989284708e-05)
(-0.00192900689296 0.000238573914216 -0.000320172439428)
(-0.00190082200301 0.000301179688328 -0.000221883868879)
(-0.00152248032512 -0.000184344181165 -3.48227462201e-05)
(-0.00180599081873 0.000139720291142 -0.000420898776574)
(-0.00182507529538 0.000243135484133 -0.000362051315733)
(-0.00111025173204 -0.000171947695595 -0.000117537226894)
(-0.00143462124429 8.10912244805e-05 -0.000505896889472)
(-0.00152590218836 0.000198594694841 -0.000493315643918)
(-0.000605330817836 -0.000109651102967 -0.000166082728905)
(-0.000900642192247 8.36842739948e-05 -0.000547534363177)
(-0.00107462006203 0.000176361893799 -0.000588601069951)
(-0.00016525066804 1.19058656826e-05 -0.000149463597509)
(-0.000254855172222 0.000143580747003 -0.000459268158125)
(-0.00051851437206 0.000172958230612 -0.000583656563761)
(5.3307505126e-05 0.000288750289498 -0.000150735748894)
(-0.000132495345138 0.000196255521924 -0.000453997980456)
(0.000151687523842 0.000412198495462 -0.000547332689802)
(-0.00012813631337 0.000840308950789 -0.000215953007286)
(0.000188659586711 0.000710125169577 -0.000716458883808)
(0.000899655882209 0.000315364305568 -0.000973324475075)
(0.000393497335135 0.000791266242333 -0.000976716228618)
(0.000782794553954 0.00069965302346 -0.00143130435128)
(0.00175135450161 0.000324591190759 -0.00106947975427)
(0.00142724944265 0.00082576046458 -0.00121832646881)
(0.00162835664051 0.000748101065298 -0.00163303118945)
(0.00241017348391 0.000423347648548 -0.00100046106662)
(0.00224388784311 0.000949917242726 -0.00117519424298)
(0.00228595703835 0.000856680552439 -0.0015548714163)
(0.00275437573694 0.000584508005214 -0.00086684726289)
(0.00278062421438 0.00114946879819 -0.00102890172805)
(0.00269853999595 0.00100832128787 -0.00136038430734)
(0.00275071743003 0.000758461204824 -0.000716019648036)
(0.00294547896421 0.00137871965043 -0.000845071954514)
(0.0027982681016 0.00117126269869 -0.00112167307995)
(0.00242969161718 0.000909585707536 -0.000574304084143)
(0.00275564564565 0.0015802787102 -0.000670093361392)
(0.00259370276436 0.00130964272387 -0.000889742149277)
(0.00185136581223 0.00102024532501 -0.000458822412294)
(0.00226175419597 0.00173872618924 -0.000518314444902)
(0.00212294642806 0.00141423547143 -0.000690085141064)
(0.00110237651964 0.00108027522189 -0.000387302369133)
(0.00154323414953 0.00183624935843 -0.000411907681951)
(0.00145461505828 0.00147613405782 -0.000550110418793)
(0.000280579334689 0.00109092949997 -0.000366208384167)
(0.000702583641588 0.00187210668144 -0.000361544503002)
(0.000676946758244 0.0014983615474 -0.000483631948494)
(-0.000519676666597 0.00105474694021 -0.000393855186319)
(-0.000161679520193 0.00185099904874 -0.000368441633259)
(-0.00012273096535 0.00148482364402 -0.000492061801439)
(-0.00121195302982 0.000974666324403 -0.000463210241285)
(-0.000955427991929 0.00177609442934 -0.000426908406482)
(-0.000860390145643 0.00143720568812 -0.000568517127751)
(-0.00172247354752 0.000855918171194 -0.000562795512035)
(-0.00159485082026 0.00165164030221 -0.000526812615203)
(-0.00146187761567 0.00135624602977 -0.000699960878383)
(-0.00199693997583 0.00071121631388 -0.000677365012277)
(-0.00201163537846 0.00148607111108 -0.000655333294307)
(-0.00186715114419 0.00124389829908 -0.000868361059187)
(-0.00200209013637 0.000558490833381 -0.000793770144473)
(-0.00216518093004 0.00129585128204 -0.000795440376622)
(-0.00204055697662 0.00111010278362 -0.00105212251911)
(-0.00172941089257 0.000427853503382 -0.000891972919827)
(-0.00202397339045 0.00109832451001 -0.000934400887469)
(-0.0019620618909 0.000965811557052 -0.00123127892191)
(-0.00121713332168 0.000355682721857 -0.000935894025755)
(-0.00159830342032 0.000937306733265 -0.00103910204965)
(-0.00164486216259 0.000839040820185 -0.00136848866281)
(-0.000567232288002 0.000356964784873 -0.000840719792397)
(-0.000967604878086 0.000843360151869 -0.00105885011031)
(-0.00114984960695 0.000750827502953 -0.00140957250024)
(-2.44809360004e-05 0.000441645278163 -0.00046054030951)
(-0.000171870885649 0.000818777306448 -0.000839030819511)
(-0.000515306984445 0.000706919603009 -0.00121794330614)
(0.000172565052736 0.000852507449387 -0.000168003268385)
(-0.000108295141212 0.000702768055548 -0.000588234968067)
(9.1957116051e-05 0.00120082379298 -0.000645336546102)
(-0.000193382231589 0.00146482508004 -0.000158828794858)
(0.00019714415404 0.00139844017692 -0.000716465497038)
(0.00094440544964 0.00127897654373 -0.00122171822235)
(0.00040755446954 0.0015836425796 -0.00108511958014)
(0.000842844516904 0.00148245320114 -0.00164481658245)
(0.00190905383261 0.00142614503984 -0.00132404095752)
(0.00158281377096 0.00172906566404 -0.00133447073404)
(0.0017628472798 0.00160623608361 -0.00186794569538)
(0.00263194389039 0.00164919309745 -0.00120363490441)
(0.00248142484002 0.00195612409441 -0.00122761690875)
(0.00244941839484 0.00179480024479 -0.00172908939665)
(0.00299050221388 0.00191464017288 -0.00100712641967)
(0.0030445342552 0.00224362095107 -0.00100336999727)
(0.00285972539504 0.00202513692466 -0.00145270335722)
(0.00296458733575 0.00216906767854 -0.00079914566787)
(0.00319183888963 0.0025417269256 -0.000750793490294)
(0.00293889158813 0.00225911758672 -0.00113708564253)
(0.00259631389215 0.00237539977552 -0.000614103722151)
(0.00295417818625 0.00279221700461 -0.000523855685032)
(0.00270179514991 0.00245586904263 -0.000843658434968)
(0.00195941324819 0.00251845201013 -0.000471399714559)
(0.00239840421965 0.00297977924461 -0.000341391146494)
(0.00219625907102 0.00260228610182 -0.000604146318241)
(0.00114756993198 0.00259053991181 -0.00038614981582)
(0.00161460410509 0.00309112399367 -0.000220794213529)
(0.00149446424351 0.00268922467393 -0.000443025525981)
(0.000263690928299 0.00259439206453 -0.000363777752094)
(0.000711407235709 0.00312651414849 -0.00016769089122)
(0.000685723770735 0.00271843280847 -0.000370522931327)
(-0.000593342524208 0.00253552556263 -0.000401494853422)
(-0.000210597805043 0.00309328368705 -0.000181257505789)
(-0.000142926265629 0.00269505835488 -0.000385245871761)
(-0.00133576069338 0.00241840549222 -0.0004905107804)
(-0.00105776077283 0.00299791995094 -0.000254561040479)
(-0.000907948679263 0.00262264171907 -0.000479402231422)
(-0.00188669840146 0.00224990393847 -0.000619350397475)
(-0.00174476928218 0.00284295304423 -0.000376119758964)
(-0.00153549040071 0.00250384496886 -0.000640370106958)
(-0.0021883086461 0.00204157830689 -0.000773408658653)
(-0.00220119173275 0.00263924998322 -0.000540405955769)
(-0.00196579130705 0.00234276047937 -0.000851563906162)
(-0.00219978495255 0.00180906873634 -0.000936071119618)
(-0.00237990514843 0.00239807499562 -0.000727655413903)
(-0.00215966832664 0.00214983178038 -0.00109074288428)
(-0.00190587810144 0.00158334876014 -0.00108153001729)
(-0.00224069421088 0.00213658831313 -0.000922338767976)
(-0.00209241364743 0.0019390427939 -0.0013321662772)
(-0.00133582996189 0.00140217739564 -0.0011620581342)
(-0.00178441673746 0.00189873552336 -0.00108688631665)
(-0.0017717527538 0.00174174144406 -0.00153147259454)
(-0.000592153474048 0.00128362948786 -0.00105716113742)
(-0.00108389535185 0.00171557344926 -0.00115468624296)
(-0.00125070478017 0.00158313310656 -0.00161588532071)
(3.4420747577e-05 0.00121193192431 -0.000546493778386)
(-0.000174148624183 0.00159384919238 -0.000926357503979)
(-0.00055588959096 0.00147367675751 -0.00140164133672)
(0.000230688633395 0.00147574005247 -0.000116223396516)
(-0.000112678895687 0.00138321860313 -0.000588808608413)
(0.000100714907742 0.00185427855081 -0.000598611828897)
(-0.000200913583284 0.00197061253861 -6.59417008705e-05)
(0.000229653238335 0.00195828073723 -0.000606495420889)
(0.00107136461659 0.0020463459774 -0.00119787209183)
(0.000505627756162 0.002205610419 -0.00103590561248)
(0.000955659838421 0.00209704324598 -0.00159261032774)
(0.00214082334925 0.00227525179998 -0.00123804668527)
(0.00180874920973 0.00241675766043 -0.00123702779913)
(0.00195578036412 0.00225191953293 -0.00175714363661)
(0.00291343431235 0.00256748021289 -0.00102735200162)
(0.00277714064736 0.00269430196173 -0.00103983472041)
(0.00267512995879 0.00247399549476 -0.00151078197108)
(0.00326695500949 0.00288608082394 -0.000747037067897)
(0.00335045361806 0.00301517243739 -0.000723915548082)
(0.00307913675096 0.00273757580797 -0.00112506555147)
(0.0031979242331 0.00317811865599 -0.000475503507456)
(0.00346182000851 0.00333080400918 -0.000398417190181)
(0.00312523629576 0.00300150496215 -0.00072003987586)
(0.0027659941719 0.0034080578159 -0.000251143109374)
(0.00316132948083 0.003589665441 -0.000125366825065)
(0.00284150545974 0.00322361568686 -0.000365512136288)
(0.00206073959465 0.00356162477921 -9.07856454629e-05)
(0.00253140708983 0.00377725555584 8.20281746916e-05)
(0.00228651239864 0.0033888842177 -9.22156969167e-05)
(0.00118283583512 0.00363422460493 -2.33528892826e-06)
(0.00167713684856 0.0038821730625 0.000209708808396)
(0.00153985527023 0.00348683311218 8.68605140634e-05)
(0.000240268974268 0.00363171521476 1.48293550857e-05)
(0.000712113107073 0.00391084389587 0.000259011868361)
(0.000692656868479 0.00351905382889 0.00015824271191)
(-0.000671014112493 0.00356165184102 -3.43236928454e-05)
(-0.000264408253479 0.00387179457506 0.000236025650624)
(-0.000170111350045 0.00349114875915 0.000132777547995)
(-0.001465816239 0.00342946591114 -0.000140170019043)
(-0.00116265476336 0.00377198749444 0.000148462162048)
(-0.00096842716731 0.00340815715919 2.07396387177e-05)
(-0.00206290077228 0.00324095770527 -0.000297175317258)
(-0.00189990994753 0.00361627987226 5.14610062505e-06)
(-0.00163121814797 0.00327346586784 -0.000176237577775)
(-0.00240327329691 0.00300572315571 -0.000494652711019)
(-0.00240346467243 0.00340868528193 -0.000191835538366)
(-0.00209738785265 0.00309309509391 -0.000429058402361)
(-0.00243575882422 0.00273733521101 -0.00071392306226)
(-0.00261796532012 0.00315997348638 -0.000424391422598)
(-0.00232229454517 0.00287729272617 -0.000729408869453)
(-0.00213398146418 0.00246468955202 -0.000927695067331)
(-0.00249377418265 0.00288338304629 -0.000680372385409)
(-0.00227463942983 0.00264062968076 -0.00104856812624)
(-0.00151668359421 0.00222403810578 -0.0010795144254)
(-0.00201926439886 0.00261823569586 -0.00091696384718)
(-0.00195284927164 0.00241522286399 -0.00133679399776)
(-0.00068694689315 0.00203446928738 -0.00102388260952)
(-0.00125878596131 0.00239196328925 -0.00105517055796)
(-0.00140168023538 0.00222737872647 -0.00150612218895)
(3.22799751808e-05 0.00186065873931 -0.00049608712211)
(-0.000247524682647 0.00221243982841 -0.000866125850917)
(-0.000641477604019 0.00208990406452 -0.00133781269891)
(0.000238864716797 0.0019881989571 -2.69808995258e-05)
(-0.000136384017671 0.00194730320518 -0.00048017565411)
(0.000177407279852 0.00230946111814 -0.000503235484455)
(-0.000157778687353 0.00225050420852 3.09949922807e-05)
(0.000286092265568 0.00233062873449 -0.00045729290278)
(0.00127033716522 0.00256166050338 -0.00107506131978)
(0.000664200664123 0.00254172383535 -0.000923324789265)
(0.00110876776258 0.00249078419279 -0.00142903699709)
(0.00242974357246 0.0028195620259 -0.00103881583426)
(0.00207593789916 0.0027708528951 -0.00106427451785)
(0.00218846880037 0.00264590725297 -0.00151349536195)
(0.00323551103612 0.00312378215497 -0.000736398266873)
(0.0030989737387 0.00304595110665 -0.000782605447718)
(0.00294098840167 0.00286274476773 -0.00115741039948)
(0.00356830236344 0.00344100328454 -0.000375295670366)
(0.00366990154394 0.00334831900628 -0.00038494593882)
(0.00333545321229 0.0031173480828 -0.000665931733346)
(0.00344407303377 0.00372292905309 -4.82805077899e-05)
(0.00373299796262 0.00363676870211 -1.3119333803e-06)
(0.00334197819943 0.0033712177257 -0.000181729227491)
(0.00293748349265 0.00393824609548 0.000207804459001)
(0.00336256087906 0.00386490239906 0.000306011335378)
(0.00300450267116 0.0035848067535 0.000231358676638)
(0.00215588201334 0.00407688278325 0.00038252262855)
(0.00265498939865 0.00402638252055 0.000528777787916)
(0.00239179662125 0.00374333261071 0.000532480522311)
(0.0012115306356 0.00413773614653 0.000471055965685)
(0.00173088677826 0.0041124532872 0.000656209288739)
(0.00159239822685 0.00383662117295 0.000714077014307)
(0.000210993053432 0.00412930016842 0.000480208163899)
(0.000708251553717 0.00413066219206 0.000697149716605)
(0.000699981263466 0.00386636689802 0.000780724921321)
(-0.000752325215034 0.00406021257919 0.000418811505517)
(-0.000317297233993 0.00409168434971 0.000664298738679)
(-0.000202608403376 0.00383857113831 0.000743433797513)
(-0.00159640522131 0.0039362251498 0.000293778281716)
(-0.00126148936927 0.00400309217846 0.000566221742953)
(-0.001039454151 0.00375888357469 0.000612980177437)
(-0.00224523973125 0.00376098850964 0.000110485879517)
(-0.00204671262 0.00386804859572 0.000406326980879)
(-0.00174199084217 0.00363131059266 0.000397070113279)
(-0.0026303379153 0.00354032187949 -0.000121574249946)
(-0.002598822689 0.00368924289426 0.000188069453074)
(-0.00224845703387 0.00346183565371 0.000104544385787)
(-0.00269312660514 0.00328402661008 -0.000390840745747)
(-0.00285458860444 0.00347332751577 -7.79773921222e-05)
(-0.00250959133094 0.00325904115752 -0.000250561893548)
(-0.00239549685756 0.00301610665275 -0.000669641165258)
(-0.00275485934771 0.00322686057744 -0.000383241066045)
(-0.00248639049005 0.00303625030664 -0.000641103938844)
(-0.00174483262128 0.00276714533448 -0.000892619979737)
(-0.00227382976315 0.00298220264023 -0.000681940936665)
(-0.00216631468795 0.00282224334966 -0.00101462763532)
(-0.000842748610519 0.002552826238 -0.00089741379936)
(-0.00146697368846 0.00276017556492 -0.000884410895186)
(-0.00158499255806 0.0026403223607 -0.0012702922499)
(-3.01802495249e-05 0.00232362949556 -0.000397019628332)
(-0.000372696660411 0.00256575352135 -0.000744766865562)
(-0.000760049443555 0.00250204542379 -0.00116587742203)
(0.000202143019089 0.00228656537553 6.97954609313e-05)
(-0.000179372184384 0.00233551988945 -0.000328543511855)
(0.0002941304323 0.00246889767714 -0.000389094312529)
(-9.14462219559e-05 0.00225502874256 0.000115244955075)
(0.000353233472967 0.00243457821852 -0.000298649741661)
(0.00149947397332 0.00273631355105 -0.000912537987345)
(0.000836509088985 0.00255502569384 -0.000790030557322)
(0.0012730315582 0.00259743875043 -0.00121863990663)
(0.0027309944834 0.00298024702201 -0.000808064131313)
(0.00233415472649 0.00276667698196 -0.000875399597161)
(0.00242582799487 0.00273370929038 -0.00122733901989)
(0.00355531895893 0.00325151507483 -0.000431153119665)
(0.00339737511681 0.00300204525504 -0.00052844634456)
(0.0032092025955 0.00291830269801 -0.000780412961084)
(0.00385949414461 0.00352305959153 -1.09622018343e-05)
(0.00395771572974 0.00325250561645 -7.32429882139e-05)
(0.00359354918144 0.0031342033931 -0.000208356009609)
(0.00367155011888 0.00375603816578 0.000352979909787)
(0.00396958955696 0.00347995644635 0.000347728430917)
(0.0035593574073 0.00334807312553 0.000344762198205)
(0.00309197880065 0.00392947015214 0.000626984664292)
(0.00353385082921 0.00365753606646 0.000674628239195)
(0.00316830926538 0.00352824955849 0.000786943653589)
(0.0022384642878 0.00403696977778 0.000802464448105)
(0.00275650588554 0.00377876152214 0.000899937541662)
(0.00249749817433 0.00366184327447 0.00110114151226)
(0.00123340010621 0.00407928781012 0.000882303039659)
(0.0017716756259 0.00383784769701 0.00101777919863)
(0.00164521095846 0.00373918867001 0.00127967564869)
(0.000183390953406 0.00406650739901 0.000881240291385)
(0.00070202030453 0.00384438122989 0.0010459916723)
(0.000708367431857 0.00376257305535 0.00133629571118)
(-0.00082347044029 0.00400802984977 0.000811708976115)
(-0.000361002554596 0.00381023591782 0.00100453738346)
(-0.000232503733912 0.00373844422417 0.00128831495672)
(-0.00171116271495 0.0039088542123 0.000678770442116)
(-0.0013403533418 0.00374274265918 0.000902424127439)
(-0.00110608752861 0.00367276109567 0.00114804628578)
(-0.00240630860066 0.00377097323653 0.000483910554436)
(-0.0021641253756 0.00364417726278 0.000738296101905)
(-0.00184709840061 0.00356956157001 0.00091902097646)
(-0.00283619082011 0.00359739430093 0.000231666310897)
(-0.00275806055288 0.00351414492272 0.00051185555417)
(-0.00239331864644 0.00343311924042 0.000604983264629)
(-0.00293496284495 0.003392008548 -7.03777124202e-05)
(-0.00305261811173 0.00335505145601 0.000228936791271)
(-0.00269066267519 0.00327045751353 0.000217050698378)
(-0.0026507197806 0.00317022451089 -0.000395540837451)
(-0.00298153419953 0.00316854198395 -0.000106539438407)
(-0.00269299610911 0.00309058164499 -0.000225921950516)
(-0.00198058834619 0.00295458846191 -0.000673731852114)
(-0.00250288752758 0.00297629153989 -0.000446355141178)
(-0.0023769607954 0.00291685521348 -0.000664217496574)
(-0.00102263075911 0.00275424927598 -0.000731763961388)
(-0.00166489900878 0.0027917127926 -0.000696500726065)
(-0.00176901766218 0.00276611865557 -0.000989491324697)
(-0.000123588955186 0.00251073388335 -0.000277951776299)
(-0.000510274102852 0.00261306678533 -0.00060297621231)
(-0.000887421898929 0.00264496457503 -0.000946350865322)
(0.000144310756935 0.00232592075789 0.000156780738411)
(-0.000231880030416 0.00247298595953 -0.000162941470425)
(0.000408394176782 0.00233365768043 -0.000285691289717)
(-2.19277190708e-05 0.00200572282331 0.000181905730969)
(0.000410733339147 0.00227167068615 -0.000159083710426)
(0.00170342828394 0.00257546080272 -0.000752892167138)
(0.000988390659914 0.00226833590903 -0.000660395065551)
(0.00141371996455 0.00241681544477 -0.00100833948633)
(0.00298796634299 0.00277608324977 -0.000595781810408)
(0.00254710229157 0.00243757154831 -0.00070268609275)
(0.00262813264513 0.0025222225117 -0.000955427606896)
(0.0038221267729 0.00298815990343 -0.000170536213109)
(0.00363730286124 0.00261248072502 -0.000313016238769)
(0.00343851021858 0.00266108593532 -0.000444590658712)
(0.00409413048803 0.00319322222812 0.000285447644538)
(0.00418283793012 0.00279153011186 0.000176252128949)
(0.00381422538108 0.00282408855352 0.000188977299134)
(0.00385265031678 0.00336438302584 0.000669376760325)
(0.00415078264605 0.00294942707509 0.000616635096109)
(0.00374561790747 0.00298564237122 0.000772015310213)
(0.00321110986796 0.00348824080358 0.000947581116565)
(0.00366166117828 0.0030684551802 0.000948682957911)
(0.00330917667221 0.00312218864624 0.00123062727795)
(0.00229882689768 0.00355976870314 0.00111525229219)
(0.00282799639102 0.00314533958899 0.0011664665083)
(0.00258840777938 0.00322304877608 0.00154571087619)
(0.00124624029171 0.00358236229894 0.00118146783127)
(0.00179660544602 0.00317632959951 0.00126390070697)
(0.00169058140511 0.00327939943549 0.00171411051219)
(0.000160526862235 0.00356730630022 0.00116928876437)
(0.000693433912701 0.00317277641912 0.0012764576898)
(0.000716589716709 0.00329515979538 0.00175732365437)
(-0.000875283189564 0.00352426627442 0.00109525253478)
(-0.000392952539846 0.00314625598539 0.00122775887581)
(-0.000254787763085 0.0032765088099 0.00169979476121)
(-0.00179306320817 0.00345788487127 0.000961949787228)
(-0.00139223385456 0.00310495991977 0.00113012655727)
(-0.00115663875811 0.00323032787344 0.00155556669715)
(-0.00252242886761 0.00336754667373 0.00076624110164)
(-0.00224040540129 0.00304926805776 0.000972523252288)
(-0.00192767557725 0.00315990684458 0.00132427788032)
(-0.00298842859851 0.00325256908534 0.000509126034544)
(-0.00286507034618 0.00297587770552 0.000749181889659)
(-0.00250610179308 0.00306718528716 0.00100426913245)
(-0.003118667394 0.00311301559002 0.000192775065284)
(-0.00318994816063 0.00288312472828 0.000465159156639)
(-0.00283313400663 0.00295634740256 0.000602167167209)
(-0.00285175596284 0.00295686566179 -0.000157353742135)
(-0.00314548436188 0.00276860549751 0.000117393404752)
(-0.00285805784104 0.00283256624772 0.000133026611954)
(-0.00217393837156 0.00279718975078 -0.00046912401513)
(-0.00267526106846 0.002644100445 -0.000242942005653)
(-0.00254672385301 0.002712048215 -0.000345624534816)
(-0.00117975544225 0.00263616838777 -0.000567712976986)
(-0.00182101597205 0.00251519772366 -0.000522582154652)
(-0.00191895705732 0.00260510730286 -0.000717665119811)
(-0.000216659680912 0.00241610918561 -0.0001682436976)
(-0.00062905278625 0.00237470090019 -0.000465701056779)
(-0.000993696072306 0.00251168906954 -0.000724726331101)
(8.51742734969e-05 0.00212512714876 0.000224971514305)
(-0.000276201596808 0.0023539673659 -1.58636336955e-05)
(0.000509709306616 0.00193694603788 -0.000192798044864)
(3.942004689e-05 0.00153866755965 0.000229783179319)
(0.000457746011679 0.00186821890558 -4.26500290271e-05)
(0.00186697463794 0.00212615822418 -0.000610188991162)
(0.00110325649196 0.00173268778837 -0.00055000556223)
(0.00152190641569 0.00198286172841 -0.000821612886343)
(0.0031847886303 0.00226873859018 -0.00041992052111)
(0.00270030930446 0.00184738370929 -0.000564574312758)
(0.00278206515255 0.00205411464456 -0.000727621563401)
(0.00402142934904 0.0024094970864 3.37721032894e-05)
(0.00380477519977 0.00195734037804 -0.000154187425792)
(0.00361337225937 0.00214369391321 -0.000181495444767)
(0.00426638652438 0.00253979057566 0.00050743958052)
(0.00433529137928 0.00206061978746 0.000354150527203)
(0.00398233926329 0.00224961735914 0.000485958461184)
(0.00398169568335 0.00264463191867 0.000895941293694)
(0.00427066712524 0.00214929582176 0.000798626508588)
(0.00388797218657 0.00235454650766 0.00108482775435)
(0.0032918042238 0.00271606420123 0.00116756834965)
(0.00374185627743 0.00221244512997 0.00112554262604)
(0.00341659838208 0.00244288620332 0.00154590738145)
(0.00233496536577 0.00275258265485 0.00131511492307)
(0.00286867400397 0.00224909959277 0.00132424522836)
(0.0026570261873 0.00250749371677 0.0018530847207)
(0.00125013886475 0.0027579851628 0.00135889056549)
(0.00180501844032 0.00225816797447 0.00139971900904)
(0.00172428259515 0.00254155850342 0.00200299371914)
(0.000142810132275 0.00274258155816 0.00133492780125)
(0.00068340688234 0.00224933759256 0.00139616890267)
(0.000722982078844 0.00254903065819 0.00203077259147)
(-0.000907197680668 0.00271656082298 0.0012626328983)
(-0.000411097176284 0.00223291782526 0.00133990990956)
(-0.000268463195637 0.00253754072435 0.00196335017949)
(-0.00183981468517 0.00268495121734 0.00114070002233)
(-0.001415553542 0.0022170561198 0.00124711659)
(-0.00118689555381 0.00251361498278 0.00182052399605)
(-0.00259008247789 0.00264600447627 0.000955464040307)
(-0.00227235385221 0.00220264125482 0.00110675518944)
(-0.00197633308312 0.00247994320222 0.00159689672183)
(-0.00308143421952 0.00259473801749 0.000705215011754)
(-0.00291509360059 0.00218384299367 0.000896244508325)
(-0.00257691539754 0.0024360086055 0.00128338764743)
(-0.00323682945084 0.00252712187966 0.000389777496108)
(-0.00326094932554 0.00215494938645 0.00062211198031)
(-0.00292545325136 0.00238200099759 0.000883571177207)
(-0.0029874082219 0.00244493170843 3.18051412333e-05)
(-0.00323803040416 0.00211220089097 0.000276558352435)
(-0.00296821039401 0.00231939018722 0.000406983905567)
(-0.00231085259725 0.00235188859974 -0.000296400145176)
(-0.00278018676253 0.00205818176744 -9.06838499203e-05)
(-0.00266252217832 0.00225615901598 -9.06359436853e-05)
(-0.00129935803758 0.00224404184437 -0.000420570234445)
(-0.00192300543546 0.0019894188803 -0.00038199450598)
(-0.00202293745351 0.00219665634604 -0.000485713832796)
(-0.000295852165804 0.00207280198809 -7.24858448743e-05)
(-0.000714632800162 0.00189812251094 -0.000349325370314)
(-0.00106986819187 0.00213521824072 -0.000526924718623)
(3.44355127533e-05 0.00171035293221 0.000273212673979)
(-0.000310710235109 0.00200594785082 0.000118923999738)
(0.000580570807592 0.00133430117254 -0.000127424338047)
(8.04977597002e-05 0.000917775839446 0.000254424918161)
(0.000488137926887 0.00127840955889 4.03245117627e-05)
(0.00197363805904 0.001453230781 -0.000504390883826)
(0.00117013563353 0.00102310445409 -0.000475857843962)
(0.00158882241098 0.00135260512864 -0.000683479985532)
(0.00331064608218 0.00153296659623 -0.000298841217439)
(0.00278531391332 0.00107698529885 -0.000475222085538)
(0.00287827839505 0.00139074411002 -0.000566605344966)
(0.00414158436479 0.0016044018873 0.000166190998121)
(0.00389389998303 0.00112008169765 -5.87736864039e-05)
(0.00372333853063 0.00143500776986 6.32509568039e-06)
(0.0043678082848 0.00166624151871 0.00064533745527)
(0.00441267827486 0.00115779072654 0.000455506603711)
(0.00408801130658 0.00148793232233 0.000676610308594)
(0.00405358826483 0.00171250096344 0.00102822784093)
(0.00432804406258 0.00118651353634 0.000895624383396)
(0.00397686735969 0.00154055749036 0.00127700786306)
(0.00333163721593 0.00174064788501 0.00128221950475)
(0.00377629366162 0.00120300421361 0.0012116962063)
(0.00348253705767 0.00158442393929 0.00173139770614)
(0.00234815196389 0.00174942771194 0.00140884931432)
(0.00288156660119 0.00120979952397 0.00139067686065)
(0.00269791248738 0.00161655771457 0.00202279094767)
(0.00124583467638 0.00174290229019 0.00143699734621)
(0.00180149032217 0.0012051740478 0.00145147821177)
(0.00174202190253 0.00163077085619 0.00215531639442)
(0.000132706243708 0.0017321769783 0.00140115101099)
(0.000676452611181 0.00119795568602 0.00143368928803)
(0.0007273908678 0.00163378273913 0.00216451476163)
(-0.000916845169547 0.00172584833948 0.00132439360127)
(-0.000412843005038 0.00119608913784 0.00137002331749)
(-0.000270035881061 0.00163230131549 0.00208638352137)
(-0.00184840856703 0.00172701645365 0.00121317175712)
(-0.00141030671833 0.00120507550301 0.00127798738835)
(-0.00119231922396 0.0016319107623 0.00194354629464)
(-0.00260513854867 0.0017328630389 0.00104753565746)
(-0.00226355425767 0.00122521596571 0.00115218266283)
(-0.00198717463508 0.00163335241892 0.00173415641241)
(-0.00311008222079 0.00173699691234 0.000813141476881)
(-0.00291026551273 0.00125202790204 0.000959996844549)
(-0.00259850519907 0.00163454329215 0.00143675893879)
(-0.00328284546608 0.00173345063315 0.000508892836637)
(-0.00326673790538 0.00127687599409 0.000700122501643)
(-0.00295992717032 0.00163243604958 0.00105083622039)
(-0.00304911353003 0.00171903639873 0.000154069361281)
(-0.0032585248884 0.00129668685303 0.000364693725757)
(-0.00301557152229 0.00162611030599 0.000581781642276)
(-0.00238265481604 0.00168984342468 -0.000176278210725)
(-0.00281433459829 0.00130447727143 4.38806457544e-07)
(-0.00271676915945 0.00161540651992 8.72458715416e-05)
(-0.00136907116823 0.00163856556088 -0.000310749641849)
(-0.00196528410867 0.00129429456145 -0.000290210472349)
(-0.00207445924118 0.00159924943652 -0.00031845826615)
(-0.000349423428951 0.0015306749049 -3.62685146082e-06)
(-0.000759314992843 0.00125690183226 -0.000270732065974)
(-0.00111012160906 0.00156929350267 -0.000378425039505)
(7.48905450968e-07 0.00114916784903 0.000299924227896)