/*--------------------------------*- C++ -*----------------------------------*\
| =========                 |                                                 |
| \\      /  F ield         | OpenFOAM: The Open Source CFD Toolbox           |
|  \\    /   O peration     | Version:  3.0.1                                 |
|   \\  /    A nd           | Web:      www.OpenFOAM.org                      |
|    \\/     M anipulation  |                                                 |
\*---------------------------------------------------------------------------*/
FoamFile
{
    version     2.0;
    format      ascii;
    class       volVectorField;
    location    "2.2";
    object      U_0;
}
// * * * * * * * * * * * * * * * * * * * * * * * * * * * * * * * * * * * * * //

dimensions      [0 1 -1 0 0 0 0];

internalField   nonuniform List<vector> 
7968
(
(0.000800953473991 0.000806599135281 -0.00150273514787)
(0.00243990129994 0.000399820401711 -0.00151035785806)
(0.00464124285639 0.000216717584341 -0.00134069117368)
(0.00636940629984 0.00025107642424 -0.00108417330528)
(0.00739959025222 0.00047931804589 -0.000847583684746)
(0.00748842926792 0.000820796711991 -0.00067177200388)
(0.00678178925896 0.00115601700263 -0.000574044025902)
(0.00533075475201 0.00147333113514 -0.000519959279269)
(0.00338063311587 0.00169829829867 -0.000506214063482)
(0.00115492251446 0.00181300110599 -0.0005074262314)
(-0.00115828425045 0.00181331226103 -0.000507519147968)
(-0.00338460695804 0.00169919069337 -0.000506573577268)
(-0.00533575087443 0.00147474014136 -0.000520659151302)
(-0.00678773337246 0.00115780593589 -0.000575223196709)
(-0.00749491804856 0.000822680614129 -0.000673386213643)
(-0.00740600831193 0.000481187767693 -0.000849531240213)
(-0.00637480539784 0.000252801267347 -0.00108623105724)
(-0.00464523289641 0.000218460176983 -0.00134287432318)
(-0.00244298993686 0.000401617932432 -0.00151365171824)
(-0.000800975964362 0.000808565708443 -0.00150690929918)
(0.000394650453229 0.0024503088882 -0.00150985468263)
(0.0021059924736 0.00211364315399 -0.00290338507896)
(0.00485842378979 0.00215716643506 -0.0033463206698)
(0.00699974183471 0.00264007666733 -0.00330505185335)
(0.00825564731888 0.00349375163914 -0.00313623037665)
(0.00841995701783 0.00452366560745 -0.00297317807134)
(0.00759585412346 0.00551349636641 -0.00286825011127)
(0.0059466309258 0.0063579717453 -0.00282545580131)
(0.00375192364677 0.00694289533434 -0.00283458902845)
(0.0012771370282 0.00723673105132 -0.00285539860665)
(-0.00128201680121 0.00723724410502 -0.00285540671694)
(-0.00375728430097 0.00694436199908 -0.00283467422112)
(-0.00595278009966 0.00636023650406 -0.00282569285042)
(-0.00760280905495 0.00551629261951 -0.00286874778936)
(-0.00842745749404 0.00452657614477 -0.0029740148053)
(-0.00826294608065 0.00349641200642 -0.0031378764008)
(-0.00700558283142 0.0026424766841 -0.00330736422796)
(-0.00486206626948 0.0021598851105 -0.00334905998909)
(-0.00210781585714 0.00211755477917 -0.00290681171199)
(-0.000394174215503 0.00245636004862 -0.0015133732374)
(0.000212430642091 0.00465566122167 -0.00133881339883)
(0.00215245169543 0.00486636127117 -0.00334547576218)
(0.00546226000603 0.00546425460377 -0.00400739666376)
(0.00804596578426 0.00661959296431 -0.00393359592585)
(0.00955863076904 0.0082265603535 -0.00362809453529)
(0.00977996321646 0.0100267446454 -0.00329852070456)
(0.00879859875021 0.0117257488936 -0.00304578568271)
(0.00685917769747 0.0131389005579 -0.00290754708947)
(0.00430729989707 0.014117140208 -0.00287535878965)
(0.00146186384676 0.0146090676927 -0.00288654554679)
(-0.00146626767103 0.0146095494552 -0.00288631969292)
(-0.00431215131702 0.0141185409602 -0.00287481753334)
(-0.00686479211209 0.0131411211678 -0.00290681662575)
(-0.00880520950938 0.0117284959685 -0.00304494131674)
(-0.00978745453673 0.0100296661369 -0.00329811130646)
(-0.00956620269995 0.00822941828495 -0.00362860891458)
(-0.00805230665045 0.00662252305687 -0.00393519216325)
(-0.0054663975487 0.00546798532226 -0.00400974884775)
(-0.00215440753962 0.00487202696719 -0.00334831902078)
(-0.00021241412634 0.0046647468196 -0.00134148913924)
(0.00024748910388 0.00638295444714 -0.00108034951024)
(0.00263736127946 0.00700414512091 -0.00330314666989)
(0.00662154913443 0.0080422784666 -0.00393319322587)
(0.00975719926244 0.00974778803962 -0.00362321604829)
(0.0115829573773 0.0119688610498 -0.00298131033326)
(0.0118294612953 0.0143903024965 -0.00229213383954)
(0.0105972522866 0.0166477241981 -0.00172510157805)
(0.00821371453217 0.0184978676424 -0.00136466609085)
(0.00512750747209 0.019769350296 -0.00121573356123)
(0.00173408213977 0.0204065934424 -0.00118407527478)
(-0.00173788753553 0.020406754276 -0.00118358462361)
(-0.00513164602403 0.0197698754488 -0.00121446002599)
(-0.00821854904167 0.018498765731 -0.00136281247317)
(-0.0106033241354 0.0166488185669 -0.00172286873807)
(-0.0118368099316 0.0143914767345 -0.00229012275906)
(-0.011590807653 0.0119703159011 -0.00298047823588)
(-0.00976416098134 0.00974983988759 -0.00362374364729)
(-0.00662646110432 0.00804577058152 -0.00393478146856)
(-0.00263991400682 0.00701043415612 -0.00330534892972)
(-0.000247994078709 0.00639370221974 -0.00108240388267)
(0.000476315234607 0.00740917067911 -0.000841700924872)
(0.00349153684766 0.00825470867315 -0.00313357574288)
(0.00822984087384 0.00954814443328 -0.00362813595158)
(0.0119807275474 0.0115648018135 -0.00298248106409)
(0.0141466907277 0.0141239074094 -0.00188445592799)
(0.0143898322967 0.0168783531092 -0.000694818856626)
(0.0128357042195 0.0194218528615 0.000301612395055)
(0.00989886583037 0.0214938270927 0.000966880221382)
(0.00615002242164 0.022918649657 0.00127789481323)
(0.00207439488402 0.0236348672449 0.00137183576343)
(-0.00207809955229 0.0236343074775 0.00137242736696)
(-0.00615397006953 0.0229172715343 0.00127966537699)
(-0.00990357665143 0.0214920999673 0.000969695702795)
(-0.0128417688089 0.0194197913294 0.000304936131053)
(-0.0143971483209 0.0168762878268 -0.000691709693539)
(-0.0141545538144 0.0141224938662 -0.00188239504729)
(-0.0119881130994 0.0115646934922 -0.00298181990441)
(-0.00823543911845 0.00955020598787 -0.00362874290841)
(-0.00349473749257 0.00826035800526 -0.00313485952192)
(-0.000477291404454 0.00742005930043 -0.000842937285525)
(0.000817254422797 0.00749273279767 -0.000664761293819)
(0.00452010860338 0.00841409475509 -0.00297046850024)
(0.0100282655037 0.00976444692268 -0.00330027859765)
(0.0144005350208 0.0118051212885 -0.00229708548779)
(0.0169012083663 0.0143591032936 -0.000700667659721)
(0.0171022239865 0.0170699884422 0.00100493311285)
(0.0151871100765 0.0195342872354 0.0024403827245)
(0.0116673721254 0.0215436242493 0.00340941270169)
(0.00722465505289 0.0229162754452 0.00388633288197)
(0.00243228708741 0.0236026332205 0.00404837968679)
(-0.00243746339449 0.0236015103414 0.00404834709366)
(-0.00722931324314 0.0229128901599 0.00388702879685)
(-0.0116722842429 0.0215385676672 0.00341191350417)
(-0.015193268089 0.0195284086658 0.00244372548003)
(-0.0171093385118 0.0170638058682 0.00100831250157)
(-0.0169088093891 0.0143537414105 -0.000697622803267)
(-0.0144078602654 0.0118015774782 -0.0022952963181)
(-0.0100340886743 0.00976378745535 -0.00329988193763)
(-0.00452355468865 0.00841760333163 -0.00297078070719)
(-0.000818413720756 0.0075018506513 -0.00066513326462)
(0.00115263722584 0.00678155387244 -0.000565907412426)
(0.00550822165808 0.00758811003762 -0.00286594828177)
(0.0117243464637 0.0087832024779 -0.00305018927068)
(0.0166546497775 0.0105743468592 -0.00173587218225)
(0.0194434988008 0.0128074335683 0.000287208102636)
(0.0195674107802 0.0151595435815 0.00243259401082)
(0.017324493753 0.0172999521852 0.00421997392986)
(0.0132607603408 0.0190645444009 0.00545164062274)
(0.00817718251419 0.0202665097982 0.00605422853503)
(0.00274670566742 0.0208657759112 0.00624376151596)
(-0.00275436829946 0.0208645208381 0.00624383263956)
(-0.00818437491555 0.0202623476675 0.00605430630322)
(-0.0132673720453 0.0190576463823 0.00545243185374)
(-0.0173315690964 0.0172908910209 0.00422251889039)
(-0.0195749025775 0.0151493806251 0.00243538542945)
(-0.0194507946465 0.012797622918 0.000290036260654)
(-0.0166614607785 0.0105666663404 -0.00173372483804)
(-0.0117297982864 0.008779048202 -0.00304920379919)
(-0.00551145362227 0.00758859459062 -0.00286551927179)
(-0.00115391139494 0.00678778013625 -0.000565576972416)
(0.00146967758758 0.00532630841129 -0.000510781651861)
(0.0063513871868 0.00593996650632 -0.0028232735375)
(0.0131351762234 0.00684929976358 -0.00291390812352)
(0.0185025359986 0.00819976485767 -0.00138030247533)
(0.02151671892 0.009881338318 0.000945987638729)
(0.0215840802746 0.0116520770264 0.00340021134771)
(0.0190950153181 0.0132520635946 0.00545866235156)
(0.0145970111085 0.0145886453115 0.00678759087735)
(0.00896978658308 0.0154705691908 0.0073749539348)
(0.00300077005634 0.0158926301849 0.00756261240278)
(-0.00301141504668 0.0158917733064 0.0075632178238)
(-0.00898028501201 0.0154666726083 0.00737583132152)
(-0.0146068974458 0.0145801494794 0.00678952754497)
(-0.019104832905 0.0132402163179 0.00546011772296)
(-0.0215930540664 0.0116385560863 0.00340167500889)
(-0.0215240664536 0.00986771206363 0.000947291486785)
(-0.0185083943839 0.00818832587368 -0.00137880904708)
(-0.0131396472421 0.00684171373272 -0.00291291433115)
(-0.00635398832146 0.00593708720303 -0.00282240853672)
(-0.00147080164778 0.00532887773945 -0.000509946835752)
(0.00169447593437 0.00337175925125 -0.000496104584835)
(0.00693561349752 0.00374772275728 -0.00283165738899)
(0.0141117163161 0.00430562358924 -0.00288135527583)
(0.0197712954852 0.005125807929 -0.00123230807522)
(0.0229401220014 0.00614556364275 0.00125391499579)
(0.022959564756 0.0072185540828 0.00387523156514)
(0.0203012892744 0.00817147642435 0.00606481161506)
(0.0154804016049 0.00896468612176 0.00738172039313)
(0.00946039958882 0.00945671429156 0.00797321784926)
(0.0031573287387 0.00969417856876 0.00813873879236)
(-0.00317009833205 0.00969202635577 0.00814088392868)
(-0.00947574467683 0.00945075974287 0.00797617882087)
(-0.0154952363975 0.00895414200135 0.00738244324324)
(-0.0203137900172 0.00815781744197 0.00606432213837)
(-0.022969947576 0.00720310906288 0.00387458490943)
(-0.0229474637409 0.00612996553804 0.00125302700871)
(-0.019775872303 0.0051122532843 -0.00123226227418)
(-0.0141146736205 0.00429572600698 -0.00288094332173)
(-0.00693717716493 0.00374209758348 -0.00283079087381)
(-0.00169520594379 0.00337079394134 -0.000494960384502)
(0.00180910102195 0.00114055741848 -0.00049658955766)
(0.00722906643331 0.0012745856308 -0.00285102398604)
(0.01460232372 0.00146752123075 -0.0028901569177)
(0.0204054898387 0.00174369772523 -0.00119751047182)
(0.0236514766786 0.00208323557367 0.00134875275018)
(0.0236409390049 0.00243782184115 0.00403360671961)
(0.0208984834755 0.0027477972734 0.00624811197281)
(0.0159044351955 0.00299971623144 0.00756595939048)
(0.00970023518112 0.00315724230433 0.00814127932724)
(0.00323536969917 0.00323509862308 0.00829808649454)
(-0.00325445790054 0.00323187538076 0.00829784311059)
(-0.00971920358218 0.00314853919216 0.00814112917693)
(-0.0159218924345 0.00298819145268 0.00756439416224)
(-0.0209130524557 0.0027341839351 0.00624606484725)
(-0.023652558814 0.0024226741426 0.00403038064817)
(-0.0236584926572 0.00206805715838 0.0013452555247)
(-0.0204085460977 0.00173032169082 -0.0011993795374)
(-0.0146035173963 0.00145709018917 -0.0028907512284)
(-0.00722942558582 0.00126746580337 -0.00285059660725)
(-0.00180931220251 0.00113689214496 -0.000495544935723)
(0.00180938475598 -0.00117894890264 -0.00049672206816)
(0.00722900742474 -0.00128446299872 -0.00285024790374)
(0.014601383051 -0.00145569018738 -0.00288832513968)
(0.0204029406453 -0.00171992418844 -0.00119479862776)
(0.0236471613641 -0.0020581441198 0.00135159060223)
(0.0236356313042 -0.00241939324926 0.00403592601485)
(0.0208933226507 -0.00274097663467 0.0062496572441)
(0.0159015754575 -0.00300483837496 0.00756741236821)
(0.00969786961711 -0.00316943967355 0.00814552781291)
(0.00323238966718 -0.00325508405646 0.00830217176721)
(-0.00325699888856 -0.00325646634044 0.00830132899493)
(-0.00972134722205 -0.00317516981628 0.00814187761057)
(-0.0159211447628 -0.00301321525187 0.00756276645686)
(-0.0209092217499 -0.0027514268277 0.00624519908479)
(-0.0236478843769 -0.00243129460505 0.00403018332229)
(-0.0236535702104 -0.00207018937562 0.00134550535067)
(-0.0204044080768 -0.00173080119398 -0.00119850962259)
(-0.0146008273887 -0.00146455567214 -0.00288990175509)
(-0.00722805934414 -0.00129129640294 -0.00285022603629)
(-0.00180899614479 -0.00118386931572 -0.000495874525458)
(0.00169496316289 -0.00341091543229 -0.00049667309071)
(0.00693510611151 -0.00375993152223 -0.00282935614313)
(0.0141086610639 -0.00429779699599 -0.00287602949327)
(0.0197633490154 -0.00510716678771 -0.00122438481378)
(0.0229262989492 -0.00612615642386 0.00126165734119)
(0.0229418306401 -0.00720607758453 0.00388035591595)
(0.0202831326749 -0.00817023817889 0.00606652826825)
(0.015467216019 -0.008975528247 0.00738087569007)
(0.00945055988228 -0.00947884732925 0.0079740959281)
(0.00314877388887 -0.00972374113957 0.00813860650384)
(-0.00317508737937 -0.00972444198333 0.0081385123406)
(-0.00947641198065 -0.00948052042435 0.00797084760021)
(-0.0154892959924 -0.00897848123312 0.00737594615339)
(-0.0203012931168 -0.00817518234801 0.00605994992566)
(-0.0229550384153 -0.00721238045107 0.00387268904925)
(-0.0229323721587 -0.00613266799707 0.00125344068386)
(-0.0197634365359 -0.00511331455508 -0.0012298943238)
(-0.014106464799 -0.00430318820255 -0.00287853033171)
(-0.0069329615784 -0.00376485740696 -0.00282976727699)
(-0.00169406913706 -0.00341571535661 -0.000496029372331)
(0.00146993938849 -0.00536625302077 -0.000511949907789)
(0.0063499219026 -0.00595555956604 -0.00282015821587)
(0.0131293460561 -0.00684761680651 -0.00290652607899)
(0.0184888851043 -0.00818888397981 -0.00136952583017)
(0.0214938188959 -0.00986961423111 0.000955621898687)
(0.0215554003551 -0.011645573886 0.00340466643142)
(0.0190670382634 -0.0132539172899 0.005456970629)
(0.0145735645041 -0.0145985528133 0.00678554279018)
(0.0089507082925 -0.0154892866849 0.00736980169678)
(0.0029879598115 -0.0159166139272 0.00755342113459)
(-0.00301502290474 -0.0159167807026 0.00755282108356)
(-0.00897657827884 -0.0154882759948 0.00736709100856)
(-0.0145962929566 -0.0145969752012 0.00678186888463)
(-0.0190863105951 -0.0132531726696 0.00545046577817)
(-0.0215690801511 -0.0116453340973 0.00339612765376)
(-0.0214995150115 -0.00986928023698 0.000946457155554)
(-0.0184881122651 -0.00818894756447 -0.00137586866778)
(-0.013126126451 -0.00684840876196 -0.00290940155964)
(-0.00634702638892 -0.00595760152817 -0.00282076383673)
(-0.00146871097588 -0.00536990819645 -0.000511527125239)
(0.00115227455924 -0.00682102643196 -0.000567938216685)
(0.00550536529635 -0.00760672289767 -0.00286280521016)
(0.011715418711 -0.0087876468899 -0.00304248457518)
(0.0166361939842 -0.0105712582906 -0.00172494911019)
(0.019413821949 -0.0128025256998 0.000296468319704)
(0.0195310860315 -0.0151571311743 0.00243514516769)
(0.0172897579106 -0.0173028840589 0.0042160381232)
(0.0132322900261 -0.0190737752189 0.00544515760626)
(0.0081539596222 -0.0202797780479 0.00604804420945)
(0.00273173512258 -0.0208808012382 0.00623493836703)
(-0.00275739625504 -0.0208799120753 0.0062341952769)
(-0.00817840580376 -0.0202766710255 0.00604587508637)
(-0.0132547500752 -0.019068802591 0.00544153443684)
(-0.0173088362877 -0.017297028473 0.00421034782814)
(-0.019544310681 -0.0151505083571 0.00242699521942)
(-0.0194190036644 -0.0127955260369 0.00028796176342)
(-0.0166350969564 -0.0105653651682 -0.00173061490927)
(-0.0117119624797 -0.00878395168794 -0.00304490858522)
(-0.00550226008402 -0.0076058301832 -0.00286310196634)
(-0.00115091394335 -0.00682317995302 -0.000567479223712)
(0.000816749206188 -0.00752966756639 -0.000667455443966)
(0.00451561755468 -0.00843390127684 -0.00296798583895)
(0.0100163166502 -0.00977287693146 -0.00329377584601)
(0.0143786792802 -0.0118072067951 -0.00228810046337)
(0.0168678468946 -0.014358262349 -0.000693100274624)
(0.017061372386 -0.0170686468924 0.00100577097569)
(0.0151471901497 -0.0195353376692 0.00243381435317)
(0.0116338887337 -0.0215488352054 0.003398764525)
(0.00719910894338 -0.0229241548633 0.00387253074456)
(0.00241688504616 -0.02361052083 0.00403129749987)
(-0.00244069370497 -0.0236089477499 0.00403041424044)
(-0.00722149200127 -0.0229195992926 0.00387055980336)
(-0.0116544109474 -0.0215416256908 0.0033962280964)
(-0.0151645307952 -0.0195260629617 0.00242944354483)
(-0.017073062154 -0.0170576434417 0.000999661382131)
(-0.0168723908927 -0.0143466727493 -0.000698968618468)
(-0.0143779499685 -0.011797391129 -0.00229157087381)
(-0.0100135214756 -0.00976634357082 -0.00329484663578)
(-0.0045130237897 -0.0084311969935 -0.00296777360252)
(-0.000815464748107 -0.00753081403445 -0.000667009264841)
(0.000474408938295 -0.00744097152255 -0.000845659211476)
(0.00348514469196 -0.00827294329053 -0.00313208498072)
(0.00821552804912 -0.00955761082062 -0.00362331953343)
(0.011957279444 -0.0115689951199 -0.00297563594868)
(0.0141129024573 -0.0141243314954 -0.00187841602401)
(0.0143486906485 -0.016875481617 -0.000694028942664)
(0.0127944550348 -0.0194172262566 0.000295055104529)
(0.0098636685665 -0.0214888514875 0.000954517002387)
(0.00612409610305 -0.0229126580943 0.001261454996)
(0.00205963483989 -0.0236269394722 0.00135321213105)
(-0.00208063284868 -0.0236251477194 0.00135294637377)
(-0.00614408575166 -0.022907556724 0.00126069131861)
(-0.00988190989438 -0.0214809817123 0.000953217862387)
(-0.0128095408267 -0.0194068421955 0.000292643011785)
(-0.0143586419799 -0.0168632616229 -0.000697192925102)
(-0.0141171187752 -0.0141118855998 -0.00188075177746)
(-0.011957487264 -0.0115586668791 -0.0029764397888)
(-0.00821393827454 -0.00955080762413 -0.00362299061991)
(-0.00348342210662 -0.00827009201131 -0.00313138348287)
(-0.000473332160527 -0.00744193050362 -0.000845232891352)
(0.00024512045735 -0.00640720700193 -0.00108401074684)
(0.00262950877503 -0.00701886621014 -0.00330207467754)
(0.00660606098515 -0.00805090498273 -0.00392967171029)
(0.00973413752324 -0.00975260259521 -0.00361830506321)
(0.0115520937583 -0.0119702020872 -0.00297639436464)
(0.0117929987616 -0.0143871681935 -0.00228969739324)
(0.0105605291331 -0.0166401920235 -0.00172715851923)
(0.00818227597632 -0.018486861892 -0.0013709140441)
(0.00510477255088 -0.0197550975439 -0.00122441725218)
(0.00172131262677 -0.0203896691876 -0.00119321545567)
(-0.00174016817718 -0.0203882527398 -0.00119332573469)
(-0.00512251852547 -0.0197509056732 -0.00122471082262)
(-0.0081980313285 -0.0184801965899 -0.0013714480519)
(-0.0105731633776 -0.0166313889147 -0.0017280574984)
(-0.0118012905786 -0.014377054523 -0.00229055500708)
(-0.0115559697296 -0.0119603460939 -0.0029764088679)
(-0.00973492021669 -0.00974472468605 -0.00361755667917)
(-0.00660522365344 -0.00804602727886 -0.0039285232597)
(-0.00262837417628 -0.007017353928 -0.00330113625683)
(-0.000244130589395 -0.00640859985625 -0.00108386923028)
(0.000209588597357 -0.00467217381467 -0.0013420765598)
(0.00214403716686 -0.00487679240664 -0.00334459815548)
(0.00544698950637 -0.00547120891722 -0.0040049145029)
(0.00802493100644 -0.00662441291953 -0.00393039022402)
(0.00953243540965 -0.00822919975316 -0.00362459885655)
(0.00975022348726 -0.0100260595791 -0.00329545644497)
(0.00876876116953 -0.0117213032454 -0.00304428234356)
(0.00683335158599 -0.013130956555 -0.00290770364178)
(0.00428836688996 -0.0141062145811 -0.00287631677031)
(0.00145097080064 -0.0145958197285 -0.00288756319349)
(-0.00146835543317 -0.0145947754553 -0.00288779966229)
(-0.00430437361934 -0.0141032024516 -0.00287678763237)
(-0.00684704437752 -0.0131262998176 -0.00290823097171)
(-0.00877919954712 -0.0117153956869 -0.00304466957118)
(-0.00975680326609 -0.0100196250307 -0.00329552415984)
(-0.00953534072084 -0.0082233124189 -0.00362398964199)
(-0.00802524408268 -0.00662012202892 -0.003929312013)
(-0.00544590772957 -0.00546914051666 -0.00400369930215)
(-0.00214271051298 -0.00487714945274 -0.00334384749248)
(-0.000208437898963 -0.00467405234407 -0.00134203109458)
(0.000391595406306 -0.00246019468721 -0.00151324888162)
(0.00209852003069 -0.00212076258923 -0.0029036670008)
(0.00484542559756 -0.00216308302439 -0.00334546220617)
(0.0069828177321 -0.0026452504273 -0.00330398096012)
(0.00823555697862 -0.00349811864178 -0.00313478038735)
(0.0083977211361 -0.00452629077955 -0.00297140452276)
(0.00757343800376 -0.00551391039355 -0.00286674622456)
(0.0059267805877 -0.00635614612795 -0.00282441802565)
(0.00373682696226 -0.00693914231704 -0.00283380120377)
(0.00126794539984 -0.00723149565312 -0.00285470716359)
(-0.00128428457954 -0.00723094926058 -0.00285507946638)
(-0.00375145825025 -0.00693767419011 -0.00283479743103)
(-0.00593854219762 -0.00635401045341 -0.00282572789859)
(-0.00758144348829 -0.00551138784815 -0.00286797998675)
(-0.00840184082484 -0.00452375059716 -0.00297223074586)
(-0.00823619343931 -0.00349608771452 -0.0031349608469)
(-0.00698118841109 -0.00264420890452 -0.00330354729937)
(-0.00484288462931 -0.00216317664174 -0.00334479973399)
(-0.0020963148615 -0.00212196181184 -0.00290326152962)
(-0.000390115290341 -0.00246124656693 -0.00151306907911)
(0.000798171839747 -0.000808979739426 -0.00150647128204)
(0.00243560796589 -0.000402118428785 -0.00151349090091)
(0.00463416673789 -0.000219480362832 -0.00134363798485)
(0.00636077256786 -0.000254151317402 -0.00108696233212)
(0.00738948041663 -0.000482591071836 -0.00085017306485)
(0.00747691479503 -0.000823676517776 -0.000673562423772)
(0.00676923385137 -0.00115831822937 -0.000575215599725)
(0.00531849032485 -0.00147472095041 -0.00052075903248)
(0.00337009184288 -0.00169873528877 -0.000506849328235)
(0.00114732874563 -0.00181265536029 -0.000508238072314)
(-0.00116149920497 -0.00181250874967 -0.000508835208894)
(-0.00338199534928 -0.001698322185 -0.00050867218621)
(-0.00532663330975 -0.0014742382198 -0.00052336774705)
(-0.00677273097275 -0.00115797753187 -0.000578044558677)
(-0.0074761532201 -0.000823747815107 -0.000676051311609)
(-0.00738522965718 -0.000483049978526 -0.000852144725964)
(-0.00635467628657 -0.000255194773657 -0.00108804343128)
(-0.00462819149761 -0.000221012843833 -0.00134375134863)
(-0.00243145254822 -0.000403967140859 -0.00151319752662)
(-0.000796125161449 -0.000810133230732 -0.0015051091195)
(0.00128635413327 0.00129230900337 -0.00493875088054)
(0.0033961181612 0.0015917443749 -0.00518071196097)
(0.00567210144378 0.00186561502459 -0.00504019963847)
(0.00740111391925 0.00227612382474 -0.00466808464818)
(0.00834251111999 0.00277989973392 -0.00427024584399)
(0.00831706349701 0.00331247633148 -0.00396842164215)
(0.00743915811395 0.00379733046579 -0.00379914998019)
(0.00580192070857 0.00421694981854 -0.00373823844955)
(0.0036573243619 0.00450991894714 -0.00376128315932)
(0.00124448807082 0.00465850373257 -0.00379857296798)
(-0.00125089448688 0.00465857535751 -0.0037986177514)
(-0.0036642300742 0.00451007577781 -0.00376155881914)
(-0.00580953370537 0.00421714152077 -0.00373900295139)
(-0.00744728981062 0.00379745743767 -0.00380075973667)
(-0.00832526780875 0.00331238543959 -0.00397080816731)
(-0.00834994686604 0.00277954203397 -0.00427360002392)
(-0.0074065772325 0.00227567937556 -0.00467211394994)
(-0.00567517437584 0.00186562038015 -0.00504471288487)
(-0.00339762820329 0.00159267472367 -0.00518670391924)
(-0.00128576353058 0.00129387350704 -0.00494533548875)
(0.00158753070156 0.00340541604239 -0.00517892770414)
(0.00385949815154 0.00386356364772 -0.00700539854103)
(0.00619106447612 0.00445148416486 -0.00750151636916)
(0.007963262144 0.00536834348468 -0.00733491146771)
(0.00889491101614 0.00650766777006 -0.00693177278852)
(0.00885396800569 0.00771645969149 -0.00651859552573)
(0.00788606622601 0.00884140325667 -0.00621544044071)
(0.00614078484403 0.00977695677712 -0.00606158847635)
(0.00386873213053 0.0104286086147 -0.00603698665209)
(0.00131818559908 0.0107589682431 -0.00605951849754)
(-0.00131729999595 0.0107589053214 -0.00605922297601)
(-0.00386841086475 0.0104283561309 -0.00603629701725)
(-0.00614135604947 0.00977647454727 -0.00606074954735)
(-0.00788770617996 0.00884060677117 -0.00621476568008)
(-0.00885655454442 0.00771519953717 -0.00651852139748)
(-0.00889778399121 0.00650592345952 -0.00693310243558)
(-0.00796547026429 0.00536652149625 -0.00733771683329)
(-0.00619204390437 0.00445053910967 -0.00750547218251)
(-0.00385942951461 0.0038646786123 -0.00701045164948)
(-0.00158668544965 0.00340965810944 -0.00518422211355)
(0.00186396199594 0.00568202371956 -0.00503568469802)
(0.00445189819208 0.00619223259435 -0.00750000706258)
(0.00707063471414 0.00706552808661 -0.00811677633662)
(0.009022863612 0.00841470362127 -0.00775241755347)
(0.0100200607532 0.0100864817019 -0.00698114034834)
(0.00993910808708 0.0118638689886 -0.0061370770711)
(0.00881712842119 0.0135220718627 -0.00543538642732)
(0.00684114003613 0.0148885313001 -0.00498762632885)
(0.00429780593047 0.0158380138212 -0.00479386431063)
(0.00146339814553 0.0163192600069 -0.00474670663644)
(-0.00145759343639 0.0163190031883 -0.00474595134361)
(-0.00429267244506 0.0158372104743 -0.0047919231229)
(-0.00683715310017 0.0148872299798 -0.00498476032833)
(-0.0088147591538 0.0135202011582 -0.00543199477736)
(-0.0099385141094 0.011861357283 -0.00613418733923)
(-0.0100206539898 0.010083490914 -0.00698001487352)
(-0.00902363337327 0.00841185230098 -0.0077534101149)
(-0.00707084090826 0.00706392478825 -0.00811940569279)
(-0.00445135280511 0.00619334970738 -0.00750362289883)
(-0.00186325817594 0.00568806640252 -0.00503931969397)
(0.00227647012192 0.00740705997486 -0.00466052687119)
(0.00537201261098 0.00795947244731 -0.00733231291724)
(0.00842421186797 0.00901189482442 -0.00775233915657)
(0.0106670167772 0.0106506438921 -0.00688667617553)
(0.0117771597648 0.0126836446622 -0.0054394281917)
(0.0116248335781 0.0148452579792 -0.00386934264037)
(0.0102597839528 0.0168542338328 -0.0025204944996)
(0.00791959756724 0.0184957970858 -0.00160383314624)
(0.00495359369244 0.0196287878567 -0.00114469315802)
(0.00168306350249 0.0202018283905 -0.000987923655942)
(-0.00167482204482 0.0202011534748 -0.000986834328968)
(-0.00494596319821 0.0196267874379 -0.00114172796418)
(-0.00791320439782 0.0184926806474 -0.00159903166212)
(-0.0102553745757 0.0168500461901 -0.0025145056916)
(-0.0116227136316 0.0148402327219 -0.00386358009772)
(-0.0117768292268 0.0126784174394 -0.00543564170354)
(-0.0106674625512 0.0106459883221 -0.00688546594302)
(-0.00842455838901 0.00900893521787 -0.00775329071019)
(-0.00537179881541 0.00795986648713 -0.00733451832465)
(-0.00227621601353 0.00741375794204 -0.00466295777619)
(0.00278141818669 0.00834256539429 -0.00426052091093)
(0.00651282892383 0.00888566003572 -0.00692950952572)
(0.0100979357207 0.0100031266829 -0.00698326255389)
(0.0127027368626 0.0117535292427 -0.00544297595714)
(0.0139548720004 0.013926864058 -0.00312403783044)
(0.0137067756941 0.0162314384272 -0.000630143415193)
(0.0120317917298 0.0183680779142 0.00152732860483)
(0.0092367986916 0.0201023278872 0.00300978523606)
(0.00575208416416 0.0212970046928 0.00378012951108)
(0.00194958988734 0.0219034546199 0.00406692583623)
(-0.00194141646701 0.0219021773688 0.00406807049115)
(-0.00574437896285 0.0212932990497 0.00378353040189)
(-0.00923018415894 0.0200966575659 0.00301556238576)
(-0.0120271353589 0.0183607495175 0.00153449305764)
(-0.0137043252678 0.0162230281457 -0.000623059580672)
(-0.0139542702754 0.0139185538732 -0.00311824605151)
(-0.0127033327207 0.0117463133008 -0.00543959778999)
(-0.0100988178321 0.00999811340573 -0.00698236215805)
(-0.00651324653818 0.0088845726744 -0.00693007400148)
(-0.00278173948455 0.0083487158094 -0.00426133230473)
(0.00331371702632 0.00831220579423 -0.00395814464147)
(0.00772096933554 0.00884102168739 -0.006518308414)
(0.0118742048985 0.00991853092382 -0.00614440380893)
(0.0148633812657 0.0115966526247 -0.00388193440974)
(0.0162600248655 0.0136728913356 -0.000642050642288)
(0.0159055918171 0.015869674623 0.00280283622771)
(0.0139028786982 0.0179056555411 0.00573911973704)
(0.0106318555164 0.0195631501341 0.00774459723502)
(0.00660509475745 0.020709704666 0.00881503147502)
(0.00223575699866 0.0212950073696 0.0092394453803)
(-0.00223014197393 0.0212931293813 0.00923976295001)
(-0.00659947424607 0.0207041564882 0.00881688031375)
(-0.010626784623 0.0195547273688 0.00774950051005)
(-0.0138993871577 0.0178950645563 0.00574596183362)
(-0.0159036915023 0.015857575726 0.00280998373822)
(-0.0162595473134 0.0136608207429 -0.000635402115601)
(-0.0148642221605 0.0115860653288 -0.00387695162712)
(-0.0118755582422 0.00991068133565 -0.00614189922597)
(-0.00772184642556 0.00883758782977 -0.00651728594612)
(-0.00331435758491 0.00831638066922 -0.00395717601823)
(0.00379843343142 0.00743198782471 -0.00378907679089)
(0.00884430234346 0.00787343952102 -0.00621823301368)
(0.0135295029757 0.00879850337047 -0.00545008907219)
(0.0168693375501 0.0102346095047 -0.00254617416483)
(0.0183953180791 0.0120019135403 0.00149832306479)
(0.0179419971442 0.0138725271302 0.00572376440637)
(0.015649767037 0.0156224568641 0.0093032161399)
(0.0119477990032 0.0170707742184 0.0117997645783)
(0.00741282129565 0.0180685690259 0.0131539689414)
(0.00250684256674 0.0185651597831 0.0137204770042)
(-0.0025055320698 0.018563049191 0.0137202370594)
(-0.00741107852375 0.0180622770496 0.0131532074903)
(-0.0119456814876 0.0170608256512 0.011801259847)
(-0.0156485515882 0.0156092319121 0.00930802964937)
(-0.0179416064128 0.0138570081281 0.0057291116294)
(-0.018395331332 0.0119859148388 0.00150375111564)
(-0.01687019395 0.010220295337 -0.00254139325013)
(-0.0135308606941 0.00878741904679 -0.00544710579151)
(-0.00884522380036 0.00786709856111 -0.00621621952857)
(-0.00379925541666 0.00743312847057 -0.00378665515486)
(0.00421773420959 0.00579551698992 -0.00372788208425)
(0.00977850689273 0.00613307983395 -0.00606645531873)